 Entering Gaussian System, Link 0=g09
 Input=WB97XDAnthranilicyang.gjf
 Output=WB97XDAnthranilicyang.log
 Initial command:
 /home/phzd/g09E/g09/l1.exe "/home/phzd/g09E/scratch/Gau-124849.inp" -scrdir="/home/phzd/g09E/scratch/"
 Default is to use a total of  18 processors:
                               18 via shared-memory
                                1 via Linda
 Entering Link 1 = /home/phzd/g09E/g09/l1.exe PID=    124851.
  
 Copyright (c) 1988,1990,1992,1993,1995,1998,2003,2009,2015,
            Gaussian, Inc.  All Rights Reserved.
  
 This is part of the Gaussian(R) 09 program.  It is based on
 the Gaussian(R) 03 system (copyright 2003, Gaussian, Inc.),
 the Gaussian(R) 98 system (copyright 1998, Gaussian, Inc.),
 the Gaussian(R) 94 system (copyright 1995, Gaussian, Inc.),
 the Gaussian 92(TM) system (copyright 1992, Gaussian, Inc.),
 the Gaussian 90(TM) system (copyright 1990, Gaussian, Inc.),
 the Gaussian 88(TM) system (copyright 1988, Gaussian, Inc.),
 the Gaussian 86(TM) system (copyright 1986, Carnegie Mellon
 University), and the Gaussian 82(TM) system (copyright 1983,
 Carnegie Mellon University). Gaussian is a federally registered
 trademark of Gaussian, Inc.
  
 This software contains proprietary and confidential information,
 including trade secrets, belonging to Gaussian, Inc.
  
 This software is provided under written license and may be
 used, copied, transmitted, or stored only in accord with that
 written license.
  
 The following legend is applicable only to US Government
 contracts under FAR:
  
                    RESTRICTED RIGHTS LEGEND
  
 Use, reproduction and disclosure by the US Government is
 subject to restrictions as set forth in subparagraphs (a)
 and (c) of the Commercial Computer Software - Restricted
 Rights clause in FAR 52.227-19.
  
 Gaussian, Inc.
 340 Quinnipiac St., Bldg. 40, Wallingford CT 06492
  
  
 ---------------------------------------------------------------
 Warning -- This program may not be used in any manner that
 competes with the business of Gaussian, Inc. or will provide
 assistance to any competitor of Gaussian, Inc.  The licensee
 of this program is prohibited from giving any competitor of
 Gaussian, Inc. access to this program.  By using this program,
 the user acknowledges that Gaussian, Inc. is engaged in the
 business of creating and licensing software in the field of
 computational chemistry and represents and warrants to the
 licensee that it is not a competitor of Gaussian, Inc. and that
 it will not use this program in any manner prohibited above.
 ---------------------------------------------------------------
  

 Cite this work as:
 Gaussian 09, Revision E.01,
 M. J. Frisch, G. W. Trucks, H. B. Schlegel, G. E. Scuseria, 
 M. A. Robb, J. R. Cheeseman, G. Scalmani, V. Barone, B. Mennucci, 
 G. A. Petersson, H. Nakatsuji, M. Caricato, X. Li, H. P. Hratchian, 
 A. F. Izmaylov, J. Bloino, G. Zheng, J. L. Sonnenberg, M. Hada, 
 M. Ehara, K. Toyota, R. Fukuda, J. Hasegawa, M. Ishida, T. Nakajima, 
 Y. Honda, O. Kitao, H. Nakai, T. Vreven, J. A. Montgomery, Jr., 
 J. E. Peralta, F. Ogliaro, M. Bearpark, J. J. Heyd, E. Brothers, 
 K. N. Kudin, V. N. Staroverov, T. Keith, R. Kobayashi, J. Normand, 
 K. Raghavachari, A. Rendell, J. C. Burant, S. S. Iyengar, J. Tomasi, 
 M. Cossi, N. Rega, J. M. Millam, M. Klene, J. E. Knox, J. B. Cross, 
 V. Bakken, C. Adamo, J. Jaramillo, R. Gomperts, R. E. Stratmann, 
 O. Yazyev, A. J. Austin, R. Cammi, C. Pomelli, J. W. Ochterski, 
 R. L. Martin, K. Morokuma, V. G. Zakrzewski, G. A. Voth, 
 P. Salvador, J. J. Dannenberg, S. Dapprich, A. D. Daniels, 
 O. Farkas, J. B. Foresman, J. V. Ortiz, J. Cioslowski, 
 and D. J. Fox, Gaussian, Inc., Wallingford CT, 2013.
 
 ******************************************
 Gaussian 09:  ES64L-G09RevE.01 30-Nov-2015
                22-Jun-2024 
 ******************************************
 %chk=WB97XDAnthranilicyang.chk
 -----------------------------
 # opt freq wb97xd/6-31+g(d,p)
 -----------------------------
 1/14=-1,18=20,19=15,26=3,38=1/1,3;
 2/9=110,12=2,17=6,18=5,40=1/2;
 3/5=1,6=6,7=111,11=2,16=1,25=1,30=1,71=1,74=-58/1,2,3;
 4//1;
 5/5=2,38=5/2;
 6/7=2,8=2,9=2,10=2,28=1/1;
 7//1,2,3,16;
 1/14=-1,18=20,19=15,26=3/3(2);
 2/9=110/2;
 99//99;
 2/9=110/2;
 3/5=1,6=6,7=111,11=2,16=1,25=1,30=1,71=1,74=-58/1,2,3;
 4/5=5,16=3,69=1/1;
 5/5=2,38=5/2;
 7//1,2,3,16;
 1/14=-1,18=20,19=15,26=3/3(-5);
 2/9=110/2;
 6/7=2,8=2,9=2,10=2,19=2,28=1/1;
 99/9=1/99;
 ----------
 [No Title]
 ----------
 Symbolic Z-matrix:
 Charge =  1 Multiplicity = 1
 C                    -1.93939  -1.47584  -0.0003 
 C                    -2.62312  -0.25842   0.00012 
 C                    -1.91407   0.94845   0.00037 
 C                    -0.5284    0.91123   0.00015 
 C                     0.18707  -0.3019   -0.00007 
 C                    -0.54476  -1.49913  -0.0003 
 C                     1.67336  -0.3022   0. 
 O                     2.22273  -1.5063    0.00051 
 N                     0.23835   2.18198  -0.00008 
 O                     2.34896   0.73349  -0.00035 
 H                    -2.4921   -2.40916  -0.00063 
 H                    -3.70788  -0.2395    0.00021 
 H                    -2.44514   1.8964    0.00077 
 H                    -0.01099  -2.44225  -0.00035 
 H                     3.19406  -1.4217    0.00047 
 H                     0.04136   2.75161   0.82897 
 H                     1.2724    1.88936   0.00009 
 H                     0.04211   2.75063  -0.83 
 

 GradGradGradGradGradGradGradGradGradGradGradGradGradGradGradGradGradGrad
 Berny optimization.
 Initialization pass.
                           ----------------------------
                           !    Initial Parameters    !
                           ! (Angstroms and Degrees)  !
 --------------------------                            --------------------------
 ! Name  Definition              Value          Derivative Info.                !
 --------------------------------------------------------------------------------
 ! R1    R(1,2)                  1.3963         estimate D2E/DX2                !
 ! R2    R(1,6)                  1.3948         estimate D2E/DX2                !
 ! R3    R(1,11)                 1.0847         estimate D2E/DX2                !
 ! R4    R(2,3)                  1.3997         estimate D2E/DX2                !
 ! R5    R(2,12)                 1.0849         estimate D2E/DX2                !
 ! R6    R(3,4)                  1.3862         estimate D2E/DX2                !
 ! R7    R(3,13)                 1.0866         estimate D2E/DX2                !
 ! R8    R(4,5)                  1.4084         estimate D2E/DX2                !
 ! R9    R(4,9)                  1.4842         estimate D2E/DX2                !
 ! R10   R(5,6)                  1.4032         estimate D2E/DX2                !
 ! R11   R(5,7)                  1.4863         estimate D2E/DX2                !
 ! R12   R(6,14)                 1.0837         estimate D2E/DX2                !
 ! R13   R(7,8)                  1.3235         estimate D2E/DX2                !
 ! R14   R(7,10)                 1.2366         estimate D2E/DX2                !
 ! R15   R(8,15)                 0.975          estimate D2E/DX2                !
 ! R16   R(9,16)                 1.025          estimate D2E/DX2                !
 ! R17   R(9,17)                 1.0747         estimate D2E/DX2                !
 ! R18   R(9,18)                 1.025          estimate D2E/DX2                !
 ! A1    A(2,1,6)              120.2761         estimate D2E/DX2                !
 ! A2    A(2,1,11)             120.0466         estimate D2E/DX2                !
 ! A3    A(6,1,11)             119.6774         estimate D2E/DX2                !
 ! A4    A(1,2,3)              120.2459         estimate D2E/DX2                !
 ! A5    A(1,2,12)             120.3186         estimate D2E/DX2                !
 ! A6    A(3,2,12)             119.4355         estimate D2E/DX2                !
 ! A7    A(2,3,4)              118.896          estimate D2E/DX2                !
 ! A8    A(2,3,13)             120.306          estimate D2E/DX2                !
 ! A9    A(4,3,13)             120.798          estimate D2E/DX2                !
 ! A10   A(3,4,5)              122.0696         estimate D2E/DX2                !
 ! A11   A(3,4,9)              119.5674         estimate D2E/DX2                !
 ! A12   A(5,4,9)              118.363          estimate D2E/DX2                !
 ! A13   A(4,5,6)              118.033          estimate D2E/DX2                !
 ! A14   A(4,5,7)              120.5423         estimate D2E/DX2                !
 ! A15   A(6,5,7)              121.4247         estimate D2E/DX2                !
 ! A16   A(1,6,5)              120.4795         estimate D2E/DX2                !
 ! A17   A(1,6,14)             120.4648         estimate D2E/DX2                !
 ! A18   A(5,6,14)             119.0557         estimate D2E/DX2                !
 ! A19   A(5,7,8)              114.5363         estimate D2E/DX2                !
 ! A20   A(5,7,10)             123.1059         estimate D2E/DX2                !
 ! A21   A(8,7,10)             122.3579         estimate D2E/DX2                !
 ! A22   A(7,8,15)             109.547          estimate D2E/DX2                !
 ! A23   A(4,9,16)             112.1121         estimate D2E/DX2                !
 ! A24   A(4,9,17)             105.3054         estimate D2E/DX2                !
 ! A25   A(4,9,18)             112.0996         estimate D2E/DX2                !
 ! A26   A(16,9,17)            109.6413         estimate D2E/DX2                !
 ! A27   A(16,9,18)            108.0461         estimate D2E/DX2                !
 ! A28   A(17,9,18)            109.5972         estimate D2E/DX2                !
 ! D1    D(6,1,2,3)              0.0083         estimate D2E/DX2                !
 ! D2    D(6,1,2,12)          -179.9943         estimate D2E/DX2                !
 ! D3    D(11,1,2,3)          -179.9921         estimate D2E/DX2                !
 ! D4    D(11,1,2,12)            0.0052         estimate D2E/DX2                !
 ! D5    D(2,1,6,5)             -0.0092         estimate D2E/DX2                !
 ! D6    D(2,1,6,14)           179.9827         estimate D2E/DX2                !
 ! D7    D(11,1,6,5)           179.9912         estimate D2E/DX2                !
 ! D8    D(11,1,6,14)           -0.0169         estimate D2E/DX2                !
 ! D9    D(1,2,3,4)              0.0022         estimate D2E/DX2                !
 ! D10   D(1,2,3,13)          -179.9955         estimate D2E/DX2                !
 ! D11   D(12,2,3,4)          -179.9951         estimate D2E/DX2                !
 ! D12   D(12,2,3,13)            0.0072         estimate D2E/DX2                !
 ! D13   D(2,3,4,5)             -0.0122         estimate D2E/DX2                !
 ! D14   D(2,3,4,9)            179.9784         estimate D2E/DX2                !
 ! D15   D(13,3,4,5)           179.9855         estimate D2E/DX2                !
 ! D16   D(13,3,4,9)            -0.0239         estimate D2E/DX2                !
 ! D17   D(3,4,5,6)              0.0112         estimate D2E/DX2                !
 ! D18   D(3,4,5,7)           -179.9863         estimate D2E/DX2                !
 ! D19   D(9,4,5,6)           -179.9795         estimate D2E/DX2                !
 ! D20   D(9,4,5,7)              0.023          estimate D2E/DX2                !
 ! D21   D(3,4,9,16)            60.8162         estimate D2E/DX2                !
 ! D22   D(3,4,9,17)           179.9828         estimate D2E/DX2                !
 ! D23   D(3,4,9,18)           -60.9105         estimate D2E/DX2                !
 ! D24   D(5,4,9,16)          -119.1928         estimate D2E/DX2                !
 ! D25   D(5,4,9,17)            -0.0262         estimate D2E/DX2                !
 ! D26   D(5,4,9,18)           119.0804         estimate D2E/DX2                !
 ! D27   D(4,5,6,1)             -0.0004         estimate D2E/DX2                !
 ! D28   D(4,5,6,14)          -179.9924         estimate D2E/DX2                !
 ! D29   D(7,5,6,1)            179.9971         estimate D2E/DX2                !
 ! D30   D(7,5,6,14)             0.0051         estimate D2E/DX2                !
 ! D31   D(4,5,7,8)            179.9649         estimate D2E/DX2                !
 ! D32   D(4,5,7,10)            -0.033          estimate D2E/DX2                !
 ! D33   D(6,5,7,8)             -0.0325         estimate D2E/DX2                !
 ! D34   D(6,5,7,10)           179.9696         estimate D2E/DX2                !
 ! D35   D(5,7,8,15)           179.9967         estimate D2E/DX2                !
 ! D36   D(10,7,8,15)           -0.0054         estimate D2E/DX2                !
 --------------------------------------------------------------------------------
 Trust Radius=3.00D-01 FncErr=1.00D-07 GrdErr=1.00D-06
 Number of steps in this run=     92 maximum allowed number of steps=    108.
 GradGradGradGradGradGradGradGradGradGradGradGradGradGradGradGradGradGrad

                          Input orientation:                          
 ---------------------------------------------------------------------
 Center     Atomic      Atomic             Coordinates (Angstroms)
 Number     Number       Type             X           Y           Z
 ---------------------------------------------------------------------
      1          6           0       -1.939390   -1.475838   -0.000302
      2          6           0       -2.623116   -0.258417    0.000119
      3          6           0       -1.914065    0.948453    0.000370
      4          6           0       -0.528397    0.911229    0.000146
      5          6           0        0.187071   -0.301902   -0.000072
      6          6           0       -0.544756   -1.499127   -0.000301
      7          6           0        1.673355   -0.302199   -0.000002
      8          8           0        2.222725   -1.506299    0.000512
      9          7           0        0.238354    2.181978   -0.000079
     10          8           0        2.348961    0.733494   -0.000352
     11          1           0       -2.492101   -2.409155   -0.000625
     12          1           0       -3.707882   -0.239496    0.000211
     13          1           0       -2.445144    1.896404    0.000772
     14          1           0       -0.010986   -2.442250   -0.000345
     15          1           0        3.194062   -1.421697    0.000471
     16          1           0        0.041360    2.751607    0.828966
     17          1           0        1.272402    1.889357    0.000085
     18          1           0        0.042110    2.750631   -0.830004
 ---------------------------------------------------------------------
                    Distance matrix (angstroms):
                    1          2          3          4          5
     1  C    0.000000
     2  C    1.396279   0.000000
     3  C    2.424423   1.399746   0.000000
     4  C    2.772903   2.399150   1.386168   0.000000
     5  C    2.428984   2.810523   2.445028   1.408397   0.000000
     6  C    1.394828   2.420525   2.804578   2.410412   1.403182
     7  C    3.798599   4.296694   3.799173   2.513985   1.486284
     8  O    4.162227   5.003937   4.810285   3.662392   2.365261
     9  N    4.257016   3.760790   2.480825   1.484153   2.484409
    10  O    4.824013   5.070053   4.268442   2.882842   2.397043
    11  H    1.084698   2.154725   3.407001   3.857601   3.408589
    12  H    2.157801   1.084931   2.151512   3.381315   3.895453
    13  H    3.409957   2.162158   1.086580   2.155108   3.429447
    14  H    2.157010   3.404754   3.888261   3.393160   2.149492
    15  H    5.133738   5.932350   5.631214   4.393091   3.208728
    16  H    4.741555   4.104469   2.785969   2.097274   3.167405
    17  H    4.651897   4.448370   3.322480   2.049295   2.445314
    18  H    4.741075   4.104498   2.786393   2.097147   3.166664
                    6          7          8          9         10
     6  C    0.000000
     7  C    2.520447   0.000000
     8  O    2.767490   1.323505   0.000000
     9  N    3.763482   2.868861   4.188212   0.000000
    10  O    3.654886   1.236569   2.243348   2.559837   0.000000
    11  H    2.149489   4.668007   4.800493   5.341712   5.771666
    12  H    3.404708   5.381602   6.064395   4.629937   6.134497
    13  H    3.891157   4.668607   5.776451   2.698651   4.933133
    14  H    1.083693   2.723384   2.421873   4.630945   3.956602
    15  H    3.739620   1.888339   0.975014   4.660760   2.314961
    16  H    4.370350   3.560383   4.855353   1.024988   3.175779
    17  H    3.844982   2.227932   3.526130   1.074655   1.579557
    18  H    4.369584   3.559443   4.854513   1.025014   3.174701
                   11         12         13         14         15
    11  H    0.000000
    12  H    2.487075   0.000000
    13  H    4.305815   2.481245   0.000000
    14  H    2.481336   4.303390   4.974841   0.000000
    15  H    5.771267   7.002459   6.542969   3.363608   0.000000
    16  H    5.808624   4.867273   2.756806   5.259909   5.295508
    17  H    5.713903   5.416202   3.717553   4.517732   3.828297
    18  H    5.808054   4.867500   2.757957   5.259008   5.294602
                   16         17         18
    16  H    0.000000
    17  H    1.716387   0.000000
    18  H    1.658970   1.715943   0.000000
 Stoichiometry    C7H8NO2(1+)
 Framework group  C1[X(C7H8NO2)]
 Deg. of freedom    48
 Full point group                 C1      NOp   1
 Largest Abelian subgroup         C1      NOp   1
 Largest concise Abelian subgroup C1      NOp   1
                         Standard orientation:                         
 ---------------------------------------------------------------------
 Center     Atomic      Atomic             Coordinates (Angstroms)
 Number     Number       Type             X           Y           Z
 ---------------------------------------------------------------------
      1          6           0        1.939390   -1.475838    0.000302
      2          6           0        2.623116   -0.258417   -0.000119
      3          6           0        1.914065    0.948453   -0.000370
      4          6           0        0.528397    0.911229   -0.000146
      5          6           0       -0.187071   -0.301902    0.000072
      6          6           0        0.544756   -1.499127    0.000301
      7          6           0       -1.673355   -0.302199    0.000002
      8          8           0       -2.222725   -1.506299   -0.000512
      9          7           0       -0.238354    2.181978    0.000079
     10          8           0       -2.348961    0.733494    0.000352
     11          1           0        2.492101   -2.409155    0.000625
     12          1           0        3.707882   -0.239497   -0.000211
     13          1           0        2.445144    1.896404   -0.000772
     14          1           0        0.010986   -2.442250    0.000345
     15          1           0       -3.194062   -1.421697   -0.000471
     16          1           0       -0.041360    2.751607   -0.828966
     17          1           0       -1.272402    1.889357   -0.000085
     18          1           0       -0.042110    2.750631    0.830004
 ---------------------------------------------------------------------
 Rotational constants (GHZ):      2.2343428      1.2032867      0.7854672
 Standard basis: 6-31+G(d,p) (6D, 7F)
 There are   230 symmetry adapted cartesian basis functions of A   symmetry.
 There are   230 symmetry adapted basis functions of A   symmetry.
   230 basis functions,   376 primitive gaussians,   230 cartesian basis functions
    36 alpha electrons       36 beta electrons
       nuclear repulsion energy       514.1645139868 Hartrees.
 NAtoms=   18 NActive=   18 NUniq=   18 SFac= 1.00D+00 NAtFMM=   60 NAOKFM=F Big=F
 Integral buffers will be    131072 words long.
 Raffenetti 2 integral format.
 Two-electron integral symmetry is turned on.
 Nuclear repulsion after empirical dispersion term =      514.1558809182 Hartrees.
 One-electron integrals computed using PRISM.
 NBasis=   230 RedAO= T EigKep=  2.28D-06  NBF=   230
 NBsUse=   230 1.00D-06 EigRej= -1.00D+00 NBFU=   230
 ExpMin= 4.38D-02 ExpMax= 5.48D+03 ExpMxC= 8.25D+02 IAcc=2 IRadAn=         4 AccDes= 0.00D+00
 Harris functional with IExCor= 4639 and IRadAn=       4 diagonalized for initial guess.
 HarFok:  IExCor= 4639 AccDes= 0.00D+00 IRadAn=         4 IDoV= 1 UseB2=F ITyADJ=14
 ICtDFT=  3500011 ScaDFX=  1.000000  1.000000  1.000000  1.000000
 FoFCou: FMM=F IPFlag=           0 FMFlag=      100000 FMFlg1=           0
         NFxFlg=           0 DoJE=T BraDBF=F KetDBF=T FulRan=T
         wScrn=  0.000000 ICntrl=     500 IOpCl=  0 I1Cent=   200000004 NGrid=           0
         NMat0=    1 NMatS0=      1 NMatT0=    0 NMatD0=    1 NMtDS0=    0 NMtDT0=    0
 Petite list used in FoFCou.
 Keep R1 ints in memory in canonical form, NReq=712071980.
 Requested convergence on RMS density matrix=1.00D-08 within 128 cycles.
 Requested convergence on MAX density matrix=1.00D-06.
 Requested convergence on             energy=1.00D-06.
 No special actions if energy rises.
 SCF Done:  E(RwB97XD) =  -476.420313488     A.U. after   16 cycles
            NFock= 16  Conv=0.69D-08     -V/T= 2.0094

 **********************************************************************

            Population analysis using the SCF density.

 **********************************************************************

 Orbital symmetries:
       Occupied  (A) (A) (A) (A) (A) (A) (A) (A) (A) (A) (A) (A)
                 (A) (A) (A) (A) (A) (A) (A) (A) (A) (A) (A) (A)
                 (A) (A) (A) (A) (A) (A) (A) (A) (A) (A) (A) (A)
       Virtual   (A) (A) (A) (A) (A) (A) (A) (A) (A) (A) (A) (A)
                 (A) (A) (A) (A) (A) (A) (A) (A) (A) (A) (A) (A)
                 (A) (A) (A) (A) (A) (A) (A) (A) (A) (A) (A) (A)
                 (A) (A) (A) (A) (A) (A) (A) (A) (A) (A) (A) (A)
                 (A) (A) (A) (A) (A) (A) (A) (A) (A) (A) (A) (A)
                 (A) (A) (A) (A) (A) (A) (A) (A) (A) (A) (A) (A)
                 (A) (A) (A) (A) (A) (A) (A) (A) (A) (A) (A) (A)
                 (A) (A) (A) (A) (A) (A) (A) (A) (A) (A) (A) (A)
                 (A) (A) (A) (A) (A) (A) (A) (A) (A) (A) (A) (A)
                 (A) (A) (A) (A) (A) (A) (A) (A) (A) (A) (A) (A)
                 (A) (A) (A) (A) (A) (A) (A) (A) (A) (A) (A) (A)
                 (A) (A) (A) (A) (A) (A) (A) (A) (A) (A) (A) (A)
                 (A) (A) (A) (A) (A) (A) (A) (A) (A) (A) (A) (A)
                 (A) (A) (A) (A) (A) (A) (A) (A) (A) (A) (A) (A)
                 (A) (A) (A) (A) (A) (A) (A) (A) (A) (A) (A) (A)
                 (A) (A) (A) (A) (A) (A) (A) (A) (A) (A) (A) (A)
                 (A) (A)
 The electronic state is 1-A.
 Alpha  occ. eigenvalues --  -19.49839 -19.45264 -14.74626 -10.62630 -10.54803
 Alpha  occ. eigenvalues --  -10.50615 -10.49015 -10.48368 -10.48197 -10.47310
 Alpha  occ. eigenvalues --   -1.39369  -1.30657  -1.27472  -1.13815  -1.04779
 Alpha  occ. eigenvalues --   -1.02399  -0.93550  -0.90217  -0.87163  -0.84522
 Alpha  occ. eigenvalues --   -0.82895  -0.80122  -0.77298  -0.75695  -0.72047
 Alpha  occ. eigenvalues --   -0.71453  -0.70095  -0.69371  -0.65457  -0.63233
 Alpha  occ. eigenvalues --   -0.62274  -0.60795  -0.58341  -0.55105  -0.50940
 Alpha  occ. eigenvalues --   -0.50824
 Alpha virt. eigenvalues --   -0.16085  -0.11996  -0.09669  -0.05122  -0.04737
 Alpha virt. eigenvalues --   -0.04727  -0.03107  -0.02750  -0.01841  -0.01133
 Alpha virt. eigenvalues --    0.00210   0.00318   0.01233   0.02030   0.02614
 Alpha virt. eigenvalues --    0.03432   0.05019   0.05037   0.06198   0.06352
 Alpha virt. eigenvalues --    0.07168   0.07606   0.07801   0.08802   0.09923
 Alpha virt. eigenvalues --    0.10562   0.10950   0.11509   0.11571   0.12369
 Alpha virt. eigenvalues --    0.12555   0.13007   0.13765   0.14565   0.14581
 Alpha virt. eigenvalues --    0.15380   0.16188   0.16866   0.17044   0.18431
 Alpha virt. eigenvalues --    0.19205   0.19771   0.20032   0.20934   0.21350
 Alpha virt. eigenvalues --    0.22519   0.23351   0.23451   0.24587   0.25808
 Alpha virt. eigenvalues --    0.27322   0.27750   0.29200   0.29992   0.31756
 Alpha virt. eigenvalues --    0.33911   0.35902   0.38174   0.41313   0.42053
 Alpha virt. eigenvalues --    0.50677   0.54141   0.57123   0.58247   0.60524
 Alpha virt. eigenvalues --    0.61819   0.64420   0.64905   0.66149   0.66285
 Alpha virt. eigenvalues --    0.66920   0.69745   0.70147   0.73617   0.73728
 Alpha virt. eigenvalues --    0.74777   0.76983   0.78868   0.80536   0.84390
 Alpha virt. eigenvalues --    0.86917   0.87306   0.88380   0.88963   0.92193
 Alpha virt. eigenvalues --    0.94447   0.97418   0.97757   1.02158   1.03886
 Alpha virt. eigenvalues --    1.04569   1.06465   1.08065   1.08608   1.10722
 Alpha virt. eigenvalues --    1.11963   1.13298   1.14849   1.16713   1.19007
 Alpha virt. eigenvalues --    1.19600   1.22780   1.23687   1.25243   1.26445
 Alpha virt. eigenvalues --    1.29386   1.29806   1.30236   1.32156   1.33137
 Alpha virt. eigenvalues --    1.33543   1.36675   1.42292   1.50321   1.50598
 Alpha virt. eigenvalues --    1.59122   1.60112   1.63067   1.64227   1.68226
 Alpha virt. eigenvalues --    1.70950   1.72565   1.75037   1.76156   1.78841
 Alpha virt. eigenvalues --    1.81882   1.84639   1.87292   1.89734   1.89775
 Alpha virt. eigenvalues --    1.92303   1.93307   1.94022   1.94466   1.98311
 Alpha virt. eigenvalues --    2.01339   2.02339   2.10643   2.10879   2.18125
 Alpha virt. eigenvalues --    2.20828   2.20873   2.25532   2.27969   2.30371
 Alpha virt. eigenvalues --    2.30435   2.32873   2.34137   2.34819   2.35691
 Alpha virt. eigenvalues --    2.41865   2.43535   2.44198   2.46376   2.49407
 Alpha virt. eigenvalues --    2.51025   2.53054   2.54589   2.55432   2.58606
 Alpha virt. eigenvalues --    2.61094   2.63682   2.66206   2.68263   2.71859
 Alpha virt. eigenvalues --    2.74425   2.79419   2.79630   2.84238   2.89641
 Alpha virt. eigenvalues --    2.98002   3.01965   3.08332   3.10764   3.17070
 Alpha virt. eigenvalues --    3.21303   3.22354   3.26239   3.26890   3.30726
 Alpha virt. eigenvalues --    3.41937   3.43086   3.49511   3.78887   4.14853
 Alpha virt. eigenvalues --    4.20247   4.23207   4.24796   4.29747   4.40467
 Alpha virt. eigenvalues --    4.42180   4.49061   4.74278   4.78430
          Condensed to atoms (all electrons):
               1          2          3          4          5          6
     1  C    7.640181  -0.242944   1.267816  -1.148589   0.539731  -2.360487
     2  C   -0.242944   6.315403  -1.390612   1.614750  -1.504104   1.490896
     3  C    1.267816  -1.390612  14.065130  -4.263198  -0.647665  -4.075308
     4  C   -1.148589   1.614750  -4.263198  16.807516  -4.259723  -1.051502
     5  C    0.539731  -1.504104  -0.647665  -4.259723  12.158965  -1.673786
     6  C   -2.360487   1.490896  -4.075308  -1.051502  -1.673786  14.982913
     7  C   -0.135344  -0.173425   0.531602  -0.588931   0.127493  -0.670663
     8  O    0.106303  -0.005179   0.024235   0.047177  -0.022881  -0.168287
     9  N   -0.042308   0.006052  -0.692165   0.227297   0.266812   0.194794
    10  O    0.044536  -0.010462   0.076844  -0.215647  -0.019043  -0.034256
    11  H    0.199330   0.056234  -0.007145  -0.000350   0.002743   0.078948
    12  H    0.083319   0.201042   0.090107  -0.059808   0.034402  -0.018683
    13  H   -0.003218   0.102291   0.232703   0.049925  -0.045032  -0.013548
    14  H    0.093264  -0.032530   0.040831   0.008320   0.147737   0.054325
    15  H   -0.006959  -0.000243   0.003278  -0.005311   0.013544   0.002372
    16  H    0.000557  -0.006253  -0.019628  -0.041150   0.044936   0.001335
    17  H    0.003450  -0.003762   0.186562   0.117212  -0.246337  -0.077223
    18  H    0.000538  -0.006242  -0.019765  -0.041062   0.044854   0.001420
               7          8          9         10         11         12
     1  C   -0.135344   0.106303  -0.042308   0.044536   0.199330   0.083319
     2  C   -0.173425  -0.005179   0.006052  -0.010462   0.056234   0.201042
     3  C    0.531602   0.024235  -0.692165   0.076844  -0.007145   0.090107
     4  C   -0.588931   0.047177   0.227297  -0.215647  -0.000350  -0.059808
     5  C    0.127493  -0.022881   0.266812  -0.019043   0.002743   0.034402
     6  C   -0.670663  -0.168287   0.194794  -0.034256   0.078948  -0.018683
     7  C    5.696478   0.150845  -0.106575   0.388299   0.003550   0.002365
     8  O    0.150845   8.229570  -0.009987  -0.131927   0.000069   0.000006
     9  N   -0.106575  -0.009987   7.036068  -0.037963   0.000127  -0.000253
    10  O    0.388299  -0.131927  -0.037963   8.330663   0.000021  -0.000001
    11  H    0.003550   0.000069   0.000127   0.000021   0.463338  -0.003307
    12  H    0.002365   0.000006  -0.000253  -0.000001  -0.003307   0.463446
    13  H    0.004497   0.000009   0.000403   0.000089  -0.000107  -0.003456
    14  H    0.011060   0.002667  -0.000888   0.000139  -0.003337  -0.000106
    15  H    0.021021   0.215811   0.000431   0.001369  -0.000000   0.000000
    16  H    0.004949   0.000134   0.309866   0.000986   0.000000  -0.000002
    17  H    0.025187   0.002622   0.190005   0.092453  -0.000000   0.000001
    18  H    0.004955   0.000134   0.309885   0.000971   0.000000  -0.000002
              13         14         15         16         17         18
     1  C   -0.003218   0.093264  -0.006959   0.000557   0.003450   0.000538
     2  C    0.102291  -0.032530  -0.000243  -0.006253  -0.003762  -0.006242
     3  C    0.232703   0.040831   0.003278  -0.019628   0.186562  -0.019765
     4  C    0.049925   0.008320  -0.005311  -0.041150   0.117212  -0.041062
     5  C   -0.045032   0.147737   0.013544   0.044936  -0.246337   0.044854
     6  C   -0.013548   0.054325   0.002372   0.001335  -0.077223   0.001420
     7  C    0.004497   0.011060   0.021021   0.004949   0.025187   0.004955
     8  O    0.000009   0.002667   0.215811   0.000134   0.002622   0.000134
     9  N    0.000403  -0.000888   0.000431   0.309866   0.190005   0.309885
    10  O    0.000089   0.000139   0.001369   0.000986   0.092453   0.000971
    11  H   -0.000107  -0.003337  -0.000000   0.000000  -0.000000   0.000000
    12  H   -0.003456  -0.000106   0.000000  -0.000002   0.000001  -0.000002
    13  H    0.479494   0.000009  -0.000000   0.000338   0.000051   0.000335
    14  H    0.000009   0.457111   0.000059   0.000002   0.000005   0.000002
    15  H   -0.000000   0.000059   0.326844  -0.000001  -0.000022  -0.000001
    16  H    0.000338   0.000002  -0.000001   0.316887  -0.008993  -0.021797
    17  H    0.000051   0.000005  -0.000022  -0.008993   0.274824  -0.009011
    18  H    0.000335   0.000002  -0.000001  -0.021797  -0.009011   0.316877
 Mulliken charges:
               1
     1  C   -0.039176
     2  C   -0.410912
     3  C    0.596381
     4  C   -1.196925
     5  C    1.037354
     6  C   -0.663260
     7  C    0.702635
     8  O   -0.441321
     9  N   -0.651601
    10  O   -0.487071
    11  H    0.209887
    12  H    0.210929
    13  H    0.195216
    14  H    0.221330
    15  H    0.427809
    16  H    0.417835
    17  H    0.452979
    18  H    0.417910
 Sum of Mulliken charges =   1.00000
 Mulliken charges with hydrogens summed into heavy atoms:
               1
     1  C    0.170710
     2  C   -0.199982
     3  C    0.791597
     4  C   -1.196925
     5  C    1.037354
     6  C   -0.441930
     7  C    0.702635
     8  O   -0.013511
     9  N    0.637123
    10  O   -0.487071
 Electronic spatial extent (au):  <R**2>=           1374.5066
 Charge=              1.0000 electrons
 Dipole moment (field-independent basis, Debye):
    X=              1.1644    Y=              4.2955    Z=              0.0005  Tot=              4.4505
 Quadrupole moment (field-independent basis, Debye-Ang):
   XX=            -35.7343   YY=            -28.0820   ZZ=            -56.4497
   XY=              3.6407   XZ=              0.0007   YZ=             -0.0013
 Traceless Quadrupole moment (field-independent basis, Debye-Ang):
   XX=              4.3544   YY=             12.0067   ZZ=            -16.3611
   XY=              3.6407   XZ=              0.0007   YZ=             -0.0013
 Octapole moment (field-independent basis, Debye-Ang**2):
  XXX=            -10.4284  YYY=             51.0983  ZZZ=              0.0043  XYY=             -0.2580
  XXY=            -26.1975  XXZ=             -0.0126  XZZ=            -11.2995  YZZ=              9.8363
  YYZ=              0.0047  XYZ=             -0.0081
 Hexadecapole moment (field-independent basis, Debye-Ang**3):
 XXXX=           -783.9966 YYYY=           -397.2551 ZZZZ=            -60.3736 XXXY=             85.6271
 XXXZ=              0.0241 YYYX=             -7.9956 YYYZ=             -0.0150 ZZZX=              0.0013
 ZZZY=              0.0176 XXYY=           -223.3088 XXZZ=           -197.9983 YYZZ=            -96.8880
 XXYZ=             -0.0099 YYXZ=             -0.0044 ZZXY=              3.2800
 N-N= 5.141558809182D+02 E-N=-2.125306228601D+03  KE= 4.719776541222D+02
 Calling FoFJK, ICntrl=      2127 FMM=F ISym2X=0 I1Cent= 0 IOpClX= 0 NMat=1 NMatS=1 NMatT=0.
 ***** Axes restored to original set *****
 -------------------------------------------------------------------
 Center     Atomic                   Forces (Hartrees/Bohr)
 Number     Number              X              Y              Z
 -------------------------------------------------------------------
      1        6           0.001070022    0.003731377   -0.000002111
      2        6           0.004375443   -0.000287945   -0.000002185
      3        6           0.001578526   -0.002804694    0.000001153
      4        6           0.001212819   -0.000227431   -0.000004094
      5        6          -0.004944296    0.000101076   -0.000002173
      6        6          -0.000145346    0.004296558    0.000016334
      7        6           0.008775009    0.000763021   -0.000002038
      8        8           0.000309850    0.008045697   -0.000008861
      9        7          -0.000529613   -0.002265468   -0.000044671
     10        8          -0.005860901   -0.008833810    0.000008627
     11        1           0.000355294    0.000432805    0.000005259
     12        1           0.000498567    0.000001978    0.000001524
     13        1           0.000337443   -0.000305947   -0.000007730
     14        1          -0.000033097   -0.000072074   -0.000007858
     15        1          -0.004751644    0.000012103    0.000000935
     16        1           0.000203385   -0.001750243   -0.001317893
     17        1          -0.002628493    0.000907468    0.000024097
     18        1           0.000177031   -0.001744471    0.001341684
 -------------------------------------------------------------------
 Cartesian Forces:  Max     0.008833810 RMS     0.002687872

 GradGradGradGradGradGradGradGradGradGradGradGradGradGradGradGradGradGrad
 Berny optimization.
 FormGI is forming the generalized inverse of G from B-inverse, IUseBI=4.
 Internal  Forces:  Max     0.010595298 RMS     0.002237681
 Search for a local minimum.
 Step number   1 out of a maximum of   92
 All quantities printed in internal units (Hartrees-Bohrs-Radians)
 Mixed Optimization -- RFO/linear search
 Second derivative matrix not updated -- first step.
 ITU=  0
     Eigenvalues ---    0.00579   0.00947   0.01524   0.01526   0.01687
     Eigenvalues ---    0.02028   0.02099   0.02114   0.02128   0.02148
     Eigenvalues ---    0.02162   0.02199   0.02704   0.06966   0.07701
     Eigenvalues ---    0.16000   0.16000   0.16000   0.16000   0.16000
     Eigenvalues ---    0.16000   0.16000   0.16000   0.22000   0.22493
     Eigenvalues ---    0.24483   0.25000   0.25000   0.25000   0.25000
     Eigenvalues ---    0.33860   0.34098   0.35211   0.35405   0.35433
     Eigenvalues ---    0.35552   0.36648   0.41342   0.42050   0.43548
     Eigenvalues ---    0.43552   0.45139   0.45398   0.46203   0.47508
     Eigenvalues ---    0.52365   0.61066   0.88403
 RFO step:  Lambda=-7.72704611D-04 EMin= 5.78597264D-03
 Linear search not attempted -- first point.
 Iteration  1 RMS(Cart)=  0.00941283 RMS(Int)=  0.00000728
 Iteration  2 RMS(Cart)=  0.00001163 RMS(Int)=  0.00000207
 Iteration  3 RMS(Cart)=  0.00000000 RMS(Int)=  0.00000207
 Variable       Old X    -DE/DX   Delta X   Delta X   Delta X     New X
                                 (Linear)    (Quad)   (Total)
    R1        2.63859  -0.00454   0.00000  -0.00972  -0.00972   2.62886
    R2        2.63584  -0.00372   0.00000  -0.00796  -0.00796   2.62788
    R3        2.04978  -0.00055   0.00000  -0.00155  -0.00155   2.04823
    R4        2.64514  -0.00443   0.00000  -0.00964  -0.00964   2.63550
    R5        2.05022  -0.00050   0.00000  -0.00141  -0.00141   2.04881
    R6        2.61948  -0.00448   0.00000  -0.00936  -0.00936   2.61012
    R7        2.05334  -0.00043   0.00000  -0.00123  -0.00123   2.05211
    R8        2.66148  -0.00541   0.00000  -0.01230  -0.01230   2.64919
    R9        2.80464  -0.00560   0.00000  -0.01638  -0.01638   2.78827
   R10        2.65163  -0.00566   0.00000  -0.01257  -0.01257   2.63906
   R11        2.80867  -0.00152   0.00000  -0.00447  -0.00447   2.80419
   R12        2.04788   0.00005   0.00000   0.00014   0.00014   2.04802
   R13        2.50106  -0.00919   0.00000  -0.01503  -0.01503   2.48604
   R14        2.33678  -0.01060   0.00000  -0.01197  -0.01197   2.32480
   R15        1.84251  -0.00473   0.00000  -0.00901  -0.00901   1.83350
   R16        1.93695  -0.00208   0.00000  -0.00476  -0.00476   1.93219
   R17        2.03080  -0.00278   0.00000  -0.00758  -0.00758   2.02323
   R18        1.93700  -0.00209   0.00000  -0.00478  -0.00478   1.93221
    A1        2.09921   0.00002   0.00000   0.00041   0.00041   2.09962
    A2        2.09521   0.00009   0.00000   0.00040   0.00040   2.09561
    A3        2.08876  -0.00011   0.00000  -0.00081  -0.00081   2.08795
    A4        2.09869   0.00008   0.00000   0.00074   0.00074   2.09942
    A5        2.09996  -0.00004   0.00000  -0.00037  -0.00037   2.09959
    A6        2.08454  -0.00004   0.00000  -0.00037  -0.00037   2.08417
    A7        2.07513  -0.00052   0.00000  -0.00226  -0.00226   2.07287
    A8        2.09974   0.00040   0.00000   0.00200   0.00200   2.10174
    A9        2.10832   0.00012   0.00000   0.00026   0.00026   2.10858
   A10        2.13052   0.00034   0.00000   0.00119   0.00119   2.13171
   A11        2.08684  -0.00064   0.00000  -0.00248  -0.00249   2.08436
   A12        2.06582   0.00030   0.00000   0.00130   0.00130   2.06712
   A13        2.06006   0.00055   0.00000   0.00199   0.00199   2.06206
   A14        2.10386   0.00005   0.00000   0.00029   0.00029   2.10415
   A15        2.11926  -0.00060   0.00000  -0.00228  -0.00228   2.11698
   A16        2.10276  -0.00047   0.00000  -0.00207  -0.00207   2.10070
   A17        2.10251   0.00017   0.00000   0.00067   0.00067   2.10318
   A18        2.07791   0.00029   0.00000   0.00140   0.00140   2.07931
   A19        1.99903  -0.00053   0.00000  -0.00212  -0.00212   1.99691
   A20        2.14860   0.00016   0.00000   0.00065   0.00065   2.14925
   A21        2.13555   0.00037   0.00000   0.00147   0.00147   2.13702
   A22        1.91196  -0.00080   0.00000  -0.00498  -0.00498   1.90698
   A23        1.95672  -0.00077   0.00000  -0.00489  -0.00489   1.95183
   A24        1.83793   0.00046   0.00000   0.00293   0.00294   1.84086
   A25        1.95651  -0.00077   0.00000  -0.00479  -0.00480   1.95171
   A26        1.91360   0.00011   0.00000   0.00070   0.00070   1.91431
   A27        1.88576   0.00083   0.00000   0.00501   0.00500   1.89076
   A28        1.91283   0.00014   0.00000   0.00107   0.00107   1.91390
    D1        0.00015  -0.00000   0.00000  -0.00006  -0.00006   0.00008
    D2       -3.14149  -0.00000   0.00000  -0.00002  -0.00002  -3.14152
    D3       -3.14145  -0.00000   0.00000  -0.00007  -0.00007  -3.14153
    D4        0.00009  -0.00000   0.00000  -0.00004  -0.00004   0.00005
    D5       -0.00016   0.00000   0.00000   0.00008   0.00008  -0.00008
    D6        3.14129   0.00000   0.00000   0.00019   0.00019   3.14148
    D7        3.14144   0.00000   0.00000   0.00009   0.00009   3.14153
    D8       -0.00029   0.00000   0.00000   0.00020   0.00020  -0.00009
    D9        0.00004  -0.00000   0.00000  -0.00005  -0.00005  -0.00001
   D10       -3.14151  -0.00000   0.00000  -0.00007  -0.00007  -3.14159
   D11       -3.14151  -0.00000   0.00000  -0.00008  -0.00008  -3.14159
   D12        0.00013  -0.00000   0.00000  -0.00011  -0.00011   0.00002
   D13       -0.00021   0.00000   0.00000   0.00014   0.00014  -0.00007
   D14        3.14122   0.00000   0.00000   0.00021   0.00021   3.14143
   D15        3.14134   0.00000   0.00000   0.00017   0.00017   3.14151
   D16       -0.00042   0.00001   0.00000   0.00024   0.00024  -0.00018
   D17        0.00020  -0.00000   0.00000  -0.00012  -0.00012   0.00007
   D18       -3.14135  -0.00000   0.00000  -0.00007  -0.00007  -3.14142
   D19       -3.14123  -0.00000   0.00000  -0.00019  -0.00019  -3.14142
   D20        0.00040  -0.00000   0.00000  -0.00014  -0.00014   0.00027
   D21        1.06144  -0.00001   0.00000  -0.00001  -0.00001   1.06143
   D22        3.14129  -0.00001   0.00000   0.00001   0.00001   3.14130
   D23       -1.06309   0.00003   0.00000   0.00052   0.00051  -1.06258
   D24       -2.08031  -0.00001   0.00000   0.00005   0.00006  -2.08025
   D25       -0.00046  -0.00001   0.00000   0.00007   0.00007  -0.00038
   D26        2.07835   0.00003   0.00000   0.00058   0.00058   2.07892
   D27       -0.00001   0.00000   0.00000   0.00001   0.00001   0.00000
   D28       -3.14146  -0.00000   0.00000  -0.00010  -0.00010  -3.14156
   D29        3.14154  -0.00000   0.00000  -0.00005  -0.00005   3.14150
   D30        0.00009  -0.00000   0.00000  -0.00015  -0.00015  -0.00006
   D31        3.14098   0.00000   0.00000   0.00047   0.00047   3.14145
   D32       -0.00058   0.00001   0.00000   0.00052   0.00052  -0.00006
   D33       -0.00057   0.00001   0.00000   0.00053   0.00053  -0.00004
   D34        3.14106   0.00001   0.00000   0.00058   0.00058  -3.14155
   D35        3.14154   0.00000   0.00000   0.00005   0.00005   3.14159
   D36       -0.00009   0.00000   0.00000   0.00000   0.00000  -0.00009
         Item               Value     Threshold  Converged?
 Maximum Force            0.010595     0.000450     NO 
 RMS     Force            0.002238     0.000300     NO 
 Maximum Displacement     0.030413     0.001800     NO 
 RMS     Displacement     0.009412     0.001200     NO 
 Predicted change in Energy=-3.869899D-04
 GradGradGradGradGradGradGradGradGradGradGradGradGradGradGradGradGradGrad

                          Input orientation:                          
 ---------------------------------------------------------------------
 Center     Atomic      Atomic             Coordinates (Angstroms)
 Number     Number       Type             X           Y           Z
 ---------------------------------------------------------------------
      1          6           0       -1.931941   -1.468091   -0.000150
      2          6           0       -2.612808   -0.254966    0.000059
      3          6           0       -1.906890    0.947828    0.000151
      4          6           0       -0.526240    0.908246    0.000042
      5          6           0        0.185181   -0.299716   -0.000073
      6          6           0       -0.541534   -1.492268   -0.000167
      7          6           0        1.669097   -0.301346    0.000033
      8          8           0        2.211550   -1.499856    0.000078
      9          7           0        0.235172    2.172094   -0.000076
     10          8           0        2.342834    0.727998    0.000164
     11          1           0       -2.484119   -2.400768   -0.000281
     12          1           0       -3.696830   -0.236151    0.000142
     13          1           0       -2.436183    1.896031    0.000320
     14          1           0       -0.007747   -2.435466   -0.000222
     15          1           0        3.177968   -1.413775    0.000142
     16          1           0        0.035024    2.736665    0.828565
     17          1           0        1.266409    1.884294    0.000158
     18          1           0        0.035619    2.736019   -0.829317
 ---------------------------------------------------------------------
                    Distance matrix (angstroms):
                    1          2          3          4          5
     1  C    0.000000
     2  C    1.391134   0.000000
     3  C    2.416049   1.394644   0.000000
     4  C    2.760973   2.388896   1.381217   0.000000
     5  C    2.418120   2.798347   2.435801   1.401889   0.000000
     6  C    1.390617   2.412694   2.796116   2.400563   1.396530
     7  C    3.785335   4.282156   3.787891   2.506515   1.483916
     8  O    4.143612   4.982387   4.790898   3.646156   2.355102
     9  N    4.236428   3.741872   2.467237   1.475486   2.472316
    10  O    4.805883   5.052188   4.255406   2.874731   2.389908
    11  H    1.083876   2.149658   3.397983   3.844849   3.396997
    12  H    2.152327   1.084186   2.146087   3.370799   3.882532
    13  H    3.401702   2.158236   1.085928   2.150255   3.419481
    14  H    2.153680   3.397194   3.879874   3.383673   2.144446
    15  H    5.110198   5.905584   5.606510   4.371835   3.193415
    16  H    4.715474   4.080110   2.767172   2.084367   3.151000
    17  H    4.633349   4.429984   3.308595   2.041142   2.436996
    18  H    4.715225   4.080198   2.767487   2.084292   3.150508
                    6          7          8          9         10
     6  C    0.000000
     7  C    2.511012   0.000000
     8  O    2.753095   1.315554   0.000000
     9  N    3.745774   2.859029   4.170047   0.000000
    10  O    3.639940   1.230233   2.231719   2.554928   0.000000
    11  H    2.144530   4.653684   4.781313   5.320302   5.752274
    12  H    3.396134   5.366323   6.042012   4.610888   6.116137
    13  H    3.882043   4.656370   5.756167   2.685581   4.919685
    14  H    1.083767   2.714087   2.408452   4.613959   3.941159
    15  H    3.720330   1.874617   0.970244   4.638804   2.298834
    16  H    4.347769   3.547699   4.834436   1.022470   3.169697
    17  H    3.830121   2.222426   3.513653   1.070645   1.579782
    18  H    4.347298   3.547063   4.833757   1.022484   3.169137
                   11         12         13         14         15
    11  H    0.000000
    12  H    2.481176   0.000000
    13  H    4.297066   2.476980   0.000000
    14  H    2.476615   4.294918   4.965799   0.000000
    15  H    5.747468   6.974930   6.517170   3.345539   0.000000
    16  H    5.781548   4.842588   2.738525   5.238288   5.271673
    17  H    5.694578   5.397225   3.702611   4.503753   3.811996
    18  H    5.781259   4.842827   2.739285   5.237703   5.270972
                   16         17         18
    16  H    0.000000
    17  H    1.711463   0.000000
    18  H    1.657882   1.711230   0.000000
 Stoichiometry    C7H8NO2(1+)
 Framework group  C1[X(C7H8NO2)]
 Deg. of freedom    48
 Full point group                 C1      NOp   1
 Largest Abelian subgroup         C1      NOp   1
 Largest concise Abelian subgroup C1      NOp   1
                         Standard orientation:                         
 ---------------------------------------------------------------------
 Center     Atomic      Atomic             Coordinates (Angstroms)
 Number     Number       Type             X           Y           Z
 ---------------------------------------------------------------------
      1          6           0        1.928768   -1.472384    0.000154
      2          6           0        2.612032   -0.260607   -0.000055
      3          6           0        1.908494    0.943580   -0.000147
      4          6           0        0.527768    0.906728   -0.000038
      5          6           0       -0.186040   -0.299825    0.000077
      6          6           0        0.538316   -1.493811    0.000171
      7          6           0       -1.669956   -0.298521   -0.000029
      8          8           0       -2.214778   -1.495956   -0.000074
      9          7           0       -0.231143    2.172079    0.000080
     10          8           0       -2.341657    0.732153   -0.000160
     11          1           0        2.479101   -2.406151    0.000285
     12          1           0        3.696090   -0.243935   -0.000138
     13          1           0        2.439660    1.890734   -0.000316
     14          1           0        0.002665   -2.435952    0.000226
     15          1           0       -3.181024   -1.407964   -0.000138
     16          1           0       -0.029880    2.736254   -0.828561
     17          1           0       -1.262948    1.886318   -0.000154
     18          1           0       -0.030476    2.735608    0.829320
 ---------------------------------------------------------------------
 Rotational constants (GHZ):      2.2539349      1.2123192      0.7917327
 Standard basis: 6-31+G(d,p) (6D, 7F)
 There are   230 symmetry adapted cartesian basis functions of A   symmetry.
 There are   230 symmetry adapted basis functions of A   symmetry.
   230 basis functions,   376 primitive gaussians,   230 cartesian basis functions
    36 alpha electrons       36 beta electrons
       nuclear repulsion energy       516.1971927867 Hartrees.
 NAtoms=   18 NActive=   18 NUniq=   18 SFac= 1.00D+00 NAtFMM=   60 NAOKFM=F Big=F
 Integral buffers will be    131072 words long.
 Raffenetti 2 integral format.
 Two-electron integral symmetry is turned on.
 Nuclear repulsion after empirical dispersion term =      516.1885365994 Hartrees.
 One-electron integrals computed using PRISM.
 NBasis=   230 RedAO= T EigKep=  2.21D-06  NBF=   230
 NBsUse=   230 1.00D-06 EigRej= -1.00D+00 NBFU=   230
 Initial guess from the checkpoint file:  "WB97XDAnthranilicyang.chk"
 B after Tr=     0.000000    0.000000    0.000000
         Rot=    1.000000    0.000014    0.000007    0.000813 Ang=   0.09 deg.
 ExpMin= 4.38D-02 ExpMax= 5.48D+03 ExpMxC= 8.25D+02 IAcc=2 IRadAn=         4 AccDes= 0.00D+00
 Harris functional with IExCor= 4639 and IRadAn=       4 diagonalized for initial guess.
 HarFok:  IExCor= 4639 AccDes= 0.00D+00 IRadAn=         4 IDoV= 1 UseB2=F ITyADJ=14
 ICtDFT=  3500011 ScaDFX=  1.000000  1.000000  1.000000  1.000000
 FoFCou: FMM=F IPFlag=           0 FMFlag=      100000 FMFlg1=           0
         NFxFlg=           0 DoJE=T BraDBF=F KetDBF=T FulRan=T
         wScrn=  0.000000 ICntrl=     500 IOpCl=  0 I1Cent=   200000004 NGrid=           0
         NMat0=    1 NMatS0=      1 NMatT0=    0 NMatD0=    1 NMtDS0=    0 NMtDT0=    0
 Petite list used in FoFCou.
 Keep R1 ints in memory in canonical form, NReq=712071980.
 Requested convergence on RMS density matrix=1.00D-08 within 128 cycles.
 Requested convergence on MAX density matrix=1.00D-06.
 Requested convergence on             energy=1.00D-06.
 No special actions if energy rises.
 SCF Done:  E(RwB97XD) =  -476.420675270     A.U. after   12 cycles
            NFock= 12  Conv=0.10D-07     -V/T= 2.0090
 Calling FoFJK, ICntrl=      2127 FMM=F ISym2X=0 I1Cent= 0 IOpClX= 0 NMat=1 NMatS=1 NMatT=0.
 ***** Axes restored to original set *****
 -------------------------------------------------------------------
 Center     Atomic                   Forces (Hartrees/Bohr)
 Number     Number              X              Y              Z
 -------------------------------------------------------------------
      1        6          -0.000492803   -0.000380482    0.000000345
      2        6          -0.000440976    0.000032731   -0.000000450
      3        6          -0.000688070    0.000044624    0.000000999
      4        6           0.001031695    0.000698555   -0.000001120
      5        6          -0.001300311    0.000057761    0.000000313
      6        6           0.000472237   -0.000440925    0.000001756
      7        6           0.001775386   -0.000622947    0.000007773
      8        8           0.000130359    0.000981852   -0.000004824
      9        7           0.000261354   -0.000339402   -0.000026073
     10        8          -0.000164384   -0.000398516   -0.000004983
     11        1          -0.000067022   -0.000060002    0.000002034
     12        1          -0.000106161   -0.000061164   -0.000000429
     13        1          -0.000026194    0.000095272   -0.000002533
     14        1          -0.000121699   -0.000053856   -0.000001845
     15        1           0.000144141   -0.000571718    0.000001261
     16        1           0.000142254    0.000109475    0.000010095
     17        1          -0.000678510    0.000795292    0.000016335
     18        1           0.000128706    0.000113451    0.000001345
 -------------------------------------------------------------------
 Cartesian Forces:  Max     0.001775386 RMS     0.000454746

 GradGradGradGradGradGradGradGradGradGradGradGradGradGradGradGradGradGrad
 Berny optimization.
 Using GEDIIS/GDIIS optimizer.
 FormGI is forming the generalized inverse of G from B-inverse, IUseBI=4.
 Internal  Forces:  Max     0.001894242 RMS     0.000444592
 Search for a local minimum.
 Step number   2 out of a maximum of   92
 All quantities printed in internal units (Hartrees-Bohrs-Radians)
 Mixed Optimization -- En-DIIS/RFO-DIIS
 Update second derivatives using D2CorX and points    1    2
 DE= -3.62D-04 DEPred=-3.87D-04 R= 9.35D-01
 TightC=F SS=  1.41D+00  RLast= 4.06D-02 DXNew= 5.0454D-01 1.2176D-01
 Trust test= 9.35D-01 RLast= 4.06D-02 DXMaxT set to 3.00D-01
 ITU=  1  0
 Use linear search instead of GDIIS.
     Eigenvalues ---    0.00579   0.00947   0.01525   0.01527   0.01687
     Eigenvalues ---    0.02028   0.02099   0.02114   0.02128   0.02148
     Eigenvalues ---    0.02162   0.02199   0.02704   0.07013   0.07708
     Eigenvalues ---    0.15729   0.16000   0.16000   0.16000   0.16000
     Eigenvalues ---    0.16000   0.16000   0.16287   0.22000   0.22617
     Eigenvalues ---    0.24068   0.24525   0.25000   0.25000   0.25028
     Eigenvalues ---    0.33049   0.35140   0.35278   0.35418   0.35540
     Eigenvalues ---    0.35556   0.36165   0.41541   0.41987   0.43549
     Eigenvalues ---    0.43559   0.45184   0.46176   0.46460   0.51024
     Eigenvalues ---    0.53677   0.60541   0.86865
 RFO step:  Lambda=-4.65973857D-05 EMin= 5.78597693D-03
 Quartic linear search produced a step of -0.06254.
 Iteration  1 RMS(Cart)=  0.00662470 RMS(Int)=  0.00001659
 Iteration  2 RMS(Cart)=  0.00001928 RMS(Int)=  0.00000055
 Iteration  3 RMS(Cart)=  0.00000000 RMS(Int)=  0.00000055
 Variable       Old X    -DE/DX   Delta X   Delta X   Delta X     New X
                                 (Linear)    (Quad)   (Total)
    R1        2.62886   0.00023   0.00061  -0.00082  -0.00021   2.62865
    R2        2.62788   0.00062   0.00050   0.00023   0.00072   2.62861
    R3        2.04823   0.00009   0.00010   0.00004   0.00014   2.04837
    R4        2.63550   0.00046   0.00060  -0.00028   0.00032   2.63582
    R5        2.04881   0.00010   0.00009   0.00010   0.00019   2.04900
    R6        2.61012   0.00118   0.00059   0.00120   0.00179   2.61191
    R7        2.05211   0.00009   0.00008   0.00010   0.00017   2.05228
    R8        2.64919   0.00125   0.00077   0.00120   0.00197   2.65116
    R9        2.78827   0.00050   0.00102  -0.00066   0.00037   2.78863
   R10        2.63906   0.00076   0.00079   0.00006   0.00085   2.63991
   R11        2.80419   0.00189   0.00028   0.00469   0.00497   2.80916
   R12        2.04802  -0.00001  -0.00001  -0.00001  -0.00002   2.04800
   R13        2.48604  -0.00027   0.00094  -0.00227  -0.00133   2.48470
   R14        2.32480  -0.00042   0.00075  -0.00192  -0.00117   2.32363
   R15        1.83350   0.00010   0.00056  -0.00094  -0.00037   1.83312
   R16        1.93219   0.00004   0.00030  -0.00050  -0.00020   1.93199
   R17        2.02323  -0.00087   0.00047  -0.00317  -0.00270   2.02053
   R18        1.93221   0.00004   0.00030  -0.00051  -0.00021   1.93200
    A1        2.09962  -0.00003  -0.00003  -0.00041  -0.00044   2.09919
    A2        2.09561  -0.00000  -0.00003   0.00017   0.00015   2.09576
    A3        2.08795   0.00004   0.00005   0.00024   0.00029   2.08824
    A4        2.09942  -0.00001  -0.00005  -0.00022  -0.00027   2.09916
    A5        2.09959  -0.00007   0.00002  -0.00032  -0.00030   2.09929
    A6        2.08417   0.00008   0.00002   0.00054   0.00057   2.08474
    A7        2.07287   0.00043   0.00014   0.00154   0.00168   2.07455
    A8        2.10174  -0.00020  -0.00013  -0.00056  -0.00069   2.10105
    A9        2.10858  -0.00023  -0.00002  -0.00098  -0.00099   2.10758
   A10        2.13171  -0.00058  -0.00007  -0.00185  -0.00192   2.12978
   A11        2.08436  -0.00082   0.00016  -0.00348  -0.00332   2.08104
   A12        2.06712   0.00140  -0.00008   0.00533   0.00525   2.07237
   A13        2.06206  -0.00011  -0.00012   0.00000  -0.00012   2.06194
   A14        2.10415   0.00094  -0.00002   0.00349   0.00347   2.10761
   A15        2.11698  -0.00083   0.00014  -0.00349  -0.00335   2.11364
   A16        2.10070   0.00030   0.00013   0.00094   0.00107   2.10176
   A17        2.10318  -0.00028  -0.00004  -0.00127  -0.00131   2.10187
   A18        2.07931  -0.00002  -0.00009   0.00033   0.00025   2.07956
   A19        1.99691  -0.00004   0.00013  -0.00041  -0.00028   1.99663
   A20        2.14925   0.00011  -0.00004   0.00049   0.00044   2.14970
   A21        2.13702  -0.00007  -0.00009  -0.00007  -0.00016   2.13686
   A22        1.90698   0.00105   0.00031   0.00553   0.00585   1.91282
   A23        1.95183   0.00005   0.00031  -0.00049  -0.00019   1.95165
   A24        1.84086   0.00080  -0.00018   0.00533   0.00514   1.84601
   A25        1.95171   0.00006   0.00030  -0.00040  -0.00011   1.95160
   A26        1.91431  -0.00039  -0.00004  -0.00197  -0.00202   1.91229
   A27        1.89076  -0.00015  -0.00031  -0.00075  -0.00106   1.88969
   A28        1.91390  -0.00037  -0.00007  -0.00171  -0.00178   1.91212
    D1        0.00008  -0.00000   0.00000  -0.00007  -0.00007   0.00002
    D2       -3.14152  -0.00000   0.00000  -0.00004  -0.00004  -3.14156
    D3       -3.14153  -0.00000   0.00000  -0.00005  -0.00005  -3.14157
    D4        0.00005  -0.00000   0.00000  -0.00002  -0.00002   0.00003
    D5       -0.00008   0.00000  -0.00000   0.00007   0.00006  -0.00002
    D6        3.14148   0.00000  -0.00001   0.00011   0.00010   3.14158
    D7        3.14153   0.00000  -0.00001   0.00005   0.00004   3.14157
    D8       -0.00009   0.00000  -0.00001   0.00009   0.00008  -0.00002
    D9       -0.00001  -0.00000   0.00000  -0.00000  -0.00000  -0.00001
   D10       -3.14159   0.00000   0.00000   0.00000   0.00000  -3.14158
   D11       -3.14159  -0.00000   0.00001  -0.00003  -0.00002   3.14157
   D12        0.00002  -0.00000   0.00001  -0.00002  -0.00002  -0.00000
   D13       -0.00007   0.00000  -0.00001   0.00008   0.00007   0.00000
   D14        3.14143   0.00000  -0.00001   0.00017   0.00016   3.14158
   D15        3.14151   0.00000  -0.00001   0.00008   0.00007   3.14157
   D16       -0.00018   0.00000  -0.00001   0.00016   0.00015  -0.00003
   D17        0.00007  -0.00000   0.00001  -0.00008  -0.00008  -0.00000
   D18       -3.14142  -0.00000   0.00000  -0.00012  -0.00012  -3.14154
   D19       -3.14142  -0.00000   0.00001  -0.00017  -0.00016  -3.14158
   D20        0.00027  -0.00000   0.00001  -0.00021  -0.00020   0.00007
   D21        1.06143  -0.00005   0.00000  -0.00078  -0.00078   1.06065
   D22        3.14130  -0.00001  -0.00000  -0.00015  -0.00015   3.14114
   D23       -1.06258   0.00006  -0.00003   0.00084   0.00081  -1.06177
   D24       -2.08025  -0.00005  -0.00000  -0.00070  -0.00070  -2.08095
   D25       -0.00038  -0.00001  -0.00000  -0.00007  -0.00007  -0.00046
   D26        2.07892   0.00006  -0.00004   0.00092   0.00089   2.07981
   D27        0.00000   0.00000  -0.00000   0.00001   0.00001   0.00001
   D28       -3.14156  -0.00000   0.00001  -0.00003  -0.00003  -3.14158
   D29        3.14150   0.00000   0.00000   0.00004   0.00005   3.14154
   D30       -0.00006   0.00000   0.00001   0.00000   0.00001  -0.00005
   D31        3.14145   0.00000  -0.00003   0.00023   0.00020  -3.14154
   D32       -0.00006  -0.00000  -0.00003  -0.00009  -0.00012  -0.00018
   D33       -0.00004   0.00000  -0.00003   0.00019   0.00016   0.00012
   D34       -3.14155  -0.00000  -0.00004  -0.00012  -0.00016   3.14148
   D35        3.14159  -0.00000  -0.00000  -0.00011  -0.00012   3.14147
   D36       -0.00009   0.00000  -0.00000   0.00020   0.00020   0.00011
         Item               Value     Threshold  Converged?
 Maximum Force            0.001894     0.000450     NO 
 RMS     Force            0.000445     0.000300     NO 
 Maximum Displacement     0.031744     0.001800     NO 
 RMS     Displacement     0.006623     0.001200     NO 
 Predicted change in Energy=-2.492327D-05
 GradGradGradGradGradGradGradGradGradGradGradGradGradGradGradGradGradGrad

                          Input orientation:                          
 ---------------------------------------------------------------------
 Center     Atomic      Atomic             Coordinates (Angstroms)
 Number     Number       Type             X           Y           Z
 ---------------------------------------------------------------------
      1          6           0       -1.930998   -1.468241   -0.000051
      2          6           0       -2.612123   -0.255391   -0.000019
      3          6           0       -1.906110    0.947544   -0.000000
      4          6           0       -0.524450    0.910248   -0.000001
      5          6           0        0.187198   -0.298792   -0.000023
      6          6           0       -0.540192   -1.491458   -0.000042
      7          6           0        1.673727   -0.305955    0.000049
      8          8           0        2.211091   -1.505983   -0.000047
      9          7           0        0.230739    2.178051    0.000007
     10          8           0        2.351404    0.720058   -0.000051
     11          1           0       -2.482834   -2.401205   -0.000084
     12          1           0       -3.696256   -0.237181    0.000003
     13          1           0       -2.436091    1.895467    0.000036
     14          1           0       -0.006991   -2.434976   -0.000051
     15          1           0        3.178113   -1.429437   -0.000103
     16          1           0        0.027054    2.741712    0.828275
     17          1           0        1.263463    1.901092    0.000466
     18          1           0        0.027818    2.741220   -0.828793
 ---------------------------------------------------------------------
                    Distance matrix (angstroms):
                    1          2          3          4          5
     1  C    0.000000
     2  C    1.391020   0.000000
     3  C    2.415913   1.394815   0.000000
     4  C    2.763257   2.391044   1.382163   0.000000
     5  C    2.419580   2.799658   2.436246   1.402933   0.000000
     6  C    1.390999   2.412625   2.795436   2.401758   1.396978
     7  C    3.787472   4.286148   3.792952   2.512196   1.486546
     8  O    4.142261   4.982708   4.792821   3.649844   2.356576
     9  N    4.238933   3.742126   2.465820   1.475681   2.477226
    10  O    4.809118   5.058468   4.263586   2.882136   2.392037
    11  H    1.083948   2.149705   3.398048   3.847205   3.398413
    12  H    2.152126   1.084286   2.146671   3.372973   3.883943
    13  H    3.401419   2.158049   1.086019   2.150587   3.420003
    14  H    2.153225   3.396661   3.879187   3.385009   2.144992
    15  H    5.109258   5.908064   5.612429   4.379852   3.197488
    16  H    4.716333   4.078474   2.764453   2.084336   3.155375
    17  H    4.642950   4.435154   3.309901   2.044115   2.449048
    18  H    4.716284   4.078705   2.764823   2.084311   3.154986
                    6          7          8          9         10
     6  C    0.000000
     7  C    2.511345   0.000000
     8  O    2.751322   1.314849   0.000000
     9  N    3.749618   2.872717   4.182571   0.000000
    10  O    3.640347   1.229613   2.230458   2.573512   0.000000
    11  H    2.145110   4.654790   4.778531   5.322881   5.754314
    12  H    3.396167   5.370423   6.042070   4.610275   6.122948
    13  H    3.881455   4.662280   5.759007   2.681759   4.929674
    14  H    1.083757   2.712479   2.404769   4.619149   3.939069
    15  H    3.718822   1.877602   0.970046   4.658432   2.302993
    16  H    4.350586   3.561708   4.847581   1.022365   3.189955
    17  H    3.842209   2.244854   3.536404   1.069218   1.605757
    18  H    4.350290   3.561077   4.846878   1.022372   3.189194
                   11         12         13         14         15
    11  H    0.000000
    12  H    2.481006   0.000000
    13  H    4.296926   2.477136   0.000000
    14  H    2.476074   4.294297   4.965205   0.000000
    15  H    5.743749   6.976992   6.524896   3.340059   0.000000
    16  H    5.782327   4.839718   2.732982   5.242650   5.292813
    17  H    5.704778   5.401021   3.699558   4.518355   3.841654
    18  H    5.782271   4.840093   2.733698   5.242235   5.292019
                   16         17         18
    16  H    0.000000
    17  H    1.708982   0.000000
    18  H    1.657069   1.708890   0.000000
 Stoichiometry    C7H8NO2(1+)
 Framework group  C1[X(C7H8NO2)]
 Deg. of freedom    48
 Full point group                 C1      NOp   1
 Largest Abelian subgroup         C1      NOp   1
 Largest concise Abelian subgroup C1      NOp   1
                         Standard orientation:                         
 ---------------------------------------------------------------------
 Center     Atomic      Atomic             Coordinates (Angstroms)
 Number     Number       Type             X           Y           Z
 ---------------------------------------------------------------------
      1          6           0        1.923026   -1.479452    0.000031
      2          6           0        2.611509   -0.270763   -0.000001
      3          6           0        1.912818    0.936440   -0.000020
      4          6           0        0.530957    0.907540   -0.000020
      5          6           0       -0.188025   -0.297154    0.000002
      6          6           0        0.532105   -1.494217    0.000021
      7          6           0       -1.674569   -0.295283   -0.000070
      8          8           0       -2.219216   -1.492024    0.000026
      9          7           0       -0.216514    2.179909   -0.000028
     10          8           0       -2.345999    0.734828    0.000031
     11          1           0        2.469183   -2.415751    0.000063
     12          1           0        3.695732   -0.259140   -0.000023
     13          1           0        2.448549    1.881125   -0.000056
     14          1           0       -0.006820   -2.434478    0.000030
     15          1           0       -3.185754   -1.409604    0.000083
     16          1           0       -0.009408    2.742321   -0.828296
     17          1           0       -1.250903    1.909230   -0.000486
     18          1           0       -0.010175    2.741834    0.828773
 ---------------------------------------------------------------------
 Rotational constants (GHZ):      2.2472639      1.2106066      0.7901753
 Standard basis: 6-31+G(d,p) (6D, 7F)
 There are   230 symmetry adapted cartesian basis functions of A   symmetry.
 There are   230 symmetry adapted basis functions of A   symmetry.
   230 basis functions,   376 primitive gaussians,   230 cartesian basis functions
    36 alpha electrons       36 beta electrons
       nuclear repulsion energy       515.7727189495 Hartrees.
 NAtoms=   18 NActive=   18 NUniq=   18 SFac= 1.00D+00 NAtFMM=   60 NAOKFM=F Big=F
 Integral buffers will be    131072 words long.
 Raffenetti 2 integral format.
 Two-electron integral symmetry is turned on.
 Nuclear repulsion after empirical dispersion term =      515.7640658554 Hartrees.
 One-electron integrals computed using PRISM.
 NBasis=   230 RedAO= T EigKep=  2.23D-06  NBF=   230
 NBsUse=   230 1.00D-06 EigRej= -1.00D+00 NBFU=   230
 Initial guess from the checkpoint file:  "WB97XDAnthranilicyang.chk"
 B after Tr=    -0.000000    0.000000   -0.000000
         Rot=    0.999999   -0.000005   -0.000009    0.001731 Ang=  -0.20 deg.
 ExpMin= 4.38D-02 ExpMax= 5.48D+03 ExpMxC= 8.25D+02 IAcc=2 IRadAn=         4 AccDes= 0.00D+00
 Harris functional with IExCor= 4639 and IRadAn=       4 diagonalized for initial guess.
 HarFok:  IExCor= 4639 AccDes= 0.00D+00 IRadAn=         4 IDoV= 1 UseB2=F ITyADJ=14
 ICtDFT=  3500011 ScaDFX=  1.000000  1.000000  1.000000  1.000000
 FoFCou: FMM=F IPFlag=           0 FMFlag=      100000 FMFlg1=           0
         NFxFlg=           0 DoJE=T BraDBF=F KetDBF=T FulRan=T
         wScrn=  0.000000 ICntrl=     500 IOpCl=  0 I1Cent=   200000004 NGrid=           0
         NMat0=    1 NMatS0=      1 NMatT0=    0 NMatD0=    1 NMtDS0=    0 NMtDT0=    0
 Petite list used in FoFCou.
 Keep R1 ints in memory in canonical form, NReq=712071980.
 Requested convergence on RMS density matrix=1.00D-08 within 128 cycles.
 Requested convergence on MAX density matrix=1.00D-06.
 Requested convergence on             energy=1.00D-06.
 No special actions if energy rises.
 SCF Done:  E(RwB97XD) =  -476.420678976     A.U. after   13 cycles
            NFock= 13  Conv=0.74D-08     -V/T= 2.0091
 Calling FoFJK, ICntrl=      2127 FMM=F ISym2X=0 I1Cent= 0 IOpClX= 0 NMat=1 NMatS=1 NMatT=0.
 ***** Axes restored to original set *****
 -------------------------------------------------------------------
 Center     Atomic                   Forces (Hartrees/Bohr)
 Number     Number              X              Y              Z
 -------------------------------------------------------------------
      1        6          -0.000176877   -0.000253092   -0.000001352
      2        6          -0.000320280    0.000155559    0.000000413
      3        6          -0.000193740    0.000058187    0.000000911
      4        6           0.000373746   -0.000560001    0.000001631
      5        6          -0.000503756    0.000076042    0.000011772
      6        6           0.000175653   -0.000038295   -0.000000311
      7        6           0.001218202    0.000924275   -0.000034612
      8        8          -0.000280987   -0.000669640    0.000008196
      9        7           0.002277774   -0.001096839    0.000003130
     10        8          -0.001307089    0.000666070    0.000019684
     11        1          -0.000017880   -0.000022119    0.000000789
     12        1          -0.000025383    0.000025426   -0.000000760
     13        1          -0.000041916    0.000075529   -0.000000813
     14        1          -0.000023407    0.000025711    0.000000289
     15        1           0.000079616    0.000029835    0.000000746
     16        1           0.000142905    0.000117575    0.000231135
     17        1          -0.001522127    0.000367971   -0.000013320
     18        1           0.000145546    0.000117804   -0.000227528
 -------------------------------------------------------------------
 Cartesian Forces:  Max     0.002277774 RMS     0.000528171

 GradGradGradGradGradGradGradGradGradGradGradGradGradGradGradGradGradGrad
 Berny optimization.
 Using GEDIIS/GDIIS optimizer.
 FormGI is forming the generalized inverse of G from B-inverse, IUseBI=4.
 Internal  Forces:  Max     0.002818592 RMS     0.000639310
 Search for a local minimum.
 Step number   3 out of a maximum of   92
 All quantities printed in internal units (Hartrees-Bohrs-Radians)
 Mixed Optimization -- En-DIIS/RFO-DIIS
 Swapping is turned off.
 Update second derivatives using D2CorX and points    1    2    3
 DE= -3.71D-06 DEPred=-2.49D-05 R= 1.49D-01
 Trust test= 1.49D-01 RLast= 1.38D-02 DXMaxT set to 3.00D-01
 ITU=  0  1  0
     Eigenvalues ---    0.00579   0.00947   0.01523   0.01527   0.01687
     Eigenvalues ---    0.02028   0.02099   0.02114   0.02128   0.02148
     Eigenvalues ---    0.02162   0.02199   0.02704   0.07055   0.07675
     Eigenvalues ---    0.11499   0.16000   0.16000   0.16000   0.16000
     Eigenvalues ---    0.16000   0.16003   0.16070   0.21812   0.22024
     Eigenvalues ---    0.22885   0.24578   0.25000   0.25008   0.29524
     Eigenvalues ---    0.34299   0.34728   0.35228   0.35412   0.35451
     Eigenvalues ---    0.35552   0.39176   0.41903   0.43548   0.43554
     Eigenvalues ---    0.45008   0.46074   0.46202   0.49116   0.52986
     Eigenvalues ---    0.60153   0.85041   0.94424
 En-DIIS/RFO-DIIS IScMMF=        0 using points:     3    2
 RFO step:  Lambda=-3.69945902D-05.
 DidBck=T Rises=F RFO-DIIS coefs:    0.56410    0.43590
 Iteration  1 RMS(Cart)=  0.00365052 RMS(Int)=  0.00000612
 Iteration  2 RMS(Cart)=  0.00000721 RMS(Int)=  0.00000018
 Iteration  3 RMS(Cart)=  0.00000000 RMS(Int)=  0.00000018
 Variable       Old X    -DE/DX   Delta X   Delta X   Delta X     New X
                                 (Linear)    (Quad)   (Total)
    R1        2.62865   0.00061   0.00009   0.00024   0.00034   2.62898
    R2        2.62861   0.00051  -0.00032   0.00111   0.00079   2.62940
    R3        2.04837   0.00003  -0.00006   0.00013   0.00007   2.04844
    R4        2.63582   0.00031  -0.00014   0.00041   0.00027   2.63609
    R5        2.04900   0.00002  -0.00008   0.00018   0.00010   2.04910
    R6        2.61191   0.00025  -0.00078   0.00176   0.00098   2.61289
    R7        2.05228   0.00008  -0.00008   0.00026   0.00019   2.05247
    R8        2.65116  -0.00167  -0.00086  -0.00049  -0.00136   2.64980
    R9        2.78863   0.00011  -0.00016  -0.00000  -0.00016   2.78847
   R10        2.63991  -0.00000  -0.00037   0.00040   0.00003   2.63994
   R11        2.80916  -0.00029  -0.00217   0.00447   0.00230   2.81147
   R12        2.04800  -0.00003   0.00001  -0.00006  -0.00005   2.04795
   R13        2.48470   0.00049   0.00058  -0.00143  -0.00085   2.48386
   R14        2.32363  -0.00016   0.00051  -0.00169  -0.00118   2.32245
   R15        1.83312   0.00009   0.00016  -0.00059  -0.00043   1.83269
   R16        1.93199   0.00023   0.00009  -0.00008   0.00000   1.93199
   R17        2.02053  -0.00157   0.00118  -0.00529  -0.00412   2.01641
   R18        1.93200   0.00022   0.00009  -0.00010  -0.00001   1.93199
    A1        2.09919  -0.00006   0.00019  -0.00026  -0.00007   2.09911
    A2        2.09576   0.00003  -0.00006   0.00009   0.00003   2.09578
    A3        2.08824   0.00002  -0.00013   0.00017   0.00005   2.08829
    A4        2.09916  -0.00010   0.00012  -0.00019  -0.00008   2.09908
    A5        2.09929   0.00007   0.00013  -0.00029  -0.00015   2.09914
    A6        2.08474   0.00003  -0.00025   0.00048   0.00023   2.08497
    A7        2.07455  -0.00037  -0.00073   0.00078   0.00005   2.07459
    A8        2.10105   0.00018   0.00030  -0.00022   0.00008   2.10113
    A9        2.10758   0.00019   0.00043  -0.00056  -0.00012   2.10746
   A10        2.12978   0.00044   0.00084  -0.00119  -0.00035   2.12943
   A11        2.08104   0.00159   0.00145   0.00002   0.00147   2.08250
   A12        2.07237  -0.00202  -0.00229   0.00117  -0.00112   2.07125
   A13        2.06194   0.00053   0.00005   0.00088   0.00093   2.06287
   A14        2.10761  -0.00282  -0.00151  -0.00238  -0.00389   2.10373
   A15        2.11364   0.00229   0.00146   0.00149   0.00295   2.11659
   A16        2.10176  -0.00044  -0.00046  -0.00002  -0.00048   2.10128
   A17        2.10187   0.00022   0.00057  -0.00081  -0.00024   2.10163
   A18        2.07956   0.00022  -0.00011   0.00082   0.00072   2.08027
   A19        1.99663   0.00045   0.00012   0.00061   0.00073   1.99736
   A20        2.14970  -0.00192  -0.00019  -0.00364  -0.00383   2.14586
   A21        2.13686   0.00147   0.00007   0.00303   0.00310   2.13996
   A22        1.91282  -0.00006  -0.00255   0.00562   0.00307   1.91589
   A23        1.95165   0.00015   0.00008   0.00033   0.00041   1.95206
   A24        1.84601  -0.00016  -0.00224   0.00451   0.00227   1.84827
   A25        1.95160   0.00015   0.00005   0.00040   0.00045   1.95205
   A26        1.91229  -0.00008   0.00088  -0.00259  -0.00171   1.91058
   A27        1.88969   0.00000   0.00046  -0.00036   0.00010   1.88979
   A28        1.91212  -0.00009   0.00077  -0.00239  -0.00162   1.91051
    D1        0.00002   0.00000   0.00003  -0.00005  -0.00002  -0.00000
    D2       -3.14156  -0.00000   0.00002  -0.00005  -0.00003  -3.14159
    D3       -3.14157  -0.00000   0.00002  -0.00005  -0.00003   3.14158
    D4        0.00003  -0.00000   0.00001  -0.00005  -0.00004  -0.00001
    D5       -0.00002  -0.00000  -0.00003   0.00006   0.00003   0.00001
    D6        3.14158  -0.00000  -0.00004   0.00007   0.00002  -3.14159
    D7        3.14157   0.00000  -0.00002   0.00006   0.00005  -3.14157
    D8       -0.00002  -0.00000  -0.00003   0.00007   0.00003   0.00002
    D9       -0.00001   0.00000   0.00000   0.00000   0.00000  -0.00001
   D10       -3.14158  -0.00000  -0.00000  -0.00005  -0.00005   3.14156
   D11        3.14157   0.00000   0.00001   0.00000   0.00001   3.14158
   D12       -0.00000  -0.00000   0.00001  -0.00005  -0.00004  -0.00004
   D13        0.00000  -0.00000  -0.00003   0.00004   0.00001   0.00001
   D14        3.14158  -0.00000  -0.00007   0.00007  -0.00000   3.14158
   D15        3.14157   0.00000  -0.00003   0.00009   0.00006  -3.14156
   D16       -0.00003  -0.00000  -0.00007   0.00011   0.00005   0.00002
   D17       -0.00000   0.00000   0.00003  -0.00003   0.00001   0.00000
   D18       -3.14154   0.00000   0.00005  -0.00001   0.00004  -3.14150
   D19       -3.14158   0.00000   0.00007  -0.00005   0.00002  -3.14157
   D20        0.00007   0.00001   0.00009  -0.00004   0.00004   0.00011
   D21        1.06065   0.00011   0.00034   0.00044   0.00078   1.06143
   D22        3.14114   0.00001   0.00007   0.00027   0.00034   3.14149
   D23       -1.06177  -0.00011  -0.00035   0.00038   0.00003  -1.06174
   D24       -2.08095   0.00011   0.00031   0.00047   0.00077  -2.08018
   D25       -0.00046   0.00001   0.00003   0.00030   0.00033  -0.00013
   D26        2.07981  -0.00011  -0.00039   0.00041   0.00002   2.07983
   D27        0.00001  -0.00000  -0.00000  -0.00002  -0.00003  -0.00002
   D28       -3.14158  -0.00000   0.00001  -0.00003  -0.00002   3.14159
   D29        3.14154  -0.00000  -0.00002  -0.00004  -0.00006   3.14149
   D30       -0.00005  -0.00000  -0.00001  -0.00004  -0.00005  -0.00010
   D31       -3.14154  -0.00001  -0.00009   0.00009   0.00000  -3.14153
   D32       -0.00018   0.00001   0.00005   0.00047   0.00052   0.00034
   D33        0.00012  -0.00000  -0.00007   0.00010   0.00004   0.00015
   D34        3.14148   0.00002   0.00007   0.00048   0.00055  -3.14116
   D35        3.14147   0.00001   0.00005   0.00024   0.00029  -3.14142
   D36        0.00011  -0.00001  -0.00009  -0.00013  -0.00022  -0.00011
         Item               Value     Threshold  Converged?
 Maximum Force            0.002819     0.000450     NO 
 RMS     Force            0.000639     0.000300     NO 
 Maximum Displacement     0.013958     0.001800     NO 
 RMS     Displacement     0.003651     0.001200     NO 
 Predicted change in Energy=-2.202247D-05
 GradGradGradGradGradGradGradGradGradGradGradGradGradGradGradGradGradGrad

                          Input orientation:                          
 ---------------------------------------------------------------------
 Center     Atomic      Atomic             Coordinates (Angstroms)
 Number     Number       Type             X           Y           Z
 ---------------------------------------------------------------------
      1          6           0       -1.933180   -1.468833   -0.000037
      2          6           0       -2.613464   -0.255306    0.000005
[...]
 65,-0.0222045,-0.0000215,0.0000208,-0.0000149,-0.095965,0.4471663,0.20
 16338,0.0000571,-0.0016119,0.4187565,0.0000323,0.0000303,0.0000009,-0.
 0537235,-0.7604927,-0.0286952,-0.0000003,0.0693961,-0.0927288,-0.00000
 17,-0.00011,0.0000027,0.0214456,0.0851292,-0.1341684,0.000035,0.056058
 ,0.028384,-0.0000086,-0.0001205,-0.0000153,-0.0640599,2.0956718,-0.027
 8837,-0.0000765,-0.1986304,1.8100248,-0.0002627,-0.0000877,-0.0003501,
 0.3741538,-0.8891941,0.5174939,-0.0000663,0.5478973,-1.0608651,0.00009
 64,0.0000398,-0.0001714,-0.3359972,-0.4896837,0.1502805,-0.0000351,-0.
 0483829,-0.5442284,-0.0000472,-0.0001962,0.0000957,-0.0595153,-1.12729
 2,-0.2137192,0.0001063,-0.1091067,-1.2258333,0.0000425,0.0004196,0.000
 2587,-0.3540222,0.0699401,-0.0241353,-0.0000021,-0.0308302,0.04193,0.0
 000044,0.0000015,-0.0000098,0.1483792,0.0315091,0.0020969,-0.0000115,0
 .006552,0.0904043,0.0000023,-0.0000114,0.0000052,0.1451756,0.095287,0.
 0136558,-0.0000052,0.0248203,-0.0081279,0.0000075,0.0000057,-0.0000035
 ,0.1550268,0.0969734,0.021782,-0.0000103,0.0165944,0.0842129,0.000005,
 0.000008,0.0000011,0.142719,0.4444552,-0.1258379,0.0000156,-0.1286686,
 0.3255155,0.0000427,0.0000244,0.0000344,0.3715604,0.2084526,-0.0079688
 ,0.0130698,-0.0134196,0.2602986,0.0498854,0.0201727,0.0806419,0.270625
 2,0.6578453,-0.393048,-0.0000413,-0.2276348,0.535894,0.0001417,-0.0000
 39,0.0001895,0.2059966,0.2084983,-0.0080127,-0.0130434,-0.0134269,0.26
 02732,-0.049916,-0.0201747,-0.0806838,0.270662\Polar=113.018896,0.7654
 799,99.5709703,-0.000915,-0.003619,48.016117\PG=C01 [X(C7H8N1O2)]\NIma
 g=0\\0.70920731,0.03771441,0.75426910,0.00005059,-0.00003294,0.1419174
 9,-0.18934987,0.12804017,-0.00002190,0.77089880,0.05686990,-0.30505966
 ,0.00002120,-0.00517304,0.68501201,-0.00001834,0.00002917,-0.06610860,
 0.00006133,-0.00003478,0.14466433,0.07384675,-0.02588316,0.00000844,-0
 .18878903,-0.05581428,-0.00000693,0.71599520,0.01976074,-0.05373069,0.
 00000496,-0.12969187,-0.29271059,0.00000135,-0.03635683,0.75258065,0.0
 0000625,0.00000164,0.00696919,-0.00000461,0.00000674,-0.06487296,0.000
 05759,-0.00002751,0.13446031,-0.06130715,0.03360694,-0.00000786,-0.026
 14058,-0.09188208,0.00000134,-0.35717962,0.06808862,-0.00003169,0.7268
 0178,0.03474083,-0.02139552,0.00000558,-0.02850636,0.03873738,-0.00000
 435,-0.02073848,-0.12684943,-0.00000007,-0.04442096,0.63497749,-0.0000
 0836,0.00000416,-0.00533833,-0.00000098,-0.00001113,0.00361435,-0.0000
 3083,0.00000973,-0.06376817,0.00006387,-0.00001530,0.16395112,-0.02561
 486,-0.02735916,-0.00000345,-0.00075533,0.00762947,0.00000066,-0.03365
 680,0.01893587,-0.00000695,-0.17442221,0.12217072,-0.00001665,0.664177
 66,-0.07584812,0.03898801,-0.00000864,-0.00263222,-0.07133213,0.000002
 96,0.07786805,0.03088929,0.00000919,0.05202001,-0.26169340,0.00000952,
 0.00788430,0.71949676,0.00000364,-0.00000801,0.00718133,0.00000036,0.0
 0000520,-0.00557073,-0.00000877,0.00000185,0.00969059,-0.00001420,0.00
 002163,-0.05739624,0.00001445,-0.00003479,0.13499043,-0.35392689,-0.03
 369056,-0.00002144,-0.02164285,0.07999270,-0.00000687,-0.05660817,-0.0
 2368132,-0.00000403,0.06955616,-0.03287837,0.00000887,-0.17725590,-0.0
 5422103,-0.00001454,0.71517686,0.03773721,-0.13578376,0.00000770,0.034
 34661,0.03828340,0.00000234,-0.03372556,-0.01584408,-0.00000389,0.0246
 6448,-0.05779176,0.00000748,-0.11779915,-0.28769843,0.00000592,-0.0426
 3876,0.74168436,-0.00002795,0.00000146,-0.06714654,-0.00000475,0.00000
 571,0.00678981,-0.00000333,-0.00000142,-0.00516945,0.00000488,-0.00000
 237,0.00364827,-0.00000800,0.00001017,-0.06253034,0.00005061,-0.000036
 23,0.14553890,0.00211072,-0.00247100,0.00000242,0.00067751,-0.00566514
 ,0.00000036,0.01138569,0.00541925,0.00000384,-0.02267344,0.02793098,-0
 .00000173,-0.20405606,0.00246597,-0.00002575,-0.01991086,-0.01593893,0
 .00000405,0.74252876,-0.00471809,-0.00628316,0.00000022,-0.00035666,-0
 .00357167,0.00000027,0.00460973,-0.00694661,0.00000197,0.03406820,0.01
 473641,0.00000538,0.01100635,-0.10477836,-0.00000562,-0.02730521,0.011
 65443,-0.00000434,0.10665607,0.92508543,-0.00000239,0.00000044,0.00885
 979,0.00000108,-0.00000075,-0.00138899,-0.00000063,0.00000215,0.006415
 69,-0.00000352,-0.00000898,-0.00163485,0.00001188,-0.00000848,-0.07707
 574,0.00000115,0.00000523,-0.00057139,-0.00025567,-0.00023540,0.210593
 50,0.00126620,0.00053777,0.00000060,-0.00024062,0.00230139,-0.00000028
 ,-0.00323776,0.00114311,-0.00000109,-0.00493916,-0.00867083,0.00000066
 ,-0.03109935,0.04557230,0.00000674,-0.00411742,0.00233097,-0.00000012,
 -0.18945025,0.12264869,0.00003758,0.69821808,0.00021048,0.00072656,0.0
 0000027,-0.00005907,-0.00125376,-0.00000008,0.00189639,0.00196382,0.00
 000064,-0.00390699,0.00099277,-0.00000179,0.01764222,-0.00509576,-0.00
 000538,-0.00203732,-0.00434711,0.00000207,0.08508931,-0.32068587,-0.00
 001139,-0.07480625,0.48151935,0.00000040,0.00000003,-0.00062088,-0.000
 00011,-0.00000005,-0.00004583,0.00000024,-0.00000077,-0.00062251,0.000
 00093,0.00000189,0.00192668,-0.00000091,-0.00000538,0.00979930,0.00000
 175,-0.00000098,0.00049123,0.00003937,-0.00004288,-0.06568758,-0.00022
 879,-0.00002227,0.04260366,0.00103456,-0.00045922,0.00000058,-0.007424
 69,0.00540918,-0.00000110,-0.01944354,-0.04826295,-0.00000273,-0.12974
 933,-0.03411238,-0.00000793,0.01430493,0.00742908,0.00000261,-0.000805
 64,0.00099294,-0.00000134,-0.02200077,-0.01617330,0.00001606,0.0025095
 2,0.00888264,-0.00000446,0.57885976,0.00214922,-0.00143858,-0.00000005
 ,0.00056637,0.00537505,-0.00000151,-0.00795364,-0.00822810,-0.00000241
 ,-0.04510963,-0.17913509,-0.00000363,-0.02344589,-0.02919871,-0.000004
 58,0.00470558,-0.00420422,0.00000078,0.00126710,0.00642390,-0.00000280
 ,0.00010189,-0.00354088,0.00000115,-0.08533812,0.62369618,0.00000056,0
 .00000025,-0.00128932,-0.00000219,0.00000139,0.00742327,-0.00000402,-0
 .00000869,0.00233722,-0.00000612,-0.00000439,-0.07443397,-0.00000084,-
 0.00000016,-0.00118644,0.00000032,-0.00000010,0.00801577,-0.00000136,-
 0.00000391,-0.00294981,-0.00000182,0.00000082,-0.00121778,-0.00006990,
 -0.00002146,0.72809931,-0.00183926,-0.00176153,-0.00000244,0.00004948,
 0.00026715,0.00000053,-0.00182952,-0.00148946,0.00000016,0.00554934,-0
 .00400814,0.00000117,-0.03119732,-0.04352321,0.00003473,-0.00552064,0.
 00726974,0.00000181,-0.30506008,-0.25987028,0.00021020,0.03803859,0.00
 542832,-0.00000418,-0.01765827,0.02201731,0.00001949,0.34110087,-0.001
 18486,0.00149279,-0.00000146,0.00013318,0.00089941,-0.00000024,-0.0023
 9399,0.00184606,-0.00000205,-0.00231198,-0.01839001,-0.00000249,-0.028
 01220,-0.00456012,0.00002113,0.00060916,0.00415285,-0.00000084,-0.2463
 8311,-0.48174704,0.00027105,-0.01721270,-0.11206856,0.00004931,0.04577
 705,-0.01711952,-0.00000700,0.28692429,0.59928813,0.00000028,0.0000015
 6,-0.00187713,-0.00000047,-0.00000084,0.00032232,0.00000218,0.00000160
 ,-0.00055125,-0.00000335,0.00000087,-0.00018755,0.00000828,0.00002074,
 0.01955271,0.00000324,-0.00000407,0.00312431,0.00023599,0.00029564,-0.
 07659939,-0.00000467,0.00002029,0.02793169,0.00002123,-0.00001635,0.00
 990049,-0.00025121,-0.00034234,0.03803537,-0.13739505,-0.12936101,-0.0
 0000097,0.01257650,0.01580124,-0.00000035,-0.00096303,0.00356118,-0.00
 000092,-0.00108158,0.00112458,-0.00000032,-0.00514709,0.00097060,-0.00
 000175,-0.01095205,-0.02777372,0.00000021,0.00052348,-0.00155134,-0.00
 000033,-0.00014775,0.00022024,0.00000013,0.00028940,-0.00010759,0.0000
 0016,-0.00080587,-0.00028959,0.00000044,0.14142204,-0.12948068,-0.2806
 7482,0.00000146,-0.01530505,-0.01674630,-0.00000019,0.00301394,-0.0030
 9538,0.00000087,0.00124368,0.00010453,0.00000021,0.00118494,0.00127689
 ,0.00000057,0.00345736,0.00604902,0.00000025,0.00018002,0.00030556,0.0
 0000006,-0.00003279,0.00000496,0.00000002,-0.00025490,0.00006199,-0.00
 000019,0.00010372,0.00004018,-0.00000005,0.13655329,0.29223085,-0.0000
 0137,0.00000072,-0.04177127,0.00000187,0.00000340,0.00463183,-0.000001
 43,0.00000122,0.00745614,-0.00000022,-0.00000002,-0.00006925,-0.000000
 86,-0.00000033,0.00729592,-0.00000126,-0.00000248,0.00439970,-0.000000
 18,0.00000006,0.00019653,0.,0.,0.00002174,0.,0.00000014,-0.00109649,-0
 .00000025,0.00000014,-0.00022806,0.00000260,-0.00000239,0.02769184,-0.
 00829442,-0.00255852,-0.00000115,-0.35690780,0.00503517,-0.00002906,-0
 .00925956,0.00260379,-0.00000149,0.00084082,-0.00205393,-0.00000048,0.
 00092689,0.00019852,0.00000008,0.00010872,0.00232749,-0.00000073,-0.00
 032548,0.00002773,0.00000006,0.00000528,-0.00004045,-0.00000002,-0.000
 68066,0.00008659,-0.00000016,0.00002824,0.00012901,0.00000009,0.000605
 94,-0.00000831,0.00000040,0.37267040,0.02812897,0.00530153,0.00000258,
 0.00551849,-0.06024234,0.00000181,-0.02841284,0.00418177,-0.00000237,-
 0.00181026,-0.00389173,0.00000042,-0.00002713,-0.00135422,0.00000011,0
 .00285637,-0.00484820,0.00000113,-0.00019930,-0.00034850,-0.00000003,0
 .00007275,0.00015260,-0.00000002,-0.00221814,-0.00021320,-0.00000045,0
 .00003837,0.00039052,0.00000006,-0.00019839,0.00070441,-0.00000035,-0.
 00534790,0.05949734,-0.00000294,-0.00000069,0.00596296,-0.00002884,0.0
 0000161,-0.04201623,0.00000086,0.00000051,0.00485915,-0.00000104,0.000
 00050,0.00727969,0.00000065,-0.00000010,-0.00083661,-0.00000139,0.0000
 0098,0.00751296,-0.00000057,-0.00000018,-0.00111241,0.,-0.00000007,0.0
 0017290,0.00000033,0.00000020,0.00005415,-0.00000003,0.00000031,0.0001
 2890,0.00000040,-0.00000023,-0.00410259,0.00003203,-0.00000272,0.02671
 632,-0.00159970,-0.00344630,-0.00000042,0.01326737,-0.01570403,0.00000
 129,-0.13076578,0.12344944,-0.00001291,-0.01038815,0.02879159,-0.00000
 239,-0.00495890,-0.00212611,-0.00000123,-0.00050475,-0.00073457,0.,0.0
 0074968,0.00177087,-0.00000055,-0.00073784,-0.00005583,0.00000029,0.00
 295957,0.00008233,0.00000160,0.00007086,-0.00090140,-0.00000024,0.0005
 1513,-0.00074213,0.00000018,0.00060590,0.00013559,0.00000035,0.1334388
 1,-0.00365645,-0.00298108,0.00000001,0.01546731,-0.01724951,0.00000234
 ,0.12337888,-0.27996852,0.00001763,-0.00368076,0.00285138,-0.00000034,
 -0.00062430,0.00133637,-0.00000003,-0.00103192,-0.00001742,-0.00000014
 ,-0.00057882,-0.00002098,0.00000021,0.00000399,0.00003928,0.,-0.000063
 71,0.00145989,-0.00000012,0.00009650,0.00026505,-0.00000017,0.00080549
 ,-0.00081614,0.00000019,0.00004151,0.00083820,-0.00000018,-0.13097288,
 0.29375659,-0.00000006,-0.00000014,0.00688502,0.00000048,0.00000073,0.
 00442594,-0.00001339,0.00001661,-0.03722743,-0.00000078,0.00000142,0.0
 0399205,-0.00000146,0.00000073,0.00607072,-0.00000044,-0.00000068,-0.0
 0107281,-0.00000006,0.00000005,0.00130244,-0.00000011,0.00000005,-0.00
 022781,0.00000027,0.00000141,-0.00380303,0.,0.00000016,-0.00013346,0.0
 0000005,-0.00000007,-0.00019382,0.00000042,-0.00000026,-0.00401841,0.0
 0001462,-0.00001949,0.02524382,-0.00850137,0.02743110,-0.00000302,-0.0
 0569041,-0.00041503,-0.00000094,-0.00092531,-0.00100777,-0.00000005,-0
 .00157178,-0.00235957,-0.00000026,0.01207533,-0.01615095,0.00000187,-0
 .13152036,0.12735268,-0.00001438,0.00160082,-0.00226038,0.00000055,-0.
 00462169,0.00008270,-0.00000010,-0.00004778,-0.00150062,-0.00000045,0.
 00001844,0.00140731,-0.00000031,0.00080089,-0.00009484,0.00000028,-0.0
 0041762,0.00126981,0.,0.00006345,0.00008164,0.00000004,0.13808646,-0.0
 0291473,0.00634971,-0.00000053,-0.00118984,0.00091428,0.00000014,-0.00
 029590,0.00032949,-0.00000013,-0.00358738,-0.00128485,-0.00000012,0.01
 329732,-0.01799213,0.00000226,0.12567938,-0.28789876,0.00002275,0.0011
 8797,-0.00244001,-0.00000022,0.00073980,0.00119956,-0.00000002,0.00022
 755,-0.00101282,-0.00000009,0.00004293,0.00112651,-0.00000007,0.000060
 58,0.00057690,-0.00000016,-0.00021898,0.00021617,-0.00000005,0.0000794
 5,0.00000682,-0.00000001,-0.13345091,0.29989702,-0.00000086,0.00000281
 ,0.00610325,-0.00000135,0.00000066,0.00726939,-0.00000026,-0.00000039,
 -0.00105890,0.00000003,0.00000021,0.00604156,0.00000252,0.00000170,0.0
 0387889,-0.00001528,0.00001925,-0.04164175,-0.00000216,-0.00000028,-0.
 00427997,-0.00000056,-0.00000081,0.00026426,-0.00000057,0.00000021,0.0
 0093923,0.00000069,0.00000077,0.00060649,0.00000051,-0.00000036,-0.004
 17131,0.00000002,0.00000011,-0.00058945,0.00000003,-0.00000003,-0.0006
 6261,0.00001707,-0.00002390,0.02741220,-0.00011213,-0.00013071,-0.0000
 0012,0.00007688,-0.00034144,0.00000008,0.00052218,0.00049846,-0.000000
 13,-0.00111312,-0.00007206,0.,0.00191761,0.00192622,0.00000439,0.00070
 970,-0.00004888,-0.00000007,-0.02608305,0.00923281,0.00000428,-0.49909
 109,-0.02463881,0.00018681,0.00131386,-0.00054486,0.00000044,0.0014274
 4,-0.01032047,0.00000043,0.00001907,0.00000325,0.00000001,0.00000072,-
 0.00001484,0.,-0.00002921,-0.00000833,-0.00000006,-0.00002439,-0.00013
 373,0.00000002,0.52220013,-0.00003473,0.00030558,-0.00000018,-0.000153
 90,0.00001733,0.00000007,-0.00003357,-0.00052589,0.00000002,0.00163453
 ,0.00083960,0.00000040,0.00084039,-0.00594792,0.00000028,-0.00093607,-
 0.00031368,0.00000016,0.05706429,0.00214589,-0.00002178,-0.07487736,-0
 .05113413,0.00002441,-0.00149442,0.00069041,0.00000011,-0.00725809,0.0
 0288807,0.00000375,-0.00002270,0.00000824,0.,-0.00001314,0.00002486,-0
 .00000002,0.00012148,0.00000838,0.,0.00030111,0.00061535,-0.00000003,0
 .02300053,0.05207540,0.00000005,0.00000019,0.00008762,-0.00000009,0.00
 000017,0.00005264,-0.00000029,-0.00000023,-0.00029157,0.00000022,0.000
 00010,0.00065465,-0.00000304,0.00000090,0.00555485,-0.00000044,-0.0000
 0024,-0.00043926,0.00001611,-0.00000464,0.00353816,0.00018743,0.000008
 78,-0.01743695,0.00000036,-0.00000013,0.00022158,-0.00000309,0.0000003
 5,-0.00598831,0.00000002,-0.00000001,0.00002985,0.,0.00000002,-0.00001
 930,0.00000002,0.00000002,-0.00012457,-0.00000018,0.00000022,-0.000126
 90,-0.00019685,-0.00000565,0.01431993,0.00060053,-0.00052475,-0.000180
 08,-0.00004799,0.00064133,0.00065157,0.00047522,-0.00180664,0.00027929
 ,0.00500831,-0.01134782,-0.01661431,-0.00133411,-0.00002573,-0.0009998
 3,-0.00081746,-0.00059027,0.00079399,-0.00067214,-0.00063176,-0.000414
 87,0.00004727,0.00026992,0.00054279,-0.07116505,0.04292168,0.06324006,
 -0.00279076,0.00251627,-0.00234476,-0.00002654,0.00006813,-0.00007479,
 -0.00002035,0.00000032,-0.00001413,-0.00090739,0.00034839,-0.00048317,
 -0.00006528,-0.00007818,0.00015054,0.00003372,-0.00003165,-0.00000201,
 0.06666929,-0.00030938,0.00032969,-0.00022474,0.00015474,-0.00107415,0
 .00116292,0.00137087,0.00219264,0.00029264,0.00549787,-0.01982511,-0.0
 2011965,-0.00281063,-0.00154296,-0.00100851,0.00068857,-0.00055368,0.0
 0113347,-0.00033603,-0.00099698,-0.00060559,-0.00016563,0.00054296,-0.
 00007890,0.04250815,-0.16334004,-0.16375868,0.00029115,0.00085670,0.00
 052415,-0.00002154,0.00002203,-0.00018102,0.00002328,0.00008801,-0.000
 01856,-0.00032689,0.00025412,-0.00077533,-0.00016810,-0.00016591,0.000
 18067,0.00012167,-0.00006900,-0.00000246,-0.04112837,0.17242437,-0.000
 32793,0.00044256,0.00001148,0.00001088,-0.00048233,0.00026627,0.000670
 10,0.00111516,0.00034777,-0.00373637,-0.00019029,0.00647593,0.00040907
 ,0.00127735,-0.00025440,0.00023642,0.00051118,-0.00023103,0.00057439,-
 0.00085071,0.00038285,-0.00037037,0.00064415,-0.00002082,0.05959467,-0
 .15515140,-0.30090754,-0.00143903,0.00150746,-0.00066841,-0.00001018,0
 .00001988,-0.00004486,0.00005155,0.00007696,0.00002521,-0.00035431,-0.
 00019762,-0.00012071,0.00006048,0.00009709,0.00000862,0.00011456,-0.00
 006340,0.00006207,-0.06652588,0.16951149,0.31340799,-0.00072574,0.0008
 3986,0.00000011,-0.00050908,0.00040625,-0.00000053,-0.00004081,0.00064
 292,-0.00000087,-0.02217829,-0.01424734,-0.00000667,-0.00257024,-0.001
 78530,-0.00000245,-0.00115104,0.00281743,-0.00000117,0.03131935,0.0234
 7392,-0.00002047,-0.00244750,-0.01444513,0.00000953,-0.26123885,0.0473
 3075,-0.00011636,-0.01679916,-0.03099002,-0.00001872,-0.00020691,0.000
 04229,0.00000014,0.00013337,0.00020785,0.00000013,-0.00087209,0.000045
 32,0.00000006,0.00080568,0.00063265,-0.00000001,-0.00180185,0.00192444
 ,-0.00000025,0.00331052,0.00036686,0.00233357,0.27163839,0.00114451,-0
 .00074500,-0.00000006,-0.00131361,0.00107546,0.00000076,-0.00190020,-0
 .00827457,-0.00000104,-0.02958866,0.01683315,-0.00001462,0.00229428,0.
 00074923,0.00000078,-0.00025596,-0.00196940,0.00000132,-0.01534945,-0.
 03153184,0.00000926,0.00047789,0.01044049,-0.00000480,0.03480023,-0.06
 702797,0.00003140,-0.00485882,0.01977943,0.00002177,0.00025020,-0.0000
 7494,-0.00000020,-0.00025505,-0.00058506,0.00000019,0.00090586,-0.0000
 1639,-0.00000022,-0.00035032,-0.00027149,0.00000003,0.00134946,-0.0015
 5930,0.00000020,0.01514012,-0.00410161,0.00064324,-0.01762329,0.071379
 73,0.00000021,-0.00000016,0.00016241,0.00000008,0.00000021,0.00027720,
 0.00000087,-0.00000052,0.00067918,-0.00000162,0.00000207,-0.00124498,0
 .00000241,0.00000190,0.00108959,0.00000052,-0.00000011,-0.00048684,-0.
 00001214,-0.00000489,-0.00037072,0.00000387,0.00000870,0.00268956,-0.0
 0013652,0.00004316,-0.06898262,-0.00000400,0.00000974,-0.01269792,0.00
 000010,0.,-0.00000105,0.,-0.00000008,-0.00004252,0.00000009,0.00000005
 ,-0.00021465,-0.00000013,-0.00000009,-0.00000165,0.00000081,-0.0000014
 6,-0.00015665,0.03068034,-0.00492538,0.00297903,0.00015543,-0.00005811
 ,0.07336908,0.00060037,-0.00052433,0.00018012,-0.00004829,0.00064128,-
 0.00065277,0.00047389,-0.00180657,-0.00027968,0.00498800,-0.01134245,0
 .01661634,-0.00133425,-0.00002236,0.00099964,-0.00081740,-0.00058972,-
 0.00079373,-0.00066389,-0.00062732,0.00041558,0.00004549,0.00026762,-0
 .00054366,-0.07105702,0.04277151,-0.06305940,-0.00278237,0.00250406,0.
 00235158,-0.00002656,0.00006809,0.00007489,-0.00002036,0.00000029,0.00
 001421,-0.00090695,0.00034815,0.00048358,-0.00006508,-0.00007799,-0.00
 015038,0.00003352,-0.00003114,0.00000201,0.00170223,-0.00575658,0.0087
 0837,0.00333425,0.01513281,-0.03069031,0.06654442,-0.00030922,0.000329
 31,0.00022464,0.00015475,-0.00107421,-0.00116300,0.00137061,0.00219013
 ,-0.00029186,0.00547437,-0.01981581,0.02013177,-0.00280738,-0.00154241
 ,0.00100719,0.00068741,-0.00055356,-0.00113395,-0.00033918,-0.00100060
 ,0.00060702,-0.00016499,0.00054371,0.00007925,0.04235032,-0.16324830,0
 .16377126,0.00029005,0.00085955,-0.00052655,-0.00002153,0.00002203,0.0
 0018106,0.00002321,0.00008785,0.00001849,-0.00032647,0.00025397,0.0007
 7504,-0.00016787,-0.00016584,-0.00018062,0.00012174,-0.00006917,0.0000
 0241,-0.00574099,0.01495893,-0.01891077,0.00036054,-0.00409991,0.00492
 497,-0.04095536,0.17232432,0.00032821,-0.00044306,0.00001152,-0.000010
 81,0.00048286,0.00026602,-0.00067040,-0.00111559,0.00034699,0.00373551
 ,0.00019151,0.00648905,-0.00040775,-0.00127729,-0.00025383,-0.00023720
 ,-0.00051130,-0.00023154,-0.00057690,0.00084924,0.00038187,0.00037094,
 -0.00064398,-0.00002087,-0.05941157,0.15515726,-0.30112401,0.00143544,
 -0.00150399,-0.00067080,0.00001019,-0.00001984,-0.00004485,-0.00005155
 ,-0.00007693,0.00002529,0.00035358,0.00019767,-0.00012068,-0.00006046,
 -0.00009707,0.00000867,-0.00011458,0.00006332,0.00006216,-0.00868475,0
 .01889347,-0.02171945,-0.00233149,-0.00062991,0.00295354,0.06632361,-0
 .16951636,0.31364090\\0.00005028,-0.00003776,0.00000377,-0.00002879,0.
 00004513,-0.00000040,0.00000609,-0.00001083,-0.00000226,-0.00009476,-0
 .00005033,-0.00000474,0.00004781,-0.00006822,-0.00003535,-0.00000066,-
 0.00000231,-0.00000132,-0.00007575,-0.00001300,0.00012774,-0.00012711,
 -0.00015346,-0.00003474,0.00000026,-0.00001310,-0.00003345,0.00005397,
 0.00015203,-0.00006688,0.00001518,-0.00000806,-0.00000049,0.00000752,0
 .00000399,0.00000053,-0.00000090,-0.00000585,0.00000117,0.00001788,0.0
 0000632,-0.00000118,0.00008336,0.00005826,-0.00000116,-0.00000454,0.00
 003323,0.00003390,0.00007443,0.00002747,0.00004461,-0.00002428,0.00003
 647,-0.00002975\\\@


 Other things may change us, but we start and end with family.
 -- Anthony Brandt
 Job cpu time:       0 days  0 hours 27 minutes  3.7 seconds.
 File lengths (MBytes):  RWF=    100 Int=      0 D2E=      0 Chk=      5 Scr=      1
 Normal termination of Gaussian 09 at Sat Jun 22 16:55:01 2024.
