 Entering Gaussian System, Link 0=g09
 Input=B2PLYPD3BJDHB.gjf
 Output=B2PLYPD3BJDHB.log
 Initial command:
 /home/c612/g09E/g09/l1.exe "/mnt/ja_sm883/scratch/Gau-1857319.inp" -scrdir="/mnt/ja_sm883/scratch/"
 Default is to use a total of  18 processors:
                               18 via shared-memory
                                1 via Linda
 Entering Link 1 = /home/c612/g09E/g09/l1.exe PID=   1857321.
  
 Copyright (c) 1988,1990,1992,1993,1995,1998,2003,2009,2015,
            Gaussian, Inc.  All Rights Reserved.
  
 This is part of the Gaussian(R) 09 program.  It is based on
 the Gaussian(R) 03 system (copyright 2003, Gaussian, Inc.),
 the Gaussian(R) 98 system (copyright 1998, Gaussian, Inc.),
 the Gaussian(R) 94 system (copyright 1995, Gaussian, Inc.),
 the Gaussian 92(TM) system (copyright 1992, Gaussian, Inc.),
 the Gaussian 90(TM) system (copyright 1990, Gaussian, Inc.),
 the Gaussian 88(TM) system (copyright 1988, Gaussian, Inc.),
 the Gaussian 86(TM) system (copyright 1986, Carnegie Mellon
 University), and the Gaussian 82(TM) system (copyright 1983,
 Carnegie Mellon University). Gaussian is a federally registered
 trademark of Gaussian, Inc.
  
 This software contains proprietary and confidential information,
 including trade secrets, belonging to Gaussian, Inc.
  
 This software is provided under written license and may be
 used, copied, transmitted, or stored only in accord with that
 written license.
  
 The following legend is applicable only to US Government
 contracts under FAR:
  
                    RESTRICTED RIGHTS LEGEND
  
 Use, reproduction and disclosure by the US Government is
 subject to restrictions as set forth in subparagraphs (a)
 and (c) of the Commercial Computer Software - Restricted
 Rights clause in FAR 52.227-19.
  
 Gaussian, Inc.
 340 Quinnipiac St., Bldg. 40, Wallingford CT 06492
  
  
 ---------------------------------------------------------------
 Warning -- This program may not be used in any manner that
 competes with the business of Gaussian, Inc. or will provide
 assistance to any competitor of Gaussian, Inc.  The licensee
 of this program is prohibited from giving any competitor of
 Gaussian, Inc. access to this program.  By using this program,
 the user acknowledges that Gaussian, Inc. is engaged in the
 business of creating and licensing software in the field of
 computational chemistry and represents and warrants to the
 licensee that it is not a competitor of Gaussian, Inc. and that
 it will not use this program in any manner prohibited above.
 ---------------------------------------------------------------
  

 Cite this work as:
 Gaussian 09, Revision E.01,
 M. J. Frisch, G. W. Trucks, H. B. Schlegel, G. E. Scuseria, 
 M. A. Robb, J. R. Cheeseman, G. Scalmani, V. Barone, B. Mennucci, 
 G. A. Petersson, H. Nakatsuji, M. Caricato, X. Li, H. P. Hratchian, 
 A. F. Izmaylov, J. Bloino, G. Zheng, J. L. Sonnenberg, M. Hada, 
 M. Ehara, K. Toyota, R. Fukuda, J. Hasegawa, M. Ishida, T. Nakajima, 
 Y. Honda, O. Kitao, H. Nakai, T. Vreven, J. A. Montgomery, Jr., 
 J. E. Peralta, F. Ogliaro, M. Bearpark, J. J. Heyd, E. Brothers, 
 K. N. Kudin, V. N. Staroverov, T. Keith, R. Kobayashi, J. Normand, 
 K. Raghavachari, A. Rendell, J. C. Burant, S. S. Iyengar, J. Tomasi, 
 M. Cossi, N. Rega, J. M. Millam, M. Klene, J. E. Knox, J. B. Cross, 
 V. Bakken, C. Adamo, J. Jaramillo, R. Gomperts, R. E. Stratmann, 
 O. Yazyev, A. J. Austin, R. Cammi, C. Pomelli, J. W. Ochterski, 
 R. L. Martin, K. Morokuma, V. G. Zakrzewski, G. A. Voth, 
 P. Salvador, J. J. Dannenberg, S. Dapprich, A. D. Daniels, 
 O. Farkas, J. B. Foresman, J. V. Ortiz, J. Cioslowski, 
 and D. J. Fox, Gaussian, Inc., Wallingford CT, 2013.
 
 ******************************************
 Gaussian 09:  ES64L-G09RevE.01 30-Nov-2015
                17-Dec-2024 
 ******************************************
 %chk=B2PLYPD3BJDHB.chk
 -------------------------------------------------------
 # opt freq B2PLYP/6-31+g(d,p) empiricaldispersion=gd3bj
 -------------------------------------------------------
 1/18=20,19=15,38=1/1,3;
 2/9=110,12=2,17=6,18=5,40=1/2;
 3/5=1,6=6,7=111,11=9,16=1,25=1,30=1,71=1,74=-47,124=41/1,2,3;
 4//1;
 5/5=2,38=5/2;
 8/6=4,10=2/1;
 9/15=2,16=-3/6;
 10/5=1/2;
 6/7=2,8=2,9=2,10=2/1;
 7/12=2/1,2,3,16;
 1/18=20,19=15/3(2);
 2/9=110/2;
 99//99;
 2/9=110/2;
 3/5=1,6=6,7=111,11=9,16=1,25=1,30=1,71=1,74=-47,124=41/1,2,3;
 4/5=5,16=3,69=1/1;
 5/5=2,38=5/2;
 8/6=4,10=2/1;
 9/15=2,16=-3/6;
 10/5=1/2;
 7/12=2/1,2,3,16;
 1/18=20,19=15/3(-8);
 2/9=110/2;
 6/7=2,8=2,9=2,10=2/1;
 99//99;
 ----------
 [No Title]
 ----------
 Symbolic Z-matrix:
 Charge =  0 Multiplicity = 1
 C                     0.23361   1.27446   0.00001 
 C                     0.4678   -0.12076   0.00001 
 C                    -0.63122  -0.99704   0.00001 
 C                    -1.93805  -0.52003   0.00001 
 C                    -2.16608   0.85946   0.00001 
 C                    -1.08726   1.7407    0.00002 
 O                    -2.95013  -1.44966  -0.00002 
 C                     1.84875  -0.67341  -0.00002 
 O                     1.85843  -2.04078   0.00013 
 O                     2.88322  -0.03801  -0.0002 
 O                     1.2852    2.13941   0.00003 
 H                    -0.46529  -2.06661   0.00001 
 H                    -3.18074   1.25079  0. 
 H                    -1.27179   2.81238   0.00002 
 H                    -3.80969  -1.00982   0.00014 
 H                     2.79343  -2.30235   0.00005 
 H                     0.95503   3.04763   0.00005 
 

 GradGradGradGradGradGradGradGradGradGradGradGradGradGradGradGradGradGrad
 Berny optimization.
 Initialization pass.
                           ----------------------------
                           !    Initial Parameters    !
                           ! (Angstroms and Degrees)  !
 --------------------------                            --------------------------
 ! Name  Definition              Value          Derivative Info.                !
 --------------------------------------------------------------------------------
 ! R1    R(1,2)                  1.4147         estimate D2E/DX2                !
 ! R2    R(1,6)                  1.4007         estimate D2E/DX2                !
 ! R3    R(1,11)                 1.3616         estimate D2E/DX2                !
 ! R4    R(2,3)                  1.4056         estimate D2E/DX2                !
 ! R5    R(2,8)                  1.4874         estimate D2E/DX2                !
 ! R6    R(3,4)                  1.3912         estimate D2E/DX2                !
 ! R7    R(3,12)                 1.0824         estimate D2E/DX2                !
 ! R8    R(4,5)                  1.3982         estimate D2E/DX2                !
 ! R9    R(4,7)                  1.3742         estimate D2E/DX2                !
 ! R10   R(5,6)                  1.393          estimate D2E/DX2                !
 ! R11   R(5,13)                 1.0875         estimate D2E/DX2                !
 ! R12   R(6,14)                 1.0874         estimate D2E/DX2                !
 ! R13   R(7,15)                 0.9656         estimate D2E/DX2                !
 ! R14   R(8,9)                  1.3674         estimate D2E/DX2                !
 ! R15   R(8,10)                 1.214          estimate D2E/DX2                !
 ! R16   R(9,16)                 0.9709         estimate D2E/DX2                !
 ! R17   R(11,17)                0.9664         estimate D2E/DX2                !
 ! A1    A(2,1,6)              118.9707         estimate D2E/DX2                !
 ! A2    A(2,1,11)             119.9096         estimate D2E/DX2                !
 ! A3    A(6,1,11)             121.1197         estimate D2E/DX2                !
 ! A4    A(1,2,3)              119.0378         estimate D2E/DX2                !
 ! A5    A(1,2,8)              121.3397         estimate D2E/DX2                !
 ! A6    A(3,2,8)              119.6224         estimate D2E/DX2                !
 ! A7    A(2,3,4)              121.3809         estimate D2E/DX2                !
 ! A8    A(2,3,12)             119.7476         estimate D2E/DX2                !
 ! A9    A(4,3,12)             118.8715         estimate D2E/DX2                !
 ! A10   A(3,4,5)              119.4391         estimate D2E/DX2                !
 ! A11   A(3,4,7)              117.379          estimate D2E/DX2                !
 ! A12   A(5,4,7)              123.1819         estimate D2E/DX2                !
 ! A13   A(4,5,6)              119.8576         estimate D2E/DX2                !
 ! A14   A(4,5,13)             120.4769         estimate D2E/DX2                !
 ! A15   A(6,5,13)             119.6655         estimate D2E/DX2                !
 ! A16   A(1,6,5)              121.3139         estimate D2E/DX2                !
 ! A17   A(1,6,14)             119.2117         estimate D2E/DX2                !
 ! A18   A(5,6,14)             119.4743         estimate D2E/DX2                !
 ! A19   A(4,7,15)             110.3328         estimate D2E/DX2                !
 ! A20   A(2,8,9)              112.2169         estimate D2E/DX2                !
 ! A21   A(2,8,10)             126.6291         estimate D2E/DX2                !
 ! A22   A(9,8,10)             121.1539         estimate D2E/DX2                !
 ! A23   A(8,9,16)             106.0351         estimate D2E/DX2                !
 ! A24   A(1,11,17)            109.46           estimate D2E/DX2                !
 ! D1    D(6,1,2,3)             -0.0004         estimate D2E/DX2                !
 ! D2    D(6,1,2,8)            179.9993         estimate D2E/DX2                !
 ! D3    D(11,1,2,3)           179.9991         estimate D2E/DX2                !
 ! D4    D(11,1,2,8)            -0.0013         estimate D2E/DX2                !
 ! D5    D(2,1,6,5)             -0.0003         estimate D2E/DX2                !
 ! D6    D(2,1,6,14)           179.9999         estimate D2E/DX2                !
 ! D7    D(11,1,6,5)          -179.9998         estimate D2E/DX2                !
 ! D8    D(11,1,6,14)            0.0005         estimate D2E/DX2                !
 ! D9    D(2,1,11,17)         -179.9986         estimate D2E/DX2                !
 ! D10   D(6,1,11,17)            0.0008         estimate D2E/DX2                !
 ! D11   D(1,2,3,4)              0.0008         estimate D2E/DX2                !
 ! D12   D(1,2,3,12)          -179.9996         estimate D2E/DX2                !
 ! D13   D(8,2,3,4)           -179.9989         estimate D2E/DX2                !
 ! D14   D(8,2,3,12)             0.0008         estimate D2E/DX2                !
 ! D15   D(1,2,8,9)            179.9934         estimate D2E/DX2                !
 ! D16   D(1,2,8,10)            -0.0101         estimate D2E/DX2                !
 ! D17   D(3,2,8,9)             -0.007          estimate D2E/DX2                !
 ! D18   D(3,2,8,10)           179.9895         estimate D2E/DX2                !
 ! D19   D(2,3,4,5)             -0.0004         estimate D2E/DX2                !
 ! D20   D(2,3,4,7)            179.9987         estimate D2E/DX2                !
 ! D21   D(12,3,4,5)           179.9999         estimate D2E/DX2                !
 ! D22   D(12,3,4,7)            -0.001          estimate D2E/DX2                !
 ! D23   D(3,4,5,6)             -0.0003         estimate D2E/DX2                !
 ! D24   D(3,4,5,13)           179.9996         estimate D2E/DX2                !
 ! D25   D(7,4,5,6)           -179.9993         estimate D2E/DX2                !
 ! D26   D(7,4,5,13)             0.0006         estimate D2E/DX2                !
 ! D27   D(3,4,7,15)           179.9901         estimate D2E/DX2                !
 ! D28   D(5,4,7,15)            -0.0108         estimate D2E/DX2                !
 ! D29   D(4,5,6,1)              0.0007         estimate D2E/DX2                !
 ! D30   D(4,5,6,14)          -179.9996         estimate D2E/DX2                !
 ! D31   D(13,5,6,1)          -179.9992         estimate D2E/DX2                !
 ! D32   D(13,5,6,14)            0.0005         estimate D2E/DX2                !
 ! D33   D(2,8,9,16)           179.9971         estimate D2E/DX2                !
 ! D34   D(10,8,9,16)            0.0004         estimate D2E/DX2                !
 --------------------------------------------------------------------------------
 Trust Radius=3.00D-01 FncErr=1.00D-07 GrdErr=1.00D-07
 Number of steps in this run=     85 maximum allowed number of steps=    102.
 GradGradGradGradGradGradGradGradGradGradGradGradGradGradGradGradGradGrad

                          Input orientation:                          
 ---------------------------------------------------------------------
 Center     Atomic      Atomic             Coordinates (Angstroms)
 Number     Number       Type             X           Y           Z
 ---------------------------------------------------------------------
      1          6           0        0.233610    1.274455    0.000012
      2          6           0        0.467803   -0.120760    0.000005
      3          6           0       -0.631221   -0.997043    0.000010
      4          6           0       -1.938045   -0.520034    0.000006
      5          6           0       -2.166080    0.859462    0.000006
      6          6           0       -1.087262    1.740701    0.000016
      7          8           0       -2.950129   -1.449657   -0.000017
      8          6           0        1.848747   -0.673412   -0.000016
      9          8           0        1.858429   -2.040780    0.000127
     10          8           0        2.883217   -0.038006   -0.000201
     11          8           0        1.285199    2.139413    0.000026
     12          1           0       -0.465286   -2.066607    0.000012
     13          1           0       -3.180735    1.250794   -0.000003
     14          1           0       -1.271786    2.812376    0.000023
     15          1           0       -3.809685   -1.009819    0.000138
     16          1           0        2.793425   -2.302353    0.000054
     17          1           0        0.955029    3.047625    0.000051
 ---------------------------------------------------------------------
                    Distance matrix (angstroms):
                    1          2          3          4          5
     1  C    0.000000
     2  C    1.414734   0.000000
     3  C    2.430563   1.405605   0.000000
     4  C    2.817140   2.438755   1.391160   0.000000
     5  C    2.435309   2.810369   2.408818   1.398216   0.000000
     6  C    1.400746   2.425544   2.775467   2.415524   1.392993
     7  O    4.190105   3.667182   2.362667   1.374232   2.438599
     8  C    2.530386   1.487424   2.500995   3.789897   4.297504
     9  O    3.691994   2.370721   2.699582   4.089729   4.960653
    10  O    2.956852   2.416831   3.642942   4.845299   5.128435
    11  O    1.361614   2.403439   3.675598   4.178751   3.680978
    12  H    3.413378   2.158003   1.082359   2.135628   3.384462
    13  H    3.414427   3.897819   3.398940   2.163356   1.087504
    14  H    2.152073   3.410199   3.862900   3.398361   2.147937
    15  H    4.643936   4.368905   3.178490   1.934664   2.489106
    16  H    4.398432   3.188709   3.664974   5.056033   5.881646
    17  H    1.914309   3.205628   4.344598   4.593263   3.811742
                    6          7          8          9         10
     6  C    0.000000
     7  O    3.694409   0.000000
     8  C    3.801064   4.861252   0.000000
     9  O    4.793401   4.844756   1.367402   0.000000
    10  O    4.350690   6.001723   1.214030   2.249732   0.000000
    11  O    2.405731   5.551525   2.868723   4.219313   2.700892
    12  H    3.857778   2.560287   2.701063   2.323859   3.915060
    13  H    2.150032   2.710279   5.385003   6.018940   6.199397
    14  H    1.087445   4.580585   4.678509   5.775064   5.038723
    15  H    3.870006   0.965554   5.668423   5.761111   6.763088
    16  H    5.604107   5.806505   1.883047   0.970895   2.266127
    17  H    2.424666   5.956157   3.826859   5.167978   3.638547
                   11         12         13         14         15
    11  O    0.000000
    12  H    4.555744   0.000000
    13  H    4.553483   4.287052   0.000000
    14  H    2.644060   4.945191   2.466298   0.000000
    15  H    5.989616   3.507393   2.346476   4.588039   0.000000
    16  H    4.690845   3.267227   6.950931   6.533482   6.728425
    17  H    0.966365   5.307793   4.509229   2.239207   6.258223
                   16         17
    16  H    0.000000
    17  H    5.657028   0.000000
 Stoichiometry    C7H6O4
 Framework group  C1[X(C7H6O4)]
 Deg. of freedom    45
 Full point group                 C1      NOp   1
 Largest Abelian subgroup         C1      NOp   1
 Largest concise Abelian subgroup C1      NOp   1
                         Standard orientation:                         
 ---------------------------------------------------------------------
 Center     Atomic      Atomic             Coordinates (Angstroms)
 Number     Number       Type             X           Y           Z
 ---------------------------------------------------------------------
      1          6           0        0.233610    1.274455    0.000012
      2          6           0        0.467803   -0.120760    0.000005
      3          6           0       -0.631221   -0.997043    0.000010
      4          6           0       -1.938045   -0.520034    0.000006
      5          6           0       -2.166080    0.859462    0.000006
      6          6           0       -1.087262    1.740701    0.000016
      7          8           0       -2.950129   -1.449657   -0.000017
      8          6           0        1.848747   -0.673412   -0.000016
      9          8           0        1.858429   -2.040780    0.000127
     10          8           0        2.883217   -0.038006   -0.000201
     11          8           0        1.285199    2.139413    0.000026
     12          1           0       -0.465286   -2.066607    0.000012
     13          1           0       -3.180735    1.250794   -0.000003
     14          1           0       -1.271786    2.812376    0.000023
     15          1           0       -3.809685   -1.009818    0.000138
     16          1           0        2.793425   -2.302353    0.000054
     17          1           0        0.955029    3.047625    0.000051
 ---------------------------------------------------------------------
 Rotational constants (GHZ):      1.7524450      0.9123726      0.5999971
 Standard basis: 6-31+G(d,p) (6D, 7F)
 There are   239 symmetry adapted cartesian basis functions of A   symmetry.
 There are   239 symmetry adapted basis functions of A   symmetry.
   239 basis functions,   394 primitive gaussians,   239 cartesian basis functions
    40 alpha electrons       40 beta electrons
       nuclear repulsion energy       589.1190713487 Hartrees.
 NAtoms=   17 NActive=   17 NUniq=   17 SFac= 1.00D+00 NAtFMM=   60 NAOKFM=F Big=F
 Integral buffers will be    131072 words long.
 Regular integral format.
 Two-electron integral symmetry is turned on.
 Nuclear repulsion after empirical dispersion term =      589.1004897911 Hartrees.
 One-electron integrals computed using PRISM.
 NBasis=   239 RedAO= T EigKep=  3.24D-06  NBF=   239
 NBsUse=   239 1.00D-06 EigRej= -1.00D+00 NBFU=   239
 ExpMin= 4.38D-02 ExpMax= 5.48D+03 ExpMxC= 8.25D+02 IAcc=2 IRadAn=         4 AccDes= 0.00D+00
 Harris functional with IExCor=  419 and IRadAn=       4 diagonalized for initial guess.
 HarFok:  IExCor=  419 AccDes= 0.00D+00 IRadAn=         4 IDoV= 1 UseB2=F ITyADJ=14
 ICtDFT=  3500011 ScaDFX=  1.000000  1.000000  1.000000  1.000000
 FoFCou: FMM=F IPFlag=           0 FMFlag=      100000 FMFlg1=           0
         NFxFlg=           0 DoJE=T BraDBF=F KetDBF=T FulRan=T
         wScrn=  0.000000 ICntrl=     500 IOpCl=  0 I1Cent=   200000004 NGrid=           0
         NMat0=    1 NMatS0=      1 NMatT0=    0 NMatD0=    1 NMtDS0=    0 NMtDT0=    0
 Petite list used in FoFCou.
 Keep R1 ints in memory in canonical form, NReq=418393415.
 Requested convergence on RMS density matrix=1.00D-08 within 128 cycles.
 Requested convergence on MAX density matrix=1.00D-06.
 Requested convergence on             energy=1.00D-06.
 No special actions if energy rises.
 SCF Done:  E(RB2PLYP) =  -570.230109417     A.U. after   16 cycles
            NFock= 16  Conv=0.24D-08     -V/T= 2.0069
 DoSCS=T DFT=T ScalE2(SS,OS)=  0.270000  0.270000
 ExpMin= 4.38D-02 ExpMax= 5.48D+03 ExpMxC= 8.25D+02 IAcc=3 IRadAn=         5 AccDes= 0.00D+00
 HarFok:  IExCor=  205 AccDes= 0.00D+00 IRadAn=         5 IDoV=-2 UseB2=F ITyADJ=14
 ICtDFT= 12500011 ScaDFX=  1.000000  1.000000  1.000000  1.000000
 Range of M.O.s used for correlation:    12   239
 NBasis=   239 NAE=    40 NBE=    40 NFC=    11 NFV=     0
 NROrb=    228 NOA=    29 NOB=    29 NVA=   199 NVB=   199

 **** Warning!!: The largest alpha MO coefficient is  0.16198604D+03

 DoSCS=T DFT=T ScalE2(SS,OS)=  0.270000  0.270000
 Fully direct method using O(ONN) memory.
 JobTyp=1 Pass  1:  I=  12 to  17 NPSUse= 18 ParTrn=T ParDer=T DoDerP=T.
 JobTyp=1 Pass  2:  I=  18 to  23 NPSUse= 18 ParTrn=T ParDer=T DoDerP=T.
 JobTyp=1 Pass  3:  I=  24 to  29 NPSUse= 18 ParTrn=T ParDer=T DoDerP=T.
 JobTyp=1 Pass  4:  I=  30 to  35 NPSUse= 18 ParTrn=T ParDer=T DoDerP=T.
 JobTyp=1 Pass  5:  I=  36 to  40 NPSUse= 18 ParTrn=T ParDer=T DoDerP=T.
 Spin components of T(2) and E(2):
     alpha-alpha T2 =       0.1208079895D+00 E2=     -0.7590971857D-01
     alpha-beta  T2 =       0.6097763394D+00 E2=     -0.3977323401D+00
     beta-beta   T2 =       0.1208079895D+00 E2=     -0.7590971857D-01
 E2(B2PLYP) =    -0.5495517773D+00 E(B2PLYP) =    -0.57077966119470D+03
          IDoAtm=11111111111111111
          Differentiating once with respect to electric field.
                with respect to dipole field.
          Differentiating once with respect to nuclear coordinates.
 Keep R1 ints in memory in canonical form, NReq=418199641.
          There are     1 degrees of freedom in the 1st order CPHF.  IDoFFX=0 NUNeed=     1.
 LinEq1:  Iter=  0 NonCon=     1 RMS=1.99D-03 Max=4.46D-02 NDo=     1
 AX will form     1 AO Fock derivatives at one time.
 LinEq1:  Iter=  1 NonCon=     1 RMS=8.98D-04 Max=1.66D-02 NDo=     1
 LinEq1:  Iter=  2 NonCon=     1 RMS=3.13D-04 Max=5.11D-03 NDo=     1
 LinEq1:  Iter=  3 NonCon=     1 RMS=2.47D-04 Max=7.62D-03 NDo=     1
 LinEq1:  Iter=  4 NonCon=     1 RMS=1.01D-04 Max=2.70D-03 NDo=     1
 LinEq1:  Iter=  5 NonCon=     1 RMS=4.65D-05 Max=1.24D-03 NDo=     1
 LinEq1:  Iter=  6 NonCon=     1 RMS=2.35D-05 Max=9.33D-04 NDo=     1
 LinEq1:  Iter=  7 NonCon=     1 RMS=1.13D-05 Max=4.32D-04 NDo=     1
 LinEq1:  Iter=  8 NonCon=     1 RMS=4.12D-06 Max=1.17D-04 NDo=     1
 LinEq1:  Iter=  9 NonCon=     1 RMS=2.28D-06 Max=5.11D-05 NDo=     1
 LinEq1:  Iter= 10 NonCon=     1 RMS=6.94D-07 Max=1.27D-05 NDo=     1
 LinEq1:  Iter= 11 NonCon=     1 RMS=2.90D-07 Max=7.36D-06 NDo=     1
 LinEq1:  Iter= 12 NonCon=     1 RMS=1.40D-07 Max=2.18D-06 NDo=     1
 LinEq1:  Iter= 13 NonCon=     1 RMS=5.58D-08 Max=1.71D-06 NDo=     1
 LinEq1:  Iter= 14 NonCon=     1 RMS=3.45D-08 Max=9.28D-07 NDo=     1
 LinEq1:  Iter= 15 NonCon=     1 RMS=1.05D-08 Max=2.73D-07 NDo=     1
 LinEq1:  Iter= 16 NonCon=     1 RMS=5.15D-09 Max=1.23D-07 NDo=     1
 LinEq1:  Iter= 17 NonCon=     1 RMS=1.73D-09 Max=4.91D-08 NDo=     1
 LinEq1:  Iter= 18 NonCon=     1 RMS=5.70D-10 Max=9.97D-09 NDo=     1
 LinEq1:  Iter= 19 NonCon=     1 RMS=2.95D-10 Max=4.56D-09 NDo=     1
 LinEq1:  Iter= 20 NonCon=     1 RMS=1.05D-10 Max=1.82D-09 NDo=     1
 LinEq1:  Iter= 21 NonCon=     0 RMS=4.61D-11 Max=4.24D-10 NDo=     1
 Linear equations converged to 1.000D-10 1.000D-09 after    21 iterations.
 End of Minotr F.D. properties file   721 does not exist.
 End of Minotr F.D. properties file   722 does not exist.
 End of Minotr F.D. properties file   788 does not exist.

 **********************************************************************

            Population analysis using the SCF density.

 **********************************************************************

 Orbital symmetries:
       Occupied  (A) (A) (A) (A) (A) (A) (A) (A) (A) (A) (A) (A)
                 (A) (A) (A) (A) (A) (A) (A) (A) (A) (A) (A) (A)
                 (A) (A) (A) (A) (A) (A) (A) (A) (A) (A) (A) (A)
                 (A) (A) (A) (A)
       Virtual   (A) (A) (A) (A) (A) (A) (A) (A) (A) (A) (A) (A)
                 (A) (A) (A) (A) (A) (A) (A) (A) (A) (A) (A) (A)
                 (A) (A) (A) (A) (A) (A) (A) (A) (A) (A) (A) (A)
                 (A) (A) (A) (A) (A) (A) (A) (A) (A) (A) (A) (A)
                 (A) (A) (A) (A) (A) (A) (A) (A) (A) (A) (A) (A)
                 (A) (A) (A) (A) (A) (A) (A) (A) (A) (A) (A) (A)
                 (A) (A) (A) (A) (A) (A) (A) (A) (A) (A) (A) (A)
                 (A) (A) (A) (A) (A) (A) (A) (A) (A) (A) (A) (A)
                 (A) (A) (A) (A) (A) (A) (A) (A) (A) (A) (A) (A)
                 (A) (A) (A) (A) (A) (A) (A) (A) (A) (A) (A) (A)
                 (A) (A) (A) (A) (A) (A) (A) (A) (A) (A) (A) (A)
                 (A) (A) (A) (A) (A) (A) (A) (A) (A) (A) (A) (A)
                 (A) (A) (A) (A) (A) (A) (A) (A) (A) (A) (A) (A)
                 (A) (A) (A) (A) (A) (A) (A) (A) (A) (A) (A) (A)
                 (A) (A) (A) (A) (A) (A) (A) (A) (A) (A) (A) (A)
                 (A) (A) (A) (A) (A) (A) (A) (A) (A) (A) (A) (A)
                 (A) (A) (A) (A) (A) (A) (A)
 The electronic state is 1-A.
 Alpha  occ. eigenvalues --  -19.79606 -19.78992 -19.78891 -19.73762 -10.77788
 Alpha  occ. eigenvalues --  -10.71842 -10.70702 -10.66216 -10.66198 -10.65555
 Alpha  occ. eigenvalues --  -10.65062  -1.25564  -1.22004  -1.21563  -1.15805
 Alpha  occ. eigenvalues --   -0.99678  -0.90270  -0.86684  -0.77686  -0.73968
 Alpha  occ. eigenvalues --   -0.70013  -0.64598  -0.63450  -0.59067  -0.57461
 Alpha  occ. eigenvalues --   -0.56556  -0.53166  -0.53061  -0.50795  -0.49887
 Alpha  occ. eigenvalues --   -0.49764  -0.48059  -0.47495  -0.45125  -0.43557
 Alpha  occ. eigenvalues --   -0.39263  -0.38738  -0.34870  -0.31736  -0.26387
 Alpha virt. eigenvalues --   -0.01013   0.01744   0.02531   0.03943   0.04406
 Alpha virt. eigenvalues --    0.04985   0.07237   0.07803   0.07850   0.09057
 Alpha virt. eigenvalues --    0.09933   0.10485   0.10648   0.12290   0.12341
 Alpha virt. eigenvalues --    0.13873   0.15136   0.15584   0.16543   0.17023
 Alpha virt. eigenvalues --    0.17786   0.18613   0.19519   0.19531   0.20215
 Alpha virt. eigenvalues --    0.20737   0.23221   0.23524   0.23712   0.24205
 Alpha virt. eigenvalues --    0.24429   0.24880   0.25648   0.25781   0.27970
 Alpha virt. eigenvalues --    0.28384   0.28734   0.29188   0.30281   0.31164
 Alpha virt. eigenvalues --    0.31333   0.32081   0.32967   0.33694   0.34806
 Alpha virt. eigenvalues --    0.34872   0.35176   0.36220   0.36537   0.37500
 Alpha virt. eigenvalues --    0.39020   0.39898   0.41556   0.41834   0.43665
 Alpha virt. eigenvalues --    0.44372   0.46705   0.47620   0.50020   0.52448
 Alpha virt. eigenvalues --    0.53069   0.55462   0.61435   0.68605   0.71905
 Alpha virt. eigenvalues --    0.73400   0.77035   0.77466   0.79364   0.81052
 Alpha virt. eigenvalues --    0.81716   0.83034   0.83964   0.85819   0.86704
 Alpha virt. eigenvalues --    0.88991   0.92620   0.93341   0.94807   0.95824
 Alpha virt. eigenvalues --    1.02661   1.03418   1.08181   1.09115   1.10518
 Alpha virt. eigenvalues --    1.12357   1.15440   1.17889   1.18126   1.22826
 Alpha virt. eigenvalues --    1.25340   1.26484   1.27263   1.29601   1.29867
 Alpha virt. eigenvalues --    1.31052   1.32078   1.32248   1.34795   1.35729
 Alpha virt. eigenvalues --    1.36318   1.38234   1.40846   1.41617   1.41931
 Alpha virt. eigenvalues --    1.44068   1.46673   1.46833   1.47432   1.48703
 Alpha virt. eigenvalues --    1.50019   1.50645   1.52067   1.52471   1.55321
 Alpha virt. eigenvalues --    1.57943   1.61098   1.68754   1.68988   1.69355
 Alpha virt. eigenvalues --    1.71197   1.79129   1.81844   1.85608   1.87074
 Alpha virt. eigenvalues --    1.88359   1.91550   1.96805   1.97534   1.98616
 Alpha virt. eigenvalues --    2.00403   2.01125   2.01484   2.02456   2.05777
 Alpha virt. eigenvalues --    2.05916   2.10703   2.13231   2.15232   2.18469
 Alpha virt. eigenvalues --    2.19151   2.21280   2.26168   2.35367   2.36035
 Alpha virt. eigenvalues --    2.38716   2.44547   2.44735   2.47515   2.49585
 Alpha virt. eigenvalues --    2.51912   2.52855   2.54802   2.58556   2.61148
 Alpha virt. eigenvalues --    2.62638   2.63399   2.65790   2.67649   2.67854
 Alpha virt. eigenvalues --    2.71649   2.72750   2.73172   2.75764   2.78240
 Alpha virt. eigenvalues --    2.80563   2.82211   2.85945   2.88199   2.88762
 Alpha virt. eigenvalues --    2.91662   2.96898   3.01357   3.09626   3.16169
 Alpha virt. eigenvalues --    3.18885   3.23000   3.26892   3.30473   3.35256
 Alpha virt. eigenvalues --    3.39996   3.45030   3.54673   3.61622   3.65724
 Alpha virt. eigenvalues --    3.67727   3.69061   3.95014   4.36038   4.41487
 Alpha virt. eigenvalues --    4.45579   4.48875   4.51057   4.61726   4.65941
 Alpha virt. eigenvalues --    4.71806   4.76226   4.99195   5.10073
          Condensed to atoms (all electrons):
               1          2          3          4          5          6
     1  C   12.673516  -2.846006  -1.308111   0.065598   0.528650  -1.543107
     2  C   -2.846006  11.555280  -1.892485   0.626745  -0.896000  -0.968808
     3  C   -1.308111  -1.892485  12.723695  -3.442584  -0.039504  -0.529383
     4  C    0.065598   0.626745  -3.442584   9.238383  -0.211509   0.431284
     5  C    0.528650  -0.896000  -0.039504  -0.211509   6.425389  -0.282365
     6  C   -1.543107  -0.968808  -0.529383   0.431284  -0.282365   8.705171
     7  O   -0.019117   0.050146  -0.063990   0.039631  -0.092851   0.061243
     8  C   -0.812867   0.170843   0.284354  -0.647157   0.064177  -0.290736
     9  O    0.044020  -0.125144  -0.045725   0.089792   0.001425   0.003256
    10  O   -0.199001  -0.099845   0.061349   0.050673  -0.000660   0.022515
    11  O    0.256656  -0.399852   0.096802  -0.018322   0.067767   0.158035
    12  H   -0.000022   0.057055   0.148425   0.107759   0.013754  -0.000438
    13  H   -0.017273   0.018138  -0.027553   0.044701   0.215516   0.095350
    14  H    0.056501  -0.006818  -0.008843  -0.011476   0.111994   0.180701
    15  H   -0.003875  -0.004273   0.117740  -0.027965  -0.069929  -0.010892
    16  H   -0.004918   0.026186  -0.003681  -0.008336  -0.000380   0.005270
    17  H    0.014317   0.180124  -0.019976   0.006029  -0.015806  -0.183767
               7          8          9         10         11         12
     1  C   -0.019117  -0.812867   0.044020  -0.199001   0.256656  -0.000022
     2  C    0.050146   0.170843  -0.125144  -0.099845  -0.399852   0.057055
     3  C   -0.063990   0.284354  -0.045725   0.061349   0.096802   0.148425
     4  C    0.039631  -0.647157   0.089792   0.050673  -0.018322   0.107759
     5  C   -0.092851   0.064177   0.001425  -0.000660   0.067767   0.013754
     6  C    0.061243  -0.290736   0.003256   0.022515   0.158035  -0.000438
     7  O    8.392961  -0.007009   0.000229   0.000068   0.000209  -0.005150
     8  C   -0.007009   5.875007   0.062379   0.506388  -0.164011   0.008504
     9  O    0.000229   0.062379   8.438813  -0.141238  -0.000610  -0.003949
    10  O    0.000068   0.506388  -0.141238   8.297379  -0.009848  -0.000065
    11  O    0.000209  -0.164011  -0.000610  -0.009848   8.348714  -0.000320
    12  H   -0.005150   0.008504  -0.003949  -0.000065  -0.000320   0.482109
    13  H   -0.010063   0.001578   0.000005   0.000006  -0.000431  -0.000126
    14  H   -0.000471   0.010517   0.000015   0.000006  -0.013377   0.000009
    15  H    0.220209   0.002551   0.000014   0.000001  -0.000005  -0.000048
    16  H    0.000001   0.014853   0.210408   0.004555   0.000116   0.000177
    17  H   -0.000005   0.028275  -0.000033   0.001511   0.186813   0.000003
              13         14         15         16         17
     1  C   -0.017273   0.056501  -0.003875  -0.004918   0.014317
     2  C    0.018138  -0.006818  -0.004273   0.026186   0.180124
     3  C   -0.027553  -0.008843   0.117740  -0.003681  -0.019976
     4  C    0.044701  -0.011476  -0.027965  -0.008336   0.006029
     5  C    0.215516   0.111994  -0.069929  -0.000380  -0.015806
     6  C    0.095350   0.180701  -0.010892   0.005270  -0.183767
     7  O   -0.010063  -0.000471   0.220209   0.000001  -0.000005
     8  C    0.001578   0.010517   0.002551   0.014853   0.028275
     9  O    0.000005   0.000015   0.000014   0.210408  -0.000033
    10  O    0.000006   0.000006   0.000001   0.004555   0.001511
    11  O   -0.000431  -0.013377  -0.000005   0.000116   0.186813
    12  H   -0.000126   0.000009  -0.000048   0.000177   0.000003
    13  H    0.539973  -0.003684   0.004811   0.000000  -0.000013
    14  H   -0.003684   0.543517  -0.000005  -0.000000   0.007163
    15  H    0.004811  -0.000005   0.408251   0.000000   0.000000
    16  H    0.000000  -0.000000   0.000000   0.358842  -0.000000
    17  H   -0.000013   0.007163   0.000000  -0.000000   0.424832
 Mulliken charges:
               1
     1  C   -0.884962
     2  C    0.554714
     3  C   -0.050532
     4  C   -0.333248
     5  C    0.180331
     6  C    0.146672
     7  O   -0.566042
     8  C    0.892355
     9  O   -0.533656
    10  O   -0.493794
    11  O   -0.508333
    12  H    0.192324
    13  H    0.139066
    14  H    0.134248
    15  H    0.363415
    16  H    0.396908
    17  H    0.370533
 Sum of Mulliken charges =  -0.00000
 Mulliken charges with hydrogens summed into heavy atoms:
               1
     1  C   -0.884962
     2  C    0.554714
     3  C    0.141793
     4  C   -0.333248
     5  C    0.319397
     6  C    0.280921
     7  O   -0.202627
     8  C    0.892355
     9  O   -0.136748
    10  O   -0.493794
    11  O   -0.137800
 Electronic spatial extent (au):  <R**2>=           1751.5443
 Charge=              0.0000 electrons
 Dipole moment (field-independent basis, Debye):
    X=             -3.9187    Y=              1.8343    Z=              0.0005  Tot=              4.3268
 Quadrupole moment (field-independent basis, Debye-Ang):
   XX=            -58.9503   YY=            -53.6003   ZZ=            -65.8638
   XY=            -10.8441   XZ=             -0.0001   YZ=              0.0004
 Traceless Quadrupole moment (field-independent basis, Debye-Ang):
   XX=              0.5212   YY=              5.8712   ZZ=             -6.3924
   XY=            -10.8441   XZ=             -0.0001   YZ=              0.0004
 Octapole moment (field-independent basis, Debye-Ang**2):
  XXX=            -62.9242  YYY=             34.7387  ZZZ=             -0.0003  XYY=             23.8903
  XXY=            -19.9595  XXZ=              0.0083  XZZ=              8.2911  YZZ=             -3.2950
  YYZ=             -0.0001  XYZ=              0.0021
 Hexadecapole moment (field-independent basis, Debye-Ang**3):
 XXXX=          -1150.2681 YYYY=           -602.8656 ZZZZ=            -69.3607 XXXY=            -82.2177
 XXXZ=              0.0000 YYYX=            -27.6478 YYYZ=              0.0065 ZZZX=              0.0060
 ZZZY=              0.0025 XXYY=           -320.8885 XXZZ=           -247.2325 YYZZ=           -146.5763
 XXYZ=             -0.0040 YYXZ=              0.0000 ZZXY=              4.1341
 N-N= 5.891004897911D+02 E-N=-2.513481874705D+03  KE= 5.663113253180D+02
 Calling FoFJK, ICntrl=  10002127 FMM=F ISym2X=0 I1Cent= 0 IOpClX= 0 NMat=1 NMatS=1 NMatT=0.
 ***** Axes restored to original set *****
 -------------------------------------------------------------------
 Center     Atomic                   Forces (Hartrees/Bohr)
 Number     Number              X              Y              Z
 -------------------------------------------------------------------
      1        6          -0.001891171   -0.001406989    0.000000034
      2        6          -0.000472254    0.000639418    0.000002108
      3        6           0.000801967   -0.001623420   -0.000000200
      4        6           0.000469738    0.001997904   -0.000000052
      5        6          -0.001707419   -0.000637370    0.000000026
      6        6           0.000887688    0.000976459    0.000000086
      7        8          -0.000508799   -0.000521414    0.000000706
      8        6          -0.003004676   -0.001802909   -0.000006638
      9        8          -0.001676746   -0.000874839    0.000002558
     10        8           0.003208518    0.002980934    0.000001936
     11        8           0.001871138    0.000571370    0.000000282
     12        1           0.000261770    0.001281441   -0.000000042
     13        1           0.001424563   -0.000471195    0.000000062
     14        1           0.000221293   -0.001479766   -0.000000075
     15        1           0.001198432    0.000345192   -0.000000610
     16        1          -0.000477496    0.001075182   -0.000000080
     17        1          -0.000606547   -0.001050000   -0.000000102
 -------------------------------------------------------------------
 Cartesian Forces:  Max     0.003208518 RMS     0.001161024

 GradGradGradGradGradGradGradGradGradGradGradGradGradGradGradGradGradGrad
 Berny optimization.
 FormGI is forming the generalized inverse of G from B-inverse, IUseBI=4.
 Internal  Forces:  Max     0.004291494 RMS     0.000925938
 Search for a local minimum.
 Step number   1 out of a maximum of   85
 All quantities printed in internal units (Hartrees-Bohrs-Radians)
 Mixed Optimization -- En-DIIS/RFO-DIIS
 Second derivative matrix not updated -- first step.
 ITU=  0
     Eigenvalues ---    0.00932   0.01296   0.01645   0.01962   0.02032
     Eigenvalues ---    0.02033   0.02097   0.02109   0.02123   0.02125
     Eigenvalues ---    0.02136   0.02150   0.02164   0.02200   0.16000
     Eigenvalues ---    0.16000   0.16000   0.16000   0.16000   0.16000
     Eigenvalues ---    0.22368   0.23487   0.24600   0.25000   0.25000
     Eigenvalues ---    0.25000   0.25000   0.25000   0.33733   0.35103
     Eigenvalues ---    0.35110   0.35711   0.40966   0.41716   0.44440
     Eigenvalues ---    0.45420   0.46208   0.46794   0.50172   0.51479
     Eigenvalues ---    0.52623   0.53194   0.54127   0.54296   0.98078
 RFO step:  Lambda=-1.83455555D-04 EMin= 9.32301991D-03
 Linear search not attempted -- first point.
 Iteration  1 RMS(Cart)=  0.00665962 RMS(Int)=  0.00001385
 Iteration  2 RMS(Cart)=  0.00001582 RMS(Int)=  0.00000052
 Iteration  3 RMS(Cart)=  0.00000000 RMS(Int)=  0.00000052
 Variable       Old X    -DE/DX   Delta X   Delta X   Delta X     New X
                                 (Linear)    (Quad)   (Total)
    R1        2.67346  -0.00237   0.00000  -0.00564  -0.00564   2.66782
    R2        2.64703  -0.00123   0.00000  -0.00275  -0.00275   2.64427
    R3        2.57308   0.00068   0.00000   0.00128   0.00128   2.57436
    R4        2.65621  -0.00168   0.00000  -0.00384  -0.00384   2.65236
    R5        2.81082  -0.00232   0.00000  -0.00689  -0.00689   2.80394
    R6        2.62891  -0.00056   0.00000  -0.00114  -0.00114   2.62777
    R7        2.04536  -0.00123   0.00000  -0.00343  -0.00343   2.04193
    R8        2.64225  -0.00111   0.00000  -0.00227  -0.00227   2.63998
    R9        2.59692  -0.00039   0.00000  -0.00078  -0.00078   2.59614
   R10        2.63238  -0.00008   0.00000  -0.00008  -0.00008   2.63230
   R11        2.05509  -0.00150   0.00000  -0.00427  -0.00427   2.05082
   R12        2.05497  -0.00150   0.00000  -0.00426  -0.00426   2.05072
   R13        1.82463  -0.00091   0.00000  -0.00167  -0.00167   1.82296
   R14        2.58402  -0.00021   0.00000  -0.00040  -0.00040   2.58361
   R15        2.29418   0.00429   0.00000   0.00437   0.00437   2.29856
   R16        1.83473  -0.00075   0.00000  -0.00141  -0.00141   1.83331
   R17        1.82617  -0.00078   0.00000  -0.00145  -0.00145   1.82472
    A1        2.07643   0.00011   0.00000   0.00018   0.00018   2.07661
    A2        2.09282  -0.00073   0.00000  -0.00279  -0.00279   2.09003
    A3        2.11394   0.00062   0.00000   0.00260   0.00260   2.11654
    A4        2.07760   0.00097   0.00000   0.00354   0.00354   2.08114
    A5        2.11778  -0.00026   0.00000  -0.00087  -0.00087   2.11691
    A6        2.08781  -0.00071   0.00000  -0.00267  -0.00267   2.08514
    A7        2.11850  -0.00084   0.00000  -0.00379  -0.00378   2.11471
    A8        2.08999  -0.00004   0.00000  -0.00099  -0.00099   2.08900
    A9        2.07470   0.00088   0.00000   0.00478   0.00478   2.07948
   A10        2.08461   0.00044   0.00000   0.00226   0.00226   2.08687
   A11        2.04865  -0.00020   0.00000  -0.00105  -0.00105   2.04760
   A12        2.14993  -0.00024   0.00000  -0.00121  -0.00121   2.14872
   A13        2.09191  -0.00038   0.00000  -0.00110  -0.00110   2.09081
   A14        2.10272   0.00027   0.00000   0.00105   0.00105   2.10377
   A15        2.08856   0.00011   0.00000   0.00005   0.00005   2.08861
   A16        2.11733  -0.00029   0.00000  -0.00110  -0.00110   2.11623
   A17        2.08064   0.00018   0.00000   0.00073   0.00073   2.08137
   A18        2.08522   0.00012   0.00000   0.00036   0.00036   2.08559
   A19        1.92567  -0.00156   0.00000  -0.00976  -0.00976   1.91591
   A20        1.95855  -0.00196   0.00000  -0.00784  -0.00784   1.95071
   A21        2.21010  -0.00000   0.00000  -0.00001  -0.00001   2.21009
   A22        2.11454   0.00196   0.00000   0.00785   0.00785   2.12239
   A23        1.85066  -0.00165   0.00000  -0.01032  -0.01032   1.84034
   A24        1.91044  -0.00169   0.00000  -0.01055  -0.01055   1.89989
    D1       -0.00001  -0.00000   0.00000  -0.00000  -0.00000  -0.00001
    D2        3.14158  -0.00000   0.00000  -0.00000  -0.00000   3.14158
    D3        3.14158  -0.00000   0.00000  -0.00001  -0.00001   3.14157
    D4       -0.00002  -0.00000   0.00000  -0.00001  -0.00001  -0.00003
    D5       -0.00001   0.00000   0.00000   0.00000   0.00000  -0.00000
    D6        3.14159   0.00000   0.00000   0.00000   0.00000  -3.14159
    D7       -3.14159   0.00000   0.00000   0.00000   0.00000  -3.14159
    D8        0.00001   0.00000   0.00000   0.00000   0.00000   0.00001
    D9       -3.14157  -0.00000   0.00000  -0.00000  -0.00000  -3.14157
   D10        0.00001  -0.00000   0.00000  -0.00000  -0.00000   0.00001
   D11        0.00001   0.00000   0.00000   0.00000   0.00000   0.00002
   D12       -3.14158   0.00000   0.00000   0.00000   0.00000  -3.14158
   D13       -3.14157   0.00000   0.00000   0.00000   0.00000  -3.14157
   D14        0.00001   0.00000   0.00000   0.00000   0.00000   0.00002
   D15        3.14148  -0.00000   0.00000  -0.00015  -0.00015   3.14132
   D16       -0.00018   0.00000   0.00000   0.00012   0.00012  -0.00006
   D17       -0.00012  -0.00000   0.00000  -0.00015  -0.00015  -0.00028
   D18        3.14141   0.00000   0.00000   0.00012   0.00012   3.14153
   D19       -0.00001   0.00000   0.00000   0.00000   0.00000  -0.00001
   D20        3.14157   0.00000   0.00000   0.00000   0.00000   3.14157
   D21        3.14159   0.00000   0.00000   0.00000   0.00000  -3.14159
   D22       -0.00002   0.00000   0.00000   0.00000   0.00000  -0.00002
   D23       -0.00000  -0.00000   0.00000  -0.00000  -0.00000  -0.00001
   D24        3.14159   0.00000   0.00000   0.00000   0.00000   3.14159
   D25       -3.14158  -0.00000   0.00000  -0.00000  -0.00000  -3.14158
   D26        0.00001   0.00000   0.00000   0.00000   0.00000   0.00001
   D27        3.14142   0.00000   0.00000   0.00002   0.00002   3.14144
   D28       -0.00019   0.00000   0.00000   0.00002   0.00002  -0.00017
   D29        0.00001   0.00000   0.00000   0.00000   0.00000   0.00001
   D30       -3.14159   0.00000   0.00000   0.00000   0.00000  -3.14158
   D31       -3.14158  -0.00000   0.00000  -0.00000  -0.00000  -3.14158
   D32        0.00001  -0.00000   0.00000  -0.00000  -0.00000   0.00001
   D33        3.14154   0.00000   0.00000   0.00013   0.00013  -3.14152
   D34        0.00001  -0.00000   0.00000  -0.00013  -0.00013  -0.00012
         Item               Value     Threshold  Converged?
 Maximum Force            0.004291     0.000450     NO 
 RMS     Force            0.000926     0.000300     NO 
 Maximum Displacement     0.026860     0.001800     NO 
 RMS     Displacement     0.006665     0.001200     NO 
 Predicted change in Energy=-9.179367D-05
 GradGradGradGradGradGradGradGradGradGradGradGradGradGradGradGradGradGrad

                          Input orientation:                          
 ---------------------------------------------------------------------
 Center     Atomic      Atomic             Coordinates (Angstroms)
 Number     Number       Type             X           Y           Z
 ---------------------------------------------------------------------
      1          6           0        0.233304    1.272759   -0.000010
      2          6           0        0.466592   -0.119583   -0.000052
      3          6           0       -0.627994   -0.998156   -0.000038
      4          6           0       -1.933997   -0.520652   -0.000002
      5          6           0       -2.164210    0.857265    0.000029
      6          6           0       -1.085972    1.739150    0.000033
      7          8           0       -2.945299   -1.450515   -0.000019
      8          6           0        1.844470   -0.670086   -0.000120
      9          8           0        1.844216   -2.037275    0.000190
     10          8           0        2.880541   -0.032864   -0.000203
     11          8           0        1.288079    2.134903    0.000002
     12          1           0       -0.457812   -2.065213   -0.000063
     13          1           0       -3.177021    1.247101    0.000052
     14          1           0       -1.270389    2.808558    0.000065
     15          1           0       -3.799968   -1.003154    0.000145
     16          1           0        2.779286   -2.295789    0.000190
     17          1           0        0.951403    3.039907    0.000052
 ---------------------------------------------------------------------
                    Distance matrix (angstroms):
                    1          2          3          4          5
     1  C    0.000000
     2  C    1.411751   0.000000
     3  C    2.428764   1.403571   0.000000
     4  C    2.813097   2.433862   1.390558   0.000000
     5  C    2.433250   2.806306   2.408847   1.397015   0.000000
     6  C    1.399289   2.421847   2.775354   2.413680   1.392953
     7  O    4.185659   3.662292   2.361044   1.373819   2.436380
     8  C    2.523986   1.483779   2.494136   3.781421   4.289792
     9  O    3.681218   2.361226   2.681714   4.071245   4.944273
    10  O    2.951697   2.415506   3.638903   4.839185   5.122679
    11  O    1.362293   2.399489   3.672519   4.175373   3.681122
    12  H    3.408768   2.154065   1.080542   2.136537   3.384179
    13  H    3.410422   3.891496   3.396868   2.161032   1.085246
    14  H    2.149365   3.404573   3.860537   3.394703   2.146266
    15  H    4.631098   4.357091   3.171978   1.927345   2.477270
    16  H    4.383670   3.175598   3.646013   5.036482   5.863438
    17  H    1.907479   3.196469   4.335948   4.582914   3.804072
                    6          7          8          9         10
     6  C    0.000000
     7  O    3.692026   0.000000
     8  C    3.793667   4.852933   0.000000
     9  O    4.779894   4.825323   1.367189   0.000000
    10  O    4.344336   5.995844   1.216345   2.256465   0.000000
    11  O    2.406811   5.547676   2.859639   4.209080   2.689823
    12  H    3.855873   2.562313   2.692003   2.302197   3.908330
    13  H    2.148162   2.707549   5.375033   5.999995   6.191314
    14  H    1.085193   4.576573   4.669402   5.760456   5.030298
    15  H    3.858239   0.964671   5.654257   5.738137   6.750605
    16  H    5.587571   5.786654   1.875310   0.970148   2.265189
    17  H    2.417201   5.945432   3.815969   5.155084   3.628153
                   11         12         13         14         15
    11  O    0.000000
    12  H    4.548528   0.000000
    13  H    4.552506   4.285501   0.000000
    14  H    2.645670   4.941044   2.464426   0.000000
    15  H    5.977929   3.506847   2.334890   4.574704   0.000000
    16  H    4.674904   3.245300   6.930344   6.515691   6.705035
    17  H    0.965600   5.296048   4.500893   2.233804   6.238739
                   16         17
    16  H    0.000000
    17  H    5.640107   0.000000
 Stoichiometry    C7H6O4
 Framework group  C1[X(C7H6O4)]
 Deg. of freedom    45
 Full point group                 C1      NOp   1
 Largest Abelian subgroup         C1      NOp   1
 Largest concise Abelian subgroup C1      NOp   1
                         Standard orientation:                         
 ---------------------------------------------------------------------
 Center     Atomic      Atomic             Coordinates (Angstroms)
 Number     Number       Type             X           Y           Z
 ---------------------------------------------------------------------
      1          6           0        0.238261    1.271815   -0.000000
      2          6           0        0.466684   -0.121334   -0.000043
      3          6           0       -0.630965   -0.996078   -0.000029
      4          6           0       -1.935291   -0.514015    0.000007
      5          6           0       -2.160689    0.864698    0.000038
      6          6           0       -1.079378    1.742811    0.000042
      7          8           0       -2.949835   -1.440339   -0.000009
      8          6           0        1.842631   -0.676647   -0.000111
      9          8           0        1.837601   -2.043826    0.000199
     10          8           0        2.880922   -0.043047   -0.000194
     11          8           0        1.296041    2.130269    0.000012
     12          1           0       -0.464510   -2.063722   -0.000053
     13          1           0       -3.172133    1.258069    0.000061
     14          1           0       -1.260058    2.812857    0.000075
     15          1           0       -3.802937   -0.989996    0.000155
     16          1           0        2.771763   -2.305604    0.000199
     17          1           0        0.962528    3.036443    0.000062
 ---------------------------------------------------------------------
 Rotational constants (GHZ):      1.7577077      0.9159099      0.6021437
 Standard basis: 6-31+G(d,p) (6D, 7F)
 There are   239 symmetry adapted cartesian basis functions of A   symmetry.
 There are   239 symmetry adapted basis functions of A   symmetry.
   239 basis functions,   394 primitive gaussians,   239 cartesian basis functions
    40 alpha electrons       40 beta electrons
       nuclear repulsion energy       589.8882722584 Hartrees.
 NAtoms=   17 NActive=   17 NUniq=   17 SFac= 1.00D+00 NAtFMM=   60 NAOKFM=F Big=F
 Integral buffers will be    131072 words long.
 Regular integral format.
 Two-electron integral symmetry is turned on.
 Nuclear repulsion after empirical dispersion term =      589.8696581795 Hartrees.
 One-electron integrals computed using PRISM.
 NBasis=   239 RedAO= T EigKep=  3.22D-06  NBF=   239
 NBsUse=   239 1.00D-06 EigRej= -1.00D+00 NBFU=   239
 Initial guess from the checkpoint file:  "B2PLYPD3BJDHB.chk"
 B after Tr=    -0.000000   -0.000000    0.000000
         Rot=    0.999998    0.000001   -0.000001    0.001751 Ang=   0.20 deg.
 ExpMin= 4.38D-02 ExpMax= 5.48D+03 ExpMxC= 8.25D+02 IAcc=2 IRadAn=         4 AccDes= 0.00D+00
 Harris functional with IExCor=  419 and IRadAn=       4 diagonalized for initial guess.
 HarFok:  IExCor=  419 AccDes= 0.00D+00 IRadAn=         4 IDoV= 1 UseB2=F ITyADJ=14
 ICtDFT=  3500011 ScaDFX=  1.000000  1.000000  1.000000  1.000000
 FoFCou: FMM=F IPFlag=           0 FMFlag=      100000 FMFlg1=           0
         NFxFlg=           0 DoJE=T BraDBF=F KetDBF=T FulRan=T
         wScrn=  0.000000 ICntrl=     500 IOpCl=  0 I1Cent=   200000004 NGrid=           0
         NMat0=    1 NMatS0=      1 NMatT0=    0 NMatD0=    1 NMtDS0=    0 NMtDT0=    0
 Petite list used in FoFCou.
 Keep R1 ints in memory in canonical form, NReq=418393415.
 Requested convergence on RMS density matrix=1.00D-08 within 128 cycles.
 Requested convergence on MAX density matrix=1.00D-06.
 Requested convergence on             energy=1.00D-06.
 No special actions if energy rises.
 SCF Done:  E(RB2PLYP) =  -570.230126267     A.U. after   11 cycles
            NFock= 11  Conv=0.67D-08     -V/T= 2.0068
 DoSCS=T DFT=T ScalE2(SS,OS)=  0.270000  0.270000
 ExpMin= 4.38D-02 ExpMax= 5.48D+03 ExpMxC= 8.25D+02 IAcc=3 IRadAn=         5 AccDes= 0.00D+00
 HarFok:  IExCor=  205 AccDes= 0.00D+00 IRadAn=         5 IDoV=-2 UseB2=F ITyADJ=14
 ICtDFT= 12500011 ScaDFX=  1.000000  1.000000  1.000000  1.000000
 Range of M.O.s used for correlation:    12   239
 NBasis=   239 NAE=    40 NBE=    40 NFC=    11 NFV=     0
 NROrb=    228 NOA=    29 NOB=    29 NVA=   199 NVB=   199

 **** Warning!!: The largest alpha MO coefficient is  0.16347898D+03

 DoSCS=T DFT=T ScalE2(SS,OS)=  0.270000  0.270000
 Fully direct method using O(ONN) memory.
 JobTyp=1 Pass  1:  I=  12 to  17 NPSUse= 18 ParTrn=T ParDer=T DoDerP=T.
 JobTyp=1 Pass  2:  I=  18 to  23 NPSUse= 18 ParTrn=T ParDer=T DoDerP=T.
 JobTyp=1 Pass  3:  I=  24 to  29 NPSUse= 18 ParTrn=T ParDer=T DoDerP=T.
 JobTyp=1 Pass  4:  I=  30 to  35 NPSUse= 18 ParTrn=T ParDer=T DoDerP=T.
 JobTyp=1 Pass  5:  I=  36 to  40 NPSUse= 18 ParTrn=T ParDer=T DoDerP=T.
 Spin components of T(2) and E(2):
     alpha-alpha T2 =       0.1207819174D+00 E2=     -0.7593661612D-01
     alpha-beta  T2 =       0.6093263940D+00 E2=     -0.3977263472D+00
     beta-beta   T2 =       0.1207819174D+00 E2=     -0.7593661612D-01
 E2(B2PLYP) =    -0.5495995794D+00 E(B2PLYP) =    -0.57077972584658D+03
          IDoAtm=11111111111111111
          Differentiating once with respect to electric field.
                with respect to dipole field.
          Differentiating once with respect to nuclear coordinates.
 Keep R1 ints in memory in canonical form, NReq=418199641.
          There are     1 degrees of freedom in the 1st order CPHF.  IDoFFX=0 NUNeed=     1.
 LinEq1:  Iter=  0 NonCon=     1 RMS=1.99D-03 Max=4.46D-02 NDo=     1
 AX will form     1 AO Fock derivatives at one time.
 LinEq1:  Iter=  1 NonCon=     1 RMS=9.01D-04 Max=1.68D-02 NDo=     1
 LinEq1:  Iter=  2 NonCon=     1 RMS=3.15D-04 Max=5.07D-03 NDo=     1
 LinEq1:  Iter=  3 NonCon=     1 RMS=2.49D-04 Max=7.68D-03 NDo=     1
 LinEq1:  Iter=  4 NonCon=     1 RMS=1.01D-04 Max=2.73D-03 NDo=     1
 LinEq1:  Iter=  5 NonCon=     1 RMS=4.66D-05 Max=1.25D-03 NDo=     1
 LinEq1:  Iter=  6 NonCon=     1 RMS=2.37D-05 Max=9.39D-04 NDo=     1
 LinEq1:  Iter=  7 NonCon=     1 RMS=1.14D-05 Max=4.36D-04 NDo=     1
 LinEq1:  Iter=  8 NonCon=     1 RMS=4.13D-06 Max=1.18D-04 NDo=     1
 LinEq1:  Iter=  9 NonCon=     1 RMS=2.26D-06 Max=4.86D-05 NDo=     1
 LinEq1:  Iter= 10 NonCon=     1 RMS=6.91D-07 Max=1.33D-05 NDo=     1
 LinEq1:  Iter= 11 NonCon=     1 RMS=2.89D-07 Max=7.35D-06 NDo=     1
 LinEq1:  Iter= 12 NonCon=     1 RMS=1.40D-07 Max=2.03D-06 NDo=     1
 LinEq1:  Iter= 13 NonCon=     1 RMS=5.52D-08 Max=1.70D-06 NDo=     1
 LinEq1:  Iter= 14 NonCon=     1 RMS=3.44D-08 Max=9.48D-07 NDo=     1
 LinEq1:  Iter= 15 NonCon=     1 RMS=1.07D-08 Max=2.76D-07 NDo=     1
 LinEq1:  Iter= 16 NonCon=     1 RMS=5.19D-09 Max=1.22D-07 NDo=     1
 LinEq1:  Iter= 17 NonCon=     1 RMS=1.75D-09 Max=4.78D-08 NDo=     1
 LinEq1:  Iter= 18 NonCon=     1 RMS=5.77D-10 Max=9.47D-09 NDo=     1
 LinEq1:  Iter= 19 NonCon=     1 RMS=2.98D-10 Max=4.39D-09 NDo=     1
 LinEq1:  Iter= 20 NonCon=     1 RMS=1.05D-10 Max=1.83D-09 NDo=     1
 LinEq1:  Iter= 21 NonCon=     0 RMS=4.65D-11 Max=4.39D-10 NDo=     1
 Linear equations converged to 1.000D-10 1.000D-09 after    21 iterations.
 End of Minotr F.D. properties file   721 does not exist.
 End of Minotr F.D. properties file   722 does not exist.
 End of Minotr F.D. properties file   788 does not exist.
 Calling FoFJK, ICntrl=  10002127 FMM=F ISym2X=0 I1Cent= 0 IOpClX= 0 NMat=1 NMatS=1 NMatT=0.
 ***** Axes restored to original set *****
 -------------------------------------------------------------------
 Center     Atomic                   Forces (Hartrees/Bohr)
 Number     Number              X              Y              Z
 -------------------------------------------------------------------
      1        6          -0.000886707   -0.000610888   -0.000000757
      2        6          -0.000042737    0.000455754   -0.000007908
      3        6          -0.000197209   -0.000474303   -0.000001371
      4        6           0.000538662    0.000510829    0.000000252
      5        6          -0.000242180   -0.000391057    0.000000156
      6        6           0.000447006    0.000385104    0.000000561
      7        8          -0.000489266   -0.000204526    0.000000765
      8        6          -0.001419772    0.000207694    0.000028916
      9        8           0.001196687    0.000113363   -0.000008340
     10        8           0.000687484   -0.000598737   -0.000011073
     11        8           0.000456316    0.000610380   -0.000000323
     12        1          -0.000072691    0.000155645   -0.000000237
     13        1          -0.000022821    0.000044066   -0.000000045
     14        1          -0.000105718    0.000066006    0.000000049
     15        1          -0.000219651   -0.000090087   -0.000000453
     16        1           0.000327205   -0.000439668   -0.000000209
     17        1           0.000045393    0.000260425    0.000000017
 -------------------------------------------------------------------
 Cartesian Forces:  Max     0.001419772 RMS     0.000406220

 GradGradGradGradGradGradGradGradGradGradGradGradGradGradGradGradGradGrad
 Berny optimization.
 Using GEDIIS/GDIIS optimizer.
 FormGI is forming the generalized inverse of G from B-inverse, IUseBI=4.
 Internal  Forces:  Max     0.001767500 RMS     0.000369968
 Search for a local minimum.
 Step number   2 out of a maximum of   85
 All quantities printed in internal units (Hartrees-Bohrs-Radians)
 Mixed Optimization -- En-DIIS/RFO-DIIS
 Swapping is turned off.
 Update second derivatives using D2CorX and points    1    2
 DE= -6.47D-05 DEPred=-9.18D-05 R= 7.04D-01
 TightC=F SS=  1.41D+00  RLast= 2.66D-02 DXNew= 5.0454D-01 7.9714D-02
 Trust test= 7.04D-01 RLast= 2.66D-02 DXMaxT set to 3.00D-01
 ITU=  1  0
     Eigenvalues ---    0.00932   0.01298   0.01646   0.01962   0.02032
     Eigenvalues ---    0.02033   0.02097   0.02109   0.02123   0.02125
     Eigenvalues ---    0.02136   0.02150   0.02164   0.02200   0.15609
     Eigenvalues ---    0.16000   0.16000   0.16000   0.16000   0.16334
     Eigenvalues ---    0.22266   0.23061   0.24606   0.24929   0.25000
     Eigenvalues ---    0.25000   0.25000   0.29429   0.34305   0.35104
     Eigenvalues ---    0.35522   0.36714   0.41494   0.42463   0.44445
     Eigenvalues ---    0.45068   0.46289   0.47237   0.50755   0.51619
     Eigenvalues ---    0.52591   0.53702   0.54217   0.56123   0.95211
 En-DIIS/RFO-DIIS IScMMF=        0 using points:     2    1
 RFO step:  Lambda=-1.56593578D-05.
 DidBck=T Rises=F RFO-DIIS coefs:    0.77748    0.22252
 Iteration  1 RMS(Cart)=  0.00241920 RMS(Int)=  0.00000275
 Iteration  2 RMS(Cart)=  0.00000349 RMS(Int)=  0.00000020
 Iteration  3 RMS(Cart)=  0.00000000 RMS(Int)=  0.00000020
 Variable       Old X    -DE/DX   Delta X   Delta X   Delta X     New X
                                 (Linear)    (Quad)   (Total)
    R1        2.66782   0.00053   0.00125  -0.00066   0.00060   2.66842
    R2        2.64427  -0.00008   0.00061  -0.00095  -0.00034   2.64394
    R3        2.57436   0.00094  -0.00029   0.00177   0.00148   2.57584
    R4        2.65236   0.00056   0.00086  -0.00010   0.00075   2.65312
    R5        2.80394   0.00100   0.00153   0.00029   0.00183   2.80576
    R6        2.62777   0.00028   0.00025   0.00014   0.00039   2.62816
    R7        2.04193  -0.00017   0.00076  -0.00136  -0.00060   2.04133
    R8        2.63998  -0.00012   0.00051  -0.00090  -0.00039   2.63958
    R9        2.59614   0.00072   0.00017   0.00088   0.00106   2.59720
   R10        2.63230   0.00026   0.00002   0.00038   0.00039   2.63269
   R11        2.05082   0.00004   0.00095  -0.00116  -0.00021   2.05060
   R12        2.05072   0.00008   0.00095  -0.00106  -0.00011   2.05061
   R13        1.82296   0.00016   0.00037  -0.00026   0.00011   1.82307
   R14        2.58361   0.00033   0.00009   0.00039   0.00048   2.58409
   R15        2.29856   0.00027  -0.00097   0.00149   0.00052   2.29908
   R16        1.83331   0.00043   0.00031   0.00022   0.00053   1.83384
   R17        1.82472   0.00023   0.00032  -0.00010   0.00022   1.82494
    A1        2.07661   0.00020  -0.00004   0.00071   0.00067   2.07728
    A2        2.09003   0.00023   0.00062  -0.00013   0.00049   2.09052
    A3        2.11654  -0.00042  -0.00058  -0.00058  -0.00116   2.11539
    A4        2.08114  -0.00029  -0.00079   0.00026  -0.00053   2.08062
    A5        2.11691   0.00005   0.00019  -0.00017   0.00003   2.11693
    A6        2.08514   0.00024   0.00059  -0.00009   0.00050   2.08564
    A7        2.11471  -0.00004   0.00084  -0.00114  -0.00030   2.11441
    A8        2.08900   0.00007   0.00022  -0.00002   0.00020   2.08920
    A9        2.07948  -0.00003  -0.00106   0.00117   0.00010   2.07958
   A10        2.08687   0.00011  -0.00050   0.00097   0.00046   2.08733
   A11        2.04760   0.00014   0.00023   0.00013   0.00037   2.04797
   A12        2.14872  -0.00025   0.00027  -0.00110  -0.00083   2.14789
   A13        2.09081   0.00007   0.00024  -0.00021   0.00003   2.09084
   A14        2.10377   0.00000  -0.00023   0.00044   0.00020   2.10397
   A15        2.08861  -0.00007  -0.00001  -0.00023  -0.00024   2.08837
   A16        2.11623  -0.00005   0.00024  -0.00058  -0.00033   2.11589
   A17        2.08137   0.00011  -0.00016   0.00079   0.00062   2.08199
   A18        2.08559  -0.00007  -0.00008  -0.00021  -0.00029   2.08530
   A19        1.91591   0.00032   0.00217  -0.00127   0.00090   1.91681
   A20        1.95071   0.00153   0.00175   0.00246   0.00420   1.95491
   A21        2.21009   0.00024   0.00000   0.00075   0.00075   2.21084
   A22        2.12239  -0.00177  -0.00175  -0.00321  -0.00495   2.11743
   A23        1.84034   0.00063   0.00230   0.00003   0.00233   1.84266
   A24        1.89989   0.00025   0.00235  -0.00187   0.00048   1.90037
    D1       -0.00001   0.00000   0.00000   0.00002   0.00002   0.00001
    D2        3.14158   0.00000   0.00000   0.00002   0.00002  -3.14159
    D3        3.14157   0.00000   0.00000   0.00001   0.00001   3.14159
    D4       -0.00003   0.00000   0.00000   0.00001   0.00001  -0.00002
    D5       -0.00000  -0.00000  -0.00000  -0.00001  -0.00001  -0.00001
    D6       -3.14159  -0.00000  -0.00000  -0.00001  -0.00001   3.14159
    D7       -3.14159  -0.00000  -0.00000  -0.00000  -0.00000  -3.14159
    D8        0.00001  -0.00000  -0.00000  -0.00000  -0.00000   0.00001
    D9       -3.14157   0.00000   0.00000   0.00000   0.00000  -3.14157
   D10        0.00001  -0.00000   0.00000  -0.00000  -0.00000   0.00001
   D11        0.00002  -0.00000  -0.00000  -0.00002  -0.00002  -0.00001
   D12       -3.14158  -0.00000  -0.00000  -0.00001  -0.00001   3.14159
   D13       -3.14157  -0.00000  -0.00000  -0.00002  -0.00002  -3.14159
   D14        0.00002  -0.00000  -0.00000  -0.00001  -0.00001   0.00001
   D15        3.14132   0.00001   0.00003   0.00038   0.00042  -3.14144
   D16       -0.00006  -0.00001  -0.00003  -0.00040  -0.00043  -0.00049
   D17       -0.00028   0.00001   0.00003   0.00038   0.00042   0.00014
   D18        3.14153  -0.00001  -0.00003  -0.00040  -0.00043   3.14110
   D19       -0.00001   0.00000  -0.00000   0.00001   0.00001   0.00000
   D20        3.14157   0.00000  -0.00000   0.00001   0.00001   3.14158
   D21       -3.14159  -0.00000  -0.00000  -0.00000  -0.00000   3.14159
   D22       -0.00002  -0.00000  -0.00000   0.00000   0.00000  -0.00002
   D23       -0.00001   0.00000   0.00000   0.00000   0.00000  -0.00001
   D24        3.14159  -0.00000  -0.00000  -0.00000  -0.00000   3.14159
   D25       -3.14158   0.00000   0.00000   0.00000   0.00000  -3.14158
   D26        0.00001  -0.00000  -0.00000  -0.00000  -0.00000   0.00001
   D27        3.14144   0.00000  -0.00000   0.00002   0.00002   3.14146
   D28       -0.00017   0.00000  -0.00000   0.00002   0.00002  -0.00015
   D29        0.00001  -0.00000  -0.00000  -0.00000  -0.00000   0.00001
   D30       -3.14158  -0.00000  -0.00000  -0.00000  -0.00000  -3.14159
   D31       -3.14158   0.00000   0.00000   0.00000   0.00000  -3.14158
   D32        0.00001  -0.00000   0.00000  -0.00000  -0.00000   0.00001
   D33       -3.14152  -0.00001  -0.00003  -0.00038  -0.00041   3.14126
   D34       -0.00012   0.00001   0.00003   0.00036   0.00039   0.00027
         Item               Value     Threshold  Converged?
 Maximum Force            0.001768     0.000450     NO 
 RMS     Force            0.000370     0.000300     NO 
 Maximum Displacement     0.012924     0.001800     NO 
 RMS     Displacement     0.002419     0.001200     NO 
 Predicted change in Energy=-1.218986D-05
 GradGradGradGradGradGradGradGradGradGradGradGradGradGradGradGradGradGrad

                          Input orientation:                          
 ---------------------------------------------------------------------
 Center     Atomic      Atomic             Coordinates (Angstroms)
 Number     Number       Type             X           Y           Z
 ---------------------------------------------------------------------
      1          6           0        0.232558    1.272235    0.000055
      2          6           0        0.465974   -0.120407    0.000117
      3          6           0       -0.629337   -0.998712    0.000100
      4          6           0       -1.935162   -0.520124    0.000029
      5          6           0       -2.164910    0.857660   -0.000030
      6          6           0       -1.086264    1.739375   -0.000010
      7          8           0       -2.947939   -1.449208    0.000002
      8          6           0        1.844765   -0.671231    0.000189
      9          8           0        1.850294   -2.038660    0.000055
     10          8           0        2.881529   -0.034614   -0.000271
     11          8           0        1.287471    2.135447    0.000079
     12          1           0       -0.459923   -2.065569    0.000145
     13          1           0       -3.177415    1.247978   -0.000092
     14          1           0       -1.270682    2.808724   -0.000051
     15          1           0       -3.802550   -1.001612    0.000074
     16          1           0        2.786126   -2.295469   -0.000193
     17          1           0        0.950696    3.040540    0.000052
 ---------------------------------------------------------------------
                    Distance matrix (angstroms):
                    1          2          3          4          5
     1  C    0.000000
     2  C    1.412068   0.000000
     3  C    2.429004   1.403968   0.000000
     4  C    2.812749   2.434179   1.390764   0.000000
     5  C    2.433049   2.806808   2.409170   1.396808   0.000000
     6  C    1.399111   2.422444   2.775950   2.413703   1.393162
     7  O    4.185907   3.663403   2.361962   1.374379   2.436139
     8  C    2.525128   1.484746   2.495681   3.782946   4.291271
     9  O    3.684982   2.365594   2.688877   4.078679   4.950811
    10  O    2.953795   2.417078   3.640833   4.841098   5.124715
    11  O    1.363077   2.400778   3.673841   4.175814   3.681261
    12  H    3.408880   2.154284   1.080225   2.136523   3.384117
    13  H    3.410059   3.891884   3.397104   2.160874   1.085133
    14  H    2.149541   3.405258   3.861073   3.394519   2.146228
    15  H    4.631681   4.358534   3.173214   1.928463   2.477651
    16  H    4.387393   3.180251   3.653350   5.044046   5.869836
    17  H    1.908567   3.197897   4.337287   4.583285   3.804204
                    6          7          8          9         10
     6  C    0.000000
     7  O    3.692275   0.000000
     8  C    3.794990   4.855436   0.000000
     9  O    4.785073   4.834304   1.367440   0.000000
    10  O    4.346311   5.998648   1.216618   2.253807   0.000000
    11  O    2.406552   5.548735   2.861471   4.211881   2.692617
    12  H    3.856151   2.563226   2.693653   2.310373   3.910253
    13  H    2.148111   2.706931   5.376398   6.006650   6.193209
    14  H    1.085135   4.576372   4.670770   5.765207   5.032437
    15  H    3.858914   0.964729   5.656970   5.747182   6.753665
    16  H    5.592439   5.796176   1.877315   0.970429   2.262867
    17  H    2.417072   5.946192   3.817932   5.158251   3.631073
                   11         12         13         14         15
    11  O    0.000000
    12  H    4.549937   0.000000
    13  H    4.552231   4.285366   0.000000
    14  H    2.645269   4.941261   2.464053   0.000000
    15  H    5.979085   3.507871   2.334834   4.574824   0.000000
    16  H    4.677498   3.254179   6.936846   6.520005   6.714515
    17  H    0.965718   5.297377   4.500508   2.233441   6.239578
                   16         17
    16  H    0.000000
    17  H    5.642854   0.000000
 Stoichiometry    C7H6O4
 Framework group  C1[X(C7H6O4)]
 Deg. of freedom    45
 Full point group                 C1      NOp   1
 Largest Abelian subgroup         C1      NOp   1
 Largest concise Abelian subgroup C1      NOp   1
                         Standard orientation:                         
 ---------------------------------------------------------------------
 Center     Atomic      Atomic             Coordinates (Angstroms)
 Number     Number       Type             X           Y           Z
 ---------------------------------------------------------------------
      1          6           0        0.235457    1.271898    0.000036
      2          6           0        0.466208   -0.121188    0.000098
      3          6           0       -0.630782   -0.997395    0.000080
      4          6           0       -1.935688   -0.516309    0.000009
      5          6           0       -2.162800    0.861911   -0.000049
      6          6           0       -1.082469    1.741561   -0.000029
      7          8           0       -2.950242   -1.443454   -0.000017
      8          6           0        1.843942   -0.674649    0.000170
      9          8           0        1.846854   -2.042086    0.000035
     10          8           0        2.881922   -0.040017   -0.000291
     11          8           0        1.292020    2.133090    0.000060
     12          1           0       -0.463410   -2.064575    0.000126
     13          1           0       -3.174556    1.254167   -0.000112
     14          1           0       -1.264840    2.811261   -0.000071
     15          1           0       -3.803995   -0.994223    0.000054
     16          1           0        2.782193   -2.300686   -0.000212
     17          1           0        0.956977    3.038826    0.000032
 ---------------------------------------------------------------------
 Rotational constants (GHZ):      1.7569579      0.9145275      0.6014580
 Standard basis: 6-31+G(d,p) (6D, 7F)
 There are   239 symmetry adapted cartesian basis functions of A   symmetry.
 There are   239 symmetry adapted basis functions of A   symmetry.
   239 basis functions,   394 primitive gaussians,   239 cartesian basis functions
    40 alpha electrons       40 beta electrons
       nuclear repulsion energy       589.6603931261 Hartrees.
 NAtoms=   17 NActive=   17 NUniq=   17 SFac= 1.00D+00 NAtFMM=   60 NAOKFM=F Big=F
 Integral buffers will be    131072 words long.
 Regular integral format.
 Two-electron integral symmetry is turned on.
 Nuclear repulsion after empirical dispersion term =      589.6417869325 Hartrees.
 One-electron integrals computed using PRISM.
 NBasis=   239 RedAO= T EigKep=  3.23D-06  NBF=   239
 NBsUse=   239 1.00D-06 EigRej= -1.00D+00 NBFU=   239
 Initial guess from the checkpoint file:  "B2PLYPD3BJDHB.chk"
 B after Tr=     0.000000    0.000000    0.000000
         Rot=    1.000000   -0.000002    0.000001   -0.000760 Ang=  -0.09 deg.
 Keep R1 ints in memory in canonical form, NReq=418393415.
 Requested convergence on RMS density matrix=1.00D-08 within 128 cycles.
 Requested convergence on MAX density matrix=1.00D-06.
 Requested convergence on             energy=1.00D-06.
 No special actions if energy rises.
 SCF Done:  E(RB2PLYP) =  -570.230112767     A.U. after   10 cycles
            NFock= 10  Conv=0.62D-08     -V/T= 2.0069
 DoSCS=T DFT=T ScalE2(SS,OS)=  0.270000  0.270000
 ExpMin= 4.38D-02 ExpMax= 5.48D+03 ExpMxC= 8.25D+02 IAcc=3 IRadAn=         5 AccDes= 0.00D+00
 HarFok:  IExCor=  205 AccDes= 0.00D+00 IRadAn=         5 IDoV=-2 UseB2=F ITyADJ=14
 ICtDFT= 12500011 ScaDFX=  1.000000  1.000000  1.000000  1.000000
 Range of M.O.s used for correlation:    12   239
 NBasis=   239 NAE=    40 NBE=    40 NFC=    11 NFV=     0
 NROrb=    228 NOA=    29 NOB=    29 NVA=   199 NVB=   199

 **** Warning!!: The largest alpha MO coefficient is  0.16341129D+03

 DoSCS=T DFT=T ScalE2(SS,OS)=  0.270000  0.270000
 Fully direct method using O(ONN) memory.
 JobTyp=1 Pass  1:  I=  12 to  17 NPSUse= 18 ParTrn=T ParDer=T DoDerP=T.
 JobTyp=1 Pass  2:  I=  18 to  23 NPSUse= 18 ParTrn=T ParDer=T DoDerP=T.
 JobTyp=1 Pass  3:  I=  24 to  29 NPSUse= 18 ParTrn=T ParDer=T DoDerP=T.
 JobTyp=1 Pass  4:  I=  30 to  35 NPSUse= 18 ParTrn=T ParDer=T DoDerP=T.
 JobTyp=1 Pass  5:  I=  36 to  40 NPSUse= 18 ParTrn=T ParDer=T DoDerP=T.
 Spin components of T(2) and E(2):
     alpha-alpha T2 =       0.1208032909D+00 E2=     -0.7593466102D-01
     alpha-beta  T2 =       0.6095156537D+00 E2=     -0.3977563601D+00
     beta-beta   T2 =       0.1208032909D+00 E2=     -0.7593466102D-01
 E2(B2PLYP) =    -0.5496256821D+00 E(B2PLYP) =    -0.57077973844948D+03
          IDoAtm=11111111111111111
          Differentiating once with respect to electric field.
                with respect to dipole field.
          Differentiating once with respect to nuclear coordinates.
 Keep R1 ints in memory in canonical form, NReq=418199641.
          There are     1 degrees of freedom in the 1st order CPHF.  IDoFFX=0 NUNeed=     1.
 LinEq1:  Iter=  0 NonCon=     1 RMS=1.99D-03 Max=4.46D-02 NDo=     1
 AX will form     1 AO Fock derivatives at one time.
 LinEq1:  Iter=  1 NonCon=     1 RMS=9.01D-04 Max=1.72D-02 NDo=     1
 LinEq1:  Iter=  2 NonCon=     1 RMS=3.15D-04 Max=5.08D-03 NDo=     1
 LinEq1:  Iter=  3 NonCon=     1 RMS=2.49D-04 Max=7.84D-03 NDo=     1
 LinEq1:  Iter=  4 NonCon=     1 RMS=1.02D-04 Max=2.73D-03 NDo=     1
 LinEq1:  Iter=  5 NonCon=     1 RMS=4.66D-05 Max=1.25D-03 NDo=     1
 LinEq1:  Iter=  6 NonCon=     1 RMS=2.37D-05 Max=9.41D-04 NDo=     1
 LinEq1:  Iter=  7 NonCon=     1 RMS=1.14D-05 Max=4.37D-04 NDo=     1
 LinEq1:  Iter=  8 NonCon=     1 RMS=4.13D-06 Max=1.19D-04 NDo=     1
 LinEq1:  Iter=  9 NonCon=     1 RMS=2.26D-06 Max=4.87D-05 NDo=     1
 LinEq1:  Iter= 10 NonCon=     1 RMS=6.93D-07 Max=1.34D-05 NDo=     1
 LinEq1:  Iter= 11 NonCon=     1 RMS=2.90D-07 Max=7.37D-06 NDo=     1
 LinEq1:  Iter= 12 NonCon=     1 RMS=1.40D-07 Max=2.02D-06 NDo=     1
 LinEq1:  Iter= 13 NonCon=     1 RMS=5.54D-08 Max=1.72D-06 NDo=     1
 LinEq1:  Iter= 14 NonCon=     1 RMS=3.46D-08 Max=9.58D-07 NDo=     1
 LinEq1:  Iter= 15 NonCon=     1 RMS=1.07D-08 Max=2.78D-07 NDo=     1
 LinEq1:  Iter= 16 NonCon=     1 RMS=5.22D-09 Max=1.22D-07 NDo=     1
 LinEq1:  Iter= 17 NonCon=     1 RMS=1.76D-09 Max=4.77D-08 NDo=     1
 LinEq1:  Iter= 18 NonCon=     1 RMS=5.83D-10 Max=9.48D-09 NDo=     1
 LinEq1:  Iter= 19 NonCon=     1 RMS=3.02D-10 Max=4.44D-09 NDo=     1
 LinEq1:  Iter= 20 NonCon=     1 RMS=1.06D-10 Max=1.84D-09 NDo=     1
 LinEq1:  Iter= 21 NonCon=     0 RMS=4.69D-11 Max=4.41D-10 NDo=     1
 Linear equations converged to 1.000D-10 1.000D-09 after    21 iterations.
 End of Minotr F.D. properties file   721 does not exist.
 End of Minotr F.D. properties file   722 does not exist.
 End of Minotr F.D. properties file   788 does not exist.
 Calling FoFJK, ICntrl=  10002127 FMM=F ISym2X=0 I1Cent= 0 IOpClX= 0 NMat=1 NMatS=1 NMatT=0.
 ***** Axes restored to original set *****
 -------------------------------------------------------------------
 Center     Atomic                   Forces (Hartrees/Bohr)
 Number     Number              X              Y              Z
 -------------------------------------------------------------------
      1        6          -0.000249908   -0.000191801    0.000002032
      2        6           0.000212989    0.000027471    0.000022848
      3        6          -0.000026026   -0.000067111    0.000002563
      4        6           0.000185597    0.000160540   -0.000001457
      5        6          -0.000010171   -0.000147841   -0.000000042
      6        6           0.000158579    0.000073416   -0.000001207
      7        8          -0.000111128   -0.000125644    0.000000357
      8        6          -0.000172880   -0.000103151   -0.000083124
      9        8          -0.000106787    0.000007724    0.000024759
     10        8           0.000099876    0.000077115    0.000031442
     11        8           0.000194653    0.000160602    0.000001354
     12        1           0.000035032   -0.000118177    0.000000503
     13        1          -0.000096313    0.000040381    0.000000193
     14        1          -0.000050975    0.000090543   -0.000000211
     15        1          -0.000087761   -0.000017283   -0.000000435
     16        1           0.000020974    0.000043309    0.000000547
     17        1           0.000004248    0.000089905   -0.000000125
 -------------------------------------------------------------------
 Cartesian Forces:  Max     0.000249908 RMS     0.000097755

 GradGradGradGradGradGradGradGradGradGradGradGradGradGradGradGradGradGrad
 Berny optimization.
 Using GEDIIS/GDIIS optimizer.
 FormGI is forming the generalized inverse of G from B-inverse, IUseBI=4.
 Internal  Forces:  Max     0.000315534 RMS     0.000071801
 Search for a local minimum.
 Step number   3 out of a maximum of   85
 All quantities printed in internal units (Hartrees-Bohrs-Radians)
 Mixed Optimization -- En-DIIS/RFO-DIIS
 Swapping is turned off.
 Update second derivatives using D2CorX and points    1    2    3
 DE= -1.26D-05 DEPred=-1.22D-05 R= 1.03D+00
 TightC=F SS=  1.41D+00  RLast= 8.00D-03 DXNew= 5.0454D-01 2.4007D-02
 Trust test= 1.03D+00 RLast= 8.00D-03 DXMaxT set to 3.00D-01
 ITU=  1  1  0
     Eigenvalues ---    0.00932   0.01303   0.01646   0.01962   0.02032
     Eigenvalues ---    0.02033   0.02097   0.02109   0.02123   0.02125
     Eigenvalues ---    0.02136   0.02150   0.02164   0.02200   0.15692
     Eigenvalues ---    0.16000   0.16000   0.16000   0.16095   0.16338
     Eigenvalues ---    0.21797   0.22883   0.24596   0.24668   0.25000
     Eigenvalues ---    0.25000   0.25029   0.30014   0.34990   0.35108
     Eigenvalues ---    0.35532   0.39229   0.41498   0.43921   0.44465
     Eigenvalues ---    0.44782   0.45965   0.47014   0.48781   0.51173
     Eigenvalues ---    0.51943   0.53949   0.54219   0.54429   0.94675
 En-DIIS/RFO-DIIS IScMMF=        0 using points:     3    2    1
 RFO step:  Lambda=-6.39947408D-07.
 DidBck=F Rises=F RFO-DIIS coefs:    0.96544    0.02137    0.01319
 Iteration  1 RMS(Cart)=  0.00075662 RMS(Int)=  0.00000049
 Iteration  2 RMS(Cart)=  0.00000064 RMS(Int)=  0.00000027
 Variable       Old X    -DE/DX   Delta X   Delta X   Delta X     New X
                                 (Linear)    (Quad)   (Total)
    R1        2.66842   0.00010   0.00005   0.00018   0.00023   2.66866
    R2        2.64394   0.00000   0.00005  -0.00008  -0.00003   2.64391
    R3        2.57584   0.00032  -0.00007   0.00076   0.00069   2.57654
[...]
 ! D26   D(7,4,5,13)             0.0005         -DE/DX =    0.0                 !
 ! D27   D(3,4,7,15)          -180.0055         -DE/DX =    0.0                 !
 ! D28   D(5,4,7,15)            -0.0063         -DE/DX =    0.0                 !
 ! D29   D(4,5,6,1)              0.0008         -DE/DX =    0.0                 !
 ! D30   D(4,5,6,14)          -179.9995         -DE/DX =    0.0                 !
 ! D31   D(13,5,6,1)          -179.9994         -DE/DX =    0.0                 !
 ! D32   D(13,5,6,14)            0.0003         -DE/DX =    0.0                 !
 ! D33   D(2,8,9,16)           179.9988         -DE/DX =    0.0                 !
 ! D34   D(10,8,9,16)           -0.0027         -DE/DX =    0.0                 !
 --------------------------------------------------------------------------------
 GradGradGradGradGradGradGradGradGradGradGradGradGradGradGradGradGradGrad

 1\1\ WCSS.PL-BEM-JP\Freq\RB2PLYP-FC\6-31+G(d,p)\C7H6O4\C612\17-Dec-202
 4\0\\#N Geom=AllCheck Guess=TCheck SCRF=Check GenChk RB2PLYP(FC)/6-31+
 G(d,p) Freq\\[No Title]\\0,1\C,0.2325716247,1.2724406146,0.0000051247\
 C,0.4661538026,-0.120234459,-0.0000198065\C,-0.629098947,-0.9988664024
 ,-0.0000140617\C,-1.9349110515,-0.5201477148,0.0000054682\C,-2.1648055
 167,0.8575843233,0.0000228112\C,-1.0861835202,1.7396520368,0.000030662
 2\O,-2.9478971402,-1.4494606045,-0.0000092085\C,1.844548311,-0.6713656
 577,-0.000068621\O,1.8496234962,-2.0387664764,0.0002172703\O,2.8816147
 87,-0.0350342305,-0.0002997357\O,1.2877721778,2.1359470383,0.000025542
 9\H,-0.4594784723,-2.0658449289,-0.0000293508\H,-3.1774852265,1.247875
 1529,0.0000336542\H,-1.2710302425,2.8090646353,0.000052631\H,-3.802760
 7313,-1.0021964557,0.0000942028\H,2.7855145509,-2.295445458,0.00013940
 58\H,0.9510820979,3.0411535866,0.0000630109\\Version=ES64L-G09RevE.01\
 State=1-A\HF=-570.2300854\MP2=-570.7797389\RMSD=6.386e-09\RMSF=5.719e-
 06\ZeroPoint=0.1229234\Thermal=0.1320188\Dipole=-1.4622905,0.7207985,0
 .0001869\DipoleDeriv=0.6799456,0.8792237,0.0000241,0.5061129,0.6113863
 ,0.0000221,0.00003,0.0000158,0.0763115,-0.5942958,0.406642,0.0000227,-
 0.0414884,-0.110927,0.0000154,0.0000327,0.0000029,-0.0192584,0.0688431
 ,-0.470685,-0.0000077,0.1863326,-0.0480256,-0.0000048,-0.0000195,0.000
 0176,-0.1218117,0.842042,0.9396102,0.0000111,0.9166651,0.346366,-0.000
 0097,0.0000149,-0.0000059,0.0676051,-0.0462603,0.1391703,0.000007,-0.3
 85819,0.1310531,0.000008,-0.0000148,0.0000062,-0.1450687,-0.1177778,-0
 .4735459,-0.0000155,0.1080774,0.0308391,0.0000022,0.0000042,0.0000027,
 -0.1708578,-1.099184,-0.6905102,-0.0000163,-0.7407417,-0.6536991,0.000
 0243,-0.0000419,0.0000019,-0.3801575,1.8898957,-0.2987462,-0.0001592,-
 0.2735099,1.7901039,-0.0003095,-0.0001098,-0.0002954,0.2953994,-0.5104
 24,0.2504606,-0.0000425,0.2520523,-1.4024205,0.0001926,-0.0000691,0.00
 02059,-0.382054,-1.2348665,-0.1387755,0.0001539,-0.0611606,-0.6512403,
 0.0000925,0.0000909,0.0001099,-0.3452817,-0.7295019,-0.7478297,-0.0000
 278,-0.6254909,-0.8708185,-0.0000091,-0.0000201,-0.000029,-0.3368133,0
 .1262699,-0.0087923,0.0000017,-0.0076649,0.0393773,-0.0000037,0.000014
 9,-0.0000047,0.146128,-0.102382,0.032275,0.0000026,0.0278899,0.068532,
 -0.0000006,0.0000038,-0.0000007,0.1481597,0.0564131,-0.0164176,0.00000
 03,0.0038219,-0.1093579,-0.0000056,-0.0000002,-0.0000073,0.1513865,0.3
 245095,0.0855854,0.0000079,0.1358945,0.1889124,-0.0000215,0.0000254,-0
 .0000081,0.3412849,0.2184688,-0.0507465,0.0000313,-0.1033376,0.3530086
 ,0.0000106,0.0000574,-0.0000109,0.3422532,0.2283046,0.1630817,0.000006
 4,0.1023663,0.2869102,-0.0000032,0.0000011,-0.0000006,0.3327748\Polar=
 128.3320817,-0.3213986,110.71811,-0.0023473,-0.0008613,52.0297464\PG=C
 01 [X(C7H6O4)]\NImag=1\\0.68815902,0.00464163,0.70442759,-0.00000545,0
 .00001440,0.12053542,-0.14066746,0.06211808,0.00000476,0.65449509,0.01
 222761,-0.28795491,-0.00000537,0.02250895,0.69804012,0.00000465,-0.000
 00524,-0.03845367,-0.00001349,-0.00000190,0.09658559,0.05473462,-0.058
 23446,-0.00000132,-0.24056721,-0.08085137,0.00000019,0.70859071,-0.019
 95557,-0.03743186,-0.00000010,-0.12587028,-0.21169143,0.00000049,-0.01
 588280,0.75664858,-0.00000185,0.00000059,-0.01469291,-0.00000050,0.000
 00012,-0.02812503,-0.00000635,0.00000842,0.09875866,-0.03735959,0.0358
 9688,0.00000085,-0.05191750,-0.03771214,0.00000044,-0.30413563,0.11571
 452,0.00000433,0.71767441,0.03898390,-0.04398227,-0.00000159,0.0068166
 1,0.05539066,0.00000045,0.04481815,-0.16043582,-0.00000253,-0.01601432
 ,0.69860482,0.00000091,-0.00000117,0.01164557,0.00000070,0.00000227,-0
 .01380599,0.00000331,-0.00000413,-0.04144257,-0.00000887,0.00001120,0.
 11100499,-0.05299871,0.00080757,0.00000046,-0.00925166,-0.01504666,-0.
 00000017,0.01390175,0.03258919,0.00000025,-0.14104346,0.08179048,0.000
 00137,0.74898758,-0.04535944,0.06085056,0.00000170,-0.01859713,-0.0475
 6532,0.00000017,0.07297597,-0.00961786,-0.00000132,0.00545310,-0.31894
 438,-0.00000342,-0.00973948,0.69308676,-0.00000068,0.00000143,-0.01482
 067,0.00000031,-0.00000080,0.01253009,0.00000080,0.00000008,-0.0098495
 4,0.00000086,-0.00000394,-0.03893946,-0.00000327,0.00000823,0.09630346
 ,-0.28733051,0.03517501,0.00000379,0.01207198,0.06610925,0.00000020,-0
 .05909132,-0.00605375,0.00000099,0.05563458,-0.06238328,-0.00000072,-0
 .26546148,-0.08748329,-0.00000021,0.69019596,0.10803786,-0.15909689,-0
 .00000369,0.02861950,-0.00619929,-0.00000099,-0.00588728,-0.00383141,-
 0.00000013,-0.01774167,-0.04141330,-0.00000051,-0.14531157,-0.21834494
 ,-0.00000215,0.01174300,0.74777594,0.00000531,-0.00000330,-0.04112699,
 -0.00000036,0.00000010,-0.00887985,0.00000087,-0.00000036,0.01255540,-
 0.00000094,0.00000065,-0.01283593,-0.00000115,-0.00000302,-0.03056342,
 -0.00000493,0.00001298,0.09153673,0.00727503,-0.00120742,0.00000016,-0
 .00042624,0.00697929,0.00000019,-0.05236384,-0.03532725,-0.00000026,-0
 .20844392,-0.12685988,-0.00000011,0.00118750,-0.00287701,-0.00000043,-
 0.00724961,0.00054975,0.00000032,0.67085079,-0.00074593,0.00499474,0.0
 0000035,0.00038948,-0.00695464,0.00000011,0.00581102,0.01593248,0.0000
 0019,-0.07210500,-0.19520537,-0.00000705,-0.04469725,-0.03692475,-0.00
 000067,0.00753837,-0.00258147,-0.00000041,-0.06732931,0.37811760,0.000
 00041,-0.00000015,-0.00204501,0.00000077,-0.00000023,0.00502987,0.0000
 0054,0.00000121,0.00479362,0.00000494,-0.00000341,-0.03167210,-0.00000
 017,-0.00000009,0.00352604,-0.00000055,-0.00000007,0.00781003,-0.00005
 154,0.00003366,0.01931031,0.01528061,0.02916721,-0.00000156,-0.1798430
 8,0.03799062,0.00000389,-0.03750613,-0.00089381,0.00000205,0.00249864,
 -0.01214165,0.00000026,0.00335768,0.00414323,-0.00000010,-0.00219896,-
 0.00122348,0.00000068,0.00264353,0.00362074,0.00000001,0.88628168,0.03
 344399,-0.00803073,-0.00000105,0.05204211,-0.12198747,-0.00000179,-0.0
 1280694,0.02083867,-0.00000060,-0.00532063,0.00103206,0.00000003,-0.00
 272344,-0.00438769,-0.00000004,0.00190358,-0.00670765,-0.00000034,-0.0
 0392842,-0.00212794,0.00000019,0.15375303,0.64121893,-0.00000149,-0.00
 000163,-0.00214744,0.00000032,-0.00000255,-0.06782771,0.00000036,0.000
 00032,-0.00422708,-0.00000028,0.00000009,0.00855683,0.00000003,-0.0000
 0027,-0.00155994,0.00000020,0.00000008,0.00675060,0.00000002,0.0000001
 4,0.00045296,-0.00010125,-0.00009469,0.19650493,-0.00903120,-0.0044726
 5,-0.00000008,-0.00575950,0.04282080,-0.00000682,-0.00620682,0.0021589
 8,-0.00000078,0.00214258,0.00182720,0.00000032,-0.00058307,0.00043797,
 0.00000004,0.00001718,0.00234076,0.00000039,-0.00102718,-0.00076675,-0
 .00000002,-0.12374487,0.03227880,0.00000018,0.61054663,0.00203799,0.00
 387700,0.00000030,0.01557880,-0.02978836,0.00000577,-0.00098666,-0.004
 56244,0.00000127,-0.00024901,-0.00263486,-0.00000035,0.00073953,0.0008
 3500,-0.00000006,0.00022458,-0.00050716,-0.00000007,0.00208514,0.00189
 193,-0.00000004,-0.00564594,-0.23803786,0.00003758,-0.09779102,0.41638
 409,0.00000061,-0.00000080,0.00166086,-0.00000092,0.00000365,0.0099068
 2,-0.00000020,0.00000054,0.00211847,0.00000058,0.00000031,-0.00155785,
 -0.00000010,0.00000027,0.00029202,-0.00000046,-0.00000015,-0.00070939,
 -0.00000038,-0.00000022,0.00002359,0.00000823,0.00003247,-0.05981412,-
 0.00005506,-0.00006526,0.03263681,-0.00610623,-0.01094432,0.00000028,-
 0.05527940,-0.02220871,0.00001084,-0.00031272,0.00880395,-0.00000002,-
 0.00216628,0.00317322,-0.00000065,-0.00159792,-0.00302479,0.,0.0025571
 4,0.00003647,-0.00000049,-0.00250427,-0.00131748,0.00000001,-0.5507064
 8,-0.25419398,0.00010025,0.00744304,-0.04998806,0.00001262,0.60735682,
 -0.00652606,-0.00638586,0.,-0.00792940,0.01851875,0.00000164,0.0041971
 3,-0.00163603,-0.00000037,-0.00116019,0.00208717,-0.00000017,-0.000138
 81,-0.00079409,-0.00000001,0.00119038,0.00074465,-0.00000023,0.0008690
 0,0.00028635,0.,-0.25560793,-0.25973591,0.00006302,-0.06427708,-0.0745
 9913,0.00002726,0.32562893,0.31708442,-0.00000019,0.00000108,-0.000803
 42,0.00000802,0.00000412,0.01844825,0.00000055,-0.00000126,0.00262677,
 0.00000007,0.00000008,-0.00129272,-0.00000009,0.00000009,0.00005961,0.
 00000022,0.00000001,-0.00069733,0.00000029,0.00000002,-0.00020831,0.00
 010032,0.00006087,-0.07303026,0.00001567,0.00002770,0.02829063,-0.0001
 2555,-0.00008931,0.02974137,-0.23247715,-0.07493579,-0.00000073,0.0177
 7594,-0.00596743,-0.00000049,-0.01078065,0.00287370,0.00000057,0.00780
 196,-0.00331600,0.00000005,0.00062759,0.00936321,0.00000024,-0.0522021
 3,-0.03786385,-0.00000080,-0.00590142,-0.00397397,-0.00000035,-0.01344
 161,0.00075856,0.00000134,0.00226892,0.00022613,-0.00000026,0.00527503
 ,0.00701793,-0.00000028,0.38456622,-0.12970716,-0.18626178,-0.00000373
 ,-0.03301624,-0.04045986,-0.00000076,0.00391359,-0.00305796,-0.0000000
 7,0.00190551,0.00394578,0.00000027,0.00155174,-0.00466027,-0.00000049,
 -0.00247163,0.00689077,0.00000006,-0.00556862,-0.00392962,-0.00000027,
 -0.01281947,0.00199194,0.00000053,0.00132337,-0.00160461,0.00000037,0.
 00933964,-0.00293328,-0.00000120,-0.02798905,0.67755883,-0.00000237,-0
 .00000437,-0.03400174,-0.00000062,-0.00000107,0.00201862,-0.00000015,-
 0.00000013,0.00480147,0.00000029,-0.00000009,-0.00196900,0.00000024,-0
 .00000017,0.00861321,0.00000008,0.00000022,0.00627211,-0.00000025,-0.0
 0000008,-0.00038489,-0.00000058,-0.00000001,-0.00292727,-0.00000019,-0
 .00000054,0.00018514,0.00000066,-0.00000028,0.00167724,-0.00000445,0.0
 0002441,0.02218399,-0.00387744,-0.00195611,0.00000003,0.00804582,-0.02
 429332,-0.00000012,-0.06550898,0.04821530,0.00000132,0.00042605,0.0299
 8938,0.00000045,-0.00556135,0.00152107,0.00000012,-0.00123724,-0.00078
 508,0.,0.00245552,-0.00028118,-0.00000010,0.00146294,-0.00346143,0.000
 00060,-0.00435749,0.00199269,-0.00000106,0.00064843,0.00109258,-0.0000
 0044,0.00032354,-0.00166365,-0.00000003,0.06707805,-0.00310482,0.00093
 622,-0.00000004,0.00391062,-0.01399498,-0.00000008,0.04671036,-0.35050
 426,-0.00000481,-0.00122204,-0.00601278,-0.00000006,0.00129400,0.00029
 055,-0.00000005,0.00027240,0.00067459,0.,-0.00050251,0.00063354,0.0000
 0003,0.00025752,-0.00171332,0.00000018,0.00345984,0.00005846,0.0000001
 4,0.00015756,0.00045576,-0.00000007,0.00047068,-0.00082179,0.,-0.05169
 907,0.36948670,0.00000011,0.00000006,0.00676432,0.00000029,-0.00000042
 ,0.00022981,0.00000139,-0.00000440,-0.03338389,-0.00000038,-0.00000060
 ,0.00490177,0.00000014,-0.00000015,0.00593207,0.00000011,-0.00000001,-
 0.00137176,-0.00000003,0.00000007,-0.00314929,-0.00000011,0.00000014,-
 0.00385839,-0.00000117,0.00000018,0.00074126,0.00000054,0.00000036,0.0
 0071537,-0.00000004,0.,0.00037377,-0.00000105,0.00000472,0.02385672,-0
 .00047163,-0.00390059,-0.00000010,0.00031563,-0.00046710,-0.00000001,0
 .00172864,0.00103485,0.00000005,-0.00464004,-0.00306921,0.,-0.30436852
 ,0.09617408,0.00000282,-0.01797751,0.01137245,0.00000031,0.00323406,0.
 00017207,-0.00000007,0.00022249,-0.00019243,0.,-0.00013558,0.00020792,
 -0.00000003,-0.00015582,0.00006847,0.00000002,-0.00164278,0.00008754,0
 .00000003,-0.00015290,-0.00003665,0.,0.32278660,-0.00329064,-0.0022730
 7,-0.00000019,-0.00126717,-0.00104756,0.00000008,0.00042659,-0.0065071
 7,-0.00000020,0.02989262,-0.00439974,-0.00000028,0.09678942,-0.0987918
 1,-0.00000142,-0.02005589,0.01126479,0.00000032,0.00085186,0.00292562,
 -0.00000001,0.00009739,-0.00037485,0.00000002,0.00015641,0.00013680,-0
 .00000001,0.00001470,0.00007800,-0.00000002,-0.00122267,0.00028237,0.0
 0000006,0.00152646,-0.00011639,-0.00000004,-0.10303790,0.09882935,0.00
 000008,-0.00000005,0.00790404,0.00000004,-0.00000020,-0.00119524,0.000
 00004,-0.00000015,0.00592785,0.00000055,0.00000014,0.00284673,0.000002
 66,-0.00000161,-0.03067870,-0.00000017,0.00000007,0.00081743,-0.000000
 31,0.00000015,-0.00327824,-0.00000011,0.00000002,-0.00068377,-0.000000
 06,0.00000004,0.00014156,0.00000009,0.00000007,0.00006654,0.00000002,0
 .,-0.00001750,0.00000002,-0.00000002,-0.00041450,-0.00000304,0.0000014
 5,0.02179526,-0.00136064,0.02917110,0.00000066,-0.00521932,0.00096399,
 0.00000020,-0.00154727,-0.00060078,0.00000003,-0.00356245,-0.00257533,
 -0.00000002,0.00818117,-0.02570738,-0.00000048,-0.06823004,0.04981460,
 0.00000118,-0.00007087,-0.00169691,0.00000003,0.00076629,0.00130240,0.
 ,-0.00060786,0.00034295,0.00000003,-0.00006982,-0.00013896,-0.00000003
 ,0.00292339,0.00154872,0.00000001,0.00007993,0.00004057,-0.00000001,0.
 00100687,0.00030247,-0.00000002,0.06868802,-0.00410625,-0.01011149,-0.
 00000021,0.00260962,0.00090707,-0.00000020,-0.00012517,0.00063269,0.00
 000004,-0.00348112,0.00080866,-0.00000013,0.00592008,-0.01549490,-0.00
 000032,0.04976667,-0.33302651,-0.00000625,-0.00009848,-0.00136045,0.00
 000001,-0.00128508,-0.00034922,0.00000010,0.00042399,-0.00021129,0.000
 00002,0.00047499,0.00022280,-0.00000005,-0.00030758,0.00343205,0.00000
 015,0.00001580,-0.00005044,0.,-0.00006271,0.00093951,0.00000010,-0.051
 78959,0.35338010,0.00000026,-0.00000077,0.00197197,0.00000024,-0.00000
 008,0.00542915,-0.00000020,0.00000009,-0.00149834,0.00000021,-0.000000
 16,0.00723601,0.00000015,0.00000009,0.00020574,0.00000085,-0.00000612,
 -0.02806787,-0.00000008,0.,0.00038762,-0.00000005,0.00000006,0.0002675
 6,0.00000003,-0.00000004,-0.00012534,0.00000004,0.,-0.00001719,-0.0000
 0009,0.00000016,-0.00365570,0.,0.,-0.00017206,0.,0.00000007,-0.0036987
 0,-0.00000141,0.00000678,0.02113758,-0.00007647,-0.00047029,-0.0000000
 8,-0.00036407,0.00154705,-0.00000006,-0.00225732,-0.00574633,0.0000001
 3,-0.03269915,0.01856530,0.00000304,0.00520465,0.00285115,0.00000002,-
 0.00065431,0.00032721,-0.00000027,-0.40966358,0.17517179,0.00004613,-0
 .00074318,0.00002289,-0.00000002,0.00015909,-0.00026700,0.00000005,0.0
 0015483,0.00001157,0.00000001,0.00075752,0.00061092,0.00000006,0.00037
 659,-0.00012973,0.00000004,0.00011515,-0.00124797,0.00000019,0.0002465
 7,0.00027108,0.00000001,0.43954468,0.00059968,-0.00015301,0.00000009,-
 0.00004653,0.00112846,-0.00000025,-0.00462324,-0.00368063,0.00000015,-
 0.03300280,0.00973890,0.00000341,-0.00344768,0.00193135,0.00000016,-0.
 00036346,-0.00062572,-0.00000006,0.23179621,-0.15608831,-0.00003088,-0
 .00056814,0.00002914,-0.00000005,0.00010729,-0.00018440,0.,0.00009431,
 0.00003007,0.00000003,-0.00009633,-0.00025501,-0.00000003,-0.00030973,
 0.00017483,0.00000005,0.00138411,-0.00115813,-0.00000001,0.00003161,0.
 00006007,-0.00000003,-0.19142420,0.14903277,-0.00000019,0.00000014,0.0
 0019439,-0.00000039,-0.00000016,0.00192418,-0.00000007,-0.00000029,0.0
 0079625,-0.00000238,-0.00000069,-0.00341489,-0.00000040,-0.00000029,0.
 00009830,0.00000028,-0.00000006,-0.00083568,0.00005233,-0.00002629,-0.
 00049919,-0.00000002,-0.00000010,0.00002614,-0.00000001,0.00000003,0.0
 0000230,-0.00000002,0.00000002,-0.00005466,0.00000011,0.00000012,-0.00
 010642,0.,0.00000001,-0.00072060,0.00000003,0.00000018,0.00050511,-0.0
 0000004,-0.00000004,-0.00004823,-0.00004925,0.00002741,0.00206924,-0.0
 0016306,0.00016365,-0.00000012,0.00162404,-0.00055926,0.00000060,0.000
 13184,-0.00030267,0.00000002,0.00003882,-0.00003199,-0.00000007,0.0000
 5304,-0.00000939,0.00000001,0.00009502,0.00014137,-0.00000005,0.000090
 27,0.00005414,-0.00000001,-0.00246319,0.00839031,-0.00000079,-0.471404
 04,0.13078250,0.00003674,-0.00410319,-0.00668717,0.00000112,-0.0000433
 7,-0.00015919,-0.00000005,0.00007636,0.00031248,0.00000016,0.00001773,
 0.00001308,0.00000001,0.00000073,-0.00001753,0.00000002,-0.00002676,-0
 .00001766,0.,0.47603551,0.00193015,0.00018581,0.00000020,-0.00203532,-
 0.00758375,0.00000248,-0.00155684,-0.00002551,-0.00000060,0.00025878,0
 .00079877,0.00000009,-0.00033441,-0.00017502,0.,0.00001750,-0.00054630
 ,-0.00000013,-0.00032436,-0.00027164,0.,0.05911069,-0.02182965,-0.0000
 0270,0.08026853,-0.07130697,0.00000138,-0.00548923,0.00748549,-0.00000
 203,-0.00014866,0.00031299,0.00000011,0.00042148,0.00059523,0.00000004
 ,-0.00003815,0.00004942,0.,0.00013817,-0.00004040,-0.00000002,0.000049
 61,0.00003696,0.,-0.13211543,0.09233776,-0.00000056,0.00000057,0.00075
 111,0.00000123,0.00000206,0.00409247,0.00000012,-0.00000025,-0.0006542
 5,-0.00000027,0.00000008,0.00057313,0.00000003,-0.00000020,-0.00012544
 ,0.00000024,0.00000027,-0.00020980,0.00000008,0.00000001,-0.00005537,-
 0.00001211,0.00000467,0.00370957,0.00004764,-0.00000661,-0.01349889,0.
 00000112,-0.00000157,-0.00568972,-0.00000017,-0.00000033,0.00005445,0.
 00000029,0.00000006,-0.00043554,0.,0.,-0.00003715,-0.00000005,0.000000
 01,-0.00005341,-0.00000001,0.,0.00003626,-0.00003762,0.00000118,0.0115
 3868,0.00647081,-0.04101949,-0.00000153,-0.00503303,-0.00404157,-0.000
 00005,0.00119031,-0.00075726,0.00000001,-0.00024903,0.00042741,0.00000
 004,-0.00063477,-0.00012188,-0.00000005,0.00106126,-0.00417004,-0.0000
 0006,-0.00008577,0.00015618,-0.00000002,-0.00186637,-0.00126841,0.0000
 0053,0.00028017,0.00070947,-0.00000040,-0.00043317,0.00238961,0.000000
 30,-0.10583100,0.19311398,0.00000732,-0.00027783,-0.00019118,0.0000000
 2,0.00011761,0.00005124,0.,-0.00122470,0.00179128,0.00000002,-0.000074
 23,-0.00011344,0.00000002,0.00004024,-0.00015251,0.00000005,0.10654952
 ,0.01089306,-0.03359005,-0.00000106,-0.00583171,0.00124254,0.00000003,
 0.00210194,-0.00107004,-0.00000015,-0.00111251,0.00062170,0.,-0.000042
 72,-0.00129319,0.00000006,0.00487056,0.00552992,0.00000007,0.00089201,
 0.00066195,0.00000005,0.00204506,0.00017156,-0.00000018,-0.00029642,0.
 00025379,0.00000004,-0.00055718,-0.00090918,-0.00000004,0.13511113,-0.
 45043053,-0.00001819,-0.00032519,-0.00009190,0.,0.00030325,0.00016286,
 0.,-0.00114763,0.00026176,-0.00000003,-0.00014305,-0.00001735,-0.00000
 002,0.00004276,-0.00002319,0.00000004,-0.14680339,0.47851936,0.0000004
 4,-0.00000077,-0.00333584,-0.00000040,0.00000046,0.00209265,0.00000009
 ,-0.00000009,0.00149512,0.,0.,0.00016548,0.00000001,0.,-0.00102337,0.0
 0000010,0.00000024,-0.00044429,0.,0.00000001,-0.00004162,0.00000044,0.
 00000017,-0.00019262,-0.00000007,0.00000010,-0.00029387,0.00000028,-0.
 00000043,0.00016786,0.00000534,-0.00001907,-0.00311748,-0.00000003,0.,
 -0.00000905,0.,0.,-0.00000070,-0.00000006,0.,0.00070120,0.,0.,0.000027
 49,0.00000004,0.,0.00000390,-0.00000619,0.00001939,0.00380514\\0.00000
 647,-0.00000875,0.00000006,-0.00000429,0.00000758,0.00000118,-0.000000
 50,-0.00000665,0.00000047,0.00000409,0.00000342,0.00000009,-0.00000047
 ,-0.00000040,-0.00000013,0.00000150,-0.00000031,-0.00000007,-0.0000071
 2,0.00000428,-0.00000045,-0.00002429,-0.00000470,-0.00000463,0.0000021
 8,-0.00000966,0.00000106,0.00001359,0.00000501,0.00000198,0.00001251,-
 0.00000088,0.,-0.00000174,-0.00000296,0.00000003,-0.00000326,0.0000067
 0,0.,0.00000270,0.00000795,0.,-0.00000530,0.00000318,0.00000031,-0.000
 00185,-0.00000339,0.00000012,0.00000576,-0.00000042,-0.00000003\\\@


 We find comfort among those who agree with us -- growth among those who don't.
 -- Frank A. Clark
 Job cpu time:       0 days  3 hours 30 minutes 11.5 seconds.
 File lengths (MBytes):  RWF=  17856 Int=      0 D2E=      0 Chk=      7 Scr=      1
 Normal termination of Gaussian 09 at Tue Dec 17 21:57:49 2024.
