 Entering Gaussian System, Link 0=g09
 Input=2+b3lypDHB21.gjf
 Output=2+b3lypDHB21.log
 Initial command:
 /home/phzd/g09E/g09/l1.exe "/home/phzd/g09E/scratch/Gau-540070.inp" -scrdir="/home/phzd/g09E/scratch/"
 Default is to use a total of  18 processors:
                               18 via shared-memory
                                1 via Linda
 Entering Link 1 = /home/phzd/g09E/g09/l1.exe PID=    540072.
  
 Copyright (c) 1988,1990,1992,1993,1995,1998,2003,2009,2015,
            Gaussian, Inc.  All Rights Reserved.
  
 This is part of the Gaussian(R) 09 program.  It is based on
 the Gaussian(R) 03 system (copyright 2003, Gaussian, Inc.),
 the Gaussian(R) 98 system (copyright 1998, Gaussian, Inc.),
 the Gaussian(R) 94 system (copyright 1995, Gaussian, Inc.),
 the Gaussian 92(TM) system (copyright 1992, Gaussian, Inc.),
 the Gaussian 90(TM) system (copyright 1990, Gaussian, Inc.),
 the Gaussian 88(TM) system (copyright 1988, Gaussian, Inc.),
 the Gaussian 86(TM) system (copyright 1986, Carnegie Mellon
 University), and the Gaussian 82(TM) system (copyright 1983,
 Carnegie Mellon University). Gaussian is a federally registered
 trademark of Gaussian, Inc.
  
 This software contains proprietary and confidential information,
 including trade secrets, belonging to Gaussian, Inc.
  
 This software is provided under written license and may be
 used, copied, transmitted, or stored only in accord with that
 written license.
  
 The following legend is applicable only to US Government
 contracts under FAR:
  
                    RESTRICTED RIGHTS LEGEND
  
 Use, reproduction and disclosure by the US Government is
 subject to restrictions as set forth in subparagraphs (a)
 and (c) of the Commercial Computer Software - Restricted
 Rights clause in FAR 52.227-19.
  
 Gaussian, Inc.
 340 Quinnipiac St., Bldg. 40, Wallingford CT 06492
  
  
 ---------------------------------------------------------------
 Warning -- This program may not be used in any manner that
 competes with the business of Gaussian, Inc. or will provide
 assistance to any competitor of Gaussian, Inc.  The licensee
 of this program is prohibited from giving any competitor of
 Gaussian, Inc. access to this program.  By using this program,
 the user acknowledges that Gaussian, Inc. is engaged in the
 business of creating and licensing software in the field of
 computational chemistry and represents and warrants to the
 licensee that it is not a competitor of Gaussian, Inc. and that
 it will not use this program in any manner prohibited above.
 ---------------------------------------------------------------
  

 Cite this work as:
 Gaussian 09, Revision E.01,
 M. J. Frisch, G. W. Trucks, H. B. Schlegel, G. E. Scuseria, 
 M. A. Robb, J. R. Cheeseman, G. Scalmani, V. Barone, B. Mennucci, 
 G. A. Petersson, H. Nakatsuji, M. Caricato, X. Li, H. P. Hratchian, 
 A. F. Izmaylov, J. Bloino, G. Zheng, J. L. Sonnenberg, M. Hada, 
 M. Ehara, K. Toyota, R. Fukuda, J. Hasegawa, M. Ishida, T. Nakajima, 
 Y. Honda, O. Kitao, H. Nakai, T. Vreven, J. A. Montgomery, Jr., 
 J. E. Peralta, F. Ogliaro, M. Bearpark, J. J. Heyd, E. Brothers, 
 K. N. Kudin, V. N. Staroverov, T. Keith, R. Kobayashi, J. Normand, 
 K. Raghavachari, A. Rendell, J. C. Burant, S. S. Iyengar, J. Tomasi, 
 M. Cossi, N. Rega, J. M. Millam, M. Klene, J. E. Knox, J. B. Cross, 
 V. Bakken, C. Adamo, J. Jaramillo, R. Gomperts, R. E. Stratmann, 
 O. Yazyev, A. J. Austin, R. Cammi, C. Pomelli, J. W. Ochterski, 
 R. L. Martin, K. Morokuma, V. G. Zakrzewski, G. A. Voth, 
 P. Salvador, J. J. Dannenberg, S. Dapprich, A. D. Daniels, 
 O. Farkas, J. B. Foresman, J. V. Ortiz, J. Cioslowski, 
 and D. J. Fox, Gaussian, Inc., Wallingford CT, 2013.
 
 ******************************************
 Gaussian 09:  ES64L-G09RevE.01 30-Nov-2015
                20-May-2024 
 ******************************************
 %chk=2+b3lypDHB21.chk
 -------------------------------------
 # opt freq b3lyp/6-31+g(d,p) em=gd3bj
 -------------------------------------
 1/14=-1,18=20,19=15,26=3,38=1/1,3;
 2/9=110,12=2,17=6,18=5,40=1/2;
 3/5=1,6=6,7=111,11=2,16=1,25=1,30=1,71=1,74=-5,124=41/1,2,3;
 4//1;
 5/5=2,38=5/2;
 6/7=2,8=2,9=2,10=2,28=1/1;
 7//1,2,3,16;
 1/14=-1,18=20,19=15,26=3/3(2);
 2/9=110/2;
 99//99;
 2/9=110/2;
 3/5=1,6=6,7=111,11=2,16=1,25=1,30=1,71=1,74=-5,124=41/1,2,3;
 4/5=5,16=3,69=1/1;
 5/5=2,38=5/2;
 7//1,2,3,16;
 1/14=-1,18=20,19=15,26=3/3(-5);
 2/9=110/2;
 6/7=2,8=2,9=2,10=2,19=2,28=1/1;
 99/9=1/99;
 ----------
 [No Title]
 ----------
 Symbolic Z-matrix:
 Charge =  1 Multiplicity = 1
 C                     0.21852   1.26844  0. 
 C                     0.42184  -0.13647  0. 
 C                    -0.69451  -1.01156   0.00001 
 C                    -1.97506  -0.51302   0.00001 
 C                    -2.16451   0.88094   0.00001 
 C                    -1.09213   1.74959   0.00001 
 O                    -2.99465  -1.39891  -0.00002 
 C                     1.71744  -0.71434  -0.00001 
 O                     1.80384  -2.01682   0.00008 
 O                     2.7786    0.03169  -0.00011 
 O                     1.27713   2.08563  0. 
 H                    -0.54928  -2.08394   0.00001 
 H                    -3.17195   1.28772  0. 
 H                    -1.26638   2.82088   0.00001 
 H                    -3.8585   -0.96817   0.00022 
 H                     2.69877  -2.39207  -0.00002 
 H                     3.63127  -0.43339  -0.00002 
 H                     1.00728   3.01476   0. 
 

 GradGradGradGradGradGradGradGradGradGradGradGradGradGradGradGradGradGrad
 Berny optimization.
 Initialization pass.
                           ----------------------------
                           !    Initial Parameters    !
                           ! (Angstroms and Degrees)  !
 --------------------------                            --------------------------
 ! Name  Definition              Value          Derivative Info.                !
 --------------------------------------------------------------------------------
 ! R1    R(1,2)                  1.4195         estimate D2E/DX2                !
 ! R2    R(1,6)                  1.3962         estimate D2E/DX2                !
 ! R3    R(1,11)                 1.3373         estimate D2E/DX2                !
 ! R4    R(2,3)                  1.4185         estimate D2E/DX2                !
 ! R5    R(2,8)                  1.4186         estimate D2E/DX2                !
 ! R6    R(3,4)                  1.3742         estimate D2E/DX2                !
 ! R7    R(3,12)                 1.0822         estimate D2E/DX2                !
 ! R8    R(4,5)                  1.4068         estimate D2E/DX2                !
 ! R9    R(4,7)                  1.3507         estimate D2E/DX2                !
 ! R10   R(5,6)                  1.3801         estimate D2E/DX2                !
 ! R11   R(5,13)                 1.0865         estimate D2E/DX2                !
 ! R12   R(6,14)                 1.0854         estimate D2E/DX2                !
 ! R13   R(7,15)                 0.9653         estimate D2E/DX2                !
 ! R14   R(8,9)                  1.3053         estimate D2E/DX2                !
 ! R15   R(8,10)                 1.2972         estimate D2E/DX2                !
 ! R16   R(9,16)                 0.9704         estimate D2E/DX2                !
 ! R17   R(10,17)                0.9713         estimate D2E/DX2                !
 ! R18   R(11,18)                0.9675         estimate D2E/DX2                !
 ! A1    A(2,1,6)              118.3932         estimate D2E/DX2                !
 ! A2    A(2,1,11)             119.4315         estimate D2E/DX2                !
 ! A3    A(6,1,11)             122.1752         estimate D2E/DX2                !
 ! A4    A(1,2,3)              119.8577         estimate D2E/DX2                !
 ! A5    A(1,2,8)              122.2728         estimate D2E/DX2                !
 ! A6    A(3,2,8)              117.8695         estimate D2E/DX2                !
 ! A7    A(2,3,4)              120.6356         estimate D2E/DX2                !
 ! A8    A(2,3,12)             120.3796         estimate D2E/DX2                !
 ! A9    A(4,3,12)             118.9848         estimate D2E/DX2                !
 ! A10   A(3,4,5)              119.0116         estimate D2E/DX2                !
 ! A11   A(3,4,7)              117.7416         estimate D2E/DX2                !
 ! A12   A(5,4,7)              123.2468         estimate D2E/DX2                !
 ! A13   A(4,5,6)              121.2684         estimate D2E/DX2                !
 ! A14   A(4,5,13)             119.7274         estimate D2E/DX2                !
 ! A15   A(6,5,13)             119.0042         estimate D2E/DX2                !
 ! A16   A(1,6,5)              120.8334         estimate D2E/DX2                !
 ! A17   A(1,6,14)             119.397          estimate D2E/DX2                !
 ! A18   A(5,6,14)             119.7697         estimate D2E/DX2                !
 ! A19   A(4,7,15)             112.5114         estimate D2E/DX2                !
 ! A20   A(2,8,9)              117.8332         estimate D2E/DX2                !
 ! A21   A(2,8,10)             120.8535         estimate D2E/DX2                !
 ! A22   A(9,8,10)             121.3133         estimate D2E/DX2                !
 ! A23   A(8,9,16)             116.5438         estimate D2E/DX2                !
 ! A24   A(8,10,17)            116.2819         estimate D2E/DX2                !
 ! A25   A(1,11,18)            111.4713         estimate D2E/DX2                !
 ! D1    D(6,1,2,3)             -0.0004         estimate D2E/DX2                !
 ! D2    D(6,1,2,8)           -179.9998         estimate D2E/DX2                !
 ! D3    D(11,1,2,3)           179.9993         estimate D2E/DX2                !
 ! D4    D(11,1,2,8)            -0.0001         estimate D2E/DX2                !
 ! D5    D(2,1,6,5)             -0.0005         estimate D2E/DX2                !
 ! D6    D(2,1,6,14)          -179.9999         estimate D2E/DX2                !
 ! D7    D(11,1,6,5)           179.9999         estimate D2E/DX2                !
 ! D8    D(11,1,6,14)            0.0005         estimate D2E/DX2                !
 ! D9    D(2,1,11,18)          180.0            estimate D2E/DX2                !
 ! D10   D(6,1,11,18)           -0.0004         estimate D2E/DX2                !
 ! D11   D(1,2,3,4)              0.0007         estimate D2E/DX2                !
 ! D12   D(1,2,3,12)          -179.9997         estimate D2E/DX2                !
 ! D13   D(8,2,3,4)           -179.9998         estimate D2E/DX2                !
 ! D14   D(8,2,3,12)            -0.0003         estimate D2E/DX2                !
 ! D15   D(1,2,8,9)            179.9953         estimate D2E/DX2                !
 ! D16   D(1,2,8,10)            -0.0049         estimate D2E/DX2                !
 ! D17   D(3,2,8,9)             -0.0041         estimate D2E/DX2                !
 ! D18   D(3,2,8,10)           179.9957         estimate D2E/DX2                !
 ! D19   D(2,3,4,5)             -0.0003         estimate D2E/DX2                !
 ! D20   D(2,3,4,7)            179.9977         estimate D2E/DX2                !
 ! D21   D(12,3,4,5)          -179.9999         estimate D2E/DX2                !
 ! D22   D(12,3,4,7)            -0.0019         estimate D2E/DX2                !
 ! D23   D(3,4,5,6)             -0.0006         estimate D2E/DX2                !
 ! D24   D(3,4,5,13)           179.9994         estimate D2E/DX2                !
 ! D25   D(7,4,5,6)           -179.9984         estimate D2E/DX2                !
 ! D26   D(7,4,5,13)             0.0015         estimate D2E/DX2                !
 ! D27   D(3,4,7,15)           179.9849         estimate D2E/DX2                !
 ! D28   D(5,4,7,15)            -0.0172         estimate D2E/DX2                !
 ! D29   D(4,5,6,1)              0.001          estimate D2E/DX2                !
 ! D30   D(4,5,6,14)          -179.9997         estimate D2E/DX2                !
 ! D31   D(13,5,6,1)          -179.999          estimate D2E/DX2                !
 ! D32   D(13,5,6,14)            0.0004         estimate D2E/DX2                !
 ! D33   D(2,8,9,16)           179.9937         estimate D2E/DX2                !
 ! D34   D(10,8,9,16)           -0.0061         estimate D2E/DX2                !
 ! D35   D(2,8,10,17)          179.9945         estimate D2E/DX2                !
 ! D36   D(9,8,10,17)           -0.0057         estimate D2E/DX2                !
 --------------------------------------------------------------------------------
 Trust Radius=3.00D-01 FncErr=1.00D-07 GrdErr=1.00D-06
 Number of steps in this run=     89 maximum allowed number of steps=    108.
 GradGradGradGradGradGradGradGradGradGradGradGradGradGradGradGradGradGrad

                          Input orientation:                          
 ---------------------------------------------------------------------
 Center     Atomic      Atomic             Coordinates (Angstroms)
 Number     Number       Type             X           Y           Z
 ---------------------------------------------------------------------
      1          6           0        0.218520    1.268441   -0.000001
      2          6           0        0.421840   -0.136467   -0.000004
      3          6           0       -0.694512   -1.011562    0.000011
      4          6           0       -1.975059   -0.513021    0.000013
      5          6           0       -2.164514    0.880938    0.000006
      6          6           0       -1.092132    1.749589    0.000009
      7          8           0       -2.994648   -1.398914   -0.000021
      8          6           0        1.717439   -0.714336   -0.000009
      9          8           0        1.803839   -2.016818    0.000084
     10          8           0        2.778597    0.031693   -0.000107
     11          8           0        1.277125    2.085629   -0.000001
     12          1           0       -0.549276   -2.083938    0.000014
     13          1           0       -3.171953    1.287717   -0.000003
     14          1           0       -1.266382    2.820881    0.000009
     15          1           0       -3.858502   -0.968172    0.000218
     16          1           0        2.698772   -2.392069   -0.000016
     17          1           0        3.631270   -0.433385   -0.000020
     18          1           0        1.007276    3.014760    0.000001
 ---------------------------------------------------------------------
                    Distance matrix (angstroms):
                    1          2          3          4          5
     1  C    0.000000
     2  C    1.419544   0.000000
     3  C    2.456021   1.418462   0.000000
     4  C    2.825844   2.426297   1.374170   0.000000
     5  C    2.414334   2.779270   2.396343   1.406775   0.000000
     6  C    1.396178   2.418536   2.789634   2.428778   1.380057
     7  O    4.176031   3.642274   2.332524   1.350692   2.426283
     8  C    2.485591   1.418629   2.430196   3.697982   4.196958
     9  O    3.647761   2.333590   2.693009   4.067121   4.913737
    10  O    2.843157   2.362749   3.626412   4.784763   5.015532
    11  O    1.337326   2.381013   3.671504   4.162894   3.646390
    12  H    3.439180   2.176169   1.082166   2.121471   3.376312
    13  H    3.390528   3.865702   3.380000   2.162224   1.086463
    14  H    2.148256   3.405290   3.874875   3.408390   2.137760
    15  H    4.650220   4.360397   3.164288   1.937658   2.507749
    16  H    4.421649   3.205021   3.663356   5.037412   5.862092
    17  H    3.813538   3.223135   4.364250   5.606895   5.942942
    18  H    1.916185   3.205147   4.371196   4.619476   3.822754
                    6          7          8          9         10
     6  C    0.000000
     7  O    3.678673   0.000000
     8  C    3.736926   4.761556   0.000000
     9  O    4.751049   4.838107   1.305345   0.000000
    10  O    4.234821   5.947856   1.297157   2.268601   0.000000
    11  O    2.392969   5.512720   2.834375   4.136121   2.544223
    12  H    3.871772   2.539508   2.648359   2.354072   3.943429
    13  H    2.130488   2.692475   5.283405   5.973145   6.081664
    14  H    1.085371   4.559997   4.626116   5.729711   4.913392
    15  H    3.878019   0.965289   5.581716   5.758625   6.711990
    16  H    5.614649   5.779393   1.943657   0.970422   2.425076
    17  H    5.203451   6.695897   1.934343   2.418008   0.971261
    18  H    2.451157   5.957845   3.796115   5.094241   3.469332
                   11         12         13         14         15
    11  O    0.000000
    12  H    4.552036   0.000000
    13  H    4.520062   4.271591   0.000000
    14  H    2.647645   4.956964   2.445770   0.000000
    15  H    5.974978   3.492264   2.358047   4.590861   0.000000
    16  H    4.697963   3.262631   6.928653   6.549603   6.710091
    17  H    3.447815   4.494585   7.017552   5.880242   7.508840
    18  H    0.967524   5.331001   4.522016   2.281909   6.288048
                   16         17         18
    16  H    0.000000
    17  H    2.169331   0.000000
    18  H    5.665241   4.333018   0.000000
 Stoichiometry    C7H7O4(1+)
 Framework group  C1[X(C7H7O4)]
 Deg. of freedom    48
 Full point group                 C1      NOp   1
 Largest Abelian subgroup         C1      NOp   1
 Largest concise Abelian subgroup C1      NOp   1
                         Standard orientation:                         
 ---------------------------------------------------------------------
 Center     Atomic      Atomic             Coordinates (Angstroms)
 Number     Number       Type             X           Y           Z
 ---------------------------------------------------------------------
      1          6           0        0.218520    1.268441   -0.000001
      2          6           0        0.421840   -0.136467   -0.000004
      3          6           0       -0.694512   -1.011562    0.000011
      4          6           0       -1.975059   -0.513021    0.000013
      5          6           0       -2.164514    0.880938    0.000006
      6          6           0       -1.092132    1.749589    0.000009
      7          8           0       -2.994648   -1.398914   -0.000021
      8          6           0        1.717439   -0.714336   -0.000009
      9          8           0        1.803839   -2.016818    0.000084
     10          8           0        2.778597    0.031693   -0.000107
     11          8           0        1.277125    2.085629   -0.000001
     12          1           0       -0.549276   -2.083938    0.000014
     13          1           0       -3.171953    1.287717   -0.000003
     14          1           0       -1.266382    2.820881    0.000009
     15          1           0       -3.858502   -0.968172    0.000218
     16          1           0        2.698772   -2.392069   -0.000016
     17          1           0        3.631270   -0.433385   -0.000020
     18          1           0        1.007276    3.014760    0.000001
 ---------------------------------------------------------------------
 Rotational constants (GHZ):      1.7858526      0.9102282      0.6029246
 Standard basis: 6-31+G(d,p) (6D, 7F)
 There are   244 symmetry adapted cartesian basis functions of A   symmetry.
 There are   244 symmetry adapted basis functions of A   symmetry.
   244 basis functions,   401 primitive gaussians,   244 cartesian basis functions
    40 alpha electrons       40 beta electrons
       nuclear repulsion energy       608.3935479087 Hartrees.
 NAtoms=   18 NActive=   18 NUniq=   18 SFac= 1.00D+00 NAtFMM=   60 NAOKFM=F Big=F
 Integral buffers will be    131072 words long.
 Raffenetti 2 integral format.
 Two-electron integral symmetry is turned on.
 Nuclear repulsion after empirical dispersion term =      608.3616937522 Hartrees.
 One-electron integrals computed using PRISM.
 NBasis=   244 RedAO= T EigKep=  3.15D-06  NBF=   244
 NBsUse=   244 1.00D-06 EigRej= -1.00D+00 NBFU=   244
 ExpMin= 4.38D-02 ExpMax= 5.48D+03 ExpMxC= 8.25D+02 IAcc=2 IRadAn=         4 AccDes= 0.00D+00
 Harris functional with IExCor=  402 and IRadAn=       4 diagonalized for initial guess.
 HarFok:  IExCor=  402 AccDes= 0.00D+00 IRadAn=         4 IDoV= 1 UseB2=F ITyADJ=14
 ICtDFT=  3500011 ScaDFX=  1.000000  1.000000  1.000000  1.000000
 FoFCou: FMM=F IPFlag=           0 FMFlag=      100000 FMFlg1=           0
         NFxFlg=           0 DoJE=T BraDBF=F KetDBF=T FulRan=T
         wScrn=  0.000000 ICntrl=     500 IOpCl=  0 I1Cent=   200000004 NGrid=           0
         NMat0=    1 NMatS0=      1 NMatT0=    0 NMatD0=    1 NMtDS0=    0 NMtDT0=    0
 Petite list used in FoFCou.
 Keep R1 ints in memory in canonical form, NReq=454277305.
 Requested convergence on RMS density matrix=1.00D-08 within 128 cycles.
 Requested convergence on MAX density matrix=1.00D-06.
 Requested convergence on             energy=1.00D-06.
 No special actions if energy rises.
 SCF Done:  E(RB3LYP) =  -571.659212928     A.U. after   15 cycles
            NFock= 15  Conv=0.63D-08     -V/T= 2.0088

 **********************************************************************

            Population analysis using the SCF density.

 **********************************************************************

 Orbital symmetries:
       Occupied  (A) (A) (A) (A) (A) (A) (A) (A) (A) (A) (A) (A)
                 (A) (A) (A) (A) (A) (A) (A) (A) (A) (A) (A) (A)
                 (A) (A) (A) (A) (A) (A) (A) (A) (A) (A) (A) (A)
                 (A) (A) (A) (A)
       Virtual   (A) (A) (A) (A) (A) (A) (A) (A) (A) (A) (A) (A)
                 (A) (A) (A) (A) (A) (A) (A) (A) (A) (A) (A) (A)
                 (A) (A) (A) (A) (A) (A) (A) (A) (A) (A) (A) (A)
                 (A) (A) (A) (A) (A) (A) (A) (A) (A) (A) (A) (A)
                 (A) (A) (A) (A) (A) (A) (A) (A) (A) (A) (A) (A)
                 (A) (A) (A) (A) (A) (A) (A) (A) (A) (A) (A) (A)
                 (A) (A) (A) (A) (A) (A) (A) (A) (A) (A) (A) (A)
                 (A) (A) (A) (A) (A) (A) (A) (A) (A) (A) (A) (A)
                 (A) (A) (A) (A) (A) (A) (A) (A) (A) (A) (A) (A)
                 (A) (A) (A) (A) (A) (A) (A) (A) (A) (A) (A) (A)
                 (A) (A) (A) (A) (A) (A) (A) (A) (A) (A) (A) (A)
                 (A) (A) (A) (A) (A) (A) (A) (A) (A) (A) (A) (A)
                 (A) (A) (A) (A) (A) (A) (A) (A) (A) (A) (A) (A)
                 (A) (A) (A) (A) (A) (A) (A) (A) (A) (A) (A) (A)
                 (A) (A) (A) (A) (A) (A) (A) (A) (A) (A) (A) (A)
                 (A) (A) (A) (A) (A) (A) (A) (A) (A) (A) (A) (A)
                 (A) (A) (A) (A) (A) (A) (A) (A) (A) (A) (A) (A)
 The electronic state is 1-A.
 Alpha  occ. eigenvalues --  -19.42505 -19.42492 -19.35837 -19.32639 -10.55809
 Alpha  occ. eigenvalues --  -10.44079 -10.41007 -10.38874 -10.37108 -10.36087
 Alpha  occ. eigenvalues --  -10.36028  -1.35846  -1.27789  -1.24564  -1.21137
 Alpha  occ. eigenvalues --   -1.03591  -0.97082  -0.91265  -0.88337  -0.84330
 Alpha  occ. eigenvalues --   -0.80108  -0.78810  -0.73671  -0.71626  -0.68049
 Alpha  occ. eigenvalues --   -0.68024  -0.66581  -0.63305  -0.60109  -0.58929
 Alpha  occ. eigenvalues --   -0.58921  -0.58070  -0.56698  -0.56675  -0.55291
 Alpha  occ. eigenvalues --   -0.52139  -0.50469  -0.47720  -0.43838  -0.37320
 Alpha virt. eigenvalues --   -0.25654  -0.18439  -0.15799  -0.12768  -0.12688
 Alpha virt. eigenvalues --   -0.12018  -0.11042  -0.09855  -0.08504  -0.07932
 Alpha virt. eigenvalues --   -0.06368  -0.05187  -0.04317  -0.03768  -0.03334
 Alpha virt. eigenvalues --   -0.02549  -0.00122   0.00131   0.00972   0.01222
 Alpha virt. eigenvalues --    0.01457   0.01858   0.02015   0.03470   0.03629
 Alpha virt. eigenvalues --    0.04209   0.04409   0.05471   0.05857   0.06558
 Alpha virt. eigenvalues --    0.06856   0.08091   0.08141   0.08987   0.09025
 Alpha virt. eigenvalues --    0.09719   0.09916   0.11537   0.12286   0.12954
 Alpha virt. eigenvalues --    0.13013   0.13369   0.14004   0.14709   0.14758
 Alpha virt. eigenvalues --    0.15801   0.17193   0.17889   0.17981   0.18873
 Alpha virt. eigenvalues --    0.19122   0.19739   0.20593   0.22572   0.23518
 Alpha virt. eigenvalues --    0.23737   0.26508   0.27091   0.27839   0.28844
 Alpha virt. eigenvalues --    0.30290   0.32621   0.33785   0.36223   0.45118
 Alpha virt. eigenvalues --    0.46304   0.49802   0.51128   0.53191   0.54648
 Alpha virt. eigenvalues --    0.56119   0.57530   0.58051   0.59004   0.60482
 Alpha virt. eigenvalues --    0.61836   0.63635   0.68138   0.68410   0.71368
 Alpha virt. eigenvalues --    0.72472   0.78218   0.78959   0.82529   0.83600
 Alpha virt. eigenvalues --    0.85787   0.88461   0.89950   0.92003   0.93130
 Alpha virt. eigenvalues --    0.94424   0.95728   0.98097   1.00268   1.00970
 Alpha virt. eigenvalues --    1.01952   1.04033   1.04929   1.05017   1.06814
 Alpha virt. eigenvalues --    1.07009   1.09251   1.09726   1.11106   1.11113
 Alpha virt. eigenvalues --    1.12414   1.13450   1.16298   1.16707   1.17326
 Alpha virt. eigenvalues --    1.20925   1.21289   1.23294   1.23482   1.25311
 Alpha virt. eigenvalues --    1.26876   1.30761   1.35220   1.35401   1.39833
 Alpha virt. eigenvalues --    1.42365   1.43380   1.44695   1.46413   1.48768
 Alpha virt. eigenvalues --    1.53813   1.56099   1.60356   1.60679   1.61811
 Alpha virt. eigenvalues --    1.70712   1.72567   1.74817   1.75347   1.76655
 Alpha virt. eigenvalues --    1.78340   1.79456   1.79608   1.82509   1.86817
 Alpha virt. eigenvalues --    1.87360   1.88222   1.91014   1.98520   2.05379
 Alpha virt. eigenvalues --    2.05729   2.08326   2.10641   2.12796   2.16011
 Alpha virt. eigenvalues --    2.18544   2.20892   2.21313   2.23869   2.25194
 Alpha virt. eigenvalues --    2.26191   2.29759   2.31536   2.33475   2.34601
 Alpha virt. eigenvalues --    2.36045   2.38777   2.41493   2.42432   2.44632
 Alpha virt. eigenvalues --    2.45684   2.46927   2.48290   2.50820   2.53172
 Alpha virt. eigenvalues --    2.56947   2.57986   2.59675   2.59876   2.63385
 Alpha virt. eigenvalues --    2.65831   2.72897   2.78789   2.81484   2.88443
 Alpha virt. eigenvalues --    2.91186   2.95647   3.01532   3.05260   3.09704
 Alpha virt. eigenvalues --    3.17069   3.23848   3.32538   3.33208   3.37916
 Alpha virt. eigenvalues --    3.40329   3.42685   3.65784   4.06786   4.10069
 Alpha virt. eigenvalues --    4.14391   4.18130   4.18778   4.30633   4.35222
 Alpha virt. eigenvalues --    4.42459   4.46481   4.67542   4.81785
          Condensed to atoms (all electrons):
               1          2          3          4          5          6
     1  C   19.799144  -4.856217  -5.180203   0.672352   0.993603  -3.644689
     2  C   -4.856217  11.822515  -1.811505   0.936093  -0.744888   0.391794
     3  C   -5.180203  -1.811505  15.395353  -3.306819  -0.505435   0.446055
     4  C    0.672352   0.936093  -3.306819   8.693224  -0.347098   0.344070
     5  C    0.993603  -0.744888  -0.505435  -0.347098   6.199455  -0.164424
     6  C   -3.644689   0.391794   0.446055   0.344070  -0.164424   8.306409
     7  O   -0.032028   0.048877   0.069671  -0.057668  -0.100508   0.044107
     8  C   -1.082808  -0.115992   0.818293  -0.809400   0.043313  -0.269556
     9  O   -0.141402   0.117002   0.022446   0.036981  -0.007382   0.025844
    10  O    0.002010   0.055372  -0.157920   0.014268   0.014779   0.083793
    11  O    0.106659  -0.205297   0.079085  -0.004028   0.036562   0.124194
    12  H    0.020102   0.017946   0.128425   0.121147   0.029387   0.000183
    13  H    0.019287   0.001922  -0.021205   0.031682   0.234977   0.055358
    14  H    0.028779  -0.016993  -0.013972   0.007379   0.098226   0.215355
    15  H    0.001963  -0.010917   0.073989  -0.054451  -0.012626   0.003154
    16  H   -0.005301  -0.022792   0.021556  -0.001445   0.000435   0.004318
    17  H    0.000210   0.001259   0.003990   0.005312  -0.000414  -0.010121
    18  H   -0.027348   0.115862  -0.003754   0.003236  -0.001819  -0.102936
               7          8          9         10         11         12
     1  C   -0.032028  -1.082808  -0.141402   0.002010   0.106659   0.020102
     2  C    0.048877  -0.115992   0.117002   0.055372  -0.205297   0.017946
     3  C    0.069671   0.818293   0.022446  -0.157920   0.079085   0.128425
     4  C   -0.057668  -0.809400   0.036981   0.014268  -0.004028   0.121147
     5  C   -0.100508   0.043313  -0.007382   0.014779   0.036562   0.029387
     6  C    0.044107  -0.269556   0.025844   0.083793   0.124194   0.000183
     7  O    8.346812  -0.004840   0.000072   0.000121   0.000318  -0.007411
     8  C   -0.004840   6.329649   0.056062   0.102873  -0.187693  -0.002320
     9  O    0.000072   0.056062   8.217645  -0.122332   0.002060   0.000805
    10  O    0.000121   0.102873  -0.122332   8.240821  -0.017694   0.000613
    11  O    0.000318  -0.187693   0.002060  -0.017694   8.370967  -0.000279
    12  H   -0.007411  -0.002320   0.000805   0.000613  -0.000279   0.507179
    13  H   -0.013116   0.000191  -0.000003   0.000020  -0.000539  -0.000140
    14  H   -0.000545   0.007248  -0.000000  -0.000003  -0.015904   0.000009
    15  H    0.217315   0.002698   0.000010   0.000001  -0.000009  -0.000049
    16  H    0.000009   0.033008   0.205387  -0.015403   0.000084   0.000313
    17  H    0.000001   0.029858  -0.016931   0.188416   0.004198   0.000007
    18  H   -0.000008   0.020332   0.000002   0.000339   0.202140   0.000004
              13         14         15         16         17         18
     1  C    0.019287   0.028779   0.001963  -0.005301   0.000210  -0.027348
     2  C    0.001922  -0.016993  -0.010917  -0.022792   0.001259   0.115862
     3  C   -0.021205  -0.013972   0.073989   0.021556   0.003990  -0.003754
     4  C    0.031682   0.007379  -0.054451  -0.001445   0.005312   0.003236
     5  C    0.234977   0.098226  -0.012626   0.000435  -0.000414  -0.001819
     6  C    0.055358   0.215355   0.003154   0.004318  -0.010121  -0.102936
     7  O   -0.013116  -0.000545   0.217315   0.000009   0.000001  -0.000008
     8  C    0.000191   0.007248   0.002698   0.033008   0.029858   0.020332
     9  O   -0.000003  -0.000000   0.000010   0.205387  -0.016931   0.000002
    10  O    0.000020  -0.000003   0.000001  -0.015403   0.188416   0.000339
    11  O   -0.000539  -0.015904  -0.000009   0.000084   0.004198   0.202140
    12  H   -0.000140   0.000009  -0.000049   0.000313   0.000007   0.000004
    13  H    0.532692  -0.005206   0.005393  -0.000000   0.000000  -0.000021
    14  H   -0.005206   0.533603  -0.000007  -0.000000  -0.000000   0.007580
    15  H    0.005393  -0.000007   0.393655   0.000000   0.000000  -0.000000
    16  H   -0.000000  -0.000000   0.000000   0.365289   0.008086  -0.000000
    17  H    0.000000  -0.000000   0.000000   0.008086   0.362950  -0.000003
    18  H   -0.000021   0.007580  -0.000000  -0.000000  -0.000003   0.369803
 Mulliken charges:
               1
     1  C   -0.674114
     2  C    0.275960
     3  C   -0.058049
     4  C   -0.284835
     5  C    0.233858
     6  C    0.147092
     7  O   -0.511179
     8  C    1.029086
     9  O   -0.396266
    10  O   -0.390075
    11  O   -0.494822
    12  H    0.184078
    13  H    0.158707
    14  H    0.154452
    15  H    0.379879
    16  H    0.406458
    17  H    0.423181
    18  H    0.416591
 Sum of Mulliken charges =   1.00000
 Mulliken charges with hydrogens summed into heavy atoms:
               1
     1  C   -0.674114
     2  C    0.275960
     3  C    0.126029
     4  C   -0.284835
     5  C    0.392565
     6  C    0.301544
     7  O   -0.131301
     8  C    1.029086
     9  O    0.010192
    10  O    0.033107
    11  O   -0.078231
 Electronic spatial extent (au):  <R**2>=           1723.9294
 Charge=              1.0000 electrons
 Dipole moment (field-independent basis, Debye):
    X=              3.9161    Y=              0.3635    Z=              0.0004  Tot=              3.9329
 Quadrupole moment (field-independent basis, Debye-Ang):
   XX=            -14.4753   YY=            -40.8416   ZZ=            -63.5114
   XY=            -16.8008   XZ=             -0.0019   YZ=              0.0000
 Traceless Quadrupole moment (field-independent basis, Debye-Ang):
   XX=             25.1341   YY=             -1.2321   ZZ=            -23.9020
   XY=            -16.8008   XZ=             -0.0019   YZ=              0.0000
 Octapole moment (field-independent basis, Debye-Ang**2):
  XXX=             43.6040  YYY=             29.9770  ZZZ=             -0.0001  XYY=             34.4630
  XXY=            -39.0475  XXZ=              0.0077  XZZ=              8.7039  YZZ=             -3.1017
  YYZ=             -0.0007  XYZ=              0.0029
 Hexadecapole moment (field-independent basis, Debye-Ang**3):
 XXXX=           -580.0088 YYYY=           -500.1160 ZZZZ=            -63.0036 XXXY=           -140.4208
 XXXZ=             -0.0252 YYYX=            -49.3747 YYYZ=              0.0043 ZZZX=              0.0038
 ZZZY=              0.0026 XXYY=           -261.1088 XXZZ=           -235.8049 YYZZ=           -136.5221
 XXYZ=             -0.0046 YYXZ=             -0.0025 ZZXY=              1.0459
 N-N= 6.083616937522D+02 E-N=-2.538853096367D+03  KE= 5.666588057632D+02
 Calling FoFJK, ICntrl=      2127 FMM=F ISym2X=0 I1Cent= 0 IOpClX= 0 NMat=1 NMatS=1 NMatT=0.
 ***** Axes restored to original set *****
 -------------------------------------------------------------------
 Center     Atomic                   Forces (Hartrees/Bohr)
 Number     Number              X              Y              Z
 -------------------------------------------------------------------
      1        6          -0.001054879    0.003006457    0.000000064
      2        6           0.001941248   -0.003417827    0.000000049
      3        6           0.002684842   -0.004872012   -0.000000359
      4        6          -0.003221564   -0.000263157   -0.000000620
      5        6          -0.005126969    0.002023684    0.000000692
      6        6          -0.000010051    0.004221793   -0.000000165
      7        8          -0.001289902   -0.003630226    0.000001539
      8        6          -0.003535282    0.001024201   -0.000000195
      9        8          -0.000997399   -0.008747152    0.000000860
     10        8           0.006553707    0.006463752   -0.000000631
     11        8           0.004763479    0.001994454   -0.000000090
     12        1           0.000186341    0.000063672   -0.000000110
     13        1          -0.000308081    0.000092256    0.000000003
     14        1          -0.000060177    0.000376438    0.000000031
     15        1          -0.001197836    0.001068010   -0.000001070
     16        1           0.000858812    0.000074231   -0.000000061
     17        1           0.000515397   -0.000712192   -0.000000018
     18        1          -0.000701687    0.001233617    0.000000082
 -------------------------------------------------------------------
 Cartesian Forces:  Max     0.008747152 RMS     0.002505138

 GradGradGradGradGradGradGradGradGradGradGradGradGradGradGradGradGradGrad
 Berny optimization.
 FormGI is forming the generalized inverse of G from B-inverse, IUseBI=4.
 Internal  Forces:  Max     0.009080247 RMS     0.002347886
 Search for a local minimum.
 Step number   1 out of a maximum of   89
 All quantities printed in internal units (Hartrees-Bohrs-Radians)
 Mixed Optimization -- RFO/linear search
 Second derivative matrix not updated -- first step.
 ITU=  0
     Eigenvalues ---    0.01838   0.01842   0.01905   0.02057   0.02106
     Eigenvalues ---    0.02141   0.02186   0.02219   0.02253   0.02293
     Eigenvalues ---    0.02344   0.02432   0.02521   0.02944   0.03052
     Eigenvalues ---    0.16000   0.16000   0.16000   0.16000   0.16000
     Eigenvalues ---    0.16000   0.16000   0.22358   0.23489   0.24600
     Eigenvalues ---    0.25000   0.25000   0.25000   0.25000   0.25000
     Eigenvalues ---    0.35225   0.35353   0.35734   0.40043   0.41318
     Eigenvalues ---    0.42667   0.43734   0.44929   0.47965   0.49405
     Eigenvalues ---    0.53120   0.53291   0.53886   0.54351   0.54874
     Eigenvalues ---    0.57808   0.65730   0.67989
 RFO step:  Lambda=-8.40435367D-04 EMin= 1.83808510D-02
 Linear search not attempted -- first point.
 Iteration  1 RMS(Cart)=  0.00988030 RMS(Int)=  0.00000842
 Iteration  2 RMS(Cart)=  0.00001258 RMS(Int)=  0.00000069
 Iteration  3 RMS(Cart)=  0.00000000 RMS(Int)=  0.00000069
 Variable       Old X    -DE/DX   Delta X   Delta X   Delta X     New X
                                 (Linear)    (Quad)   (Total)
    R1        2.68255   0.00790   0.00000   0.01850   0.01850   2.70105
    R2        2.63839   0.00486   0.00000   0.01043   0.01043   2.64882
    R3        2.52718   0.00519   0.00000   0.00897   0.00897   2.53615
    R4        2.68050   0.00441   0.00000   0.01034   0.01034   2.69085
    R5        2.68082   0.00387   0.00000   0.00906   0.00906   2.68988
    R6        2.59681   0.00701   0.00000   0.01401   0.01401   2.61081
    R7        2.04500  -0.00004   0.00000  -0.00011  -0.00011   2.04489
    R8        2.65842   0.00528   0.00000   0.01187   0.01187   2.67029
    R9        2.55244   0.00355   0.00000   0.00646   0.00646   2.55890
   R10        2.60793   0.00548   0.00000   0.01113   0.01112   2.61905
   R11        2.05312   0.00032   0.00000   0.00091   0.00091   2.05403
   R12        2.05105   0.00038   0.00000   0.00108   0.00108   2.05213
   R13        1.82413   0.00155   0.00000   0.00286   0.00286   1.82699
   R14        2.46674   0.00866   0.00000   0.01315   0.01315   2.47990
   R15        2.45127   0.00908   0.00000   0.01334   0.01334   2.46461
   R16        1.83383   0.00076   0.00000   0.00142   0.00142   1.83526
   R17        1.83542   0.00080   0.00000   0.00150   0.00150   1.83692
   R18        1.82836   0.00138   0.00000   0.00255   0.00255   1.83090
    A1        2.06635   0.00001   0.00000  -0.00020  -0.00020   2.06615
    A2        2.08447   0.00037   0.00000   0.00159   0.00158   2.08606
    A3        2.13236  -0.00038   0.00000  -0.00139  -0.00139   2.13097
    A4        2.09191  -0.00065   0.00000  -0.00268  -0.00268   2.08923
    A5        2.13406   0.00096   0.00000   0.00388   0.00388   2.13795
    A6        2.05721  -0.00031   0.00000  -0.00120  -0.00120   2.05601
    A7        2.10549   0.00038   0.00000   0.00182   0.00182   2.10731
    A8        2.10102  -0.00038   0.00000  -0.00210  -0.00211   2.09892
    A9        2.07668   0.00000   0.00000   0.00029   0.00029   2.07696
   A10        2.07714   0.00001   0.00000   0.00015   0.00015   2.07730
   A11        2.05498   0.00002   0.00000   0.00002   0.00003   2.05500
   A12        2.15106  -0.00003   0.00000  -0.00018  -0.00018   2.15088
   A13        2.11653  -0.00028   0.00000  -0.00129  -0.00130   2.11524
   A14        2.08964   0.00012   0.00000   0.00051   0.00051   2.09015
   A15        2.07701   0.00016   0.00000   0.00079   0.00079   2.07780
   A16        2.10894   0.00054   0.00000   0.00220   0.00220   2.11114
   A17        2.08387  -0.00028   0.00000  -0.00115  -0.00115   2.08272
   A18        2.09038  -0.00026   0.00000  -0.00105  -0.00105   2.08933
   A19        1.96369  -0.00078   0.00000  -0.00486  -0.00486   1.95884
   A20        2.05658  -0.00044   0.00000  -0.00174  -0.00174   2.05483
   A21        2.10929  -0.00019   0.00000  -0.00078  -0.00078   2.10852
   A22        2.11732   0.00063   0.00000   0.00252   0.00252   2.11983
   A23        2.03407  -0.00072   0.00000  -0.00447  -0.00447   2.02961
   A24        2.02950  -0.00071   0.00000  -0.00442  -0.00442   2.02508
   A25        1.94554  -0.00059   0.00000  -0.00368  -0.00368   1.94186
    D1       -0.00001  -0.00000   0.00000  -0.00000  -0.00000  -0.00001
    D2       -3.14159  -0.00000   0.00000   0.00000   0.00000  -3.14159
    D3        3.14158  -0.00000   0.00000  -0.00000  -0.00000   3.14158
    D4       -0.00000  -0.00000   0.00000  -0.00000  -0.00000  -0.00000
    D5       -0.00001   0.00000   0.00000   0.00000   0.00000  -0.00001
    D6       -3.14159  -0.00000   0.00000  -0.00000  -0.00000  -3.14159
    D7        3.14159   0.00000   0.00000   0.00000   0.00000   3.14159
    D8        0.00001  -0.00000   0.00000  -0.00000  -0.00000   0.00001
    D9        3.14159   0.00000   0.00000   0.00000   0.00000  -3.14159
   D10       -0.00001   0.00000   0.00000   0.00000   0.00000  -0.00000
   D11        0.00001  -0.00000   0.00000  -0.00000  -0.00000   0.00001
   D12       -3.14159  -0.00000   0.00000  -0.00000  -0.00000  -3.14159
   D13       -3.14159  -0.00000   0.00000  -0.00000  -0.00000  -3.14159
   D14       -0.00000  -0.00000   0.00000  -0.00000  -0.00000  -0.00001
   D15        3.14151  -0.00000   0.00000  -0.00000  -0.00000   3.14151
   D16       -0.00009   0.00000   0.00000   0.00000   0.00000  -0.00009
   D17       -0.00007  -0.00000   0.00000  -0.00000  -0.00000  -0.00007
   D18        3.14152   0.00000   0.00000   0.00000   0.00000   3.14152
   D19       -0.00000  -0.00000   0.00000  -0.00000  -0.00000  -0.00001
   D20        3.14155   0.00000   0.00000   0.00000   0.00000   3.14156
   D21       -3.14159   0.00000   0.00000   0.00000   0.00000  -3.14159
   D22       -0.00003   0.00000   0.00000   0.00000   0.00000  -0.00003
   D23       -0.00001   0.00000   0.00000   0.00000   0.00000  -0.00001
   D24        3.14158   0.00000   0.00000   0.00000   0.00000   3.14158
   D25       -3.14156  -0.00000   0.00000  -0.00000  -0.00000  -3.14157
   D26        0.00003  -0.00000   0.00000  -0.00000  -0.00000   0.00002
   D27        3.14133   0.00000   0.00000   0.00005   0.00005   3.14138
   D28       -0.00030   0.00000   0.00000   0.00005   0.00005  -0.00025
   D29        0.00002  -0.00000   0.00000  -0.00000  -0.00000   0.00001
   D30       -3.14159   0.00000   0.00000   0.00000   0.00000  -3.14159
   D31       -3.14157  -0.00000   0.00000  -0.00000  -0.00000  -3.14158
   D32        0.00001   0.00000   0.00000   0.00000   0.00000   0.00001
   D33        3.14148   0.00000   0.00000   0.00000   0.00000   3.14149
   D34       -0.00011   0.00000   0.00000   0.00000   0.00000  -0.00011
   D35        3.14150   0.00000   0.00000   0.00000   0.00000   3.14150
   D36       -0.00010   0.00000   0.00000   0.00001   0.00001  -0.00009
         Item               Value     Threshold  Converged?
 Maximum Force            0.009080     0.000450     NO 
 RMS     Force            0.002348     0.000300     NO 
 Maximum Displacement     0.029113     0.001800     NO 
 RMS     Displacement     0.009881     0.001200     NO 
 Predicted change in Energy=-4.209447D-04
 GradGradGradGradGradGradGradGradGradGradGradGradGradGradGradGradGradGrad

                          Input orientation:                          
 ---------------------------------------------------------------------
 Center     Atomic      Atomic             Coordinates (Angstroms)
 Number     Number       Type             X           Y           Z
 ---------------------------------------------------------------------
      1          6           0        0.219878    1.276661   -0.000002
      2          6           0        0.427347   -0.137534   -0.000004
      3          6           0       -0.693959   -1.015181    0.000014
      4          6           0       -1.981955   -0.515348    0.000019
      5          6           0       -2.173991    0.884600    0.000012
      6          6           0       -1.096984    1.756893    0.000010
      7          8           0       -3.003185   -1.404567   -0.000008
      8          6           0        1.726197   -0.719878   -0.000011
      9          8           0        1.808235   -2.029615    0.000087
     10          8           0        2.794003    0.028967   -0.000111
     11          8           0        1.279342    2.100491   -0.000004
     12          1           0       -0.547262   -2.087299    0.000016
     13          1           0       -3.182171    1.290824    0.000006
     14          1           0       -1.272385    2.828577    0.000010
     15          1           0       -3.866747   -0.969866    0.000188
     16          1           0        2.704157   -2.404456   -0.000012
     17          1           0        3.644759   -0.441248   -0.000026
     18          1           0        1.002420    3.028946   -0.000000
 ---------------------------------------------------------------------
                    Distance matrix (angstroms):
                    1          2          3          4          5
     1  C    0.000000
     2  C    1.429332   0.000000
     3  C    2.467314   1.423935   0.000000
     4  C    2.838902   2.438746   1.381582   0.000000
     5  C    2.425762   2.794945   2.408249   1.413058   0.000000
     6  C    1.401695   2.431551   2.801219   2.438495   1.385944
     7  O    4.192507   3.657037   2.341825   1.354112   2.434717
     8  C    2.501032   1.423424   2.438106   3.713789   4.217323
     9  O    3.668015   2.342397   2.700009   4.081488   4.934650
    10  O    2.860569   2.372506   3.640896   4.806876   5.041138
    11  O    1.342073   2.394714   3.687999   4.180751   3.661134
    12  H    3.450323   2.179781   1.082107   2.128233   3.387983
    13  H    3.402079   3.881859   3.392471   2.168589   1.086943
    14  H    2.152973   3.418611   3.887037   3.418380   2.142881
    15  H    4.663409   4.374016   3.173111   1.938821   2.510870
    16  H    4.440975   3.212911   3.671141   5.052562   5.883385
    17  H    3.831582   3.231716   4.376514   5.627203   5.967891
    18  H    1.919082   3.218277   4.385507   4.633413   3.832467
                    6          7          8          9         10
     6  C    0.000000
     7  O    3.691671   0.000000
     8  C    3.755628   4.778688   0.000000
     9  O    4.772624   4.851850   1.312304   0.000000
    10  O    4.257406   5.971801   1.304215   2.282433   0.000000
    11  O    2.401038   5.534028   2.855549   4.163833   2.566205
    12  H    3.883299   2.549055   2.653009   2.356204   3.955077
    13  H    2.136639   2.701327   5.304244   5.994120   6.107941
    14  H    1.085943   4.573311   4.645753   5.752586   4.936935
    15  H    3.886747   0.966800   5.598528   5.773083   6.735225
    16  H    5.636089   5.794267   1.947873   0.971176   2.435081
    17  H    5.226467   6.717377   1.938689   2.428113   0.972054
    18  H    2.454713   5.975024   3.818054   5.122341   3.494230
                   11         12         13         14         15
    11  O    0.000000
    12  H    4.568815   0.000000
    13  H    4.534386   4.284211   0.000000
    14  H    2.653567   4.969068   2.451931   0.000000
    15  H    5.992439   3.502518   2.362068   4.599879   0.000000
    16  H    4.724896   3.266851   6.950105   6.572482   6.725684
    17  H    3.472123   4.503613   7.043228   5.905088   7.530084
    18  H    0.968873   5.345791   4.531211   2.283612   6.300737
                   16         17         18
    16  H    0.000000
    17  H    2.176905   0.000000
    18  H    5.693660   4.361675   0.000000
 Stoichiometry    C7H7O4(1+)
 Framework group  C1[X(C7H7O4)]
 Deg. of freedom    48
 Full point group                 C1      NOp   1
 Largest Abelian subgroup         C1      NOp   1
 Largest concise Abelian subgroup C1      NOp   1
                         Standard orientation:                         
 ---------------------------------------------------------------------
 Center     Atomic      Atomic             Coordinates (Angstroms)
 Number     Number       Type             X           Y           Z
 ---------------------------------------------------------------------
      1          6           0        0.217018    1.277139   -0.000003
      2          6           0        0.426709   -0.136728   -0.000005
      3          6           0       -0.693217   -1.016136    0.000013
      4          6           0       -1.981997   -0.518327    0.000017
      5          6           0       -2.176232    0.881318    0.000010
      6          6           0       -1.100596    1.755302    0.000009
      7          8           0       -3.001828   -1.409149   -0.000010
      8          6           0        1.726472   -0.717030   -0.000012
      9          8           0        1.810568   -2.026637    0.000085
     10          8           0        2.793100    0.033492   -0.000112
     11          8           0        1.275187    2.102634   -0.000006
     12          1           0       -0.544836   -2.088021    0.000015
     13          1           0       -3.185049    1.285958    0.000005
     14          1           0       -1.277681    2.826709    0.000009
     15          1           0       -3.866072   -0.975805    0.000186
     16          1           0        2.707078   -2.400069   -0.000013
     17          1           0        3.644594   -0.435386   -0.000027
     18          1           0        0.996806    3.030652   -0.000002
 ---------------------------------------------------------------------
 Rotational constants (GHZ):      1.7660850      0.9034916      0.5977139
 Standard basis: 6-31+G(d,p) (6D, 7F)
 There are   244 symmetry adapted cartesian basis functions of A   symmetry.
 There are   244 symmetry adapted basis functions of A   symmetry.
   244 basis functions,   401 primitive gaussians,   244 cartesian basis functions
    40 alpha electrons       40 beta electrons
       nuclear repulsion energy       605.7888937310 Hartrees.
 NAtoms=   18 NActive=   18 NUniq=   18 SFac= 1.00D+00 NAtFMM=   60 NAOKFM=F Big=F
 Integral buffers will be    131072 words long.
 Raffenetti 2 integral format.
 Two-electron integral symmetry is turned on.
 Nuclear repulsion after empirical dispersion term =      605.7571545100 Hartrees.
 One-electron integrals computed using PRISM.
 NBasis=   244 RedAO= T EigKep=  3.29D-06  NBF=   244
 NBsUse=   244 1.00D-06 EigRej= -1.00D+00 NBFU=   244
 Initial guess from the checkpoint file:  "2+b3lypDHB21.chk"
 B after Tr=    -0.000000    0.000000   -0.000000
         Rot=    1.000000    0.000001   -0.000001   -0.000775 Ang=   0.09 deg.
 ExpMin= 4.38D-02 ExpMax= 5.48D+03 ExpMxC= 8.25D+02 IAcc=2 IRadAn=         4 AccDes= 0.00D+00
 Harris functional with IExCor=  402 and IRadAn=       4 diagonalized for initial guess.
 HarFok:  IExCor=  402 AccDes= 0.00D+00 IRadAn=         4 IDoV= 1 UseB2=F ITyADJ=14
 ICtDFT=  3500011 ScaDFX=  1.000000  1.000000  1.000000  1.000000
 FoFCou: FMM=F IPFlag=           0 FMFlag=      100000 FMFlg1=           0
         NFxFlg=           0 DoJE=T BraDBF=F KetDBF=T FulRan=T
         wScrn=  0.000000 ICntrl=     500 IOpCl=  0 I1Cent=   200000004 NGrid=           0
         NMat0=    1 NMatS0=      1 NMatT0=    0 NMatD0=    1 NMtDS0=    0 NMtDT0=    0
 Petite list used in FoFCou.
 Keep R1 ints in memory in canonical form, NReq=454277305.
 Requested convergence on RMS density matrix=1.00D-08 within 128 cycles.
 Requested convergence on MAX density matrix=1.00D-06.
 Requested convergence on             energy=1.00D-06.
 No special actions if energy rises.
 SCF Done:  E(RB3LYP) =  -571.659606513     A.U. after   11 cycles
            NFock= 11  Conv=0.82D-08     -V/T= 2.0092
 Calling FoFJK, ICntrl=      2127 FMM=F ISym2X=0 I1Cent= 0 IOpClX= 0 NMat=1 NMatS=1 NMatT=0.
 ***** Axes restored to original set *****
 -------------------------------------------------------------------
 Center     Atomic                   Forces (Hartrees/Bohr)
 Number     Number              X              Y              Z
 -------------------------------------------------------------------
      1        6          -0.001376511    0.000280453    0.000000042
      2        6           0.000969918   -0.000626995    0.000000068
      3        6          -0.000222321    0.000289860   -0.000000362
      4        6           0.000539230    0.000840213   -0.000000832
      5        6           0.000055767   -0.000388524    0.000000552
      6        6           0.000804907   -0.000567572   -0.000000080
      7        8           0.000341799   -0.000477174    0.000001725
      8        6          -0.002297697    0.001015375    0.000000251
      9        8          -0.000344995   -0.001273006    0.000000088
     10        8           0.000580882    0.001495164   -0.000000100
     11        8           0.000855785   -0.000791156   -0.000000114
     12        1           0.000047941    0.000036946   -0.000000105
     13        1           0.000132518   -0.000017855    0.000000024
     14        1           0.000003857   -0.000079257   -0.000000005
     15        1          -0.000071605    0.000253407   -0.000001119
     16        1           0.000314710    0.000316810   -0.000000046
     17        1          -0.000054355   -0.000388085   -0.000000040
     18        1          -0.000279830    0.000081394    0.000000055
 -------------------------------------------------------------------
 Cartesian Forces:  Max     0.002297697 RMS     0.000584085

 GradGradGradGradGradGradGradGradGradGradGradGradGradGradGradGradGradGrad
 Berny optimization.
 Using GEDIIS/GDIIS optimizer.
 FormGI is forming the generalized inverse of G from B-inverse, IUseBI=4.
 Internal  Forces:  Max     0.002120967 RMS     0.000464506
 Search for a local minimum.
 Step number   2 out of a maximum of   89
 All quantities printed in internal units (Hartrees-Bohrs-Radians)
 Mixed Optimization -- En-DIIS/RFO-DIIS
 Update second derivatives using D2CorX and points    1    2
 DE= -3.94D-04 DEPred=-4.21D-04 R= 9.35D-01
 TightC=F SS=  1.41D+00  RLast= 4.16D-02 DXNew= 5.0454D-01 1.2468D-01
 Trust test= 9.35D-01 RLast= 4.16D-02 DXMaxT set to 3.00D-01
 ITU=  1  0
 Use linear search instead of GDIIS.
     Eigenvalues ---    0.01838   0.01842   0.01906   0.02057   0.02107
     Eigenvalues ---    0.02142   0.02186   0.02219   0.02253   0.02294
     Eigenvalues ---    0.02344   0.02434   0.02521   0.02944   0.03052
     Eigenvalues ---    0.15550   0.16000   0.16000   0.16000   0.16000
     Eigenvalues ---    0.16000   0.16007   0.22389   0.23515   0.24571
     Eigenvalues ---    0.24830   0.25000   0.25000   0.25000   0.25232
     Eigenvalues ---    0.35229   0.35357   0.35733   0.40394   0.41344
     Eigenvalues ---    0.42198   0.44282   0.46961   0.47877   0.53059
     Eigenvalues ---    0.53248   0.53561   0.53867   0.54285   0.55511
     Eigenvalues ---    0.57962   0.62698   0.67084
 RFO step:  Lambda=-4.37929261D-05 EMin= 1.83807160D-02
 Quartic linear search produced a step of -0.05582.
 Iteration  1 RMS(Cart)=  0.00540882 RMS(Int)=  0.00001137
 Iteration  2 RMS(Cart)=  0.00001548 RMS(Int)=  0.00000003
 Iteration  3 RMS(Cart)=  0.00000000 RMS(Int)=  0.00000003
 Variable       Old X    -DE/DX   Delta X   Delta X   Delta X     New X
                                 (Linear)    (Quad)   (Total)
    R1        2.70105  -0.00101  -0.00103  -0.00031  -0.00135   2.69970
    R2        2.64882  -0.00116  -0.00058  -0.00127  -0.00185   2.64697
    R3        2.53615   0.00003  -0.00050   0.00100   0.00050   2.53665
    R4        2.69085  -0.00077  -0.00058  -0.00061  -0.00119   2.68966
    R5        2.68988  -0.00212  -0.00051  -0.00372  -0.00423   2.68565
    R6        2.61081  -0.00068  -0.00078   0.00026  -0.00052   2.61029
    R7        2.04489  -0.00003   0.00001  -0.00010  -0.00009   2.04480
    R8        2.67029  -0.00048  -0.00066   0.00031  -0.00036   2.66994
    R9        2.55890  -0.00006  -0.00036   0.00058   0.00022   2.55913
   R10        2.61905  -0.00022  -0.00062   0.00078   0.00016   2.61921
   R11        2.05403  -0.00013  -0.00005  -0.00025  -0.00030   2.05372
   R12        2.05213  -0.00008  -0.00006  -0.00009  -0.00015   2.05198
   R13        1.82699   0.00018  -0.00016   0.00063   0.00047   1.82746
   R14        2.47990   0.00096  -0.00073   0.00280   0.00206   2.48196
   R15        2.46461   0.00106  -0.00074   0.00290   0.00215   2.46676
   R16        1.83526   0.00016  -0.00008   0.00044   0.00037   1.83562
   R17        1.83692   0.00014  -0.00008   0.00042   0.00033   1.83725
   R18        1.83090   0.00015  -0.00014   0.00054   0.00040   1.83130
    A1        2.06615   0.00017   0.00001   0.00053   0.00054   2.06669
    A2        2.08606  -0.00104  -0.00009  -0.00372  -0.00381   2.08225
    A3        2.13097   0.00087   0.00008   0.00319   0.00327   2.13424
    A4        2.08923   0.00032   0.00015   0.00083   0.00098   2.09022
    A5        2.13795  -0.00118  -0.00022  -0.00398  -0.00420   2.13375
    A6        2.05601   0.00086   0.00007   0.00315   0.00321   2.05922
    A7        2.10731  -0.00038  -0.00010  -0.00134  -0.00144   2.10587
    A8        2.09892   0.00014   0.00012   0.00026   0.00038   2.09929
    A9        2.07696   0.00024  -0.00002   0.00108   0.00106   2.07802
   A10        2.07730   0.00017  -0.00001   0.00087   0.00086   2.07816
   A11        2.05500  -0.00032  -0.00000  -0.00132  -0.00132   2.05368
   A12        2.15088   0.00015   0.00001   0.00044   0.00045   2.15134
   A13        2.11524  -0.00011   0.00007  -0.00038  -0.00031   2.11492
   A14        2.09015   0.00010  -0.00003   0.00043   0.00040   2.09055
   A15        2.07780   0.00001  -0.00004  -0.00005  -0.00009   2.07771
   A16        2.11114  -0.00018  -0.00012  -0.00051  -0.00063   2.11050
   A17        2.08272   0.00009   0.00006   0.00026   0.00032   2.08304
   A18        2.08933   0.00009   0.00006   0.00025   0.00031   2.08964
   A19        1.95884  -0.00037   0.00027  -0.00269  -0.00242   1.95642
   A20        2.05483   0.00058   0.00010   0.00200   0.00210   2.05694
   A21        2.10852  -0.00067   0.00004  -0.00262  -0.00258   2.10593
   A22        2.11983   0.00009  -0.00014   0.00062   0.00048   2.12031
   A23        2.02961  -0.00074   0.00025  -0.00485  -0.00460   2.02500
   A24        2.02508  -0.00069   0.00025  -0.00453  -0.00429   2.02080
   A25        1.94186  -0.00044   0.00021  -0.00296  -0.00276   1.93910
    D1       -0.00001   0.00000   0.00000   0.00000   0.00000  -0.00000
    D2       -3.14159   0.00000  -0.00000   0.00000   0.00000  -3.14159
    D3        3.14158   0.00000   0.00000   0.00000   0.00000   3.14158
    D4       -0.00000   0.00000   0.00000   0.00000   0.00000  -0.00000
    D5       -0.00001   0.00000  -0.00000   0.00000   0.00000  -0.00001
    D6       -3.14159  -0.00000   0.00000  -0.00000  -0.00000  -3.14159
    D7        3.14159   0.00000  -0.00000   0.00000   0.00000  -3.14159
    D8        0.00001  -0.00000   0.00000  -0.00000  -0.00000   0.00001
    D9       -3.14159   0.00000  -0.00000   0.00000   0.00000  -3.14159
   D10       -0.00000   0.00000  -0.00000   0.00000   0.00000  -0.00000
   D11        0.00001  -0.00000   0.00000  -0.00000  -0.00000   0.00001
   D12       -3.14159  -0.00000   0.00000  -0.00000  -0.00000  -3.14159
   D13       -3.14159  -0.00000   0.00000  -0.00000  -0.00000  -3.14159
   D14       -0.00001  -0.00000   0.00000  -0.00000  -0.00000  -0.00001
   D15        3.14151   0.00000   0.00000   0.00000   0.00000   3.14151
   D16       -0.00009   0.00000  -0.00000   0.00000   0.00000  -0.00008
   D17       -0.00007   0.00000   0.00000   0.00000   0.00000  -0.00007
   D18        3.14152  -0.00000  -0.00000   0.00000   0.00000   3.14152
   D19       -0.00001   0.00000   0.00000   0.00000   0.00000  -0.00000
   D20        3.14156   0.00000  -0.00000   0.00001   0.00001   3.14156
   D21       -3.14159  -0.00000  -0.00000  -0.00000  -0.00000  -3.14159
   D22       -0.00003   0.00000  -0.00000   0.00001   0.00001  -0.00002
   D23       -0.00001   0.00000  -0.00000   0.00000   0.00000  -0.00001
   D24        3.14158   0.00000  -0.00000   0.00000   0.00000   3.14158
   D25       -3.14157  -0.00000   0.00000  -0.00000  -0.00000  -3.14157
   D26        0.00002  -0.00000   0.00000  -0.00000  -0.00000   0.00002
   D27        3.14138   0.00000  -0.00000   0.00004   0.00004   3.14142
   D28       -0.00025   0.00000  -0.00000   0.00005   0.00005  -0.00020
   D29        0.00001  -0.00000   0.00000  -0.00000  -0.00000   0.00001
   D30       -3.14159  -0.00000  -0.00000  -0.00000  -0.00000  -3.14159
   D31       -3.14158  -0.00000   0.00000  -0.00000  -0.00000  -3.14158
   D32        0.00001  -0.00000  -0.00000  -0.00000  -0.00000   0.00001
   D33        3.14149  -0.00000  -0.00000  -0.00000  -0.00000   3.14149
   D34       -0.00011   0.00000  -0.00000   0.00000   0.00000  -0.00010
   D35        3.14150   0.00000  -0.00000   0.00000   0.00000   3.14150
   D36       -0.00009   0.00000  -0.00000   0.00000   0.00000  -0.00009
         Item               Value     Threshold  Converged?
 Maximum Force            0.002121     0.000450     NO 
 RMS     Force            0.000465     0.000300     NO 
 Maximum Displacement     0.017383     0.001800     NO 
 RMS     Displacement     0.005415     0.001200     NO 
 Predicted change in Energy=-2.327550D-05
 GradGradGradGradGradGradGradGradGradGradGradGradGradGradGradGradGradGrad

                          Input orientation:                          
 ---------------------------------------------------------------------
 Center     Atomic      Atomic             Coordinates (Angstroms)
 Number     Number       Type             X           Y           Z
 ---------------------------------------------------------------------
      1          6           0        0.219572    1.272955   -0.000002
      2          6           0        0.424791   -0.140848   -0.000003
      3          6           0       -0.696489   -1.017506    0.000016
      4          6           0       -1.983238   -0.515229    0.000022
      5          6           0       -2.173692    0.884744    0.000015
      6          6           0       -1.095379    1.755557    0.000010
      7          8           0       -3.005141   -1.403855    0.000003
      8          6           0        1.723152   -0.718803   -0.000009
      9          8           0        1.811522   -2.029222    0.000086
     10          8           0        2.787935    0.036306   -0.000109
     11          8           0        1.283621    2.091293   -0.000008
     12          1           0       -0.550778   -2.089709    0.000018
     13          1           0       -3.181110    1.292433    0.000013
     14          1           0       -1.268909    2.827465    0.000010
     15          1           0       -3.867583   -0.966391    0.000166
     16          1           0        2.711100   -2.395715   -0.000014
     17          1           0        3.639301   -0.433167   -0.000028
     18          1           0        1.009025    3.020659   -0.000003
 ---------------------------------------------------------------------
                    Distance matrix (angstroms):
                    1          2          3          4          5
     1  C    0.000000
     2  C    1.428620   0.000000
     3  C    2.466856   1.423305   0.000000
     4  C    2.837248   2.436958   1.381305   0.000000
     5  C    2.424545   2.793556   2.408461   1.412869   0.000000
     6  C    1.400714   2.430488   2.801605   2.438189   1.386029
     7  O    4.190953   3.655081   2.340756   1.354231   2.434953
     8  C    2.495567   1.421187   2.438009   3.711976   4.213876
     9  O    3.665881   2.342857   2.704384   4.085631   4.936915
    10  O    2.850577   2.369775   3.640293   4.802945   5.033646
    11  O    1.342340   2.391661   3.685846   4.179273   3.661799
    12  H    3.449776   2.179402   1.082060   2.128598   3.388396
    13  H    3.400737   3.880311   3.392514   2.168534   1.086784
    14  H    2.152225   3.417529   3.887346   3.418168   2.143081
    15  H    4.660419   4.371041   3.171506   1.937603   2.509177
    16  H    4.434733   3.211173   3.675749   5.056979   5.884098
    17  H    3.821702   3.227775   4.374990   5.623138   5.960519
    18  H    1.917734   3.215036   4.383555   4.632078   3.832991
                    6          7          8          9         10
     6  C    0.000000
     7  O    3.691758   0.000000
     8  C    3.750543   4.777661   0.000000
     9  O    4.772277   4.857090   1.313396   0.000000
    10  O    4.246875   5.969404   1.305355   2.284686   0.000000
    11  O    2.402573   5.532588   2.844261   4.154193   2.546749
    12  H    3.883641   2.548390   2.655210   2.363074   3.958149
    13  H    2.136529   2.702024   5.300646   5.996646   6.099782
    14  H    1.085863   4.573683   4.639875   5.751214   4.924281
    15  H    3.885116   0.967048   5.596214   5.777702   6.730626
    16  H    5.632259   5.801654   1.946298   0.971369   2.433235
    17  H    5.216101   6.714972   1.937322   2.426555   0.972230
    18  H    2.455402   5.974098   3.807039   5.113248   3.474317
                   11         12         13         14         15
    11  O    0.000000
    12  H    4.565720   0.000000
    13  H    4.535636   4.284569   0.000000
    14  H    2.656568   4.969338   2.452108   0.000000
    15  H    5.990353   3.501863   2.360833   4.598527   0.000000
    16  H    4.708602   3.276200   6.951300   6.566740   6.732165
    17  H    3.452844   4.505652   7.035318   5.892559   7.525799
    18  H    0.969084   5.343112   4.532548   2.286112   6.299038
                   16         17         18
    16  H    0.000000
    17  H    2.170979   0.000000
    18  H    5.677514   4.341344   0.000000
 Stoichiometry    C7H7O4(1+)
 Framework group  C1[X(C7H7O4)]
 Deg. of freedom    48
 Full point group                 C1      NOp   1
 Largest Abelian subgroup         C1      NOp   1
 Largest concise Abelian subgroup C1      NOp   1
                         Standard orientation:                         
 ---------------------------------------------------------------------
 Center     Atomic      Atomic             Coordinates (Angstroms)
 Number     Number       Type             X           Y           Z
 ---------------------------------------------------------------------
      1          6           0        0.219118    1.273755   -0.000005
      2          6           0        0.424473   -0.140029   -0.000006
      3          6           0       -0.696723   -1.016795    0.000013
      4          6           0       -1.983520   -0.514642    0.000019
      5          6           0       -2.174109    0.885313    0.000012
      6          6           0       -1.095879    1.756230    0.000007
      7          8           0       -3.005337   -1.403367    0.000000
      8          6           0        1.722889   -0.717859   -0.000012
      9          8           0        1.811386   -2.028270    0.000083
     10          8           0        2.787600    0.037353   -0.000112
     11          8           0        1.283088    2.092194   -0.000010
     12          1           0       -0.550908   -2.088984    0.000015
     13          1           0       -3.181565    1.292905    0.000010
     14          1           0       -1.269512    2.828121    0.000007
     15          1           0       -3.867821   -0.965986    0.000163
     16          1           0        2.710999   -2.394676   -0.000017
     17          1           0        3.639012   -0.432039   -0.000030
     18          1           0        1.008403    3.021534   -0.000006
 ---------------------------------------------------------------------
 Rotational constants (GHZ):      1.7716957      0.9036024      0.5984038
 Standard basis: 6-31+G(d,p) (6D, 7F)
 There are   244 symmetry adapted cartesian basis functions of A   symmetry.
 There are   244 symmetry adapted basis functions of A   symmetry.
   244 basis functions,   401 primitive gaussians,   244 cartesian basis functions
    40 alpha electrons       40 beta electrons
       nuclear repulsion energy       606.0901929516 Hartrees.
 NAtoms=   18 NActive=   18 NUniq=   18 SFac= 1.00D+00 NAtFMM=   60 NAOKFM=F Big=F
 Integral buffers will be    131072 words long.
 Raffenetti 2 integral format.
 Two-electron integral symmetry is turned on.
 Nuclear repulsion after empirical dispersion term =      606.0584326427 Hartrees.
 One-electron integrals computed using PRISM.
 NBasis=   244 RedAO= T EigKep=  3.28D-06  NBF=   244
 NBsUse=   244 1.00D-06 EigRej= -1.00D+00 NBFU=   244
 Initial guess from the checkpoint file:  "2+b3lypDHB21.chk"
 B after Tr=     0.000000   -0.000000    0.000000
         Rot=    1.000000    0.000000   -0.000001    0.000753 Ang=   0.09 deg.
 Keep R1 ints in memory in canonical form, NReq=454277305.
 Requested convergence on RMS density matrix=1.00D-08 within 128 cycles.
 Requested convergence on MAX density matrix=1.00D-06.
 Requested convergence on             energy=1.00D-06.
 No special actions if energy rises.
 SCF Done:  E(RB3LYP) =  -571.659622626     A.U. after   10 cycles
            NFock= 10  Conv=0.86D-08     -V/T= 2.0091
 Calling FoFJK, ICntrl=      2127 FMM=F ISym2X=0 I1Cent= 0 IOpClX= 0 NMat=1 NMatS=1 NMatT=0.
 ***** Axes restored to original set *****
 -------------------------------------------------------------------
 Center     Atomic                   Forces (Hartrees/Bohr)
 Number     Number              X              Y              Z
 -------------------------------------------------------------------
      1        6          -0.000521790    0.000117294    0.000000056
      2        6           0.000218831   -0.000514947    0.000000126
      3        6          -0.000031666    0.000245870   -0.000000270
      4        6           0.000313691    0.000324943   -0.000000652
      5        6           0.000172028   -0.000352394    0.000000449
      6        6           0.000405907   -0.000090430   -0.000000067
      7        8          -0.000047493    0.000037264    0.000001474
      8        6          -0.000831838    0.000392271   -0.000000186
      9        8           0.000026429   -0.000122328    0.000000023
     10        8           0.000556895   -0.000249540    0.000000109
     11        8          -0.000297920    0.000319843   -0.000000044
     12        1           0.000030179   -0.000033736   -0.000000073
     13        1           0.000029744   -0.000006511    0.000000013
     14        1          -0.000052260   -0.000023552   -0.000000011
     15        1          -0.000012734   -0.000055820   -0.000000977
     16        1           0.000044525    0.000036446    0.000000035
     17        1           0.000018644   -0.000090723   -0.000000044
     18        1          -0.000021171    0.000066048    0.000000039
 -------------------------------------------------------------------
 Cartesian Forces:  Max     0.000831838 RMS     0.000221363

 GradGradGradGradGradGradGradGradGradGradGradGradGradGradGradGradGradGrad
 Berny optimization.
 Using GEDIIS/GDIIS optimizer.
 FormGI is forming the generalized inverse of G from B-inverse, IUseBI=4.
 Internal  Forces:  Max     0.001053242 RMS     0.000262656
 Search for a local minimum.
 Step number   3 out of a maximum of   89
 All quantities printed in internal units (Hartrees-Bohrs-Radians)
 Mixed Optimization -- En-DIIS/RFO-DIIS
 Swapping is turned off.
 Update second derivatives using D2CorX and points    1    2    3
 DE= -1.61D-05 DEPred=-2.33D-05 R= 6.92D-01
 TightC=F SS=  1.41D+00  RLast= 1.27D-02 DXNew= 5.0454D-01 3.8010D-02
 Trust test= 6.92D-01 RLast= 1.27D-02 DXMaxT set to 3.00D-01
 ITU=  1  1  0
     Eigenvalues ---    0.01838   0.01842   0.01905   0.02057   0.02107
     Eigenvalues ---    0.02142   0.02186   0.02219   0.02253   0.02293
     Eigenvalues ---    0.02344   0.02434   0.02521   0.02944   0.03052
     Eigenvalues ---    0.13466   0.16000   0.16000   0.16000   0.16000
     Eigenvalues ---    0.16001   0.16033   0.22383   0.23340   0.24384
     Eigenvalues ---    0.24690   0.25000   0.25000   0.25008   0.35198
     Eigenvalues ---    0.35352   0.35704   0.36332   0.38274   0.40930
     Eigenvalues ---    0.43484   0.45322   0.47769   0.50558   0.52914
     Eigenvalues ---    0.53249   0.53617   0.54133   0.54335   0.56425
     Eigenvalues ---    0.58132   0.61068   0.66951
 En-DIIS/RFO-DIIS IScMMF=        0 using points:     3    2
 RFO step:  Lambda=-8.11964406D-06.
 DidBck=T Rises=F RFO-DIIS coefs:    0.78446    0.21554
 Iteration  1 RMS(Cart)=  0.00310864 RMS(Int)=  0.00000408
 Iteration  2 RMS(Cart)=  0.00000535 RMS(Int)=  0.00000002
 Iteration  3 RMS(Cart)=  0.00000000 RMS(Int)=  0.00000002
 Variable       Old X    -DE/DX   Delta X   Delta X   Delta X     New X
                                 (Linear)    (Quad)   (Total)
    R1        2.69970   0.00056   0.00029   0.00053   0.00082   2.70052
    R2        2.64697  -0.00048   0.00040  -0.00156  -0.00116   2.64581
    R3        2.53665  -0.00001  -0.00011   0.00023   0.00012   2.53678
    R4        2.68966  -0.00027   0.00026  -0.00095  -0.00069   2.68896
    R5        2.68565  -0.00016   0.00091  -0.00210  -0.00119   2.68446
    R6        2.61029  -0.00034   0.00011  -0.00072  -0.00061   2.60968
    R7        2.04480   0.00004   0.00002   0.00004   0.00006   2.04485
    R8        2.66994  -0.00048   0.00008  -0.00100  -0.00093   2.66901
    R9        2.55913   0.00005  -0.00005   0.00019   0.00014   2.55927
   R10        2.61921  -0.00020  -0.00003  -0.00023  -0.00027   2.61895
   R11        2.05372  -0.00003   0.00006  -0.00019  -0.00013   2.05359
   R12        2.05198  -0.00001   0.00003  -0.00009  -0.00006   2.05192
   R13        1.82746  -0.00001  -0.00010   0.00020   0.00010   1.82756
   R14        2.48196   0.00010  -0.00044   0.00106   0.00062   2.48258
   R15        2.46676   0.00026  -0.00046   0.00128   0.00082   2.46758
   R16        1.83562   0.00002  -0.00008   0.00020   0.00012   1.83574
   R17        1.83725   0.00006  -0.00007   0.00024   0.00017   1.83742
   R18        1.83130   0.00006  -0.00009   0.00027   0.00019   1.83149
    A1        2.06669  -0.00004  -0.00012   0.00022   0.00010   2.06680
    A2        2.08225   0.00064   0.00082   0.00025   0.00107   2.08332
    A3        2.13424  -0.00059  -0.00070  -0.00047  -0.00117   2.13307
    A4        2.09022  -0.00025  -0.00021  -0.00023  -0.00045   2.08977
    A5        2.13375   0.00105   0.00090   0.00137   0.00228   2.13603
    A6        2.05922  -0.00080  -0.00069  -0.00114  -0.00183   2.05739
    A7        2.10587   0.00012   0.00031  -0.00020   0.00011   2.10598
    A8        2.09929  -0.00008  -0.00008  -0.00015  -0.00023   2.09906
    A9        2.07802  -0.00004  -0.00023   0.00036   0.00013   2.07815
   A10        2.07816   0.00006  -0.00019   0.00043   0.00024   2.07841
   A11        2.05368  -0.00002   0.00028  -0.00057  -0.00029   2.05340
   A12        2.15134  -0.00004  -0.00010   0.00014   0.00005   2.15138
   A13        2.11492   0.00006   0.00007  -0.00009  -0.00003   2.11490
   A14        2.09055  -0.00002  -0.00009   0.00022   0.00013   2.09068
   A15        2.07771  -0.00004   0.00002  -0.00013  -0.00011   2.07761
   A16        2.11050   0.00005   0.00014  -0.00012   0.00002   2.11052
   A17        2.08304   0.00003  -0.00007   0.00030   0.00023   2.08327
   A18        2.08964  -0.00007  -0.00007  -0.00018  -0.00025   2.08939
   A19        1.95642   0.00009   0.00052  -0.00065  -0.00013   1.95629
   A20        2.05694  -0.00042  -0.00045  -0.00039  -0.00084   2.05609
   A21        2.10593   0.00105   0.00056   0.00212   0.00268   2.10861
   A22        2.12031  -0.00063  -0.00010  -0.00173  -0.00183   2.11848
   A23        2.02500  -0.00008   0.00099  -0.00240  -0.00141   2.02360
   A24        2.02080  -0.00015   0.00092  -0.00259  -0.00167   2.01913
   A25        1.93910   0.00001   0.00059  -0.00118  -0.00058   1.93852
    D1       -0.00000   0.00000  -0.00000   0.00000   0.00000  -0.00000
    D2       -3.14159   0.00000  -0.00000   0.00000   0.00000  -3.14159
    D3        3.14158   0.00000  -0.00000   0.00000   0.00000   3.14158
    D4       -0.00000   0.00000  -0.00000   0.00000   0.00000  -0.00000
    D5       -0.00001   0.00000  -0.00000   0.00000   0.00000  -0.00000
    D6       -3.14159  -0.00000   0.00000  -0.00000  -0.00000  -3.14159
    D7       -3.14159   0.00000  -0.00000   0.00000   0.00000  -3.14159
    D8        0.00001  -0.00000   0.00000  -0.00000  -0.00000   0.00001
    D9       -3.14159   0.00000  -0.00000   0.00000   0.00000  -3.14159
   D10       -0.00000   0.00000  -0.00000   0.00000   0.00000  -0.00000
   D11        0.00001  -0.00000   0.00000  -0.00000  -0.00000   0.00001
   D12       -3.14159  -0.00000   0.00000  -0.00000  -0.00000  -3.14159
   D13       -3.14159  -0.00000   0.00000  -0.00000  -0.00000   3.14159
   D14       -0.00001  -0.00000   0.00000  -0.00000  -0.00000  -0.00001
   D15        3.14151  -0.00000  -0.00000   0.00000   0.00000   3.14151
   D16       -0.00008   0.00000  -0.00000   0.00000   0.00000  -0.00008
   D17       -0.00007  -0.00000  -0.00000   0.00000   0.00000  -0.00007
   D18        3.14152   0.00000  -0.00000   0.00000   0.00000   3.14152
   D19       -0.00000   0.00000  -0.00000   0.00000   0.00000  -0.00000
   D20        3.14156   0.00000  -0.00000   0.00001   0.00001   3.14157
   D21       -3.14159   0.00000   0.00000  -0.00000   0.00000  -3.14159
   D22       -0.00002   0.00000  -0.00000   0.00001   0.00000  -0.00002
   D23       -0.00001   0.00000  -0.00000   0.00000   0.00000  -0.00001
   D24        3.14158   0.00000  -0.00000   0.00000   0.00000   3.14159
   D25       -3.14157  -0.00000   0.00000  -0.00000  -0.00000  -3.14158
   D26        0.00002  -0.00000   0.00000  -0.00000  -0.00000   0.00002
   D27        3.14142   0.00000  -0.00001   0.00004   0.00003   3.14145
   D28       -0.00020   0.00000  -0.00001   0.00005   0.00004  -0.00016
   D29        0.00001  -0.00000   0.00000  -0.00000  -0.00000   0.00001
   D30       -3.14159  -0.00000   0.00000  -0.00000  -0.00000  -3.14159
   D31       -3.14158  -0.00000   0.00000  -0.00000  -0.00000  -3.14158
   D32        0.00001  -0.00000   0.00000  -0.00000  -0.00000   0.00001
   D33        3.14149   0.00000   0.00000   0.00000   0.00000   3.14149
   D34       -0.00010   0.00000  -0.00000   0.00000   0.00000  -0.00010
   D35        3.14150   0.00000  -0.00000   0.00000   0.00000   3.14150
   D36       -0.00009   0.00000  -0.00000   0.00000   0.00000  -0.00009
         Item               Value     Threshold  Converged?
 Maximum Force            0.001053     0.000450     NO 
 RMS     Force            0.000263     0.000300     YES
 Maximum Displacement     0.015787     0.001800     NO 
 RMS     Displacement     0.003110     0.001200     NO 
 Predicted change in Energy=-6.243008D-06
 GradGradGradGradGradGradGradGradGradGradGradGradGradGradGradGradGradGrad

                          Input orientation:                          
 ---------------------------------------------------------------------
 Center     Atomic      Atomic             Coordinates (Angstroms)
 Number     Number       Type             X           Y           Z
 ---------------------------------------------------------------------
      1          6           0        0.219054    1.274956   -0.000003
      2          6           0        0.425775   -0.139068   -0.000003
      3          6           0       -0.694713   -1.016141    0.000017
      4          6           0       -1.981503   -0.514857    0.000025
      5          6           0       -2.173183    0.884455    0.000019
      6          6           0       -1.095762    1.756146    0.000011
      7          8           0       -3.002600   -1.404522    0.000014
      8          6           0        1.722831   -0.718399   -0.000010
      9          8           0        1.808467   -2.029327    0.000086
     10          8           0        2.790931    0.032762   -0.000109
     11          8           0        1.281447    2.095550   -0.000010
     12          1           0       -0.548133   -2.088256    0.000019
     13          1           0       -3.180859    1.291321    0.000019
     14          1           0       -1.270515    2.827823    0.000010
     15          1           0       -3.865460   -0.967762    0.000146
     16          1           0        2.707849   -2.396469   -0.000013
     17          1           0        3.639731   -0.441522   -0.000029
     18          1           0        1.004343    3.024275   -0.000005
 ---------------------------------------------------------------------
[...]
 7311,0.000023261\H,-1.2705153563,2.8276909719,0.0000099571\H,-3.866223
 893,-0.9678624197,0.0001331478\H,2.7085610065,-2.3966167281,-0.0000128
 859\H,3.6399938258,-0.4402601063,-0.0000291036\H,1.0055020383,3.023936
 3175,-0.0000060916\\Version=ES64L-G09RevE.01\State=1-A\HF=-571.6596287
 \RMSD=5.230e-09\RMSF=1.741e-05\ZeroPoint=0.1354121\Thermal=0.1455022\D
 ipole=1.5006732,0.1570326,0.0000545\DipoleDeriv=0.9871581,1.0462032,-0
 .0000089,-0.0529357,0.8347345,0.0000029,-0.0000019,-0.0000053,0.156169
 8,-1.1853114,0.837454,0.0000103,0.491802,-0.4397233,-0.0000011,0.00001
 97,-0.0000176,-0.0475548,0.2193653,-0.7199919,-0.0000039,0.2474173,-0.
 037793,-0.0000019,0.0000003,0.000017,-0.107736,0.9594203,1.1600051,-0.
 000001,1.1967961,-0.0137748,-0.0000138,0.0000007,-0.0000024,0.1313763,
 0.1364313,0.1688704,0.000001,-0.368945,0.4505704,-0.0000005,-0.0000071
 ,-0.0000039,-0.0444084,-0.4494202,-0.6530101,0.0000036,0.0089947,0.071
 2369,-0.0000006,0.0000062,0.0000042,-0.1281689,-1.2212925,-0.623219,-0
 .0000049,-0.8163213,-0.5027961,0.0000306,-0.0000364,0.0000061,-0.36527
 76,2.710248,-0.7338529,-0.0000571,-0.5588677,1.8970973,-0.0000841,-0.0
 000677,-0.000088,0.3716061,-0.5639125,0.3470732,-0.0000309,0.7860898,-
 1.5060046,0.0000454,-0.0000943,0.0001034,-0.2878553,-1.680861,0.023121
 7,0.0000692,-0.5294101,-0.2564774,0.0000108,0.0001597,-0.0000153,-0.26
 94067,-0.6915458,-0.9117832,0.0000026,-0.4626344,-1.0442297,0.0000061,
 -0.0000123,-0.0000018,-0.3188266,0.0957107,0.0147644,0.0000003,-0.0126
 56,0.0923784,-0.0000001,0.0000045,-0.0000015,0.1486768,-0.001139,0.006
 769,0.0000018,-0.0061076,0.1011753,0.000001,0.0000025,0.0000001,0.1350
 41,0.0769732,-0.0390212,0.0000008,-0.0176784,-0.011506,0.0000003,0.000
 0017,-0.0000005,0.1547074,0.43764,0.0805241,0.000003,0.1153876,0.20617
 83,-0.0000206,0.0000217,-0.000008,0.3581692,0.3385301,-0.1425911,0.000
 0192,-0.1747546,0.4777532,0.0000098,0.0000501,-0.0000191,0.3808902,0.5
 638161,0.0087352,-0.0000064,0.0522422,0.2437265,0.0000177,-0.0000514,0
 .0000304,0.3784192,0.2681894,0.1299493,0.0000014,0.1015813,0.4374539,-
 0.0000019,0.0000039,0.0000022,0.3541783\Polar=139.1183242,-9.1949064,1
 13.9756176,-0.0012263,-0.0005837,47.0517697\PG=C01 [X(C7H7O4)]\NImag=0
 \\0.69907451,0.02326014,0.69210810,-0.00000540,-0.00000011,0.15925579,
 -0.13562119,0.03247275,0.00000154,0.67195526,0.01457577,-0.26353110,-0
 .00000047,-0.00424002,0.67957046,0.00000127,0.00000021,-0.06439156,-0.
 00000657,-0.00000603,0.13458328,0.05188532,-0.04244740,-0.00000050,-0.
 20666766,-0.08208439,0.00000254,0.71352333,-0.02028265,-0.03504858,0.0
 0000047,-0.10396789,-0.19383366,0.00000265,-0.03528146,0.73762460,-0.0
 0000068,0.00000085,0.00159122,0.00000132,0.00000228,-0.04878027,-0.000
 00576,-0.00000244,0.12027292,-0.03716481,0.02613045,0.00000030,-0.0524
 5342,-0.02032789,0.00000064,-0.32229354,0.11771664,0.00000248,0.749533
 92,0.04025269,-0.03233039,-0.00000041,0.01100870,0.03528323,-0.0000007
 3,0.06121709,-0.16279405,-0.00000015,-0.00070999,0.67568627,-0.0000000
 1,-0.00000032,0.00071544,0.00000036,0.00000042,-0.00245454,0.00000258,
 -0.00000152,-0.06013224,-0.00000815,0.00000233,0.13797565,-0.05740810,
 -0.00590136,0.00000047,-0.01027978,-0.00955847,0.00000026,0.01676620,0
 .03383191,-0.00000056,-0.13874845,0.06924176,0.00000028,0.75202883,-0.
 05183310,0.05272397,0.00000044,-0.01588197,-0.03028006,0.00000052,0.06
 603837,-0.01437443,-0.00000081,-0.00358249,-0.28647767,0.00000074,0.00
 472180,0.66880599,0.00000054,0.00000007,-0.00300022,0.00000046,0.00000
 013,0.00048593,-0.00000073,-0.00000002,0.00130886,0.00000101,0.0000006
 0,-0.05926861,-0.00000320,-0.00000212,0.12874531,-0.26515407,0.0461120
 3,0.00000226,0.00577212,0.05019139,-0.00000047,-0.05251361,-0.00632881
 ,0.00000105,0.05407289,-0.06119103,0.00000014,-0.27356153,-0.08816120,
 0.00000169,0.67896537,0.10892483,-0.16447710,-0.00000122,0.02457551,-0
 .00759312,-0.00000018,-0.00038680,-0.00289545,-0.00000015,-0.02341865,
 -0.03469010,0.00000014,-0.15026811,-0.22657366,0.00000180,0.01820973,0
 .75487243,0.00000228,-0.00000073,-0.06622053,-0.00000002,-0.00000006,0
 .00642179,0.00000042,0.00000003,0.00266889,-0.00000024,0.00000085,-0.0
 0121679,0.00000216,0.00000114,-0.04980520,-0.00000537,-0.00000115,0.11
 603600,0.00479448,0.00112166,0.00000012,0.00014973,0.00590287,0.000000
 14,-0.06076161,-0.03278792,0.,-0.23503013,-0.13843868,0.00000147,0.000
 05907,-0.00704135,-0.00000040,-0.00391116,0.00174882,0.00000014,0.7042
 9128,-0.00286729,0.00441110,0.00000005,-0.00023193,-0.00352557,0.00000
 050,0.00339404,0.01782721,-0.00000003,-0.08622534,-0.20039616,-0.00000
 584,-0.04460137,-0.03956271,-0.00000039,0.00934985,-0.00297150,-0.0000
 0024,-0.04814448,0.37571060,0.00000036,-0.00000014,-0.00143485,0.00000
 098,-0.00000005,0.00495040,0.00000014,0.00000114,0.00734247,0.00000691
 ,-0.00000207,-0.03703425,0.00000034,0.00000048,0.00654083,-0.00000050,
 0.00000018,0.00603656,-0.00005707,0.00003259,0.02160420,0.01584458,0.0
 4764689,-0.00000107,-0.23474582,0.06231158,0.00000085,-0.05846721,-0.0
 0342591,0.00000120,0.00534431,-0.02224639,0.00000038,0.00414557,0.0065
 0445,-0.00000021,0.00042491,0.00300274,0.00000011,0.00329317,0.0059887
 3,-0.00000008,0.79037583,0.03376862,-0.01999928,0.00000009,0.06366748,
 -0.13438469,0.00000013,-0.00333434,0.02216948,-0.00000063,-0.00714020,
 0.00686551,-0.00000005,-0.00257048,-0.00621926,0.00000012,0.00042221,-
 0.00862337,-0.00000005,-0.00446198,-0.00347432,0.00000018,0.00191185,0
 .74729865,-0.00000156,-0.00000054,-0.00192669,0.00000108,0.00000075,-0
 .07496099,0.00000088,-0.00000052,-0.00257124,-0.00000019,0.00000085,0.
 00624405,-0.00000022,-0.00000060,-0.00093571,0.00000061,0.,0.00555967,
 -0.00000004,-0.00000006,0.00034827,-0.00002234,-0.00003726,0.19480736,
 -0.00785739,-0.00778683,-0.00000004,-0.00703939,0.04800192,-0.00000335
 ,-0.00281829,0.00384592,-0.00000027,0.00183090,0.00193902,0.00000023,-
 0.00020662,0.00096370,0.00000007,-0.00130061,0.00197056,0.00000015,-0.
 00114497,-0.00081759,0.,-0.13403450,0.05783134,0.00000302,0.58625869,0
 .00203985,0.01762989,-0.00000032,0.03778855,-0.04744912,0.00000190,-0.
 01010601,-0.00607035,0.00000076,0.00124958,-0.00818790,0.00000006,0.00
 031106,0.00201040,-0.00000014,0.00263095,0.00140246,0.00000007,0.00283
 791,0.00339327,-0.00000004,-0.00851378,-0.38043937,0.00002571,-0.18365
 134,0.57337301,0.00000073,-0.00000186,0.00330972,-0.00000291,0.0000017
 1,0.01091729,0.00000066,0.00000059,0.00064685,0.00000021,0.00000034,-0
 .00120788,0.00000008,0.00000031,-0.00005160,-0.00000072,-0.00000031,-0
 .00091940,-0.00000018,-0.00000017,0.00020678,0.00000771,0.00001761,-0.
 05601609,-0.00005517,-0.00001639,0.02532919,-0.01104089,-0.01954064,0.
 00000051,-0.06532404,-0.01432328,0.00000411,0.00712893,0.00890350,-0.0
 0000036,-0.00444665,0.01088848,-0.00000029,-0.00236282,-0.00712116,0.0
 0000008,0.00382456,-0.00185442,-0.00000010,-0.00351309,-0.00347375,0.0
 0000010,-0.32417837,-0.16116481,0.00002101,0.00363607,-0.02198950,0.00
 000313,0.75964488,-0.00438520,-0.00863583,0.,-0.00738729,0.02328443,-0
 .00000088,0.00719205,-0.00184812,-0.00000026,-0.00189125,0.00608600,0.
 00000002,-0.00089659,-0.00316055,0.00000003,0.00202399,-0.00065558,-0.
 00000015,-0.00029355,-0.00140711,0.,-0.09339900,-0.21299812,0.00001894
 ,-0.05252176,-0.05659548,0.00000842,-0.03298033,0.40940960,0.00000128,
 0.00000147,0.00010694,0.00000307,-0.00000160,0.00821001,-0.00000141,-0
 .00000023,0.00320415,0.00000032,-0.00000136,-0.00003839,0.00000018,0.0
 0000069,0.00030214,-0.00000016,0.00000026,-0.00027746,0.00000024,0.000
 00035,-0.00014615,0.00001246,0.00001811,-0.05594603,0.00000456,0.00000
 781,0.02581367,0.00001002,-0.00004962,0.02732405,-0.25724868,-0.087438
 40,0.00000201,0.02655321,-0.01380275,-0.00000041,-0.01775534,0.0017673
 2,0.00000051,0.01436587,-0.01043417,0.00000022,0.00341397,0.01731309,-
 0.00000008,-0.06221501,-0.03686565,0.00000059,-0.00605064,-0.00225602,
 -0.00000039,-0.02286490,0.00438230,0.00000077,0.00278989,-0.00440009,0
 .00000026,0.00920227,0.01153067,-0.00000068,0.39543376,-0.13792527,-0.
 20084722,0.00000112,-0.02582428,-0.04358016,-0.00000002,-0.00341724,-0
 .00408741,0.00000031,0.00804904,-0.00255768,0.00000024,0.00528845,0.00
 227098,-0.00000020,-0.00899939,0.00998073,0.00000018,-0.00597720,-0.00
 254753,-0.00000032,-0.02038843,0.00602169,0.00000016,0.00220369,-0.006
 98119,0.00000066,0.01621195,-0.00273445,-0.00000073,0.00670390,0.70181
 557,0.00000167,0.00000046,-0.04278687,-0.00000009,0.00000010,0.0044944
 6,0.00000027,0.00000010,0.00254207,-0.00000008,0.00000018,-0.00091747,
 0.00000004,-0.00000023,0.00711490,0.00000071,0.00000039,0.01375636,-0.
 00000006,0.00000002,-0.00025170,0.00000008,0.,-0.00309347,-0.00000002,
 -0.00000032,0.00027049,0.00000014,0.00000003,0.00117189,-0.00000374,0.
 00000204,0.02869193,-0.00444434,-0.00113106,0.00000020,0.00648729,-0.0
 2402387,0.00000004,-0.06392646,0.04164168,0.00000040,0.00194417,0.0305
 5250,-0.00000016,-0.00595011,0.00105657,0.00000014,-0.00039138,-0.0006
 5431,-0.00000006,0.00210480,-0.00058022,-0.00000007,0.00188554,-0.0036
 2320,0.00000009,-0.00430053,0.00169075,-0.00000044,0.00032214,0.000455
 90,-0.00000003,0.00047191,-0.00161056,0.,0.06563954,-0.00342922,0.0016
 9220,0.,0.00230582,-0.01201624,0.00000002,0.04112832,-0.34780993,0.000
 00050,-0.00034795,-0.00557085,0.00000011,0.00127705,-0.00064564,0.0000
 0002,0.00119229,0.00061647,-0.00000002,-0.00122625,0.00008622,-0.00000
 002,0.00067987,-0.00195001,0.00000004,0.00279353,0.00051919,-0.0000000
 3,-0.00017795,0.00003611,0.00000001,0.00075027,-0.00046574,0.00000001,
 -0.04510129,0.36516911,0.00000006,0.00000010,0.00366510,0.00000015,0.0
 0000033,0.00136582,0.00000046,0.00000048,-0.03556587,-0.00000036,-0.00
 000039,0.00875908,0.00000014,-0.00000008,0.00619116,0.00000008,-0.0000
 0003,-0.00046670,-0.00000002,0.00000005,-0.00375597,-0.00000005,0.0000
 0012,-0.00274857,-0.00000050,-0.00000008,0.00069880,0.00000010,-0.0000
 0002,-0.00009528,0.00000002,0.00000003,0.00075672,-0.00000023,-0.00000
 066,0.02317396,-0.00104707,-0.00355986,0.,0.00056310,-0.00032136,0.,0.
 00106980,0.00040847,0.,-0.00169406,-0.00213865,0.00000004,-0.30067624,
 0.09857041,0.00000066,-0.01753563,0.01006902,0.00000008,0.00251815,0.0
 0000933,-0.00000010,-0.00012194,0.00000794,0.,-0.00002656,0.00003441,0
 .,0.00002535,0.00001764,-0.00000001,-0.00125913,0.00031589,0.00000003,
 0.00000765,-0.00006860,0.,0.31692527,-0.00361947,-0.00253211,0.0000000
 6,-0.00149674,-0.00040049,0.00000007,0.00043430,-0.00633797,0.00000003
 ,0.02907139,-0.00479480,-0.00000013,0.09977627,-0.10187688,-0.00000005
 ,-0.01955918,0.01141829,0.00000007,0.00049378,0.00269054,-0.00000009,0
 .00051474,-0.00054993,-0.00000003,0.00004812,0.00033770,-0.00000002,-0
 .00025984,-0.00009710,0.00000002,-0.00106064,0.00050665,0.00000004,0.0
 0146150,-0.00018063,-0.00000004,-0.10474625,0.10210369,0.00000006,0.00
 000013,0.00840392,0.,-0.00000008,-0.00028247,0.00000009,0.00000005,0.0
 0483831,0.,0.00000032,0.00680483,0.00000044,-0.00000031,-0.04032230,0.
 00000033,-0.00000007,0.00555867,-0.00000029,0.00000005,-0.00268225,-0.
 00000002,0.00000002,-0.00079865,-0.00000007,0.,0.00031963,0.00000002,0
 .00000002,-0.00010388,0.00000003,-0.00000002,-0.00100619,0.,-0.0000000
 4,-0.00128488,-0.00000076,-0.00000013,0.02429717,-0.00224148,0.0297192
 0,0.00000003,-0.00465144,0.00032199,0.00000010,-0.00107979,-0.00057627
 ,0.,-0.00379237,-0.00217029,0.00000005,0.00774882,-0.02627931,0.000000
 09,-0.06652731,0.04743185,0.00000018,0.00003827,-0.00155322,0.00000005
 ,0.00034101,0.00136015,0.00000001,-0.00055955,0.00023357,0.00000003,0.
 00007522,0.00002997,-0.00000003,0.00293373,0.00092419,-0.00000008,0.00
 009833,0.00005045,0.,0.00092904,0.00000470,-0.00000003,0.06776085,-0.0
 0256385,-0.00815938,0.00000006,0.00175308,0.00076434,0.,-0.00003120,0.
 00053581,-0.00000002,-0.00318150,0.00100989,0.,0.00391465,-0.01512204,
 0.00000004,0.04737539,-0.33424468,0.00000025,0.00007451,-0.00101212,0.
 00000004,-0.00069643,-0.00024972,0.00000002,0.00021421,-0.00013829,0.,
 0.00027017,0.00014604,-0.00000003,-0.00047021,0.00295346,0.,0.00002898
 ,-0.00004812,0.,0.00016580,0.00088383,0.,-0.04873237,0.35241396,0.0000
 0024,-0.00000041,0.00415330,0.00000009,0.00000001,0.00436476,-0.000000
 03,0.00000001,-0.00105584,0.00000017,0.,0.00728687,-0.00000003,0.00000
 037,0.00310696,0.,0.00000032,-0.03364115,-0.00000005,0.00000006,0.0000
 2718,0.,0.,0.00067759,0.,0.,-0.00015202,0.,0.,-0.00001430,-0.00000008,
 -0.00000001,-0.00389325,0.,0.,-0.00028438,0.,-0.00000003,-0.00438814,-
 0.00000034,-0.00000031,0.02324998,-0.00017155,-0.00033734,-0.00000003,
 0.00017231,0.00070127,-0.00000011,-0.00140558,-0.00478201,0.00000038,-
 0.03219082,0.01559807,0.00000287,0.00479621,0.00294450,-0.00000006,-0.
 00058495,0.00045765,-0.00000026,-0.40748850,0.17070330,0.00004936,-0.0
 0159321,0.00056901,0.00000004,0.00026702,-0.00075389,0.00000005,0.0008
 2263,0.00033930,-0.00000010,0.00074007,0.00062324,0.00000004,0.0002626
 0,-0.00001513,0.00000005,0.00022454,-0.00122840,0.00000018,0.00025305,
 0.00020069,0.,0.43628548,0.00001053,0.00058309,0.00000009,0.00044367,0
 .00055253,-0.00000026,-0.00483377,-0.00328403,0.,-0.03287084,0.0093853
 7,0.00000390,-0.00365920,0.00202046,0.00000010,0.00040642,-0.00035725,
 -0.00000003,0.22574959,-0.14901605,-0.00003194,-0.00098163,0.00017751,
 -0.00000006,0.00014955,-0.00040399,0.00000003,0.00025022,0.00014827,-0
 .00000002,-0.00014546,-0.00041797,-0.00000002,-0.00032416,0.00010537,0
 .00000006,0.00101006,-0.00132995,0.00000003,0.00004481,0.00005024,-0.0
 0000003,-0.18499044,0.14172095,-0.00000011,0.00000004,0.00022635,-0.00
 000056,-0.00000005,0.00204895,0.,-0.00000043,0.00177648,-0.00000290,-0
 .00000069,-0.00529027,-0.00000031,-0.00000029,0.00004074,0.00000015,-0
 .00000013,-0.00067903,0.00005601,-0.00002685,-0.00145637,0.00000007,-0
 .00000009,0.00033711,-0.00000003,0.00000004,-0.00004108,-0.00000004,0.
 00000002,-0.00017359,0.00000013,0.00000014,-0.00009495,0.00000002,0.,-
 0.00084101,0.00000005,0.00000023,0.00037627,-0.00000005,-0.00000004,0.
 00000027,-0.00005244,0.00002813,0.00372674,0.00017093,0.00179494,0.,0.
 00493443,-0.00301851,0.00000079,-0.00126185,-0.00059008,0.00000003,0.0
 0028288,-0.00103181,-0.00000009,0.00011374,0.00042712,0.,0.00014904,0.
 00038337,-0.00000005,0.00033427,0.00037970,0.,-0.00269182,-0.00132137,
 -0.00000085,-0.44236870,0.17628699,0.00004680,0.00045102,-0.00495940,0
 .00000032,-0.00074123,-0.00093039,-0.00000007,0.00016921,0.00039322,0.
 00000011,0.00000124,0.00005027,0.00000001,-0.00001875,-0.00002467,0.,-
 0.00011463,-0.00004807,0.,0.43957817,0.00137017,-0.00080137,0.00000028
 ,-0.00507907,-0.00383027,0.00000087,-0.00049866,0.00042263,-0.00000031
 ,0.00027940,0.00152239,-0.00000002,-0.00032946,-0.00049148,0.,-0.00007
 178,-0.00059680,-0.00000008,-0.00064423,-0.00058467,0.,0.05031670,-0.0
 2444847,-0.00000453,0.12549550,-0.09379136,-0.00001107,-0.00124814,0.0
 0539761,0.00000025,0.00027224,0.00085984,0.,0.00046410,0.00057216,0.00
 000009,-0.00001233,0.00001502,0.00000001,0.00010626,-0.00000680,-0.000
 00001,0.00014365,0.00005499,0.,-0.16656930,0.11904273,-0.00000029,0.00
 000079,0.00230368,0.00000133,0.00000072,0.00425756,-0.00000031,-0.0000
 0023,-0.00111466,-0.00000004,-0.00000017,0.00032990,0.,-0.00000008,0.0
 0011262,0.00000023,0.00000023,-0.00065214,0.00000003,0.00000005,-0.000
 07699,-0.00000548,0.00000360,-0.00463390,0.00005157,-0.00001917,-0.003
 97586,0.00000007,0.00000001,-0.00413543,-0.00000023,-0.00000032,0.0001
 3925,0.00000016,0.00000003,-0.00021507,0.,0.,-0.00003251,-0.00000004,0
 .,-0.00007877,-0.00000002,-0.00000001,0.00005754,-0.00004686,0.0000148
 8,0.00532495,0.00100715,0.00253963,-0.00000019,0.00443463,-0.00721834,
 0.00000006,-0.00201271,0.00063515,0.00000024,0.00019610,-0.00230280,0.
 00000007,0.00032588,0.00083391,-0.00000003,-0.00017385,0.00024305,0.00
 000002,0.00046206,0.00072626,0.,-0.04153007,0.02048057,-0.00000236,0.0
 0671542,0.00419946,-0.00000019,-0.37339952,0.17579622,-0.00003017,-0.0
 0131746,-0.00100618,0.00000010,-0.00010536,-0.00006279,-0.00000002,0.0
 0000213,0.00004313,0.,0.00001278,-0.00001628,0.,-0.00019197,-0.0000865
 8,-0.00000002,0.00100419,-0.00388475,-0.00000012,0.40437275,-0.0012555
 7,-0.00101292,0.00000003,-0.00357580,-0.00156591,0.00000110,-0.0001495
 8,0.00058823,0.00000013,-0.00031989,0.00036380,-0.00000006,-0.00009133
 ,-0.00027996,-0.00000002,0.00023267,-0.00010561,0.,-0.00006589,-0.0001
 0094,0.,-0.03240250,0.01191847,-0.00000283,-0.00023952,-0.00006378,0.0
 0000029,0.22884771,-0.15529052,0.00002448,0.00099138,-0.00155052,-0.00
 000018,-0.00003976,-0.00000731,0.00000005,0.00000835,-0.00001106,0.,0.
 00000458,0.00001885,0.,0.00000829,0.00000786,0.,-0.00144884,-0.0031389
 9,-0.00000040,-0.19112525,0.15019909,-0.00000043,-0.00000039,-0.001400
 04,-0.00000011,0.00000174,0.00558776,0.00000070,-0.00000008,0.00186293
 ,-0.00000010,0.00000053,-0.00040553,-0.00000005,-0.00000019,0.00001434
 ,-0.00000002,-0.00000013,-0.00016224,-0.00000003,-0.00000017,-0.000165
 39,0.00000625,-0.00000188,-0.00421780,-0.00000011,-0.00000005,-0.00476
 658,-0.00003872,0.00002357,-0.00540550,0.00000016,0.00000003,0.0001271
 3,-0.00000004,0.,0.00023184,0.,-0.00000001,0.00007574,0.00000001,0.,0.
 00001522,0.00000004,0.00000003,-0.00003907,-0.00000021,-0.00000036,0.0
 0248191,0.00003265,-0.00002260,0.00603328,0.00662261,-0.04265480,-0.00
 000024,-0.00423933,-0.00308791,0.00000012,0.00059008,-0.00072758,0.000
 00002,0.00024321,-0.00003449,0.,-0.00020463,0.00052665,-0.00000003,0.0
 0066023,-0.00356921,-0.00000002,-0.00014517,0.00020000,-0.00000002,-0.
 00142707,-0.00078510,0.00000004,0.00015912,0.00011151,-0.00000008,-0.0
 0086771,0.00132864,0.00000014,-0.08645231,0.16575858,0.00000107,-0.000
 27500,-0.00014165,0.00000002,0.00009437,0.00007234,0.00000001,-0.00132
 041,0.00171902,0.,-0.00008267,-0.00012471,0.00000002,0.00000788,-0.000
 11029,0.,0.00019785,0.00062094,0.,0.08643894,0.00395903,-0.03177308,-0
 .00000015,-0.00633057,0.00253540,0.00000015,0.00316666,-0.00078398,-0.
 00000008,-0.00248051,0.00159715,-0.00000002,-0.00048658,-0.00276744,0.
 00000003,0.00616447,0.00549383,-0.00000008,0.00115238,0.00047974,0.000
 00006,0.00317649,-0.00111478,-0.00000007,-0.00044001,0.00145492,-0.000
 00012,-0.00123821,-0.00108520,0.00000012,0.11316221,-0.45863905,-0.000
 00263,-0.00026354,-0.00010234,0.,0.00022973,0.00015521,0.,-0.00092026,
 0.00020473,0.00000001,-0.00018176,0.00000260,-0.00000002,0.00022684,-0
 .00019714,0.00000006,0.00020559,0.00003121,-0.00000007,-0.11910196,0.4
 8450821,-0.00000002,0.00000035,-0.00257071,-0.00000012,0.00000014,0.00
 318183,0.,-0.00000004,0.00116495,0.,-0.00000005,-0.00014984,0.,0.00000
 001,-0.00058014,-0.00000001,0.00000005,-0.00199730,0.,0.,-0.00005277,0
 .00000013,0.,-0.00012491,-0.00000004,0.00000017,-0.00038191,0.00000020
 ,-0.00000013,0.00020316,0.00000092,-0.00000331,-0.00702131,-0.00000001
 ,0.00000001,0.00041527,0.,0.,0.00022671,0.00000001,-0.00000002,0.00062
 572,0.,0.,0.00002493,0.00000004,-0.00000002,-0.00009210,-0.00000004,0.
 ,0.00013201,-0.00000107,0.00000282,0.00699641\\-0.00000231,-0.00005778
 ,-0.00000001,-0.00005464,0.00003385,-0.00000006,-0.00000250,0.00001065
 ,0.00000020,0.00002714,0.00000315,0.00000044,0.00001975,0.00002739,-0.
 00000031,-0.00002278,-0.00002778,0.00000003,-0.00000898,0.00000315,-0.
 00000099,-0.00003398,-0.00001225,-0.00000004,0.00000500,-0.00000543,0.
 00000006,0.00001438,0.00000243,-0.00000005,0.00003737,0.00001409,0.000
 00003,-0.00000792,0.00001017,0.00000005,0.00000462,0.00000149,0.,0.000
 01289,0.00000599,0.,-0.00002210,0.00001209,0.00000065,0.00001529,-0.00
 001483,-0.00000003,0.00001819,-0.00001911,0.00000004,0.00000058,0.0000
 1273,-0.00000002\\\@


 IN THE WOODS WE RETURN TO REASON AND FAITH.

                                 -- EMERSON
 Job cpu time:       0 days  0 hours 25 minutes 37.9 seconds.
 File lengths (MBytes):  RWF=    115 Int=      0 D2E=      0 Chk=      6 Scr=      1
 Normal termination of Gaussian 09 at Mon May 20 13:34:33 2024.
