 Entering Gaussian System, Link 0=g09
 Input=lwcamDHB.gjf
 Output=lwcamDHB.log
 Initial command:
 /home/phzd/g09E/g09/l1.exe "/home/phzd/g09E/scratch/Gau-121356.inp" -scrdir="/home/phzd/g09E/scratch/"
 Default is to use a total of  18 processors:
                               18 via shared-memory
                                1 via Linda
 Entering Link 1 = /home/phzd/g09E/g09/l1.exe PID=    121358.
  
 Copyright (c) 1988,1990,1992,1993,1995,1998,2003,2009,2015,
            Gaussian, Inc.  All Rights Reserved.
  
 This is part of the Gaussian(R) 09 program.  It is based on
 the Gaussian(R) 03 system (copyright 2003, Gaussian, Inc.),
 the Gaussian(R) 98 system (copyright 1998, Gaussian, Inc.),
 the Gaussian(R) 94 system (copyright 1995, Gaussian, Inc.),
 the Gaussian 92(TM) system (copyright 1992, Gaussian, Inc.),
 the Gaussian 90(TM) system (copyright 1990, Gaussian, Inc.),
 the Gaussian 88(TM) system (copyright 1988, Gaussian, Inc.),
 the Gaussian 86(TM) system (copyright 1986, Carnegie Mellon
 University), and the Gaussian 82(TM) system (copyright 1983,
 Carnegie Mellon University). Gaussian is a federally registered
 trademark of Gaussian, Inc.
  
 This software contains proprietary and confidential information,
 including trade secrets, belonging to Gaussian, Inc.
  
 This software is provided under written license and may be
 used, copied, transmitted, or stored only in accord with that
 written license.
  
 The following legend is applicable only to US Government
 contracts under FAR:
  
                    RESTRICTED RIGHTS LEGEND
  
 Use, reproduction and disclosure by the US Government is
 subject to restrictions as set forth in subparagraphs (a)
 and (c) of the Commercial Computer Software - Restricted
 Rights clause in FAR 52.227-19.
  
 Gaussian, Inc.
 340 Quinnipiac St., Bldg. 40, Wallingford CT 06492
  
  
 ---------------------------------------------------------------
 Warning -- This program may not be used in any manner that
 competes with the business of Gaussian, Inc. or will provide
 assistance to any competitor of Gaussian, Inc.  The licensee
 of this program is prohibited from giving any competitor of
 Gaussian, Inc. access to this program.  By using this program,
 the user acknowledges that Gaussian, Inc. is engaged in the
 business of creating and licensing software in the field of
 computational chemistry and represents and warrants to the
 licensee that it is not a competitor of Gaussian, Inc. and that
 it will not use this program in any manner prohibited above.
 ---------------------------------------------------------------
  

 Cite this work as:
 Gaussian 09, Revision E.01,
 M. J. Frisch, G. W. Trucks, H. B. Schlegel, G. E. Scuseria, 
 M. A. Robb, J. R. Cheeseman, G. Scalmani, V. Barone, B. Mennucci, 
 G. A. Petersson, H. Nakatsuji, M. Caricato, X. Li, H. P. Hratchian, 
 A. F. Izmaylov, J. Bloino, G. Zheng, J. L. Sonnenberg, M. Hada, 
 M. Ehara, K. Toyota, R. Fukuda, J. Hasegawa, M. Ishida, T. Nakajima, 
 Y. Honda, O. Kitao, H. Nakai, T. Vreven, J. A. Montgomery, Jr., 
 J. E. Peralta, F. Ogliaro, M. Bearpark, J. J. Heyd, E. Brothers, 
 K. N. Kudin, V. N. Staroverov, T. Keith, R. Kobayashi, J. Normand, 
 K. Raghavachari, A. Rendell, J. C. Burant, S. S. Iyengar, J. Tomasi, 
 M. Cossi, N. Rega, J. M. Millam, M. Klene, J. E. Knox, J. B. Cross, 
 V. Bakken, C. Adamo, J. Jaramillo, R. Gomperts, R. E. Stratmann, 
 O. Yazyev, A. J. Austin, R. Cammi, C. Pomelli, J. W. Ochterski, 
 R. L. Martin, K. Morokuma, V. G. Zakrzewski, G. A. Voth, 
 P. Salvador, J. J. Dannenberg, S. Dapprich, A. D. Daniels, 
 O. Farkas, J. B. Foresman, J. V. Ortiz, J. Cioslowski, 
 and D. J. Fox, Gaussian, Inc., Wallingford CT, 2013.
 
 ******************************************
 Gaussian 09:  ES64L-G09RevE.01 30-Nov-2015
                26-Feb-2024 
 ******************************************
 %chk=lwcamDHB.chk
 -----------------------------------------
 # opt freq cam-b3lyp/6-31+g(d,p) em=gd3bj
 -----------------------------------------
 1/14=-1,18=20,19=15,26=3,38=1/1,3;
 2/9=110,12=2,17=6,18=5,40=1/2;
 3/5=1,6=6,7=111,11=2,16=1,25=1,30=1,71=1,74=-40,124=41/1,2,3;
 4//1;
 5/5=2,38=5/2;
 6/7=2,8=2,9=2,10=2,28=1/1;
 7//1,2,3,16;
 1/14=-1,18=20,19=15,26=3/3(2);
 2/9=110/2;
 99//99;
 2/9=110/2;
 3/5=1,6=6,7=111,11=2,16=1,25=1,30=1,71=1,74=-40,124=41/1,2,3;
 4/5=5,16=3,69=1/1;
 5/5=2,38=5/2;
 7//1,2,3,16;
 1/14=-1,18=20,19=15,26=3/3(-5);
 2/9=110/2;
 6/7=2,8=2,9=2,10=2,19=2,28=1/1;
 99/9=1/99;
 ----------
 [No Title]
 ----------
 Symbolic Z-matrix:
 Charge =  0 Multiplicity = 1
 C                     0.69665  -0.99803  -0.0004 
 C                     0.70583   0.35438  -0.00073 
 C                    -0.46893   1.01599  -0.00035 
 C                    -1.65888   0.39204   0.00045 
 C                    -1.65305  -0.94864   0.00065 
 C                    -0.49529  -1.62149   0.00024 
 O                    -2.82982   1.08475   0.00081 
 C                     1.86061   1.08724  -0.00144 
 O                     1.85198   2.44556  -0.00203 
 O                     2.97569   0.61116  -0.00153 
 O                     1.81845  -1.77114  -0.00083 
 H                    -0.50817   2.11821  -0.00061 
 H                    -2.60874  -1.49886   0.00116 
 H                    -0.52455  -2.7247    0.00043 
 H                    -3.57161   0.45838   0.00011 
 H                     2.77265   2.75298  -0.00229 
 H                     1.56123  -2.70724  -0.00063 
 

 GradGradGradGradGradGradGradGradGradGradGradGradGradGradGradGradGradGrad
 Berny optimization.
 Initialization pass.
                           ----------------------------
                           !    Initial Parameters    !
                           ! (Angstroms and Degrees)  !
 --------------------------                            --------------------------
 ! Name  Definition              Value          Derivative Info.                !
 --------------------------------------------------------------------------------
 ! R1    R(1,2)                  1.3524         estimate D2E/DX2                !
 ! R2    R(1,6)                  1.3452         estimate D2E/DX2                !
 ! R3    R(1,11)                 1.3624         estimate D2E/DX2                !
 ! R4    R(2,3)                  1.3482         estimate D2E/DX2                !
 ! R5    R(2,8)                  1.3677         estimate D2E/DX2                !
 ! R6    R(3,4)                  1.3436         estimate D2E/DX2                !
 ! R7    R(3,12)                 1.1029         estimate D2E/DX2                !
 ! R8    R(4,5)                  1.3407         estimate D2E/DX2                !
 ! R9    R(4,7)                  1.3605         estimate D2E/DX2                !
 ! R10   R(5,6)                  1.3391         estimate D2E/DX2                !
 ! R11   R(5,13)                 1.1028         estimate D2E/DX2                !
 ! R12   R(6,14)                 1.1036         estimate D2E/DX2                !
 ! R13   R(7,15)                 0.9709         estimate D2E/DX2                !
 ! R14   R(8,9)                  1.3583         estimate D2E/DX2                !
 ! R15   R(8,10)                 1.2125         estimate D2E/DX2                !
 ! R16   R(9,16)                 0.9706         estimate D2E/DX2                !
 ! R17   R(11,17)                0.9708         estimate D2E/DX2                !
 ! A1    A(2,1,6)              118.0009         estimate D2E/DX2                !
 ! A2    A(2,1,11)             124.185          estimate D2E/DX2                !
 ! A3    A(6,1,11)             117.8141         estimate D2E/DX2                !
 ! A4    A(1,2,3)              118.9994         estimate D2E/DX2                !
 ! A5    A(1,2,8)              122.7891         estimate D2E/DX2                !
 ! A6    A(3,2,8)              118.2115         estimate D2E/DX2                !
 ! A7    A(2,3,4)              122.942          estimate D2E/DX2                !
 ! A8    A(2,3,12)             121.427          estimate D2E/DX2                !
 ! A9    A(4,3,12)             115.631          estimate D2E/DX2                !
 ! A10   A(3,4,5)              117.4211         estimate D2E/DX2                !
 ! A11   A(3,4,7)              121.7222         estimate D2E/DX2                !
 ! A12   A(5,4,7)              120.8567         estimate D2E/DX2                !
 ! A13   A(4,5,6)              120.4126         estimate D2E/DX2                !
 ! A14   A(4,5,13)             119.6819         estimate D2E/DX2                !
 ! A15   A(6,5,13)             119.9055         estimate D2E/DX2                !
 ! A16   A(1,6,5)              122.224          estimate D2E/DX2                !
 ! A17   A(1,6,14)             119.1316         estimate D2E/DX2                !
 ! A18   A(5,6,14)             118.6444         estimate D2E/DX2                !
 ! A19   A(4,7,15)             109.2144         estimate D2E/DX2                !
 ! A20   A(2,8,9)              122.0366         estimate D2E/DX2                !
 ! A21   A(2,8,10)             124.4796         estimate D2E/DX2                !
 ! A22   A(9,8,10)             113.4838         estimate D2E/DX2                !
 ! A23   A(8,9,16)             108.1008         estimate D2E/DX2                !
 ! A24   A(1,11,17)            109.2094         estimate D2E/DX2                !
 ! D1    D(6,1,2,3)              0.0023         estimate D2E/DX2                !
 ! D2    D(6,1,2,8)           -179.9972         estimate D2E/DX2                !
 ! D3    D(11,1,2,3)           179.9948         estimate D2E/DX2                !
 ! D4    D(11,1,2,8)            -0.0046         estimate D2E/DX2                !
 ! D5    D(2,1,6,5)             -0.004          estimate D2E/DX2                !
 ! D6    D(2,1,6,14)           179.9949         estimate D2E/DX2                !
 ! D7    D(11,1,6,5)          -179.997          estimate D2E/DX2                !
 ! D8    D(11,1,6,14)            0.0019         estimate D2E/DX2                !
 ! D9    D(2,1,11,17)         -179.99           estimate D2E/DX2                !
 ! D10   D(6,1,11,17)            0.0026         estimate D2E/DX2                !
 ! D11   D(1,2,3,4)              0.0053         estimate D2E/DX2                !
 ! D12   D(1,2,3,12)          -179.9985         estimate D2E/DX2                !
 ! D13   D(8,2,3,4)           -179.9952         estimate D2E/DX2                !
 ! D14   D(8,2,3,12)             0.0009         estimate D2E/DX2                !
 ! D15   D(1,2,8,9)            179.9861         estimate D2E/DX2                !
 ! D16   D(1,2,8,10)            -0.0179         estimate D2E/DX2                !
 ! D17   D(3,2,8,9)             -0.0133         estimate D2E/DX2                !
 ! D18   D(3,2,8,10)           179.9826         estimate D2E/DX2                !
 ! D19   D(2,3,4,5)             -0.011          estimate D2E/DX2                !
 ! D20   D(2,3,4,7)           -179.9995         estimate D2E/DX2                !
 ! D21   D(12,3,4,5)           179.9927         estimate D2E/DX2                !
 ! D22   D(12,3,4,7)             0.0041         estimate D2E/DX2                !
 ! D23   D(3,4,5,6)              0.0091         estimate D2E/DX2                !
 ! D24   D(3,4,5,13)          -179.9923         estimate D2E/DX2                !
 ! D25   D(7,4,5,6)            179.9978         estimate D2E/DX2                !
 ! D26   D(7,4,5,13)            -0.0036         estimate D2E/DX2                !
 ! D27   D(3,4,7,15)           179.9207         estimate D2E/DX2                !
 ! D28   D(5,4,7,15)            -0.0674         estimate D2E/DX2                !
 ! D29   D(4,5,6,1)             -0.0019         estimate D2E/DX2                !
 ! D30   D(4,5,6,14)           179.9992         estimate D2E/DX2                !
 ! D31   D(13,5,6,1)           179.9995         estimate D2E/DX2                !
 ! D32   D(13,5,6,14)            0.0006         estimate D2E/DX2                !
 ! D33   D(2,8,9,16)           179.9883         estimate D2E/DX2                !
 ! D34   D(10,8,9,16)           -0.0081         estimate D2E/DX2                !
 --------------------------------------------------------------------------------
 Trust Radius=3.00D-01 FncErr=1.00D-07 GrdErr=1.00D-06
 Number of steps in this run=     85 maximum allowed number of steps=    102.
 GradGradGradGradGradGradGradGradGradGradGradGradGradGradGradGradGradGrad

                          Input orientation:                          
 ---------------------------------------------------------------------
 Center     Atomic      Atomic             Coordinates (Angstroms)
 Number     Number       Type             X           Y           Z
 ---------------------------------------------------------------------
      1          6           0        0.696654   -0.998027   -0.000402
      2          6           0        0.705826    0.354377   -0.000726
      3          6           0       -0.468927    1.015991   -0.000346
      4          6           0       -1.658880    0.392044    0.000450
      5          6           0       -1.653054   -0.948635    0.000645
      6          6           0       -0.495290   -1.621487    0.000243
      7          8           0       -2.829818    1.084749    0.000809
      8          6           0        1.860608    1.087240   -0.001438
      9          8           0        1.851980    2.445555   -0.002034
     10          8           0        2.975688    0.611162   -0.001533
     11          8           0        1.818451   -1.771139   -0.000833
     12          1           0       -0.508170    2.118207   -0.000613
     13          1           0       -2.608735   -1.498861    0.001163
     14          1           0       -0.524550   -2.724704    0.000431
     15          1           0       -3.571608    0.458381    0.000114
     16          1           0        2.772654    2.752979   -0.002291
     17          1           0        1.561234   -2.707244   -0.000631
 ---------------------------------------------------------------------
                    Distance matrix (angstroms):
                    1          2          3          4          5
     1  C    0.000000
     2  C    1.352435   0.000000
     3  C    2.326983   1.348250   0.000000
     4  C    2.735112   2.365006   1.343614   0.000000
     5  C    2.350227   2.694839   2.293886   1.340692   0.000000
     6  C    1.345152   2.312297   2.637610   2.325564   1.339085
     7  O    4.095603   3.610294   2.361892   1.360491   2.349345
     8  C    2.388122   1.367703   2.330625   3.587492   4.060863
     9  O    3.632222   2.384679   2.725851   4.067315   4.879118
    10  O    2.789890   2.284341   3.468322   4.639745   4.884488
    11  O    1.362399   2.399115   3.605578   4.095265   3.567613
    12  H    3.341035   2.141234   1.102914   2.074554   3.273573
    13  H    3.343117   3.797474   3.302009   2.116069   1.102758
    14  H    2.114888   3.315806   3.741109   3.316749   2.104268
    15  H    4.509899   4.278698   3.152389   1.913878   2.379190
    16  H    4.287170   3.166239   3.677632   5.021207   5.769649
    17  H    1.915443   3.178875   4.240758   4.469309   3.663926
                    6          7          8          9         10
     6  C    0.000000
     7  O    3.574036   0.000000
     8  C    3.589911   4.690427   0.000000
     9  O    4.695797   4.875555   1.358343   0.000000
    10  O    4.127034   5.824791   1.212458   2.151213   0.000000
    11  O    2.318576   5.455502   2.858690   4.216827   2.648501
    12  H    3.739716   2.541277   2.583409   2.382744   3.795847
    13  H    2.117000   2.593052   5.163618   5.954528   5.969756
    14  H    1.103605   4.452661   4.496654   5.690297   4.835253
    15  H    3.713433   0.970871   5.468495   5.776173   6.549079
    16  H    5.460350   5.845570   1.899083   0.970644   2.151419
    17  H    2.325545   5.801771   3.806276   5.160995   3.607284
                   11         12         13         14         15
    11  O    0.000000
    12  H    4.532127   0.000000
    13  H    4.435551   4.182769   0.000000
    14  H    2.529613   4.842939   2.417958   0.000000
    15  H    5.832966   3.484204   2.181266   4.406426   0.000000
    16  H    4.623651   3.341668   6.858389   6.393479   6.746469
    17  H    0.970800   5.250468   4.341524   2.085857   6.030526
                   16         17
    16  H    0.000000
    17  H    5.592994   0.000000
 Stoichiometry    C7H6O4
 Framework group  C1[X(C7H6O4)]
 Deg. of freedom    45
 Full point group                 C1      NOp   1
 Largest Abelian subgroup         C1      NOp   1
 Largest concise Abelian subgroup C1      NOp   1
                         Standard orientation:                         
 ---------------------------------------------------------------------
 Center     Atomic      Atomic             Coordinates (Angstroms)
 Number     Number       Type             X           Y           Z
 ---------------------------------------------------------------------
      1          6           0        0.237791    1.214110   -0.000009
      2          6           0        0.460941   -0.119788   -0.000016
      3          6           0       -0.594262   -0.959029   -0.000029
      4          6           0       -1.867984   -0.531326   -0.000140
      5          6           0       -2.074468    0.793369   -0.000014
      6          6           0       -1.037820    1.641017    0.000032
      7          8           0       -2.914498   -1.400662   -0.000142
      8          6           0        1.717178   -0.660602    0.000001
      9          8           0        1.923688   -2.003154    0.000273
     10          8           0        2.742831   -0.014003   -0.000289
     11          8           0        1.223055    2.155060    0.000106
     12          1           0       -0.458523   -2.053559   -0.000011
     13          1           0       -3.105202    1.185368    0.000030
     14          1           0       -1.241356    2.725691    0.000123
     15          1           0       -3.746091   -0.899622    0.001037
     16          1           0        2.881419   -2.160954    0.000042
     17          1           0        0.820891    3.038642    0.000246
 ---------------------------------------------------------------------
 Rotational constants (GHZ):      1.8375354      0.9657642      0.6330490
 Standard basis: 6-31+G(d,p) (6D, 7F)
 There are   239 symmetry adapted cartesian basis functions of A   symmetry.
 There are   239 symmetry adapted basis functions of A   symmetry.
   239 basis functions,   394 primitive gaussians,   239 cartesian basis functions
    40 alpha electrons       40 beta electrons
       nuclear repulsion energy       605.4168659377 Hartrees.
 NAtoms=   17 NActive=   17 NUniq=   17 SFac= 1.00D+00 NAtFMM=   60 NAOKFM=F Big=F
 Integral buffers will be    131072 words long.
 Raffenetti 2 integral format.
 Two-electron integral symmetry is turned on.
 Nuclear repulsion after empirical dispersion term =      605.4026124474 Hartrees.
 One-electron integrals computed using PRISM.
 NBasis=   239 RedAO= T EigKep=  2.08D-06  NBF=   239
 NBsUse=   239 1.00D-06 EigRej= -1.00D+00 NBFU=   239
 ExpMin= 4.38D-02 ExpMax= 5.48D+03 ExpMxC= 8.25D+02 IAcc=2 IRadAn=         4 AccDes= 0.00D+00
 Harris functional with IExCor=20419 and IRadAn=       4 diagonalized for initial guess.
 HarFok:  IExCor=20419 AccDes= 0.00D+00 IRadAn=         4 IDoV= 1 UseB2=F ITyADJ=14
 ICtDFT=  3500011 ScaDFX=  1.000000  1.000000  1.000000  1.000000
 FoFCou: FMM=F IPFlag=           0 FMFlag=      100000 FMFlg1=           0
         NFxFlg=           0 DoJE=T BraDBF=F KetDBF=T FulRan=T
         wScrn=  0.000000 ICntrl=     500 IOpCl=  0 I1Cent=   200000004 NGrid=           0
         NMat0=    1 NMatS0=      1 NMatT0=    0 NMatD0=    1 NMtDS0=    0 NMtDT0=    0
 Petite list used in FoFCou.
 Keep R1 ints in memory in canonical form, NReq=829678955.
 Requested convergence on RMS density matrix=1.00D-08 within 128 cycles.
 Requested convergence on MAX density matrix=1.00D-06.
 Requested convergence on             energy=1.00D-06.
 No special actions if energy rises.
 SCF Done:  E(RCAM-B3LYP) =  -571.030908277     A.U. after   16 cycles
            NFock= 16  Conv=0.62D-08     -V/T= 2.0069

 **********************************************************************

            Population analysis using the SCF density.

 **********************************************************************

 Orbital symmetries:
       Occupied  (A) (A) (A) (A) (A) (A) (A) (A) (A) (A) (A) (A)
                 (A) (A) (A) (A) (A) (A) (A) (A) (A) (A) (A) (A)
                 (A) (A) (A) (A) (A) (A) (A) (A) (A) (A) (A) (A)
                 (A) (A) (A) (A)
       Virtual   (A) (A) (A) (A) (A) (A) (A) (A) (A) (A) (A) (A)
                 (A) (A) (A) (A) (A) (A) (A) (A) (A) (A) (A) (A)
                 (A) (A) (A) (A) (A) (A) (A) (A) (A) (A) (A) (A)
                 (A) (A) (A) (A) (A) (A) (A) (A) (A) (A) (A) (A)
                 (A) (A) (A) (A) (A) (A) (A) (A) (A) (A) (A) (A)
                 (A) (A) (A) (A) (A) (A) (A) (A) (A) (A) (A) (A)
                 (A) (A) (A) (A) (A) (A) (A) (A) (A) (A) (A) (A)
                 (A) (A) (A) (A) (A) (A) (A) (A) (A) (A) (A) (A)
                 (A) (A) (A) (A) (A) (A) (A) (A) (A) (A) (A) (A)
                 (A) (A) (A) (A) (A) (A) (A) (A) (A) (A) (A) (A)
                 (A) (A) (A) (A) (A) (A) (A) (A) (A) (A) (A) (A)
                 (A) (A) (A) (A) (A) (A) (A) (A) (A) (A) (A) (A)
                 (A) (A) (A) (A) (A) (A) (A) (A) (A) (A) (A) (A)
                 (A) (A) (A) (A) (A) (A) (A) (A) (A) (A) (A) (A)
                 (A) (A) (A) (A) (A) (A) (A) (A) (A) (A) (A) (A)
                 (A) (A) (A) (A) (A) (A) (A) (A) (A) (A) (A) (A)
                 (A) (A) (A) (A) (A) (A) (A)
 The electronic state is 1-A.
 Alpha  occ. eigenvalues --  -19.27179 -19.26746 -19.26412 -19.20237 -10.39133
 Alpha  occ. eigenvalues --  -10.34291 -10.33090 -10.28838 -10.28355 -10.28265
 Alpha  occ. eigenvalues --  -10.27872  -1.19357  -1.16321  -1.15938  -1.08224
 Alpha  occ. eigenvalues --   -0.99229  -0.89686  -0.85262  -0.77320  -0.73400
 Alpha  occ. eigenvalues --   -0.69287  -0.64852  -0.63381  -0.59801  -0.57735
 Alpha  occ. eigenvalues --   -0.54618  -0.54608  -0.52444  -0.51620  -0.50589
 Alpha  occ. eigenvalues --   -0.48667  -0.48047  -0.46070  -0.44240  -0.43318
 Alpha  occ. eigenvalues --   -0.40286  -0.38088  -0.34440  -0.33098  -0.28744
 Alpha virt. eigenvalues --   -0.01801   0.01229   0.02342   0.03898   0.04011
 Alpha virt. eigenvalues --    0.04860   0.07022   0.07385   0.07525   0.09022
 Alpha virt. eigenvalues --    0.09828   0.10470   0.10529   0.12069   0.12208
 Alpha virt. eigenvalues --    0.13662   0.15117   0.15417   0.16424   0.16507
 Alpha virt. eigenvalues --    0.17567   0.18290   0.19046   0.19353   0.19729
 Alpha virt. eigenvalues --    0.20340   0.22465   0.22869   0.22984   0.23231
 Alpha virt. eigenvalues --    0.23894   0.24440   0.25658   0.26360   0.27735
 Alpha virt. eigenvalues --    0.28146   0.28735   0.28783   0.30281   0.30534
 Alpha virt. eigenvalues --    0.30731   0.31983   0.32818   0.34073   0.34547
 Alpha virt. eigenvalues --    0.34604   0.35342   0.35911   0.36480   0.38294
 Alpha virt. eigenvalues --    0.39343   0.39736   0.40773   0.42333   0.43375
 Alpha virt. eigenvalues --    0.44266   0.45653   0.46919   0.50318   0.52768
 Alpha virt. eigenvalues --    0.55851   0.57316   0.60066   0.67944   0.69220
 Alpha virt. eigenvalues --    0.73421   0.75081   0.75739   0.76729   0.77039
 Alpha virt. eigenvalues --    0.78073   0.79301   0.81860   0.84180   0.84321
 Alpha virt. eigenvalues --    0.86097   0.89941   0.91314   0.92442   0.93664
 Alpha virt. eigenvalues --    0.97205   0.98206   1.04683   1.05964   1.07890
 Alpha virt. eigenvalues --    1.09979   1.12856   1.16337   1.16669   1.20744
 Alpha virt. eigenvalues --    1.21597   1.22725   1.24286   1.25205   1.26721
 Alpha virt. eigenvalues --    1.27202   1.27692   1.30353   1.30670   1.31285
 Alpha virt. eigenvalues --    1.31845   1.35526   1.36471   1.37147   1.37896
 Alpha virt. eigenvalues --    1.39971   1.43047   1.43114   1.45307   1.46149
 Alpha virt. eigenvalues --    1.47041   1.47736   1.49541   1.50401   1.51021
 Alpha virt. eigenvalues --    1.54218   1.57740   1.64718   1.66423   1.67439
 Alpha virt. eigenvalues --    1.67445   1.78754   1.80497   1.84191   1.85521
 Alpha virt. eigenvalues --    1.86800   1.93011   1.93121   1.94046   1.97753
 Alpha virt. eigenvalues --    1.98628   1.98840   1.99943   2.01906   2.03418
 Alpha virt. eigenvalues --    2.04302   2.11855   2.14007   2.14610   2.16382
 Alpha virt. eigenvalues --    2.19164   2.21409   2.27751   2.32916   2.34913
 Alpha virt. eigenvalues --    2.35910   2.40043   2.42202   2.42679   2.44938
 Alpha virt. eigenvalues --    2.48706   2.49327   2.51397   2.53473   2.57044
 Alpha virt. eigenvalues --    2.58403   2.59105   2.61634   2.63501   2.63529
 Alpha virt. eigenvalues --    2.67567   2.68417   2.70005   2.72136   2.73239
 Alpha virt. eigenvalues --    2.76608   2.79420   2.85128   2.86110   2.88824
 Alpha virt. eigenvalues --    2.89986   2.93908   2.98471   3.04614   3.12570
 Alpha virt. eigenvalues --    3.16086   3.21905   3.26589   3.28287   3.32255
 Alpha virt. eigenvalues --    3.36119   3.40749   3.51286   3.57530   3.59277
 Alpha virt. eigenvalues --    3.59762   3.68689   3.98650   4.27077   4.31944
 Alpha virt. eigenvalues --    4.36113   4.42458   4.47969   4.54425   4.61040
 Alpha virt. eigenvalues --    4.66245   4.70712   4.92445   5.12796
          Condensed to atoms (all electrons):
               1          2          3          4          5          6
     1  C   20.753924  -7.142781  -6.554737   0.352016   1.462576  -0.763164
     2  C   -7.142781  17.655426  -1.368894   0.211656  -1.268633  -1.564199
     3  C   -6.554737  -1.368894  19.317548  -4.485609  -1.328706  -0.294013
     4  C    0.352016   0.211656  -4.485609  10.523603  -0.273403   0.296257
     5  C    1.462576  -1.268633  -1.328706  -0.273403   7.135790  -0.290386
     6  C   -0.763164  -1.564199  -0.294013   0.296257  -0.290386   8.718829
     7  O   -0.046655   0.038629  -0.059972  -0.072175  -0.023952   0.071026
     8  C   -1.155794  -0.443949   0.371784  -0.518718   0.067988  -0.607415
     9  O   -0.156943  -0.404201   0.200237   0.145121  -0.001900  -0.004090
    10  O    0.006774  -0.304353  -0.108617   0.077946   0.016218   0.047777
    11  O    0.220231  -0.486606   0.080602  -0.014762   0.071540   0.270374
    12  H    0.052098   0.026270   0.129482   0.073723   0.040633  -0.016548
    13  H    0.000124   0.001902  -0.018461   0.044948   0.202690   0.082948
    14  H    0.053270   0.005848  -0.037408   0.001843   0.088396   0.196028
    15  H   -0.003924  -0.011872   0.155647  -0.038486  -0.096194  -0.000485
    16  H   -0.004324   0.108621  -0.017464  -0.012237  -0.000479   0.005900
    17  H   -0.033475   0.238485  -0.007349   0.007952  -0.007409  -0.218580
               7          8          9         10         11         12
     1  C   -0.046655  -1.155794  -0.156943   0.006774   0.220231   0.052098
     2  C    0.038629  -0.443949  -0.404201  -0.304353  -0.486606   0.026270
     3  C   -0.059972   0.371784   0.200237  -0.108617   0.080602   0.129482
     4  C   -0.072175  -0.518718   0.145121   0.077946  -0.014762   0.073723
     5  C   -0.023952   0.067988  -0.001900   0.016218   0.071540   0.040633
     6  C    0.071026  -0.607415  -0.004090   0.047777   0.270374  -0.016548
     7  O    8.483284  -0.006284   0.000440   0.000068   0.000349  -0.006743
     8  C   -0.006284   6.874967   0.215620   0.523603  -0.224901   0.007296
     9  O    0.000440   0.215620   8.561172  -0.233155   0.000833  -0.001890
    10  O    0.000068   0.523603  -0.233155   8.470302  -0.017984   0.001032
    11  O    0.000349  -0.224901   0.000833  -0.017984   8.464894  -0.000455
    12  H   -0.006743   0.007296  -0.001890   0.001032  -0.000455   0.512416
    13  H   -0.017993   0.001172   0.000001   0.000015  -0.000632  -0.000214
    14  H   -0.000816   0.012185   0.000003  -0.000015  -0.021551   0.000016
    15  H    0.203909   0.003333   0.000013   0.000001  -0.000013  -0.000124
    16  H   -0.000004  -0.048092   0.203641   0.007912   0.000122   0.000113
    17  H   -0.000011   0.035957   0.000029   0.001677   0.161689   0.000004
              13         14         15         16         17
     1  C    0.000124   0.053270  -0.003924  -0.004324  -0.033475
     2  C    0.001902   0.005848  -0.011872   0.108621   0.238485
     3  C   -0.018461  -0.037408   0.155647  -0.017464  -0.007349
     4  C    0.044948   0.001843  -0.038486  -0.012237   0.007952
     5  C    0.202690   0.088396  -0.096194  -0.000479  -0.007409
     6  C    0.082948   0.196028  -0.000485   0.005900  -0.218580
     7  O   -0.017993  -0.000816   0.203909  -0.000004  -0.000011
     8  C    0.001172   0.012185   0.003333  -0.048092   0.035957
     9  O    0.000001   0.000003   0.000013   0.203641   0.000029
    10  O    0.000015  -0.000015   0.000001   0.007912   0.001677
    11  O   -0.000632  -0.021551  -0.000013   0.000122   0.161689
    12  H   -0.000214   0.000016  -0.000124   0.000113   0.000004
    13  H    0.581384  -0.006352   0.008357  -0.000000  -0.000028
    14  H   -0.006352   0.579685  -0.000012  -0.000000   0.010920
    15  H    0.008357  -0.000012   0.422301   0.000000   0.000000
    16  H   -0.000000  -0.000000   0.000000   0.360800  -0.000001
    17  H   -0.000028   0.010920   0.000000  -0.000001   0.445118
 Mulliken charges:
               1
     1  C   -1.039217
     2  C    0.708653
     3  C    0.025929
     4  C   -0.319675
     5  C    0.205230
     6  C    0.069742
     7  O   -0.563101
     8  C    0.891247
     9  O   -0.524931
    10  O   -0.489202
    11  O   -0.503730
    12  H    0.182891
    13  H    0.120140
    14  H    0.117961
    15  H    0.357550
    16  H    0.395492
    17  H    0.365022
 Sum of Mulliken charges =  -0.00000
 Mulliken charges with hydrogens summed into heavy atoms:
               1
     1  C   -1.039217
     2  C    0.708653
     3  C    0.208821
     4  C   -0.319675
     5  C    0.325370
     6  C    0.187702
     7  O   -0.205551
     8  C    0.891247
     9  O   -0.129439
    10  O   -0.489202
    11  O   -0.138709
 Electronic spatial extent (au):  <R**2>=           1669.6851
 Charge=             -0.0000 electrons
 Dipole moment (field-independent basis, Debye):
    X=             -4.2778    Y=              2.0868    Z=              0.0023  Tot=              4.7596
 Quadrupole moment (field-independent basis, Debye-Ang):
   XX=            -59.2710   YY=            -55.6242   ZZ=            -64.6975
   XY=            -10.9062   XZ=             -0.0077   YZ=              0.0007
 Traceless Quadrupole moment (field-independent basis, Debye-Ang):
   XX=              0.5932   YY=              4.2400   ZZ=             -4.8332
   XY=            -10.9062   XZ=             -0.0077   YZ=              0.0007
 Octapole moment (field-independent basis, Debye-Ang**2):
  XXX=            -53.6058  YYY=             37.2590  ZZZ=              0.0009  XYY=             18.3179
  XXY=            -17.6475  XXZ=              0.0382  XZZ=              6.7898  YZZ=             -2.3444
  YYZ=              0.0025  XYZ=              0.0110
 Hexadecapole moment (field-independent basis, Debye-Ang**3):
 XXXX=          -1082.7588 YYYY=           -599.1282 ZZZZ=            -66.6612 XXXY=            -93.7971
 XXXZ=             -0.1239 YYYX=            -24.2278 YYYZ=              0.0193 ZZZX=             -0.0043
 ZZZY=             -0.0001 XXYY=           -319.4980 XXZZ=           -234.2190 YYZZ=           -140.4318
 XXYZ=             -0.0273 YYXZ=             -0.0115 ZZXY=              2.7297
 N-N= 6.054026124474D+02 E-N=-2.546823859415D+03  KE= 5.671361674494D+02
 Calling FoFJK, ICntrl=      2127 FMM=F ISym2X=0 I1Cent= 0 IOpClX= 0 NMat=1 NMatS=1 NMatT=0.
 ***** Axes restored to original set *****
 -------------------------------------------------------------------
 Center     Atomic                   Forces (Hartrees/Bohr)
 Number     Number              X              Y              Z
 -------------------------------------------------------------------
      1        6           0.039306709   -0.046417436   -0.000017143
      2        6          -0.025406796    0.001189648    0.000008666
      3        6          -0.026727673    0.071862693    0.000007836
      4        6          -0.032008638    0.016743309   -0.000011185
      5        6          -0.052239004   -0.037148062    0.000037679
      6        6          -0.008831131   -0.062629394    0.000015818
      7        8          -0.007796347    0.006335188   -0.000006257
      8        6           0.111411107    0.050633973   -0.000052142
      9        8          -0.035615358    0.011217466    0.000006667
     10        8           0.013071167   -0.022097038    0.000004711
     11        8           0.004640151    0.004096215   -0.000000712
     12        1           0.007044736   -0.011519452   -0.000002119
     13        1           0.008477812    0.003169814   -0.000002589
     14        1           0.000947659    0.010093999   -0.000001790
     15        1           0.004728115    0.006244261    0.000011746
     16        1          -0.001998439   -0.008810137    0.000001085
     17        1           0.000995929    0.007034953   -0.000000271
 -------------------------------------------------------------------
 Cartesian Forces:  Max     0.111411107 RMS     0.027068796

 GradGradGradGradGradGradGradGradGradGradGradGradGradGradGradGradGradGrad
 Berny optimization.
 FormGI is forming the generalized inverse of G from B-inverse, IUseBI=4.
 Internal  Forces:  Max     0.089925171 RMS     0.020975098
 Search for a local minimum.
 Step number   1 out of a maximum of   85
 All quantities printed in internal units (Hartrees-Bohrs-Radians)
 Mixed Optimization -- RFO/linear search
 Second derivative matrix not updated -- first step.
 ITU=  0
     Eigenvalues ---    0.02189   0.02214   0.02243   0.02437   0.02516
     Eigenvalues ---    0.02655   0.02679   0.02730   0.02753   0.02802
     Eigenvalues ---    0.02827   0.02852   0.02868   0.02884   0.16000
     Eigenvalues ---    0.16000   0.16000   0.16000   0.16000   0.16000
     Eigenvalues ---    0.22368   0.23478   0.24600   0.25000   0.25000
     Eigenvalues ---    0.25000   0.25000   0.25000   0.33287   0.33362
     Eigenvalues ---    0.33379   0.49595   0.50111   0.51421   0.52466
     Eigenvalues ---    0.52848   0.53199   0.53214   0.53246   0.53284
     Eigenvalues ---    0.55205   0.56223   0.56286   0.57106   0.98805
 RFO step:  Lambda=-6.19490412D-02 EMin= 2.18917031D-02
 Linear search not attempted -- first point.
 Maximum step size (   0.300) exceeded in Quadratic search.
    -- Step size scaled by   0.838
 Iteration  1 RMS(Cart)=  0.05821931 RMS(Int)=  0.00162525
 Iteration  2 RMS(Cart)=  0.00230737 RMS(Int)=  0.00000709
 Iteration  3 RMS(Cart)=  0.00000174 RMS(Int)=  0.00000702
 Iteration  4 RMS(Cart)=  0.00000000 RMS(Int)=  0.00000702
 Variable       Old X    -DE/DX   Delta X   Delta X   Delta X     New X
                                 (Linear)    (Quad)   (Total)
    R1        2.55573   0.05965   0.00000   0.08242   0.08243   2.63816
    R2        2.54197   0.05776   0.00000   0.07799   0.07801   2.61998
    R3        2.57456  -0.00167   0.00000  -0.00239  -0.00239   2.57217
    R4        2.54782   0.06047   0.00000   0.08205   0.08205   2.62987
    R5        2.58458   0.08993   0.00000   0.13074   0.13074   2.71532
    R6        2.53906   0.04560   0.00000   0.06074   0.06073   2.59979
    R7        2.08421  -0.01176   0.00000  -0.02491  -0.02491   2.05930
    R8        2.53354   0.06220   0.00000   0.08229   0.08228   2.61582
    R9        2.57096   0.00904   0.00000   0.01283   0.01283   2.58379
   R10        2.53050   0.05273   0.00000   0.06962   0.06962   2.60012
   R11        2.08391  -0.00893   0.00000  -0.01890  -0.01890   2.06501
   R12        2.08551  -0.01012   0.00000  -0.02146  -0.02146   2.06405
   R13        1.83468  -0.00764   0.00000  -0.01077  -0.01077   1.82391
   R14        2.56690   0.00265   0.00000   0.00373   0.00373   2.57063
   R15        2.29121   0.02070   0.00000   0.01651   0.01651   2.30772
   R16        1.83425  -0.00469   0.00000  -0.00661  -0.00661   1.82765
   R17        1.83455  -0.00705   0.00000  -0.00994  -0.00994   1.82461
    A1        2.05950   0.00273   0.00000   0.00843   0.00846   2.06796
    A2        2.16744  -0.01646   0.00000  -0.04475  -0.04477   2.12267
    A3        2.05624   0.01373   0.00000   0.03632   0.03631   2.09256
    A4        2.07693  -0.00104   0.00000  -0.00262  -0.00261   2.07432
    A5        2.14307  -0.00206   0.00000  -0.00563  -0.00564   2.13744
    A6        2.06318   0.00311   0.00000   0.00825   0.00825   2.07143
    A7        2.14574  -0.00305   0.00000  -0.00967  -0.00968   2.13606
    A8        2.11930  -0.00538   0.00000  -0.02123  -0.02122   2.09808
    A9        2.01814   0.00843   0.00000   0.03090   0.03091   2.04905
   A10        2.04938   0.00574   0.00000   0.01500   0.01497   2.06435
   A11        2.12445  -0.01635   0.00000  -0.04368  -0.04367   2.08078
   A12        2.10935   0.01060   0.00000   0.02869   0.02870   2.13805
   A13        2.10160  -0.00127   0.00000  -0.00323  -0.00323   2.09836
   A14        2.08884   0.00218   0.00000   0.00746   0.00746   2.09631
   A15        2.09275  -0.00092   0.00000  -0.00423  -0.00423   2.08852
   A16        2.13321  -0.00312   0.00000  -0.00791  -0.00790   2.12531
   A17        2.07924   0.00085   0.00000   0.00127   0.00126   2.08050
   A18        2.07074   0.00227   0.00000   0.00664   0.00664   2.07737
   A19        1.90615   0.00315   0.00000   0.01189   0.01189   1.91804
   A20        2.12994  -0.04331   0.00000  -0.11630  -0.11630   2.01364
   A21        2.17258   0.00426   0.00000   0.01143   0.01143   2.18401
   A22        1.98067   0.03905   0.00000   0.10487   0.10487   2.08553
   A23        1.88672  -0.01416   0.00000  -0.05344  -0.05344   1.83328
   A24        1.90606  -0.00165   0.00000  -0.00624  -0.00624   1.89982
    D1        0.00004  -0.00000   0.00000  -0.00002  -0.00002   0.00002
    D2       -3.14154  -0.00000   0.00000  -0.00002  -0.00002  -3.14157
    D3        3.14150   0.00000   0.00000   0.00002   0.00002   3.14152
    D4       -0.00008   0.00000   0.00000   0.00002   0.00002  -0.00006
    D5       -0.00007   0.00000   0.00000   0.00002   0.00002  -0.00005
    D6        3.14150   0.00000   0.00000   0.00003   0.00003   3.14153
    D7       -3.14154  -0.00000   0.00000  -0.00002  -0.00002  -3.14156
    D8        0.00003  -0.00000   0.00000  -0.00001  -0.00001   0.00002
    D9       -3.14142  -0.00000   0.00000  -0.00003  -0.00003  -3.14145
   D10        0.00004   0.00000   0.00000   0.00001   0.00001   0.00006
   D11        0.00009  -0.00000   0.00000  -0.00001  -0.00001   0.00008
   D12       -3.14157   0.00000   0.00000   0.00000   0.00000  -3.14156
   D13       -3.14151  -0.00000   0.00000  -0.00001  -0.00001  -3.14152
   D14        0.00002   0.00000   0.00000   0.00000   0.00000   0.00002
   D15        3.14135  -0.00000   0.00000  -0.00002  -0.00002   3.14133
   D16       -0.00031   0.00000   0.00000   0.00002   0.00002  -0.00030
   D17       -0.00023  -0.00000   0.00000  -0.00002  -0.00002  -0.00025
   D18        3.14129   0.00000   0.00000   0.00002   0.00002   3.14131
   D19       -0.00019   0.00000   0.00000   0.00004   0.00004  -0.00015
   D20       -3.14158  -0.00001   0.00000  -0.00004  -0.00004   3.14156
   D21        3.14146   0.00000   0.00000   0.00003   0.00003   3.14150
   D22        0.00007  -0.00001   0.00000  -0.00005  -0.00005   0.00002
   D23        0.00016  -0.00000   0.00000  -0.00005  -0.00005   0.00011
   D24       -3.14146  -0.00000   0.00000  -0.00004  -0.00004  -3.14150
   D25        3.14155   0.00000   0.00000   0.00003   0.00003   3.14159
   D26       -0.00006   0.00000   0.00000   0.00003   0.00004  -0.00003
   D27        3.14021   0.00001   0.00000   0.00009   0.00009   3.14030
   D28       -0.00118  -0.00000   0.00000   0.00000   0.00000  -0.00117
   D29       -0.00003   0.00000   0.00000   0.00002   0.00002  -0.00001
   D30        3.14158   0.00000   0.00000   0.00001   0.00001   3.14159
   D31        3.14158   0.00000   0.00000   0.00001   0.00001  -3.14159
   D32        0.00001   0.00000   0.00000   0.00001   0.00001   0.00002
   D33        3.14139   0.00000   0.00000   0.00004   0.00004   3.14143
   D34       -0.00014   0.00000   0.00000   0.00001   0.00001  -0.00013
         Item               Value     Threshold  Converged?
 Maximum Force            0.089925     0.000450     NO 
 RMS     Force            0.020975     0.000300     NO 
 Maximum Displacement     0.188941     0.001800     NO 
 RMS     Displacement     0.057635     0.001200     NO 
 Predicted change in Energy=-3.294574D-02
 GradGradGradGradGradGradGradGradGradGradGradGradGradGradGradGradGradGrad

                          Input orientation:                          
 ---------------------------------------------------------------------
 Center     Atomic      Atomic             Coordinates (Angstroms)
 Number     Number       Type             X           Y           Z
 ---------------------------------------------------------------------
      1          6           0        0.708410   -1.047111   -0.000410
      2          6           0        0.729873    0.348778   -0.000734
      3          6           0       -0.478604    1.038939   -0.000358
      4          6           0       -1.694645    0.395562    0.000421
      5          6           0       -1.704226   -0.988637    0.000660
      6          6           0       -0.520201   -1.689535    0.000257
      7          8           0       -2.842671    1.138187    0.000792
      8          6           0        1.953902    1.101370   -0.001456
      9          8           0        1.806703    2.453701   -0.002013
     10          8           0        3.075671    0.618720   -0.001557
     11          8           0        1.856367   -1.778466   -0.000833
     12          1           0       -0.487738    2.128634   -0.000629
     13          1           0       -2.653308   -1.530266    0.001190
     14          1           0       -0.550686   -2.781359    0.000459
     15          1           0       -3.611393    0.554559    0.000159
     16          1           0        2.708085    2.804251   -0.002301
     17          1           0        1.628525   -2.716739   -0.000639
 ---------------------------------------------------------------------
                    Distance matrix (angstroms):
                    1          2          3          4          5
     1  C    0.000000
     2  C    1.396054   0.000000
     3  C    2.400127   1.391668   0.000000
     4  C    2.802852   2.424970   1.375751   0.000000
     5  C    2.413345   2.777323   2.369223   1.384231   0.000000
     6  C    1.386432   2.391111   2.728792   2.393104   1.375927
     7  O    4.169617   3.658721   2.366150   1.367280   2.412350
     8  C    2.483389   1.436886   2.433308   3.716190   4.213079
     9  O    3.669051   2.364374   2.687783   4.061451   4.916942
    10  O    2.894637   2.361279   3.579031   4.775534   5.042918
    11  O    1.361134   2.407106   3.659216   4.163663   3.647144
    12  H    3.393542   2.156493   1.089733   2.111910   3.346225
    13  H    3.396260   3.869977   3.366029   2.151243   1.092757
    14  H    2.143114   3.381951   3.820978   3.376606   2.131785
    15  H    4.607172   4.346140   3.170014   1.923330   2.453311
    16  H    4.339550   3.153200   3.642982   5.018548   5.818462
    17  H    1.906377   3.194522   4.306404   4.553008   3.754141
                    6          7          8          9         10
     6  C    0.000000
     7  O    3.659218   0.000000
     8  C    3.729657   4.796715   0.000000
     9  O    4.751936   4.831901   1.360319   0.000000
    10  O    4.272979   5.941097   1.221195   2.231016   0.000000
    11  O    2.378232   5.530626   2.881487   4.232459   2.689462
    12  H    3.818307   2.554740   2.648940   2.317354   3.870107
    13  H    2.139044   2.675163   5.305836   5.980275   6.118770
    14  H    1.092249   4.540488   4.620449   5.741353   4.971017
    15  H    3.819872   0.965170   5.592094   5.741298   6.687372
    16  H    5.533168   5.795401   1.862417   0.967148   2.216227
    17  H    2.381633   5.903563   3.831948   5.173509   3.635866
                   11         12         13         14         15
    11  O    0.000000
    12  H    4.556343   0.000000
    13  H    4.516500   4.251734   0.000000
    14  H    2.607623   4.910396   2.446682   0.000000
    15  H    5.944695   3.497846   2.294433   4.527280   0.000000
    16  H    4.661193   3.266458   6.894387   6.466732   6.707974
    17  H    0.965540   5.287364   4.443177   2.180170   6.177227
                   16         17
    16  H    0.000000
    17  H    5.625547   0.000000
 Stoichiometry    C7H6O4
 Framework group  C1[X(C7H6O4)]
 Deg. of freedom    45
 Full point group                 C1      NOp   1
 Largest Abelian subgroup         C1      NOp   1
 Largest concise Abelian subgroup C1      NOp   1
                         Standard orientation:                         
 ---------------------------------------------------------------------
 Center     Atomic      Atomic             Coordinates (Angstroms)
 Number     Number       Type             X           Y           Z
 ---------------------------------------------------------------------
      1          6           0        0.250175    1.258067    0.000008
      2          6           0        0.475350   -0.119708   -0.000015
      3          6           0       -0.619326   -0.979024   -0.000026
      4          6           0       -1.916318   -0.520216   -0.000112
      5          6           0       -2.128030    0.847729   -0.000013
      6          6           0       -1.059112    1.714095    0.000038
      7          8           0       -2.943526   -1.422601   -0.000158
      8          6           0        1.796200   -0.685391   -0.000016
      9          8           0        1.848158   -2.044717    0.000279
     10          8           0        2.835416   -0.044028   -0.000293
     11          8           0        1.278961    2.149293    0.000101
     12          1           0       -0.469156   -2.058360   -0.000015
     13          1           0       -3.146060    1.244884    0.000007
     14          1           0       -1.248788    2.789749    0.000114
     15          1           0       -3.789267   -0.957548    0.000956
     16          1           0        2.791084   -2.259812    0.000084
     17          1           0        0.916482    3.044210    0.000235
 ---------------------------------------------------------------------
 Rotational constants (GHZ):      1.7701300      0.9331841      0.6110489
 Standard basis: 6-31+G(d,p) (6D, 7F)
 There are   239 symmetry adapted cartesian basis functions of A   symmetry.
 There are   239 symmetry adapted basis functions of A   symmetry.
   239 basis functions,   394 primitive gaussians,   239 cartesian basis functions
    40 alpha electrons       40 beta electrons
       nuclear repulsion energy       594.2713355997 Hartrees.
 NAtoms=   17 NActive=   17 NUniq=   17 SFac= 1.00D+00 NAtFMM=   60 NAOKFM=F Big=F
 Integral buffers will be    131072 words long.
 Raffenetti 2 integral format.
 Two-electron integral symmetry is turned on.
 Nuclear repulsion after empirical dispersion term =      594.2571489663 Hartrees.
 One-electron integrals computed using PRISM.
 NBasis=   239 RedAO= T EigKep=  2.82D-06  NBF=   239
 NBsUse=   239 1.00D-06 EigRej= -1.00D+00 NBFU=   239
 Initial guess from the checkpoint file:  "lwcamDHB.chk"
 B after Tr=    -0.000000   -0.000000    0.000000
         Rot=    0.999983   -0.000000    0.000001    0.005843 Ang=  -0.67 deg.
 ExpMin= 4.38D-02 ExpMax= 5.48D+03 ExpMxC= 8.25D+02 IAcc=2 IRadAn=         4 AccDes= 0.00D+00
 Harris functional with IExCor=20419 and IRadAn=       4 diagonalized for initial guess.
 HarFok:  IExCor=20419 AccDes= 0.00D+00 IRadAn=         4 IDoV= 1 UseB2=F ITyADJ=14
 ICtDFT=  3500011 ScaDFX=  1.000000  1.000000  1.000000  1.000000
 FoFCou: FMM=F IPFlag=           0 FMFlag=      100000 FMFlg1=           0
         NFxFlg=           0 DoJE=T BraDBF=F KetDBF=T FulRan=T
         wScrn=  0.000000 ICntrl=     500 IOpCl=  0 I1Cent=   200000004 NGrid=           0
         NMat0=    1 NMatS0=      1 NMatT0=    0 NMatD0=    1 NMtDS0=    0 NMtDT0=    0
 Petite list used in FoFCou.
 Keep R1 ints in memory in canonical form, NReq=829678955.
 Requested convergence on RMS density matrix=1.00D-08 within 128 cycles.
 Requested convergence on MAX density matrix=1.00D-06.
 Requested convergence on             energy=1.00D-06.
 No special actions if energy rises.
 SCF Done:  E(RCAM-B3LYP) =  -571.061416287     A.U. after   14 cycles
            NFock= 14  Conv=0.33D-08     -V/T= 2.0085
 Calling FoFJK, ICntrl=      2127 FMM=F ISym2X=0 I1Cent= 0 IOpClX= 0 NMat=1 NMatS=1 NMatT=0.
 ***** Axes restored to original set *****
 -------------------------------------------------------------------
 Center     Atomic                   Forces (Hartrees/Bohr)
 Number     Number              X              Y              Z
 -------------------------------------------------------------------
      1        6           0.007847371   -0.010488869   -0.000007529
      2        6          -0.017975390   -0.003380880    0.000008259
      3        6          -0.007176117    0.018468702    0.000009501
      4        6          -0.003754173   -0.002200745   -0.000016553
      5        6          -0.012974262   -0.005386110    0.000012223
      6        6          -0.000744291   -0.013298674    0.000002319
      7        8           0.000600005    0.000922372   -0.000003111
      8        6           0.044432350    0.006963324   -0.000014992
      9        8          -0.006772544   -0.005312153    0.000006342
     10        8          -0.011568249    0.005278406    0.000000718
     11        8          -0.002376896    0.004731744    0.000001742
     12        1           0.002897715   -0.004664697   -0.000001136
     13        1           0.003415167    0.001275564   -0.000000508
     14        1           0.000579540    0.003553630   -0.000000642
     15        1           0.000782611    0.001445466    0.000006407
     16        1           0.002029497    0.001264453   -0.000003388
     17        1           0.000757666    0.000828468    0.000000348
 -------------------------------------------------------------------
 Cartesian Forces:  Max     0.044432350 RMS     0.008455483

 GradGradGradGradGradGradGradGradGradGradGradGradGradGradGradGradGradGrad
 Berny optimization.
 Using GEDIIS/GDIIS optimizer.
 FormGI is forming the generalized inverse of G from B-inverse, IUseBI=4.
 Internal  Forces:  Max     0.028245855 RMS     0.004995754
 Search for a local minimum.
 Step number   2 out of a maximum of   85
 All quantities printed in internal units (Hartrees-Bohrs-Radians)
 Mixed Optimization -- RFO/linear search
 Update second derivatives using D2CorX and points    1    2
 DE= -3.05D-02 DEPred=-3.29D-02 R= 9.26D-01
 TightC=F SS=  1.41D+00  RLast= 3.00D-01 DXNew= 5.0454D-01 9.0000D-01
 Trust test= 9.26D-01 RLast= 3.00D-01 DXMaxT set to 5.05D-01
 ITU=  1  0
 Use linear search instead of GDIIS.
     Eigenvalues ---    0.02189   0.02214   0.02243   0.02432   0.02516
     Eigenvalues ---    0.02658   0.02679   0.02733   0.02753   0.02803
     Eigenvalues ---    0.02827   0.02852   0.02868   0.02884   0.15947
     Eigenvalues ---    0.16000   0.16000   0.16000   0.16000   0.16221
     Eigenvalues ---    0.22353   0.23313   0.24474   0.24690   0.25000
     Eigenvalues ---    0.25000   0.25000   0.26563   0.33188   0.33316
     Eigenvalues ---    0.33373   0.48339   0.50011   0.50385   0.52478
     Eigenvalues ---    0.52873   0.53192   0.53211   0.53260   0.53315
     Eigenvalues ---    0.55214   0.56275   0.57085   0.60536   1.01614
 RFO step:  Lambda=-1.96093821D-03 EMin= 2.18917031D-02
 Quartic linear search produced a step of  0.30163.
 Iteration  1 RMS(Cart)=  0.02284712 RMS(Int)=  0.00030362
 Iteration  2 RMS(Cart)=  0.00048573 RMS(Int)=  0.00000221
 Iteration  3 RMS(Cart)=  0.00000007 RMS(Int)=  0.00000221
 Variable       Old X    -DE/DX   Delta X   Delta X   Delta X     New X
                                 (Linear)    (Quad)   (Total)
    R1        2.63816   0.00915   0.02486  -0.00554   0.01932   2.65748
    R2        2.61998   0.00916   0.02353  -0.00449   0.01903   2.63901
    R3        2.57217  -0.00435  -0.00072  -0.00996  -0.01068   2.56149
    R4        2.62987   0.00928   0.02475  -0.00548   0.01927   2.64914
    R5        2.71532   0.02825   0.03943   0.02809   0.06753   2.78285
    R6        2.59979   0.00794   0.01832  -0.00179   0.01653   2.61632
    R7        2.05930  -0.00469  -0.00751  -0.00992  -0.01743   2.04187
    R8        2.61582   0.00968   0.02482  -0.00498   0.01984   2.63566
    R9        2.58379   0.00012   0.00387  -0.00393  -0.00006   2.58373
   R10        2.60012   0.00970   0.02100  -0.00088   0.02012   2.62024
   R11        2.06501  -0.00360  -0.00570  -0.00767  -0.01337   2.05164
   R12        2.06405  -0.00357  -0.00647  -0.00674  -0.01322   2.05084
   R13        1.82391  -0.00149  -0.00325  -0.00009  -0.00334   1.82057
   R14        2.57063  -0.00350   0.00113  -0.00976  -0.00863   2.56200
   R15        2.30772  -0.01271   0.00498  -0.02213  -0.01715   2.29057
   R16        1.82765   0.00235  -0.00199   0.00790   0.00590   1.83355
   R17        1.82461  -0.00099  -0.00300   0.00087  -0.00212   1.82248
    A1        2.06796   0.00202   0.00255   0.00806   0.01061   2.07857
    A2        2.12267  -0.00643  -0.01350  -0.01847  -0.03197   2.09070
    A3        2.09256   0.00440   0.01095   0.01041   0.02136   2.11392
    A4        2.07432   0.00044  -0.00079   0.00319   0.00240   2.07672
    A5        2.13744  -0.00336  -0.00170  -0.01548  -0.01718   2.12026
    A6        2.07143   0.00292   0.00249   0.01229   0.01478   2.08621
    A7        2.13606  -0.00298  -0.00292  -0.01394  -0.01686   2.11920
    A8        2.09808  -0.00145  -0.00640  -0.00783  -0.01423   2.08384
    A9        2.04905   0.00443   0.00932   0.02178   0.03110   2.08015
   A10        2.06435   0.00366   0.00452   0.01480   0.01932   2.08368
   A11        2.08078  -0.00598  -0.01317  -0.01672  -0.02989   2.05089
   A12        2.13805   0.00231   0.00866   0.00192   0.01057   2.14862
   A13        2.09836  -0.00132  -0.00098  -0.00525  -0.00622   2.09214
   A14        2.09631   0.00127   0.00225   0.00553   0.00778   2.10408
   A15        2.08852   0.00005  -0.00128  -0.00028  -0.00156   2.08696
   A16        2.12531  -0.00182  -0.00238  -0.00686  -0.00925   2.11607
   A17        2.08050   0.00041   0.00038   0.00033   0.00071   2.08121
   A18        2.07737   0.00141   0.00200   0.00653   0.00853   2.08591
   A19        1.91804   0.00123   0.00359   0.00586   0.00945   1.92750
   A20        2.01364  -0.00960  -0.03508  -0.01075  -0.04583   1.96781
   A21        2.18401   0.00512   0.00345   0.02265   0.02610   2.21011
   A22        2.08553   0.00448   0.03163  -0.01190   0.01973   2.10527
   A23        1.83328   0.00082  -0.01612   0.02466   0.00854   1.84182
   A24        1.89982   0.00099  -0.00188   0.01008   0.00820   1.90803
    D1        0.00002  -0.00000  -0.00001  -0.00006  -0.00006  -0.00005
    D2       -3.14157  -0.00000  -0.00001  -0.00006  -0.00006   3.14156
    D3        3.14152   0.00000   0.00001   0.00005   0.00005   3.14157
    D4       -0.00006   0.00000   0.00001   0.00005   0.00005  -0.00001
    D5       -0.00005   0.00000   0.00001   0.00004   0.00005  -0.00000
    D6        3.14153   0.00000   0.00001   0.00008   0.00009  -3.14157
    D7       -3.14156  -0.00000  -0.00001  -0.00006  -0.00007   3.14156
    D8        0.00002  -0.00000  -0.00000  -0.00002  -0.00003  -0.00000
    D9       -3.14145  -0.00000  -0.00001  -0.00008  -0.00009  -3.14154
   D10        0.00006   0.00000   0.00000   0.00002   0.00002   0.00008
   D11        0.00008  -0.00000  -0.00000  -0.00003  -0.00003   0.00006
   D12       -3.14156   0.00000   0.00000   0.00001   0.00001  -3.14155
   D13       -3.14152  -0.00000  -0.00000  -0.00003  -0.00003  -3.14155
   D14        0.00002   0.00000   0.00000   0.00001   0.00001   0.00003
   D15        3.14133  -0.00000  -0.00001  -0.00003  -0.00003   3.14130
   D16       -0.00030   0.00000   0.00001   0.00003   0.00004  -0.00026
   D17       -0.00025  -0.00000  -0.00000  -0.00003  -0.00003  -0.00028
   D18        3.14131   0.00000   0.00001   0.00003   0.00004   3.14135
   D19       -0.00015   0.00000   0.00001   0.00012   0.00014  -0.00001
   D20        3.14156  -0.00000  -0.00001  -0.00010  -0.00011   3.14145
   D21        3.14150   0.00000   0.00001   0.00009   0.00010  -3.14159
   D22        0.00002  -0.00000  -0.00002  -0.00014  -0.00015  -0.00013
   D23        0.00011  -0.00000  -0.00001  -0.00014  -0.00015  -0.00004
   D24       -3.14150  -0.00000  -0.00001  -0.00013  -0.00014   3.14154
   D25        3.14159   0.00000   0.00001   0.00010   0.00011  -3.14149
   D26       -0.00003   0.00000   0.00001   0.00010   0.00012   0.00009
   D27        3.14030   0.00001   0.00003   0.00033   0.00036   3.14066
   D28       -0.00117   0.00000   0.00000   0.00010   0.00010  -0.00108
   D29       -0.00001   0.00000   0.00001   0.00006   0.00006   0.00005
   D30        3.14159   0.00000   0.00000   0.00002   0.00002  -3.14157
   D31       -3.14159   0.00000   0.00000   0.00005   0.00005  -3.14153
   D32        0.00002   0.00000   0.00000   0.00001   0.00002   0.00003
   D33        3.14143   0.00000   0.00001   0.00014   0.00015   3.14158
   D34       -0.00013   0.00000   0.00000   0.00008   0.00008  -0.00005
         Item               Value     Threshold  Converged?
 Maximum Force            0.028246     0.000450     NO 
 RMS     Force            0.004996     0.000300     NO 
 Maximum Displacement     0.076293     0.001800     NO 
 RMS     Displacement     0.022825     0.001200     NO 
 Predicted change in Energy=-2.242213D-03
 GradGradGradGradGradGradGradGradGradGradGradGradGradGradGradGradGradGrad

                          Input orientation:                          
 ---------------------------------------------------------------------
 Center     Atomic      Atomic             Coordinates (Angstroms)
 Number     Number       Type             X           Y           Z
 ---------------------------------------------------------------------
      1          6           0        0.697024   -1.058207   -0.000458
      2          6           0        0.722295    0.347844   -0.000743
      3          6           0       -0.491549    1.049135   -0.000396
      4          6           0       -1.707553    0.387189    0.000284
      5          6           0       -1.727602   -1.007396    0.000619
      6          6           0       -0.535290   -1.715191    0.000220
      7          8           0       -2.841982    1.150367    0.000760
      8          6           0        1.991770    1.094196   -0.001411
      9          8           0        1.810003    2.437707   -0.001965
     10          8           0        3.108209    0.622181   -0.001526
     11          8           0        1.861109   -1.752637   -0.000811
     12          1           0       -0.479828    2.129580   -0.000649
     13          1           0       -2.670362   -1.545824    0.001202
     14          1           0       -0.557660   -2.800216    0.000465
     15          1           0       -3.625010    0.589107    0.000370
     16          1           0        2.701591    2.820457   -0.002357
     17          1           0        1.668898   -2.697704   -0.000595
 ---------------------------------------------------------------------
                    Distance matrix (angstroms):
                    1          2          3          4          5
     1  C    0.000000
     2  C    1.406278   0.000000
     3  C    2.419420   1.401865   0.000000
     4  C    2.805559   2.430167   1.384499   0.000000
     5  C    2.425159   2.799764   2.399406   1.394729   0.000000
     6  C    1.396505   2.416120   2.764672   2.407115   1.386572
     7  O    4.171614   3.653507   2.352612   1.367249   2.428535
     8  C    2.511813   1.472619   2.483728   3.766278   4.272052
     9  O    3.668805   2.355978   2.687987   4.071588   4.937954
    10  O    2.938965   2.401634   3.624989   4.821492   5.102999
    11  O    1.355480   2.389334   3.658541   4.161034   3.665274
    12  H    3.398083   2.149345   1.080509   2.131487   3.376028
    13  H    3.402508   3.885371   3.388368   2.159523   1.085680
    14  H    2.146818   3.398318   3.849918   3.388481   2.140786
    15  H    4.625324   4.353995   3.167050   1.928059   2.479714
    16  H    4.366042   3.167243   3.651538   5.036005   5.854077
    17  H    1.905909   3.189266   4.325082   4.573509   3.793857
                    6          7          8          9         10
     6  C    0.000000
     7  O    3.678620   0.000000
     8  C    3.778715   4.834078   0.000000
     9  O    4.769377   4.826822   1.355751   0.000000
    10  O    4.328786   5.973588   1.212120   2.231921   0.000000
    11  O    2.396691   5.526888   2.849830   4.190655   2.682353
    12  H    3.845172   2.557075   2.679704   2.310469   3.891820
    13  H    2.141780   2.701647   5.357722   5.995180   6.171882
    14  H    1.085255   4.563466   4.654679   5.748188   5.015117
    15  H    3.854369   0.963404   5.639445   5.740792   6.733300
    16  H    5.572208   5.789681   1.866500   0.970272   2.235566
    17  H    2.413250   5.929223   3.805622   5.137349   3.618460
                   11         12         13         14         15
    11  O    0.000000
    12  H    4.533387   0.000000
    13  H    4.536188   4.278672   0.000000
    14  H    2.635881   4.930411   2.457033   0.000000
    15  H    5.965003   3.502175   2.338649   4.571230   0.000000
    16  H    4.649688   3.255570   6.922593   6.497283   6.708562
    17  H    0.964416   5.283909   4.489544   2.228917   6.231259
                   16         17
    16  H    0.000000
    17  H    5.613961   0.000000
 Stoichiometry    C7H6O4
 Framework group  C1[X(C7H6O4)]
 Deg. of freedom    45
 Full point group                 C1      NOp   1
 Largest Abelian subgroup         C1      NOp   1
 Largest concise Abelian subgroup C1      NOp   1
                         Standard orientation:                         
 ---------------------------------------------------------------------
 Center     Atomic      Atomic             Coordinates (Angstroms)
 Number     Number       Type             X           Y           Z
 ---------------------------------------------------------------------
      1          6           0        0.234929    1.265993    0.000053
      2          6           0        0.467367   -0.120942   -0.000005
      3          6           0       -0.629728   -0.993644   -0.000003
      4          6           0       -1.930086   -0.518347   -0.000012
      5          6           0       -2.155668    0.858019   -0.000009
      6          6           0       -1.080829    1.733977    0.000051
      7          8           0       -2.939504   -1.440542   -0.000188
      8          6           0        1.833063   -0.671833   -0.000051
      9          8           0        1.851502   -2.027458    0.000263
     10          8           0        2.867645   -0.040268   -0.000297
     11          8           0        1.283821    2.124569    0.000077
     12          1           0       -0.458730   -2.060537   -0.000010
     13          1           0       -3.167548    1.251463   -0.000066
     14          1           0       -1.263035    2.803828    0.000072
     15          1           0       -3.796770   -1.000950    0.000666
     16          1           0        2.789803   -2.274478    0.000188
     17          1           0        0.954282    3.030936    0.000165
 ---------------------------------------------------------------------
 Rotational constants (GHZ):      1.7728082      0.9205553      0.6059219
 Standard basis: 6-31+G(d,p) (6D, 7F)
 There are   239 symmetry adapted cartesian basis functions of A   symmetry.
 There are   239 symmetry adapted basis functions of A   symmetry.
   239 basis functions,   394 primitive gaussians,   239 cartesian basis functions
    40 alpha electrons       40 beta electrons
       nuclear repulsion energy       591.9792901819 Hartrees.
 NAtoms=   17 NActive=   17 NUniq=   17 SFac= 1.00D+00 NAtFMM=   60 NAOKFM=F Big=F
 Integral buffers will be    131072 words long.
 Raffenetti 2 integral format.
 Two-electron integral symmetry is turned on.
 Nuclear repulsion after empirical dispersion term =      591.9651456214 Hartrees.
 One-electron integrals computed using PRISM.
 NBasis=   239 RedAO= T EigKep=  3.12D-06  NBF=   239
 NBsUse=   239 1.00D-06 EigRej= -1.00D+00 NBFU=   239
 Initial guess from the checkpoint file:  "lwcamDHB.chk"
 B after Tr=     0.000000    0.000000   -0.000000
         Rot=    0.999999    0.000000    0.000000   -0.001147 Ang=   0.13 deg.
 ExpMin= 4.38D-02 ExpMax= 5.48D+03 ExpMxC= 8.25D+02 IAcc=2 IRadAn=         4 AccDes= 0.00D+00
 Harris functional with IExCor=20419 and IRadAn=       4 diagonalized for initial guess.
 HarFok:  IExCor=20419 AccDes= 0.00D+00 IRadAn=         4 IDoV= 1 UseB2=F ITyADJ=14
 ICtDFT=  3500011 ScaDFX=  1.000000  1.000000  1.000000  1.000000
 FoFCou: FMM=F IPFlag=           0 FMFlag=      100000 FMFlg1=           0
         NFxFlg=           0 DoJE=T BraDBF=F KetDBF=T FulRan=T
         wScrn=  0.000000 ICntrl=     500 IOpCl=  0 I1Cent=   200000004 NGrid=           0
         NMat0=    1 NMatS0=      1 NMatT0=    0 NMatD0=    1 NMtDS0=    0 NMtDT0=    0
 Petite list used in FoFCou.
 Keep R1 ints in memory in canonical form, NReq=829678955.
 Requested convergence on RMS density matrix=1.00D-08 within 128 cycles.
 Requested convergence on MAX density matrix=1.00D-06.
 Requested convergence on             energy=1.00D-06.
 No special actions if energy rises.
 SCF Done:  E(RCAM-B3LYP) =  -571.064072495     A.U. after   13 cycles
            NFock= 13  Conv=0.79D-08     -V/T= 2.0087
 Calling FoFJK, ICntrl=      2127 FMM=F ISym2X=0 I1Cent= 0 IOpClX= 0 NMat=1 NMatS=1 NMatT=0.
 ***** Axes restored to original set *****
 -------------------------------------------------------------------
 Center     Atomic                   Forces (Hartrees/Bohr)
 Number     Number              X              Y              Z
 -------------------------------------------------------------------
      1        6          -0.000422864    0.000407118    0.000005322
      2        6          -0.008166903   -0.003004868    0.000002871
      3        6           0.002288351   -0.001516145   -0.000000066
      4        6           0.001251895   -0.002246507    0.000006602
      5        6           0.000690323    0.002821907   -0.000003502
      6        6           0.001599606    0.001553555   -0.000002988
      7        8          -0.000568193    0.000113325   -0.000006830
      8        6           0.010060098    0.000555031   -0.000009778
      9        8           0.000054840    0.000672263    0.000001977
     10        8          -0.004364871    0.001232447    0.000003105
     11        8          -0.000803795   -0.000564545   -0.000001287
     12        1          -0.000236249    0.001098080    0.000000372
     13        1          -0.000714694   -0.000133175    0.000000403
     14        1           0.000056741   -0.000892939    0.000000202
     15        1          -0.000398590   -0.000103901    0.000003372
     16        1          -0.000772756    0.000411477    0.000000109
     17        1           0.000447060   -0.000403125    0.000000116
 -------------------------------------------------------------------
 Cartesian Forces:  Max     0.010060098 RMS     0.002129913

 GradGradGradGradGradGradGradGradGradGradGradGradGradGradGradGradGradGrad
 Berny optimization.
 Using GEDIIS/GDIIS optimizer.
 FormGI is forming the generalized inverse of G from B-inverse, IUseBI=4.
 Internal  Forces:  Max     0.005744476 RMS     0.001057799
 Search for a local minimum.
 Step number   3 out of a maximum of   85
 All quantities printed in internal units (Hartrees-Bohrs-Radians)
 Mixed Optimization -- RFO/linear search
 Update second derivatives using D2CorX and points    1    2    3
 DE= -2.66D-03 DEPred=-2.24D-03 R= 1.18D+00
 TightC=F SS=  1.41D+00  RLast= 1.29D-01 DXNew= 8.4853D-01 3.8574D-01
 Trust test= 1.18D+00 RLast= 1.29D-01 DXMaxT set to 5.05D-01
 ITU=  1  1  0
 Use linear search instead of GDIIS.
     Eigenvalues ---    0.02189   0.02214   0.02243   0.02433   0.02516
     Eigenvalues ---    0.02660   0.02680   0.02736   0.02753   0.02804
     Eigenvalues ---    0.02827   0.02852   0.02867   0.02884   0.15701
     Eigenvalues ---    0.16000   0.16000   0.16000   0.16037   0.16226
     Eigenvalues ---    0.21859   0.22623   0.24174   0.24654   0.25000
     Eigenvalues ---    0.25000   0.25259   0.26085   0.33308   0.33372
     Eigenvalues ---    0.33622   0.42224   0.50184   0.50365   0.52538
     Eigenvalues ---    0.52890   0.53205   0.53226   0.53261   0.53784
     Eigenvalues ---    0.55221   0.56277   0.57023   0.62741   1.01868
 RFO step:  Lambda=-1.76863926D-04 EMin= 2.18917029D-02
 Quartic linear search produced a step of  0.06268.
 Iteration  1 RMS(Cart)=  0.00613070 RMS(Int)=  0.00003312
 Iteration  2 RMS(Cart)=  0.00003839 RMS(Int)=  0.00000014
 Iteration  3 RMS(Cart)=  0.00000000 RMS(Int)=  0.00000014
 Variable       Old X    -DE/DX   Delta X   Delta X   Delta X     New X
                                 (Linear)    (Quad)   (Total)
    R1        2.65748  -0.00033   0.00121  -0.00056   0.00065   2.65814
    R2        2.63901  -0.00183   0.00119  -0.00338  -0.00219   2.63682
    R3        2.56149   0.00019  -0.00067   0.00067   0.00000   2.56149
    R4        2.64914  -0.00214   0.00121  -0.00406  -0.00285   2.64629
    R5        2.78285   0.00574   0.00423   0.01081   0.01505   2.79789
    R6        2.61632  -0.00039   0.00104  -0.00081   0.00023   2.61655
    R7        2.04187   0.00109  -0.00109   0.00375   0.00266   2.04452
    R8        2.63566  -0.00248   0.00124  -0.00460  -0.00336   2.63230
    R9        2.58373   0.00080  -0.00000   0.00170   0.00170   2.58542
   R10        2.62024   0.00015   0.00126   0.00021   0.00147   2.62171
   R11        2.05164   0.00069  -0.00084   0.00239   0.00155   2.05319
   R12        2.05084   0.00089  -0.00083   0.00303   0.00220   2.05303
   R13        1.82057   0.00039  -0.00021   0.00079   0.00058   1.82115
   R14        2.56200   0.00118  -0.00054   0.00260   0.00206   2.56406
   R15        2.29057  -0.00450  -0.00107  -0.00420  -0.00528   2.28530
   R16        1.83355  -0.00055   0.00037  -0.00130  -0.00093   1.83261
   R17        1.82248   0.00030  -0.00013   0.00059   0.00046   1.82294
    A1        2.07857  -0.00060   0.00066  -0.00254  -0.00188   2.07669
    A2        2.09070   0.00111  -0.00200   0.00509   0.00308   2.09378
    A3        2.11392  -0.00051   0.00134  -0.00254  -0.00121   2.11271
    A4        2.07672   0.00077   0.00015   0.00327   0.00342   2.08014
    A5        2.12026   0.00029  -0.00108   0.00158   0.00051   2.12077
    A6        2.08621  -0.00106   0.00093  -0.00486  -0.00393   2.08228
    A7        2.11920  -0.00040  -0.00106  -0.00167  -0.00273   2.11646
    A8        2.08384   0.00046  -0.00089   0.00285   0.00195   2.08579
    A9        2.08015  -0.00005   0.00195  -0.00117   0.00078   2.08093
   A10        2.08368   0.00006   0.00121  -0.00031   0.00090   2.08457
   A11        2.05089   0.00054  -0.00187   0.00278   0.00091   2.05180
   A12        2.14862  -0.00059   0.00066  -0.00247  -0.00181   2.14681
   A13        2.09214   0.00027  -0.00039   0.00139   0.00100   2.09314
   A14        2.10408  -0.00038   0.00049  -0.00234  -0.00186   2.10223
   A15        2.08696   0.00011  -0.00010   0.00096   0.00086   2.08782
   A16        2.11607  -0.00010  -0.00058  -0.00013  -0.00071   2.11536
   A17        2.08121  -0.00003   0.00004  -0.00039  -0.00035   2.08086
   A18        2.08591   0.00013   0.00053   0.00052   0.00106   2.08697
   A19        1.92750   0.00026   0.00059   0.00161   0.00220   1.92970
   A20        1.96781  -0.00139  -0.00287  -0.00561  -0.00848   1.95933
   A21        2.21011   0.00005   0.00164  -0.00039   0.00125   2.21135
   A22        2.10527   0.00134   0.00124   0.00600   0.00723   2.11250
   A23        1.84182   0.00126   0.00054   0.00757   0.00810   1.84992
   A24        1.90803   0.00095   0.00051   0.00599   0.00651   1.91453
    D1       -0.00005   0.00000  -0.00000   0.00004   0.00003  -0.00002
    D2        3.14156   0.00000  -0.00000   0.00003   0.00002   3.14158
    D3        3.14157  -0.00000   0.00000  -0.00002  -0.00001   3.14156
    D4       -0.00001  -0.00000   0.00000  -0.00003  -0.00002  -0.00003
    D5       -0.00000  -0.00000   0.00000  -0.00003  -0.00002  -0.00003
    D6       -3.14157  -0.00000   0.00001  -0.00003  -0.00002  -3.14159
    D7        3.14156   0.00000  -0.00000   0.00003   0.00002   3.14159
    D8       -0.00000   0.00000  -0.00000   0.00003   0.00002   0.00002
    D9       -3.14154   0.00000  -0.00001   0.00002   0.00001  -3.14153
   D10        0.00008  -0.00000   0.00000  -0.00004  -0.00004   0.00005
   D11        0.00006  -0.00000  -0.00000  -0.00002  -0.00002   0.00003
   D12       -3.14155  -0.00000   0.00000  -0.00001  -0.00001  -3.14156
   D13       -3.14155  -0.00000  -0.00000  -0.00001  -0.00001  -3.14156
   D14        0.00003   0.00000   0.00000   0.00000   0.00000   0.00003
   D15        3.14130   0.00000  -0.00000   0.00009   0.00009   3.14139
   D16       -0.00026  -0.00000   0.00000  -0.00006  -0.00006  -0.00031
   D17       -0.00028   0.00000  -0.00000   0.00008   0.00008  -0.00020
   D18        3.14135  -0.00000   0.00000  -0.00007  -0.00006   3.14128
   D19       -0.00001  -0.00000   0.00001  -0.00001   0.00000  -0.00001
   D20        3.14145   0.00000  -0.00001   0.00006   0.00005   3.14150
   D21       -3.14159  -0.00000   0.00001  -0.00002  -0.00001   3.14158
   D22       -0.00013   0.00000  -0.00001   0.00005   0.00004  -0.00009
   D23       -0.00004   0.00000  -0.00001   0.00002   0.00001  -0.00003
   D24        3.14154   0.00000  -0.00001   0.00003   0.00002   3.14156
   D25       -3.14149  -0.00000   0.00001  -0.00005  -0.00005  -3.14154
   D26        0.00009  -0.00000   0.00001  -0.00005  -0.00004   0.00005
   D27        3.14066   0.00000   0.00002   0.00011   0.00013   3.14079
   D28       -0.00108   0.00000   0.00001   0.00018   0.00018  -0.00089
   D29        0.00005  -0.00000   0.00000  -0.00000   0.00000   0.00005
   D30       -3.14157   0.00000   0.00000   0.00000   0.00000  -3.14157
   D31       -3.14153  -0.00000   0.00000  -0.00001  -0.00001  -3.14154
   D32        0.00003  -0.00000   0.00000  -0.00001  -0.00001   0.00003
   D33        3.14158  -0.00000   0.00001  -0.00007  -0.00006   3.14151
   D34       -0.00005   0.00000   0.00001   0.00007   0.00007   0.00003
         Item               Value     Threshold  Converged?
 Maximum Force            0.005744     0.000450     NO 
 RMS     Force            0.001058     0.000300     NO 
 Maximum Displacement     0.028094     0.001800     NO 
 RMS     Displacement     0.006130     0.001200     NO 
 Predicted change in Energy=-9.682896D-05
 GradGradGradGradGradGradGradGradGradGradGradGradGradGradGradGradGradGrad

                          Input orientation:                          
 ---------------------------------------------------------------------
 Center     Atomic      Atomic             Coordinates (Angstroms)
 Number     Number       Type             X           Y           Z
 ---------------------------------------------------------------------
      1          6           0        0.696702   -1.062591   -0.000447
      2          6           0        0.722083    0.343805   -0.000764
      3          6           0       -0.487997    1.048579   -0.000412
      4          6           0       -1.704614    0.387509    0.000280
      5          6           0       -1.726958   -1.005263    0.000622
      6          6           0       -0.535868   -1.716627    0.000231
      7          8           0       -2.839897    1.151025    0.000699
      8          6           0        1.998098    1.094744   -0.001466
      9          8           0        1.804209    2.437661   -0.001933
     10          8           0        3.112752    0.625687   -0.001529
     11          8           0        1.858590   -1.760692   -0.000821
     12          1           0       -0.474589    2.130412   -0.000684
     13          1           0       -2.672323   -1.540773    0.001199
     14          1           0       -0.560002   -2.802777    0.000479
     15          1           0       -3.624329    0.591201    0.000441
     16          1           0        2.688705    2.835323   -0.002298
     17          1           0        1.669500   -2.706636   -0.000588
 ---------------------------------------------------------------------
                    Distance matrix (angstroms):
                    1          2          3          4          5
     1  C    0.000000
     2  C    1.406625   0.000000
     3  C    2.420857   1.400358   0.000000
     4  C    2.805193   2.427091   1.384619   0.000000
     5  C    2.424338   2.796031   2.398602   1.392952   0.000000
     6  C    1.395346   2.414088   2.765621   2.406940   1.387348
     7  O    4.172245   3.652302   2.354130   1.368146   2.426564
     8  C    2.519469   1.480582   2.486524   3.769650   4.276222
     9  O    3.671286   2.356954   2.680254   4.063861   4.931823
    10  O    2.947471   2.407230   3.625498   4.823251   5.107132
    11  O    1.355482   2.391768   3.660393   4.160672   3.664264
    12  H    3.401056   2.150346   1.081916   2.133230   3.376520
    13  H    3.402792   3.882478   3.387629   2.157483   1.086502
    14  H    2.146521   3.397753   3.852030   3.389405   2.143092
    15  H    4.626698   4.353447   3.169506   1.930491   2.479660
    16  H    4.377421   3.174156   3.644708   5.029220   5.852196
    17  H    1.910293   3.194180   4.330870   4.578032   3.798762
                    6          7          8          9         10
     6  C    0.000000
     7  O    3.678584   0.000000
     8  C    3.784811   4.838323   0.000000
     9  O    4.768027   4.819042   1.356842   0.000000
    10  O    4.335766   5.975786   1.209326   2.235069   0.000000
    11  O    2.394863   5.527556   2.858842   4.198706   2.695873
    12  H    3.847527   2.560055   2.680818   2.299418   3.890143
    13  H    2.143681   2.697009   5.362722   5.988931   6.177432
    14  H    1.086418   4.564042   4.662033   5.749061   5.024291
    15  H    3.855472   0.963709   5.644930   5.733973   6.737170
    16  H    5.578363   5.779474   1.872580   0.969777   2.249957
    17  H    2.417388   5.934325   3.815556   5.146061   3.631440
                   11         12         13         14         15
    11  O    0.000000
    12  H    4.537005   0.000000
    13  H    4.536248   4.278742   0.000000
    14  H    2.633540   4.933929   2.460601   0.000000
    15  H    5.966054   3.505714   2.334872   4.572656   0.000000
    16  H    4.670380   3.240885   6.920322   6.507095   6.700037
    17  H    0.964658   5.290949   4.495628   2.231574   6.237015
                   16         17
    16  H    0.000000
    17  H    5.634899   0.000000
 Stoichiometry    C7H6O4
 Framework group  C1[X(C7H6O4)]
 Deg. of freedom    45
 Full point group                 C1      NOp   1
 Largest Abelian subgroup         C1      NOp   1
 Largest concise Abelian subgroup C1      NOp   1
[...]
 ! D29   D(4,5,6,1)              0.0019         -DE/DX =    0.0                 !
 ! D30   D(4,5,6,14)          -179.9992         -DE/DX =    0.0                 !
 ! D31   D(13,5,6,1)          -179.9978         -DE/DX =    0.0                 !
 ! D32   D(13,5,6,14)            0.0011         -DE/DX =    0.0                 !
 ! D33   D(2,8,9,16)           179.9892         -DE/DX =    0.0                 !
 ! D34   D(10,8,9,16)            0.007          -DE/DX =    0.0                 !
 --------------------------------------------------------------------------------
 GradGradGradGradGradGradGradGradGradGradGradGradGradGradGradGradGradGrad

 1\1\ WCSS.PL-BEM-C612-X99\Freq\RCAM-B3LYP\6-31+G(d,p)\C7H6O4\PHZD\26-F
 eb-2024\0\\#N Geom=AllCheck Guess=TCheck SCRF=Check GenChk RCAM-B3LYP/
 6-31+G(d,p) Freq\\[No Title]\\0,1\C,0.6956083015,-1.0618470224,-0.0004
 657493\C,0.7196037864,0.3436491084,-0.0008180553\C,-0.4882309125,1.048
 1525676,-0.0004646603\C,-1.7049805737,0.3866927968,0.0002471334\C,-1.7
 269343543,-1.0044733031,0.0006101946\C,-0.5357453309,-1.7156769889,0.0
 002349649\O,-2.8409742282,1.1496923587,0.0006236734\C,1.9998793255,1.0
 944869231,-0.0015522083\O,1.8075966296,2.4377881414,-0.001883365\O,3.1
 121699502,0.6233487997,-0.0015282339\O,1.85860378,-1.7585311481,-0.000
 8269623\H,-0.476465495,2.1299974095,-0.0007519064\H,-2.6725662734,-1.5
 399746307,0.0011924643\H,-0.560269663,-2.8019617868,0.0005087915\H,-3.
 6239683464,0.5878178604,0.0006081708\H,2.6916699551,2.8356726246,-0.00
 21784634\H,1.6690664489,-2.70424571,-0.0005477888\\Version=ES64L-G09Re
 vE.01\State=1-A\HF=-571.064205\RMSD=2.437e-09\RMSF=7.559e-05\ZeroPoint
 =0.1249656\Thermal=0.1345946\Dipole=-1.3601979,-0.9212652,0.0003298\Di
 poleDeriv=0.912256,-0.8748465,-0.0001819,-0.4843152,0.4016744,0.000154
 6,-0.0002324,0.0003473,0.0920596,-0.5531309,-0.4959545,0.0003225,-0.01
 09169,-0.1596419,0.0000402,0.0002205,0.0002424,-0.0244489,0.0558627,0.
 5345755,-0.0001986,-0.1736845,-0.0026521,0.0000463,-0.0000324,-0.00020
 77,-0.1180637,1.1001027,-0.867457,-0.0002804,-0.8242701,0.0390207,0.00
 03412,-0.0003113,0.0003939,0.0726208,-0.0831991,-0.2057502,-0.0000021,
 0.3518067,0.213623,-0.000248,-0.0000899,0.0000077,-0.1388897,-0.179986
 6,0.4940374,-0.0001031,-0.1394514,0.0655875,0.0000054,0.0000231,-0.000
 3058,-0.1766146,-1.3267453,0.6076983,0.0003241,0.6519972,-0.4769395,-0
 .0001433,0.0004543,-0.0002109,-0.3936358,1.91389,0.2905179,-0.0005611,
 0.2388042,1.9076006,-0.0006874,-0.0005469,-0.0006698,0.3219085,-0.4748
 449,-0.1177466,0.0000742,-0.1072846,-1.4779211,0.0004607,0.0001012,0.0
 003561,-0.3922565,-1.3665133,0.0585999,0.0002704,0.0048146,-0.6594476,
 0.0001079,0.0001986,0.0001595,-0.366099,-0.9693684,0.7582084,0.0001218
 ,0.628691,-0.6987749,-0.0001982,0.0001406,-0.0002761,-0.3515991,0.1291
 383,0.0216369,0.0000054,0.0220218,0.0520885,0.0000145,-0.000007,0.0000
 102,0.1448118,-0.0818265,-0.0515554,0.0001131,-0.0502347,0.0625199,0.0
 000478,0.0001195,0.0000471,0.1453061,0.0555208,0.0395706,0.0000327,0.0
 235385,-0.0943013,0.0000471,0.0000275,0.0000408,0.1505368,0.3723353,-0
 .0596697,-0.0000123,-0.1099464,0.1704153,-0.0000128,-0.0000987,0.00001
 86,0.3468702,0.215925,0.0339758,0.0000148,0.0849897,0.3890691,-0.00003
 74,-0.0000174,-0.0000416,0.348514,0.2805842,-0.1658409,0.0000605,-0.10
 65599,0.2680793,0.0000612,0.0000506,0.0000881,0.3389795\Polar=124.6480
 038,2.682755,108.9860897,-0.029311,-0.0155464,51.2668209\PG=C01 [X(C7H
 6O4)]\NImag=0\\0.71074192,-0.01479792,0.72068913,-0.00024350,-0.000125
 58,0.15809132,-0.14303123,-0.04600971,0.00004457,0.67788878,0.01601217
 ,-0.30140908,0.00004880,-0.02806576,0.70729141,0.00002879,0.00007738,-
 0.06723466,-0.00021893,-0.00013145,0.13975963,0.05260216,0.08484924,-0
 .00004498,-0.27598856,0.06554440,0.00008446,0.71934202,0.03297839,-0.0
 2392525,-0.00000856,0.12391699,-0.18849145,-0.00001854,0.00782488,0.76
 984781,-0.00002923,-0.00003112,-0.00005958,0.00007130,0.00000646,-0.05
 467648,-0.00026470,-0.00016882,0.13267154,-0.03254969,-0.04191142,0.00
 002559,-0.05911486,0.02847994,0.00001896,-0.28281669,-0.13844066,0.000
 13105,0.73418628,-0.04588941,-0.06856281,0.00003726,-0.03038065,0.0707
 7924,-0.00000636,-0.05328492,-0.19356514,0.00005576,0.01029980,0.71739
 914,0.00002793,0.00003748,0.00093449,0.00003447,-0.00002981,-0.0010134
 8,0.00010862,0.00009151,-0.06519575,-0.00025468,-0.00012815,0.14301945
 ,-0.06207978,-0.02422130,0.00003302,-0.02015120,0.02565442,0.00000322,
 0.03783496,-0.02708474,-0.00000679,-0.14025094,-0.06052882,0.00005216,
 0.75667458,0.03608300,0.07864299,-0.00003596,0.03007907,-0.05437153,0.
 00000151,-0.08226321,-0.02415591,0.00004320,0.03022043,-0.33104894,0.0
 0005142,0.01490219,0.70848926,0.00001790,-0.00000899,-0.00193274,0.000
 00121,0.00000169,0.00194555,0.00000596,0.00002028,0.00338371,0.0000271
 0,0.00009425,-0.06128502,-0.00030016,-0.00015206,0.12494574,-0.2656745
 2,-0.04277852,0.00009847,0.03440846,-0.07458549,0.00000574,-0.07738793
 ,-0.00238941,0.00003398,0.05236903,0.09014654,-0.00004925,-0.30508247,
 0.06904838,0.00010191,0.70737911,-0.12748062,-0.19023388,0.00008614,-0
 .02333913,-0.01864229,0.00001668,-0.00261284,-0.00411492,0.00000198,0.
 03076137,-0.02769093,-0.00000855,0.14002012,-0.19206869,-0.00002899,-0
 .02169820,0.75304802,0.00011811,0.00004660,-0.06542376,-0.00000694,0.0
 0004144,0.00543067,0.00003665,0.00000226,0.00175556,-0.00003224,-0.000
 03313,-0.00030803,0.00008203,0.00000275,-0.05143646,-0.00025864,-0.000
 14142,0.12033696,0.00812355,0.00125968,-0.00000515,0.00157042,-0.00509
 129,0.00000201,-0.05737104,0.02449750,0.00002381,-0.24750420,0.1258097
 2,0.00006771,-0.00582773,0.00817096,0.00000596,-0.00692714,-0.00182614
 ,0.00000604,0.66493092,0.00098921,0.00637660,-0.00000236,0.00063164,-0
 .00884875,0.00000468,-0.01665498,0.01974459,0.00000541,0.07287398,-0.1
 7263649,-0.00002922,0.05026673,-0.03107043,-0.00001579,-0.00824324,-0.
 00338392,0.00000526,0.10200400,0.41037099,-0.00000745,-0.00000450,-0.0
 0158725,-0.00000241,0.00000563,0.00505125,0.00003314,-0.00001042,0.006
 54962,0.00005422,-0.00003892,-0.03726990,-0.00000956,0.00000768,0.0063
 1236,0.00001241,0.00000447,0.00721954,-0.00008345,0.00005232,0.0221453
 6,0.02726473,-0.02523520,-0.00000448,-0.16668941,-0.04412224,0.0000545
 8,-0.03965865,-0.00835302,0.00001740,0.00054593,0.01286524,-0.00000058
 ,0.00471945,-0.00338444,-0.00000133,-0.00346081,0.00114902,0.00000271,
 0.00211860,-0.00272691,-0.00000010,0.97749144,-0.02897007,-0.01626324,
 0.00001756,-0.05717654,-0.13984169,0.00004111,0.00268109,0.02145683,-0
 .00000861,0.00569627,0.00429899,-0.00000233,0.00447561,-0.00461137,-0.
 00000062,-0.00190757,-0.00706233,0.00000384,0.00419241,-0.00191753,-0.
 00000071,-0.12587112,0.63530557,-0.00000156,0.00001155,0.00248470,0.00
 004942,0.00002945,-0.08175778,0.00001534,0.00000013,-0.00030755,0.0000
 0226,-0.00000406,0.00847651,-0.00000402,0.00000182,-0.00107360,0.00000
 512,0.00000304,0.00608241,-0.00000122,0.00000184,0.00023225,-0.0000947
 7,-0.00012830,0.21347364,-0.00915312,0.00248375,0.00000432,0.00244147,
 -0.03843251,0.00001535,-0.00610976,-0.00229099,0.00000359,0.00218721,-
 0.00133104,-0.00000144,-0.00044072,-0.00050416,0.00000039,0.00044192,-
 0.00215080,-0.00000008,-0.00085882,0.00041805,0.00000042,-0.12656931,-
 0.01174046,0.00001681,0.58713842,-0.00431954,0.00396246,0.00000151,-0.
 01154939,-0.03869658,0.00001789,0.00145258,-0.00470124,0.00000202,0.00
 080946,-0.00292454,-0.00000007,-0.00117001,0.00064647,0.00000024,0.000
 02972,-0.00068896,0.00000003,-0.00239232,0.00164818,0.00000064,0.02066
 074,-0.26085756,0.00005498,0.11958418,0.48039393,0.00000483,-0.0000018
 7,0.00172143,0.00000821,0.00002947,0.01150017,0.00000242,0.00000210,0.
 00093101,-0.00000194,0.00000087,-0.00088725,0.00000045,0.00000047,0.00
 009550,-0.00000010,0.00000071,-0.00073152,0.00000098,-0.00000062,0.000
 14603,0.00001053,0.00005719,-0.06491230,-0.00015146,-0.00016289,0.0366
 3144,-0.01068843,0.01117949,0.00000203,-0.05971558,0.01069872,0.000011
 90,0.00226608,-0.00831301,0.00000223,-0.00215460,-0.00454933,0.0000028
 9,-0.00286671,0.00318462,0.00000025,0.00359594,0.00043820,-0.00000137,
 -0.00239872,0.00088853,0.00000050,-0.66579039,0.21434543,0.00000865,-0
 .01253735,0.06682427,-0.00001626,0.74656107,0.00751201,-0.00403030,-0.
 00000296,-0.00425743,0.02211058,0.00000081,-0.00390819,-0.00342476,0.0
 0000291,0.00066489,0.00189083,-0.00000119,0.00017819,-0.00056134,0.000
 00004,-0.00130388,0.00063128,-0.00000001,-0.00129497,0.00033142,0.0000
 0049,0.21898937,-0.20104590,0.00001394,0.07808336,-0.06130998,0.000016
 45,-0.28973960,0.24203223,0.00000110,-0.00000115,-0.00120950,0.0000240
 4,0.00000072,0.02066723,0.00000074,0.00000230,0.00258551,-0.00000007,0
 .00000102,-0.00156093,0.00000130,-0.00000086,0.00019014,-0.00000177,-0
 .00000070,-0.00075578,0.00000059,-0.00000053,-0.00013142,-0.00000005,0
 .00001319,-0.07828887,-0.00001730,0.00001818,0.03000268,-0.00000738,-0
 .00003036,0.03190837,-0.27430059,0.07106923,0.00008686,0.01273994,0.01
 564980,-0.00000681,-0.01128985,-0.00442769,0.00000660,0.00885093,0.004
 71507,-0.00000701,0.00311055,-0.00879284,0.00000483,-0.06049424,0.0277
 3991,0.00002548,-0.00851996,0.00411176,0.00000483,-0.01756144,-0.00341
 730,0.00000479,0.00260405,0.00062482,-0.00000091,0.00898239,-0.0063489
 6,0.00000006,0.39784976,0.12321058,-0.16386797,-0.00002744,0.04122706,
 -0.03514214,-0.00000887,-0.00459249,-0.00383744,0.00000472,-0.00160372
 ,0.00483881,-0.00000014,-0.00096588,-0.00663502,0.00000324,-0.00660780
 ,0.01299830,0.00000234,0.00595574,-0.00309149,-0.00000329,0.01101549,0
 .00433199,-0.00000605,-0.00080456,-0.00205281,0.00000093,-0.00849772,-
 0.00551192,0.00000339,-0.02562396,0.69534693,0.00007619,-0.00000437,-0
 .04168029,-0.00001361,0.00000161,0.00490108,0.00000823,0.00000415,0.00
 437670,-0.00000441,-0.00000378,-0.00126740,0.00000247,0.00000722,0.007
 71888,0.00003315,-0.00001321,0.01005222,0.00000263,-0.00000105,-0.0004
 2237,0.00000438,-0.00000010,-0.00357126,-0.00000067,-0.00000040,0.0003
 3027,-0.00000197,0.00000397,0.00154289,-0.00015839,-0.00012857,0.02595
 461,-0.00438210,0.00120577,0.00000423,0.00519075,0.02664610,-0.0000079
 7,-0.05889385,-0.00484984,0.00000961,0.00504594,-0.02807805,0.00000874
 ,-0.00486591,-0.00235291,0.00000500,-0.00122394,0.00049932,0.00000028,
 0.00235862,0.00068905,-0.00000275,0.00073777,0.00395056,-0.00000342,-0
 .00326668,-0.00248123,0.00000233,0.00087278,-0.00106972,0.00000068,0.0
 0010073,0.00171905,-0.00000029,0.05813374,0.00236936,0.00157522,0.0000
 0003,-0.00076516,-0.01055303,0.00000372,-0.00336415,-0.35600706,0.0000
 8459,0.00238139,-0.00978442,0.00000345,-0.00208466,-0.00039625,0.00000
 238,-0.00063546,0.00073772,-0.00000005,0.00093335,0.00072759,-0.000001
 53,0.00012162,-0.00120258,-0.00000090,-0.00406513,-0.00088435,0.000002
 01,-0.00004997,0.00024536,0.00000017,-0.00026602,-0.00063226,0.0000003
 8,0.00550587,0.37594831,0.00000405,0.00000062,0.00602123,-0.00000184,-
 0.00000860,0.00305663,0.00000974,0.00008481,-0.03896666,0.00000145,0.0
 0001648,0.00743569,0.00000485,0.00000252,0.00532442,0.00000044,-0.0000
 0056,-0.00067046,-0.00000282,-0.00000124,-0.00368308,-0.00000147,-0.00
 000201,-0.00429279,0.00000306,0.00000132,0.00031625,-0.00000085,0.0000
 0074,0.00074029,0.00000022,-0.00000050,0.00030309,-0.00001560,-0.00009
 384,0.02612035,-0.00165276,0.00392537,0.00000339,-0.00000116,0.0005675
 0,-0.00000039,0.00172500,0.00009547,0.00000176,-0.00051022,0.00298528,
 0.00000208,-0.27041646,-0.12072842,0.00014103,-0.01848837,-0.01557160,
 0.00001402,0.00321650,-0.00010478,-0.00000296,0.00024180,0.00027645,-0
 .00000047,-0.00007072,-0.00023367,0.00000014,-0.00016456,-0.00008265,0
 .00000007,-0.00170513,-0.00038547,0.00000082,0.00005830,0.00002380,-0.
 00000029,0.28645896,0.00341582,-0.00101728,0.00000046,0.00143291,-0.00
 077798,-0.00000050,0.00059692,-0.00643834,0.00000262,-0.02913346,-0.00
 792994,0.00001688,-0.12138110,-0.13155421,0.00008170,0.01504395,0.0122
 0713,-0.00000919,-0.00073890,0.00279469,-0.00000169,-0.00001332,-0.000
 34696,-0.00000007,-0.00017576,0.00007923,0.00000008,-0.00004383,0.0000
 6091,-0.00000001,0.00078592,0.00040814,-0.00000036,-0.00140566,-0.0003
 3520,0.00000051,0.13050097,0.13298541,0.00000346,0.00000084,0.00730785
 ,-0.00000053,-0.00000056,-0.00059135,0.00000149,0.00000258,0.00529594,
 0.00000905,0.00000293,0.00549544,0.00014272,0.00008053,-0.03597675,0.0
 0000562,0.00000505,0.00334633,-0.00000152,-0.00000099,-0.00377855,-0.0
 0000033,-0.00000029,-0.00067718,0.00000017,0.00000019,0.00012295,0.000
 00007,0.00000012,0.00005179,0.00000045,0.00000003,-0.00005228,0.000000
 06,-0.00000014,-0.00048717,-0.00015683,-0.00009001,0.02372241,0.002598
 93,-0.02710539,0.00000742,-0.00438289,-0.00181344,0.00000455,-0.001599
 75,0.00027539,0.00000028,-0.00416244,0.00190939,0.00000465,0.00512038,
 0.02840301,-0.00000825,-0.06024803,-0.00895190,0.00001430,-0.00030999,
 0.00170868,-0.00000028,0.00072459,-0.00109088,0.00000002,-0.00044771,-
 0.00036325,0.00000018,-0.00004605,0.00011829,0.00000002,0.00306607,-0.
 00146410,-0.00000294,0.00006554,-0.00002168,-0.00000011,0.00098679,-0.
 00027855,-0.00000237,0.05946965,0.00547825,-0.01349348,0.00000196,-0.0
 0342368,0.00014653,0.00000268,-0.00021314,0.00064146,-0.00000026,0.002
 71874,0.00153506,-0.00000020,-0.00246293,-0.01205048,0.00000478,-0.008
 89894,-0.34006974,0.00007825,0.00026101,-0.00106437,0.00000038,0.00141
 866,-0.00032630,-0.00000036,-0.00043197,-0.00032506,0.00000020,-0.0005
 4933,0.00019206,0.00000005,0.00029734,0.00314602,-0.00000192,-0.000000
 55,-0.00005609,-0.00000004,0.00012194,0.00087936,-0.00000123,0.0078644
 7,0.36068600,-0.00000056,0.00001578,0.00480217,0.00000454,0.00000216,0
 .00452993,0.00000067,-0.00000037,-0.00082305,0.00000399,0.00000039,0.0
 0665352,-0.00000052,-0.00000919,0.00263527,0.00001462,0.00007865,-0.03
 307954,0.00000054,-0.00000032,0.00036734,-0.00000045,0.00000065,0.0002
 1726,0.00000023,0.00000018,-0.00010035,0.00000006,-0.00000010,-0.00000
 173,-0.00000342,-0.00000087,-0.00424119,-0.00000014,-0.00000003,-0.000
 23058,-0.00000257,-0.00000118,-0.00423829,-0.00001820,-0.00008526,0.02
 290384,-0.00005230,0.00075872,-0.00000002,0.00003995,-0.00183262,0.000
 00198,-0.00388156,0.00537612,-0.00000041,-0.03377138,-0.02400584,0.000
 00319,0.00517107,-0.00239219,-0.00000168,-0.00075019,-0.00030384,0.000
 00161,-0.35272437,-0.20661832,0.00000343,-0.00087039,-0.00023612,0.000
 00047,0.00015709,0.00034308,-0.00000015,0.00026346,0.00002138,-0.00000
 013,0.00086417,-0.00053265,-0.00000052,0.00023746,0.00007260,-0.000000
 73,0.00013814,0.00144616,-0.00000142,0.00026058,-0.00022083,-0.0000001
 0,0.38505394,-0.00064172,-0.00010905,0.00000080,-0.00028515,0.00073022
 ,-0.00000061,0.00451154,-0.00213508,-0.00000110,0.02533562,0.01175986,
 -0.00000020,0.00375483,0.00224674,-0.00000218,0.00036925,-0.00054069,-
 0.00000006,-0.26103150,-0.22026506,-0.00001104,0.00053070,0.00016732,-
 0.00000044,-0.00005923,-0.00018811,0.00000009,-0.00013334,0.00001367,0
 .00000010,0.00033264,-0.00037651,-0.00000023,0.00029519,0.00018763,-0.
 00000022,-0.00115143,-0.00116024,0.00000089,0.00000030,0.00003335,-0.0
 0000018,0.22805666,0.20957321,0.00000157,0.00000073,0.00027430,0.00000
 320,0.00000082,0.00157806,0.00000180,-0.00000324,0.00146389,0.00001941
 ,0.00000529,-0.00364762,-0.00000085,-0.00000100,0.00006889,-0.00000183
 ,-0.00000058,-0.00080863,-0.00001617,-0.00001738,-0.00104816,0.0000001
 1,-0.00000034,0.00004430,-0.00000003,0.00000004,-0.00003600,0.00000014
 ,0.00000002,-0.00006497,-0.00000143,0.00000097,-0.00009303,-0.00000061
 ,-0.00000028,-0.00070847,0.00000024,0.00000078,0.00049913,0.00000005,-
 0.00000008,-0.00005656,-0.00000558,0.00001441,0.00247005,0.00021960,-0
 .00020329,0.00000016,0.00095891,0.00188252,-0.00000078,-0.00015960,0.0
 0021223,-0.00000012,0.00008506,0.00002385,0.00000015,0.00001363,-0.000
 01564,-0.00000003,0.00005053,-0.00002529,-0.00000002,0.00006738,-0.000
 02181,-0.00000007,0.00823348,-0.00621062,0.00000272,-0.43577781,-0.187
 17930,0.00014065,-0.00588513,0.00459764,-0.00000238,-0.00010596,0.0001
 6180,0.00000007,0.00013950,-0.00029900,-0.00000018,0.00001381,-0.00001
 313,-0.00000002,0.00001725,0.00002254,-0.00000003,-0.00002936,0.000007
 94,0.00000004,0.43213056,-0.00181743,-0.00014872,0.00000117,0.00341723
 ,-0.00653562,0.00000178,0.00140099,0.00028613,-0.00000101,-0.00038618,
 0.00081000,0.,0.00037585,-0.00014941,-0.00000012,0.00003622,-0.0005069
 9,0.,0.00041341,-0.00025212,-0.00000014,-0.05490220,-0.03183435,0.0000
 2278,-0.13887150,-0.11439750,0.00005498,0.00365624,0.00928206,-0.00000
 552,0.00008238,0.00039503,-0.00000006,-0.00051334,0.00046450,0.0000001
 1,0.00003282,0.00004784,-0.00000003,-0.00011176,-0.00004991,0.00000005
 ,-0.00006995,0.00003085,0.00000003,0.18711034,0.14258852,0.00000073,0.
 00000080,0.00066029,0.00000040,0.00000322,0.00427336,-0.00000003,-0.00
 000035,-0.00026997,0.00000031,0.00000006,0.00025443,-0.00000006,-0.000
 00009,-0.00001699,-0.00000031,0.00000016,-0.00027805,-0.00000020,0.000
 00006,-0.00007290,0.00001306,0.00001013,0.00417070,0.00012687,0.000065
 89,-0.01481709,-0.00000060,-0.00000569,-0.00593721,0.00000023,-0.00000
 034,0.00005693,-0.00000023,0.00000006,-0.00027706,-0.00000003,0.,-0.00
 003245,0.00000002,0.,-0.00004147,0.00000005,0.,0.00004324,-0.00014013,
 -0.00007396,0.01227318,0.00201363,0.04553152,-0.00001192,-0.00616381,0
 .00280778,0.00000335,0.00138701,0.00097238,-0.00000037,-0.00043537,-0.
 00070684,0.00000038,-0.00066271,0.00034215,-0.00000007,0.00149265,0.00
 335242,-0.00000193,0.00005598,-0.00021158,0.00000008,-0.00147739,0.001
 00286,-0.00000013,0.00026184,-0.00064015,0.00000011,-0.00029419,-0.002
 15970,0.00000049,-0.06419142,-0.13221138,0.00005487,-0.00030864,0.0001
 4325,0.00000007,0.00017009,-0.00003896,-0.00000006,-0.00111293,-0.0019
 8157,0.00000134,-0.00010634,0.00010770,-0.00000005,0.00002815,0.000146
 87,-0.00000007,0.06934344,-0.00413207,-0.02818535,0.00000717,0.0045476
 8,0.00225216,-0.00000190,-0.00196774,-0.00118022,0.00000126,0.00123356
 ,0.00083127,-0.00000088,0.00027149,-0.00135188,0.00000016,-0.00562555,
 0.00538089,0.00000109,-0.00112266,0.00053610,0.00000064,-0.00214240,-0
 .00025089,0.00000063,0.00028879,0.00029642,-0.00000017,0.00066064,-0.0
 0090619,0.,-0.07653210,-0.50031766,0.00013673,0.00024039,-0.00003510,-
 0.00000011,-0.00027157,0.00009744,0.00000009,0.00092142,0.00017559,-0.
 00000036,0.00013766,0.00003190,-0.00000018,-0.00005080,-0.00003030,0.0
 0000005,0.08354325,0.52265581,-0.00000234,-0.00001420,-0.00317001,0.00
 000290,-0.00000105,0.00258020,0.00000046,0.00000017,0.00128556,-0.0000
 0005,0.00000009,0.00016584,-0.00000025,0.00000005,-0.00089891,0.000000
 45,-0.00000289,-0.00073146,0.00000025,-0.00000003,-0.00003013,0.000000
 80,-0.00000036,-0.00030043,-0.00000023,0.00000026,-0.00031319,-0.00000
 030,0.00000084,0.00026150,0.00004362,0.00016046,-0.00390884,0.00000009
 ,-0.00000002,-0.00000167,-0.00000002,-0.00000002,-0.00000781,0.0000006
 7,0.00000103,0.00070343,0.00000004,-0.00000004,0.00002158,-0.00000002,
 -0.00000005,0.00001104,-0.00004608,-0.00014422,0.00433331\\0.00016269,
 0.00002487,0.00000076,-0.00006541,-0.00012756,0.00001303,-0.00018850,-
 0.00000982,0.00000118,0.00013140,0.00010109,-0.00000228,0.00009254,-0.
 00009760,0.00000096,-0.00014357,0.00001352,-0.00000090,-0.00002697,-0.
 00001640,0.00000305,0.00030404,-0.00001855,-0.00004536,-0.00002823,0.0
 0002661,0.00001336,-0.00014255,0.00008199,0.00001728,-0.00010752,0.000
 00577,0.00000087,0.00002680,0.00000575,-0.00000004,-0.00000910,0.00001
 447,0.00000021,0.00002232,0.00000495,-0.00000010,0.00002277,-0.0000091
 1,-0.00000215,-0.00004520,-0.00002116,0.00000028,-0.00000549,0.0000211
 8,-0.00000013\\\@


 THE CAUTIOUS SELDOM ERR...CONFUCIUS                   
 Job cpu time:       0 days  0 hours 30 minutes 49.8 seconds.
 File lengths (MBytes):  RWF=    107 Int=      0 D2E=      0 Chk=      5 Scr=      1
 Normal termination of Gaussian 09 at Mon Feb 26 13:45:27 2024.
