 Entering Gaussian System, Link 0=g09
 Input=pbeDHBgd3.gjf
 Output=pbeDHBgd3.log
 Initial command:
 /home/phzd/g09E/g09/l1.exe "/home/phzd/g09E/scratch/Gau-58470.inp" -scrdir="/home/phzd/g09E/scratch/"
 Default is to use a total of  18 processors:
                               18 via shared-memory
                                1 via Linda
 Entering Link 1 = /home/phzd/g09E/g09/l1.exe PID=     58472.
  
 Copyright (c) 1988,1990,1992,1993,1995,1998,2003,2009,2015,
            Gaussian, Inc.  All Rights Reserved.
  
 This is part of the Gaussian(R) 09 program.  It is based on
 the Gaussian(R) 03 system (copyright 2003, Gaussian, Inc.),
 the Gaussian(R) 98 system (copyright 1998, Gaussian, Inc.),
 the Gaussian(R) 94 system (copyright 1995, Gaussian, Inc.),
 the Gaussian 92(TM) system (copyright 1992, Gaussian, Inc.),
 the Gaussian 90(TM) system (copyright 1990, Gaussian, Inc.),
 the Gaussian 88(TM) system (copyright 1988, Gaussian, Inc.),
 the Gaussian 86(TM) system (copyright 1986, Carnegie Mellon
 University), and the Gaussian 82(TM) system (copyright 1983,
 Carnegie Mellon University). Gaussian is a federally registered
 trademark of Gaussian, Inc.
  
 This software contains proprietary and confidential information,
 including trade secrets, belonging to Gaussian, Inc.
  
 This software is provided under written license and may be
 used, copied, transmitted, or stored only in accord with that
 written license.
  
 The following legend is applicable only to US Government
 contracts under FAR:
  
                    RESTRICTED RIGHTS LEGEND
  
 Use, reproduction and disclosure by the US Government is
 subject to restrictions as set forth in subparagraphs (a)
 and (c) of the Commercial Computer Software - Restricted
 Rights clause in FAR 52.227-19.
  
 Gaussian, Inc.
 340 Quinnipiac St., Bldg. 40, Wallingford CT 06492
  
  
 ---------------------------------------------------------------
 Warning -- This program may not be used in any manner that
 competes with the business of Gaussian, Inc. or will provide
 assistance to any competitor of Gaussian, Inc.  The licensee
 of this program is prohibited from giving any competitor of
 Gaussian, Inc. access to this program.  By using this program,
 the user acknowledges that Gaussian, Inc. is engaged in the
 business of creating and licensing software in the field of
 computational chemistry and represents and warrants to the
 licensee that it is not a competitor of Gaussian, Inc. and that
 it will not use this program in any manner prohibited above.
 ---------------------------------------------------------------
  

 Cite this work as:
 Gaussian 09, Revision E.01,
 M. J. Frisch, G. W. Trucks, H. B. Schlegel, G. E. Scuseria, 
 M. A. Robb, J. R. Cheeseman, G. Scalmani, V. Barone, B. Mennucci, 
 G. A. Petersson, H. Nakatsuji, M. Caricato, X. Li, H. P. Hratchian, 
 A. F. Izmaylov, J. Bloino, G. Zheng, J. L. Sonnenberg, M. Hada, 
 M. Ehara, K. Toyota, R. Fukuda, J. Hasegawa, M. Ishida, T. Nakajima, 
 Y. Honda, O. Kitao, H. Nakai, T. Vreven, J. A. Montgomery, Jr., 
 J. E. Peralta, F. Ogliaro, M. Bearpark, J. J. Heyd, E. Brothers, 
 K. N. Kudin, V. N. Staroverov, T. Keith, R. Kobayashi, J. Normand, 
 K. Raghavachari, A. Rendell, J. C. Burant, S. S. Iyengar, J. Tomasi, 
 M. Cossi, N. Rega, J. M. Millam, M. Klene, J. E. Knox, J. B. Cross, 
 V. Bakken, C. Adamo, J. Jaramillo, R. Gomperts, R. E. Stratmann, 
 O. Yazyev, A. J. Austin, R. Cammi, C. Pomelli, J. W. Ochterski, 
 R. L. Martin, K. Morokuma, V. G. Zakrzewski, G. A. Voth, 
 P. Salvador, J. J. Dannenberg, S. Dapprich, A. D. Daniels, 
 O. Farkas, J. B. Foresman, J. V. Ortiz, J. Cioslowski, 
 and D. J. Fox, Gaussian, Inc., Wallingford CT, 2013.
 
 ******************************************
 Gaussian 09:  ES64L-G09RevE.01 30-Nov-2015
                19-Jun-2024 
 ******************************************
 %chk=pbeDHBgd3.chk
 --------------------------------------
 # opt freq pbepbe/6-31+g(d,p) em=gd3bj
 --------------------------------------
 1/14=-1,18=20,19=15,26=3,38=1/1,3;
 2/9=110,12=2,17=6,18=5,40=1/2;
 3/5=1,6=6,7=111,11=2,16=1,25=1,30=1,71=1,74=1009,124=41/1,2,3;
 4//1;
 5/5=2,38=5/2;
 6/7=2,8=2,9=2,10=2,28=1/1;
 7//1,2,3,16;
 1/14=-1,18=20,19=15,26=3/3(2);
 2/9=110/2;
 99//99;
 2/9=110/2;
 3/5=1,6=6,7=111,11=2,16=1,25=1,30=1,71=1,74=1009,124=41/1,2,3;
 4/5=5,16=3,69=1/1;
 5/5=2,38=5/2;
 7//1,2,3,16;
 1/14=-1,18=20,19=15,26=3/3(-5);
 2/9=110/2;
 6/7=2,8=2,9=2,10=2,19=2,28=1/1;
 99/9=1/99;
 ----------
 [No Title]
 ----------
 Symbolic Z-matrix:
 Charge =  0 Multiplicity = 1
 C                     0.23226   1.27551   0.00005 
 C                     0.46873  -0.11916   0.00007 
 C                    -0.62884  -0.99743   0.00005 
 C                    -1.93638  -0.52239  -0.00002 
 C                    -2.16622   0.85656  -0.00006 
 C                    -1.08899   1.73975  0. 
 O                    -2.94928  -1.45109  -0.00011 
 C                     1.84921  -0.67239   0.00012 
 O                     1.85785  -2.03933   0.00014 
 O                     2.8849   -0.03944  -0.00031 
 O                     1.28179   2.14264   0.0001 
 H                    -0.45722  -2.06616   0.00008 
 H                    -3.18135   1.24702  -0.00013 
 H                    -1.27569   2.81119  -0.00002 
 H                    -3.80738  -1.00815   0.00031 
 H                     2.79373  -2.29838  -0.00007 
 H                     0.94725   3.04951   0.00011 
 

 GradGradGradGradGradGradGradGradGradGradGradGradGradGradGradGradGradGrad
 Berny optimization.
 Initialization pass.
                           ----------------------------
                           !    Initial Parameters    !
                           ! (Angstroms and Degrees)  !
 --------------------------                            --------------------------
 ! Name  Definition              Value          Derivative Info.                !
 --------------------------------------------------------------------------------
 ! R1    R(1,2)                  1.4146         estimate D2E/DX2                !
 ! R2    R(1,6)                  1.4004         estimate D2E/DX2                !
 ! R3    R(1,11)                 1.3614         estimate D2E/DX2                !
 ! R4    R(2,3)                  1.4057         estimate D2E/DX2                !
 ! R5    R(2,8)                  1.4872         estimate D2E/DX2                !
 ! R6    R(3,4)                  1.3912         estimate D2E/DX2                !
 ! R7    R(3,12)                 1.0824         estimate D2E/DX2                !
 ! R8    R(4,5)                  1.398          estimate D2E/DX2                !
 ! R9    R(4,7)                  1.3742         estimate D2E/DX2                !
 ! R10   R(5,6)                  1.393          estimate D2E/DX2                !
 ! R11   R(5,13)                 1.0876         estimate D2E/DX2                !
 ! R12   R(6,14)                 1.0876         estimate D2E/DX2                !
 ! R13   R(7,15)                 0.9657         estimate D2E/DX2                !
 ! R14   R(8,9)                  1.367          estimate D2E/DX2                !
 ! R15   R(8,10)                 1.2138         estimate D2E/DX2                !
 ! R16   R(9,16)                 0.9711         estimate D2E/DX2                !
 ! R17   R(11,17)                0.9666         estimate D2E/DX2                !
 ! A1    A(2,1,6)              118.983          estimate D2E/DX2                !
 ! A2    A(2,1,11)             119.9403         estimate D2E/DX2                !
 ! A3    A(6,1,11)             121.0767         estimate D2E/DX2                !
 ! A4    A(1,2,3)              119.0436         estimate D2E/DX2                !
 ! A5    A(1,2,8)              121.4616         estimate D2E/DX2                !
 ! A6    A(3,2,8)              119.4947         estimate D2E/DX2                !
 ! A7    A(2,3,4)              121.3667         estimate D2E/DX2                !
 ! A8    A(2,3,12)             119.544          estimate D2E/DX2                !
 ! A9    A(4,3,12)             119.0892         estimate D2E/DX2                !
 ! A10   A(3,4,5)              119.4291         estimate D2E/DX2                !
 ! A11   A(3,4,7)              117.517          estimate D2E/DX2                !
 ! A12   A(5,4,7)              123.0538         estimate D2E/DX2                !
 ! A13   A(4,5,6)              119.885          estimate D2E/DX2                !
 ! A14   A(4,5,13)             120.5016         estimate D2E/DX2                !
 ! A15   A(6,5,13)             119.6135         estimate D2E/DX2                !
 ! A16   A(1,6,5)              121.2925         estimate D2E/DX2                !
 ! A17   A(1,6,14)             119.2447         estimate D2E/DX2                !
 ! A18   A(5,6,14)             119.4627         estimate D2E/DX2                !
 ! A19   A(4,7,15)             110.1818         estimate D2E/DX2                !
 ! A20   A(2,8,9)              112.2005         estimate D2E/DX2                !
 ! A21   A(2,8,10)             126.7305         estimate D2E/DX2                !
 ! A22   A(9,8,10)             121.069          estimate D2E/DX2                !
 ! A23   A(8,9,16)             105.8342         estimate D2E/DX2                !
 ! A24   A(1,11,17)            109.3148         estimate D2E/DX2                !
 ! D1    D(6,1,2,3)              0.0            estimate D2E/DX2                !
 ! D2    D(6,1,2,8)            179.9997         estimate D2E/DX2                !
 ! D3    D(11,1,2,3)           179.999          estimate D2E/DX2                !
 ! D4    D(11,1,2,8)            -0.0014         estimate D2E/DX2                !
 ! D5    D(2,1,6,5)             -0.0014         estimate D2E/DX2                !
 ! D6    D(2,1,6,14)           179.9997         estimate D2E/DX2                !
 ! D7    D(11,1,6,5)           179.9997         estimate D2E/DX2                !
 ! D8    D(11,1,6,14)            0.0008         estimate D2E/DX2                !
 ! D9    D(2,1,11,17)         -179.9976         estimate D2E/DX2                !
 ! D10   D(6,1,11,17)            0.0013         estimate D2E/DX2                !
 ! D11   D(1,2,3,4)              0.0008         estimate D2E/DX2                !
 ! D12   D(1,2,3,12)          -179.9991         estimate D2E/DX2                !
 ! D13   D(8,2,3,4)           -179.9989         estimate D2E/DX2                !
 ! D14   D(8,2,3,12)             0.0013         estimate D2E/DX2                !
 ! D15   D(1,2,8,9)            180.0            estimate D2E/DX2                !
 ! D16   D(1,2,8,10)            -0.0262         estimate D2E/DX2                !
 ! D17   D(3,2,8,9)             -0.0004         estimate D2E/DX2                !
 ! D18   D(3,2,8,10)           179.9734         estimate D2E/DX2                !
 ! D19   D(2,3,4,5)             -0.0003         estimate D2E/DX2                !
 ! D20   D(2,3,4,7)            179.9967         estimate D2E/DX2                !
 ! D21   D(12,3,4,5)           179.9996         estimate D2E/DX2                !
 ! D22   D(12,3,4,7)            -0.0034         estimate D2E/DX2                !
 ! D23   D(3,4,5,6)             -0.001          estimate D2E/DX2                !
 ! D24   D(3,4,5,13)           179.9987         estimate D2E/DX2                !
 ! D25   D(7,4,5,6)           -179.9979         estimate D2E/DX2                !
 ! D26   D(7,4,5,13)             0.0018         estimate D2E/DX2                !
 ! D27   D(3,4,7,15)           179.9707         estimate D2E/DX2                !
 ! D28   D(5,4,7,15)            -0.0324         estimate D2E/DX2                !
 ! D29   D(4,5,6,1)              0.0019         estimate D2E/DX2                !
 ! D30   D(4,5,6,14)          -179.9992         estimate D2E/DX2                !
 ! D31   D(13,5,6,1)          -179.9978         estimate D2E/DX2                !
 ! D32   D(13,5,6,14)            0.0011         estimate D2E/DX2                !
 ! D33   D(2,8,9,16)           179.9855         estimate D2E/DX2                !
 ! D34   D(10,8,9,16)            0.0101         estimate D2E/DX2                !
 --------------------------------------------------------------------------------
 Trust Radius=3.00D-01 FncErr=1.00D-07 GrdErr=1.00D-06
 Number of steps in this run=     85 maximum allowed number of steps=    102.
 GradGradGradGradGradGradGradGradGradGradGradGradGradGradGradGradGradGrad

                          Input orientation:                          
 ---------------------------------------------------------------------
 Center     Atomic      Atomic             Coordinates (Angstroms)
 Number     Number       Type             X           Y           Z
 ---------------------------------------------------------------------
      1          6           0        0.232256    1.275513    0.000048
      2          6           0        0.468728   -0.119161    0.000072
      3          6           0       -0.628837   -0.997433    0.000045
      4          6           0       -1.936381   -0.522393   -0.000021
      5          6           0       -2.166215    0.856555   -0.000055
      6          6           0       -1.088986    1.739754   -0.000001
      7          8           0       -2.949284   -1.451085   -0.000113
      8          6           0        1.849211   -0.672390    0.000117
      9          8           0        1.857848   -2.039329    0.000135
     10          8           0        2.884897   -0.039435   -0.000308
     11          8           0        1.281790    2.142637    0.000095
     12          1           0       -0.457219   -2.066158    0.000078
     13          1           0       -3.181355    1.247021   -0.000128
     14          1           0       -1.275691    2.811187   -0.000015
     15          1           0       -3.807383   -1.008155    0.000312
     16          1           0        2.793732   -2.298383   -0.000072
     17          1           0        0.947252    3.049506    0.000109
 ---------------------------------------------------------------------
                    Distance matrix (angstroms):
                    1          2          3          4          5
     1  C    0.000000
     2  C    1.414579   0.000000
     3  C    2.430589   1.405706   0.000000
     4  C    2.816994   2.438677   1.391163   0.000000
     5  C    2.434787   2.809795   2.408486   1.397970   0.000000
     6  C    1.400429   2.425291   2.775595   2.415655   1.393005
     7  O    4.190052   3.668355   2.364376   1.374206   2.436883
     8  C    2.531575   1.487211   2.499275   3.788563   4.296664
     9  O    3.691981   2.369958   2.696136   4.086229   4.957744
    10  O    2.960674   2.417484   3.641989   4.845407   5.129964
    11  O    1.361406   2.403497   3.675668   4.178398   3.680047
    12  H    3.412058   2.155963   1.082417   2.138020   3.385693
    13  H    3.413730   3.897379   3.398959   2.163512   1.087646
    14  H    2.152254   3.410269   3.863160   3.398421   2.147934
    15  H    4.640455   4.367543   3.178564   1.933032   2.484064
    16  H    4.397032   3.186636   3.661482   5.052535   5.878325
    17  H    1.912661   3.204596   4.343014   4.590621   3.808242
                    6          7          8          9         10
     6  C    0.000000
     7  O    3.693530   0.000000
     8  C    3.801505   4.861267   0.000000
     9  O    4.792212   4.842990   1.366966   0.000000
    10  O    4.353994   6.002535   1.213787   2.248201   0.000000
    11  O    2.404765   5.551290   2.871645   4.221455   2.707654
    12  H    3.857991   2.566847   2.694849   2.315222   3.908625
    13  H    2.149603   2.708068   5.384304   6.016117   6.201160
    14  H    1.087579   4.579069   4.679778   5.774649   5.043465
    15  H    3.865318   0.965671   5.666550   5.758312   6.762029
    16  H    5.601968   5.805183   1.880418   0.971076   2.260787
    17  H    2.421098   5.953009   3.829627   5.169664   3.646371
                   11         12         13         14         15
    11  O    0.000000
    12  H    4.553911   0.000000
    13  H    4.552119   4.289297   0.000000
    14  H    2.643420   4.945543   2.465395   0.000000
    15  H    5.985580   3.513256   2.340455   4.582231   0.000000
    16  H    4.691335   3.259235   6.947773   6.532068   6.726025
    17  H    0.966606   5.304956   4.504925   2.235681   6.250693
                   16         17
    16  H    0.000000
    17  H    5.657685   0.000000
 Stoichiometry    C7H6O4
 Framework group  C1[X(C7H6O4)]
 Deg. of freedom    45
 Full point group                 C1      NOp   1
 Largest Abelian subgroup         C1      NOp   1
 Largest concise Abelian subgroup C1      NOp   1
                         Standard orientation:                         
 ---------------------------------------------------------------------
 Center     Atomic      Atomic             Coordinates (Angstroms)
 Number     Number       Type             X           Y           Z
 ---------------------------------------------------------------------
      1          6           0        0.232256    1.275513    0.000048
      2          6           0        0.468728   -0.119161    0.000072
      3          6           0       -0.628837   -0.997433    0.000045
      4          6           0       -1.936381   -0.522393   -0.000021
      5          6           0       -2.166215    0.856555   -0.000055
      6          6           0       -1.088986    1.739754   -0.000001
      7          8           0       -2.949284   -1.451085   -0.000113
      8          6           0        1.849211   -0.672390    0.000117
      9          8           0        1.857848   -2.039329    0.000135
     10          8           0        2.884897   -0.039434   -0.000308
     11          8           0        1.281790    2.142637    0.000095
     12          1           0       -0.457219   -2.066158    0.000078
     13          1           0       -3.181355    1.247021   -0.000128
     14          1           0       -1.275691    2.811187   -0.000015
     15          1           0       -3.807383   -1.008156    0.000312
     16          1           0        2.793732   -2.298382   -0.000072
     17          1           0        0.947251    3.049506    0.000109
 ---------------------------------------------------------------------
 Rotational constants (GHZ):      1.7517488      0.9126359      0.6000293
 Standard basis: 6-31+G(d,p) (6D, 7F)
 There are   239 symmetry adapted cartesian basis functions of A   symmetry.
 There are   239 symmetry adapted basis functions of A   symmetry.
   239 basis functions,   394 primitive gaussians,   239 cartesian basis functions
    40 alpha electrons       40 beta electrons
       nuclear repulsion energy       589.1542397892 Hartrees.
 NAtoms=   17 NActive=   17 NUniq=   17 SFac= 1.00D+00 NAtFMM=   60 NAOKFM=F Big=F
 Integral buffers will be    131072 words long.
 Raffenetti 2 integral format.
 Two-electron integral symmetry is turned on.
 Nuclear repulsion after empirical dispersion term =      589.1362824389 Hartrees.
 One-electron integrals computed using PRISM.
 NBasis=   239 RedAO= T EigKep=  3.24D-06  NBF=   239
 NBsUse=   239 1.00D-06 EigRej= -1.00D+00 NBFU=   239
 ExpMin= 4.38D-02 ExpMax= 5.48D+03 ExpMxC= 8.25D+02 IAcc=2 IRadAn=         4 AccDes= 0.00D+00
 Harris functional with IExCor= 1009 and IRadAn=       4 diagonalized for initial guess.
 HarFok:  IExCor= 1009 AccDes= 0.00D+00 IRadAn=         4 IDoV= 1 UseB2=F ITyADJ=14
 ICtDFT=  3500011 ScaDFX=  1.000000  1.000000  1.000000  1.000000
 FoFCou: FMM=F IPFlag=           0 FMFlag=      100000 FMFlg1=           0
         NFxFlg=           0 DoJE=T BraDBF=F KetDBF=T FulRan=T
         wScrn=  0.000000 ICntrl=     500 IOpCl=  0 I1Cent=   200000004 NGrid=           0
         NMat0=    1 NMatS0=      1 NMatT0=    0 NMatD0=    1 NMtDS0=    0 NMtDT0=    0
 Petite list used in FoFCou.
 Keep J ints in memory in canonical form, NReq=418393415.
 Requested convergence on RMS density matrix=1.00D-08 within 128 cycles.
 Requested convergence on MAX density matrix=1.00D-06.
 Requested convergence on             energy=1.00D-06.
 No special actions if energy rises.
 EnCoef did     1 forward-backward iterations
 SCF Done:  E(RPBE-PBE) =  -570.678270890     A.U. after   15 cycles
            NFock= 15  Conv=0.75D-08     -V/T= 2.0089

 **********************************************************************

            Population analysis using the SCF density.

 **********************************************************************

 Orbital symmetries:
       Occupied  (A) (A) (A) (A) (A) (A) (A) (A) (A) (A) (A) (A)
                 (A) (A) (A) (A) (A) (A) (A) (A) (A) (A) (A) (A)
                 (A) (A) (A) (A) (A) (A) (A) (A) (A) (A) (A) (A)
                 (A) (A) (A) (A)
       Virtual   (A) (A) (A) (A) (A) (A) (A) (A) (A) (A) (A) (A)
                 (A) (A) (A) (A) (A) (A) (A) (A) (A) (A) (A) (A)
                 (A) (A) (A) (A) (A) (A) (A) (A) (A) (A) (A) (A)
                 (A) (A) (A) (A) (A) (A) (A) (A) (A) (A) (A) (A)
                 (A) (A) (A) (A) (A) (A) (A) (A) (A) (A) (A) (A)
                 (A) (A) (A) (A) (A) (A) (A) (A) (A) (A) (A) (A)
                 (A) (A) (A) (A) (A) (A) (A) (A) (A) (A) (A) (A)
                 (A) (A) (A) (A) (A) (A) (A) (A) (A) (A) (A) (A)
                 (A) (A) (A) (A) (A) (A) (A) (A) (A) (A) (A) (A)
                 (A) (A) (A) (A) (A) (A) (A) (A) (A) (A) (A) (A)
                 (A) (A) (A) (A) (A) (A) (A) (A) (A) (A) (A) (A)
                 (A) (A) (A) (A) (A) (A) (A) (A) (A) (A) (A) (A)
                 (A) (A) (A) (A) (A) (A) (A) (A) (A) (A) (A) (A)
                 (A) (A) (A) (A) (A) (A) (A) (A) (A) (A) (A) (A)
                 (A) (A) (A) (A) (A) (A) (A) (A) (A) (A) (A) (A)
                 (A) (A) (A) (A) (A) (A) (A) (A) (A) (A) (A) (A)
                 (A) (A) (A) (A) (A) (A) (A)
 The electronic state is 1-A.
 Alpha  occ. eigenvalues --  -18.82334 -18.82324 -18.82304 -18.76600 -10.02738
 Alpha  occ. eigenvalues --   -9.98226  -9.97431  -9.93274  -9.93006  -9.92662
 Alpha  occ. eigenvalues --   -9.91831  -1.01584  -0.99113  -0.98674  -0.92692
 Alpha  occ. eigenvalues --   -0.79430  -0.71335  -0.68490  -0.61405  -0.58569
 Alpha  occ. eigenvalues --   -0.55760  -0.50922  -0.50329  -0.45427  -0.43965
 Alpha  occ. eigenvalues --   -0.42162  -0.40624  -0.40324  -0.38715  -0.37687
 Alpha  occ. eigenvalues --   -0.36814  -0.35551  -0.34520  -0.32726  -0.31919
 Alpha  occ. eigenvalues --   -0.28150  -0.27671  -0.24802  -0.22649  -0.19490
 Alpha virt. eigenvalues --   -0.08524  -0.03556  -0.02760  -0.02303  -0.00599
 Alpha virt. eigenvalues --    0.00505   0.00986   0.03020   0.03876   0.04145
 Alpha virt. eigenvalues --    0.05101   0.06696   0.07054   0.07343   0.07894
 Alpha virt. eigenvalues --    0.09324   0.10899   0.10903   0.12082   0.12195
 Alpha virt. eigenvalues --    0.12624   0.12884   0.13790   0.14468   0.15224
 Alpha virt. eigenvalues --    0.15641   0.16436   0.16659   0.17089   0.17529
 Alpha virt. eigenvalues --    0.18356   0.19023   0.20179   0.20731   0.21085
 Alpha virt. eigenvalues --    0.21369   0.22501   0.23159   0.23705   0.24691
 Alpha virt. eigenvalues --    0.24856   0.25227   0.25503   0.26857   0.27256
 Alpha virt. eigenvalues --    0.28023   0.28358   0.28683   0.29400   0.29984
 Alpha virt. eigenvalues --    0.30991   0.31583   0.33508   0.34454   0.35501
 Alpha virt. eigenvalues --    0.36617   0.37229   0.38502   0.39799   0.41280
 Alpha virt. eigenvalues --    0.43731   0.47102   0.48032   0.55100   0.57078
 Alpha virt. eigenvalues --    0.60590   0.62522   0.63814   0.66336   0.67885
 Alpha virt. eigenvalues --    0.68879   0.69796   0.70485   0.71648   0.73430
 Alpha virt. eigenvalues --    0.74776   0.78984   0.79691   0.81020   0.81850
 Alpha virt. eigenvalues --    0.88872   0.89530   0.94024   0.95163   0.96602
 Alpha virt. eigenvalues --    0.98867   1.00895   1.03295   1.04317   1.09103
 Alpha virt. eigenvalues --    1.09698   1.12025   1.12027   1.12149   1.14435
 Alpha virt. eigenvalues --    1.14711   1.15998   1.17765   1.18131   1.19307
 Alpha virt. eigenvalues --    1.20797   1.22623   1.24763   1.25174   1.26724
 Alpha virt. eigenvalues --    1.27168   1.29186   1.31178   1.31380   1.31968
 Alpha virt. eigenvalues --    1.32648   1.34073   1.35026   1.36395   1.38773
 Alpha virt. eigenvalues --    1.41694   1.44199   1.50427   1.50980   1.52585
 Alpha virt. eigenvalues --    1.53285   1.62129   1.64104   1.66939   1.68665
 Alpha virt. eigenvalues --    1.70515   1.72671   1.77309   1.79359   1.79446
 Alpha virt. eigenvalues --    1.80942   1.81914   1.82164   1.83401   1.85704
 Alpha virt. eigenvalues --    1.86741   1.91235   1.93920   1.96999   1.98182
 Alpha virt. eigenvalues --    1.99203   2.02232   2.05927   2.14589   2.15993
 Alpha virt. eigenvalues --    2.17836   2.23736   2.24676   2.26363   2.28243
 Alpha virt. eigenvalues --    2.31057   2.31992   2.34060   2.37629   2.39644
 Alpha virt. eigenvalues --    2.41206   2.42904   2.44444   2.46986   2.47519
 Alpha virt. eigenvalues --    2.50461   2.51720   2.52237   2.55100   2.56782
 Alpha virt. eigenvalues --    2.59087   2.61090   2.63820   2.66739   2.67167
 Alpha virt. eigenvalues --    2.70534   2.75112   2.80060   2.87755   2.94007
 Alpha virt. eigenvalues --    2.96151   3.00079   3.04335   3.07186   3.12799
 Alpha virt. eigenvalues --    3.16866   3.22461   3.31058   3.38420   3.41806
 Alpha virt. eigenvalues --    3.44149   3.45111   3.70684   4.09966   4.16012
 Alpha virt. eigenvalues --    4.20289   4.23405   4.25050   4.36218   4.40262
 Alpha virt. eigenvalues --    4.45917   4.50500   4.72556   4.83914
          Condensed to atoms (all electrons):
               1          2          3          4          5          6
     1  C   17.211046  -5.029915  -4.187390   0.615856   0.794928  -0.953658
     2  C   -5.029915  14.981997  -2.151742   0.393734  -0.814836  -1.370371
     3  C   -4.187390  -2.151742  17.002065  -3.986611  -1.031631  -0.560582
     4  C    0.615856   0.393734  -3.986611   9.904922  -0.153019   0.142180
     5  C    0.794928  -0.814836  -1.031631  -0.153019   6.933978  -0.277790
     6  C   -0.953658  -1.370371  -0.560582   0.142180  -0.277790   8.966392
     7  O   -0.023566   0.065532  -0.061718  -0.028968  -0.061744   0.044665
     8  C   -1.401603  -0.203199   0.785331  -0.824747   0.101082  -0.461189
     9  O   -0.080330  -0.252334   0.076232   0.115578   0.006010  -0.020217
    10  O   -0.011803  -0.199341  -0.058227   0.055207   0.010315   0.027589
    11  O    0.213058  -0.440636   0.082999  -0.016277   0.054558   0.231859
    12  H    0.011916   0.024580   0.160780   0.092816   0.035679  -0.012691
    13  H   -0.005043   0.002278  -0.010219   0.031903   0.199208   0.092299
    14  H    0.043958   0.004427  -0.020561   0.001082   0.106945   0.167225
    15  H   -0.007536  -0.013829   0.148196  -0.033816  -0.091720   0.009511
    16  H   -0.000784   0.079630  -0.017368  -0.012034  -0.000922   0.007075
    17  H   -0.034276   0.227699  -0.002984   0.003026   0.002014  -0.209307
               7          8          9         10         11         12
     1  C   -0.023566  -1.401603  -0.080330  -0.011803   0.213058   0.011916
     2  C    0.065532  -0.203199  -0.252334  -0.199341  -0.440636   0.024580
     3  C   -0.061718   0.785331   0.076232  -0.058227   0.082999   0.160780
     4  C   -0.028968  -0.824747   0.115578   0.055207  -0.016277   0.092816
     5  C   -0.061744   0.101082   0.006010   0.010315   0.054558   0.035679
     6  C    0.044665  -0.461189  -0.020217   0.027589   0.231859  -0.012691
     7  O    8.395661  -0.002958   0.000353   0.000084   0.000399  -0.007120
     8  C   -0.002958   6.803961   0.121780   0.425526  -0.186284  -0.005345
     9  O    0.000353   0.121780   8.466810  -0.174956   0.000885   0.002731
    10  O    0.000084   0.425526  -0.174956   8.336108  -0.004321  -0.000234
    11  O    0.000399  -0.186284   0.000885  -0.004321   8.367515  -0.000446
    12  H   -0.007120  -0.005345   0.002731  -0.000234  -0.000446   0.519852
    13  H   -0.015851   0.000555   0.000002   0.000009  -0.000544  -0.000163
    14  H   -0.000626   0.010778   0.000021  -0.000010  -0.019721   0.000011
    15  H    0.189028   0.002632   0.000018  -0.000001  -0.000010  -0.000067
    16  H   -0.000004  -0.008147   0.171994   0.008202   0.000079   0.000088
    17  H   -0.000007   0.034268   0.000082   0.000895   0.151095   0.000005
              13         14         15         16         17
     1  C   -0.005043   0.043958  -0.007536  -0.000784  -0.034276
     2  C    0.002278   0.004427  -0.013829   0.079630   0.227699
     3  C   -0.010219  -0.020561   0.148196  -0.017368  -0.002984
     4  C    0.031903   0.001082  -0.033816  -0.012034   0.003026
     5  C    0.199208   0.106945  -0.091720  -0.000922   0.002014
     6  C    0.092299   0.167225   0.009511   0.007075  -0.209307
     7  O   -0.015851  -0.000626   0.189028  -0.000004  -0.000007
     8  C    0.000555   0.010778   0.002632  -0.008147   0.034268
     9  O    0.000002   0.000021   0.000018   0.171994   0.000082
    10  O    0.000009  -0.000010  -0.000001   0.008202   0.000895
    11  O   -0.000544  -0.019721  -0.000010   0.000079   0.151095
    12  H   -0.000163   0.000011  -0.000067   0.000088   0.000005
    13  H    0.576487  -0.006340   0.007054  -0.000000  -0.000027
    14  H   -0.006340   0.576743  -0.000013  -0.000000   0.010153
    15  H    0.007054  -0.000013   0.435147   0.000000   0.000000
    16  H   -0.000000  -0.000000   0.000000   0.392373  -0.000001
    17  H   -0.000027   0.010153   0.000000  -0.000001   0.453030
 Mulliken charges:
               1
     1  C   -1.154856
     2  C    0.696327
     3  C   -0.166571
     4  C   -0.300832
     5  C    0.186943
     6  C    0.177010
     7  O   -0.493160
     8  C    0.807558
     9  O   -0.434657
    10  O   -0.415041
    11  O   -0.434206
    12  H    0.177608
    13  H    0.128393
    14  H    0.125928
    15  H    0.355406
    16  H    0.379816
    17  H    0.364334
 Sum of Mulliken charges =  -0.00000
 Mulliken charges with hydrogens summed into heavy atoms:
               1
     1  C   -1.154856
     2  C    0.696327
     3  C    0.011037
     4  C   -0.300832
     5  C    0.315337
     6  C    0.302938
     7  O   -0.137754
     8  C    0.807558
     9  O   -0.054841
    10  O   -0.415041
    11  O   -0.069872
 Electronic spatial extent (au):  <R**2>=           1750.3538
 Charge=             -0.0000 electrons
 Dipole moment (field-independent basis, Debye):
    X=             -3.6817    Y=              1.7945    Z=              0.0010  Tot=              4.0958
 Quadrupole moment (field-independent basis, Debye-Ang):
   XX=            -58.0771   YY=            -53.2866   ZZ=            -65.6821
   XY=             -9.4140   XZ=             -0.0016   YZ=              0.0001
 Traceless Quadrupole moment (field-independent basis, Debye-Ang):
   XX=              0.9382   YY=              5.7286   ZZ=             -6.6668
   XY=             -9.4140   XZ=             -0.0016   YZ=              0.0001
 Octapole moment (field-independent basis, Debye-Ang**2):
  XXX=            -61.0717  YYY=             33.7485  ZZZ=             -0.0009  XYY=             23.4682
  XXY=            -20.2653  XXZ=              0.0143  XZZ=              7.8667  YZZ=             -2.9435
  YYZ=             -0.0012  XYZ=              0.0060
 Hexadecapole moment (field-independent basis, Debye-Ang**3):
 XXXX=          -1156.8981 YYYY=           -612.3121 ZZZZ=            -69.7008 XXXY=            -68.7234
 XXXZ=             -0.0327 YYYX=            -22.9960 YYYZ=              0.0092 ZZZX=             -0.0027
 ZZZY=              0.0008 XXYY=           -320.9336 XXZZ=           -247.9095 YYZZ=           -147.2684
 XXYZ=             -0.0099 YYXZ=             -0.0088 ZZXY=              4.3857
 N-N= 5.891362824389D+02 E-N=-2.513217881711D+03  KE= 5.656242744110D+02
 Calling FoFJK, ICntrl=      2527 FMM=F ISym2X=0 I1Cent= 0 IOpClX= 0 NMat=1 NMatS=1 NMatT=0.
 ***** Axes restored to original set *****
 -------------------------------------------------------------------
 Center     Atomic                   Forces (Hartrees/Bohr)
 Number     Number              X              Y              Z
 -------------------------------------------------------------------
      1        6           0.001639247    0.002943630    0.000001512
      2        6           0.003480625   -0.003234945    0.000016377
      3        6           0.000927625    0.000497028    0.000001540
      4        6          -0.003949564   -0.002130468   -0.000002106
      5        6          -0.000210145    0.001790215    0.000001257
      6        6          -0.001224703   -0.000374328   -0.000001178
      7        8           0.005348111   -0.007573693   -0.000000821
      8        6          -0.011255383   -0.002755912   -0.000052781
      9        8          -0.010679476   -0.007355085    0.000019594
     10        8           0.015313880    0.011317981    0.000015934
     11        8           0.008223178   -0.006208645    0.000001006
     12        1           0.001234248   -0.005735135    0.000000405
     13        1          -0.005110147    0.001995155   -0.000000144
     14        1          -0.000931786    0.005435837   -0.000000217
     15        1          -0.006535009    0.004921743    0.000001058
     16        1           0.007973690   -0.000778027   -0.000001330
     17        1          -0.004244390    0.007244650   -0.000000108
 -------------------------------------------------------------------
 Cartesian Forces:  Max     0.015313880 RMS     0.004878485

 GradGradGradGradGradGradGradGradGradGradGradGradGradGradGradGradGradGrad
 Berny optimization.
 FormGI is forming the generalized inverse of G from B-inverse, IUseBI=4.
 Internal  Forces:  Max     0.018965963 RMS     0.003652633
 Search for a local minimum.
 Step number   1 out of a maximum of   85
 All quantities printed in internal units (Hartrees-Bohrs-Radians)
 Mixed Optimization -- RFO/linear search
 Second derivative matrix not updated -- first step.
 ITU=  0
     Eigenvalues ---    0.00935   0.01299   0.01646   0.01964   0.02033
     Eigenvalues ---    0.02035   0.02098   0.02110   0.02126   0.02129
     Eigenvalues ---    0.02138   0.02151   0.02165   0.02202   0.16000
     Eigenvalues ---    0.16000   0.16000   0.16000   0.16000   0.16000
     Eigenvalues ---    0.22368   0.23487   0.24600   0.25000   0.25000
     Eigenvalues ---    0.25000   0.25000   0.25000   0.33757   0.35086
     Eigenvalues ---    0.35094   0.35704   0.40981   0.41727   0.44464
     Eigenvalues ---    0.45444   0.46221   0.46799   0.50177   0.51564
     Eigenvalues ---    0.52664   0.53158   0.54076   0.54271   0.98190
 RFO step:  Lambda=-1.84687724D-03 EMin= 9.35125468D-03
 Linear search not attempted -- first point.
 Iteration  1 RMS(Cart)=  0.00995899 RMS(Int)=  0.00004160
 Iteration  2 RMS(Cart)=  0.00005861 RMS(Int)=  0.00000129
 Iteration  3 RMS(Cart)=  0.00000000 RMS(Int)=  0.00000129
 Variable       Old X    -DE/DX   Delta X   Delta X   Delta X     New X
                                 (Linear)    (Quad)   (Total)
    R1        2.67317   0.00580   0.00000   0.01318   0.01318   2.68634
    R2        2.64643   0.00662   0.00000   0.01441   0.01441   2.66084
    R3        2.57268   0.00373   0.00000   0.00706   0.00706   2.57974
    R4        2.65640   0.00500   0.00000   0.01106   0.01105   2.66745
    R5        2.81042   0.00109   0.00000   0.00322   0.00322   2.81364
    R6        2.62892   0.00664   0.00000   0.01408   0.01408   2.64300
    R7        2.04547   0.00586   0.00000   0.01632   0.01632   2.06179
    R8        2.64178   0.00716   0.00000   0.01567   0.01567   2.65745
    R9        2.59687   0.00266   0.00000   0.00529   0.00529   2.60216
   R10        2.63240   0.00536   0.00000   0.01150   0.01150   2.64390
   R11        2.05535   0.00549   0.00000   0.01555   0.01555   2.07091
   R12        2.05523   0.00552   0.00000   0.01564   0.01564   2.07086
   R13        1.82485   0.00807   0.00000   0.01482   0.01482   1.83967
   R14        2.58319   0.00812   0.00000   0.01570   0.01570   2.59889
   R15        2.29372   0.01897   0.00000   0.01928   0.01928   2.31300
   R16        1.83507   0.00789   0.00000   0.01479   0.01479   1.84986
   R17        1.82662   0.00826   0.00000   0.01523   0.01523   1.84185
    A1        2.07664  -0.00006   0.00000  -0.00065  -0.00065   2.07600
    A2        2.09335  -0.00087   0.00000  -0.00325  -0.00325   2.09010
    A3        2.11319   0.00093   0.00000   0.00390   0.00390   2.11709
    A4        2.07770   0.00036   0.00000   0.00095   0.00095   2.07865
    A5        2.11991  -0.00102   0.00000  -0.00381  -0.00381   2.11610
    A6        2.08558   0.00066   0.00000   0.00286   0.00286   2.08843
    A7        2.11825   0.00004   0.00000   0.00009   0.00009   2.11834
    A8        2.08644  -0.00033   0.00000  -0.00198  -0.00198   2.08446
    A9        2.07850   0.00029   0.00000   0.00189   0.00189   2.08039
   A10        2.08443  -0.00024   0.00000  -0.00056  -0.00056   2.08387
   A11        2.05106  -0.00010   0.00000  -0.00061  -0.00061   2.05045
   A12        2.14769   0.00034   0.00000   0.00117   0.00117   2.14887
   A13        2.09239  -0.00019   0.00000  -0.00035  -0.00035   2.09204
   A14        2.10315   0.00013   0.00000   0.00038   0.00038   2.10353
   A15        2.08765   0.00006   0.00000  -0.00003  -0.00003   2.08762
   A16        2.11695   0.00010   0.00000   0.00052   0.00052   2.11747
   A17        2.08121  -0.00007   0.00000  -0.00039  -0.00039   2.08083
   A18        2.08502  -0.00003   0.00000  -0.00013  -0.00013   2.08488
   A19        1.92303  -0.00252   0.00000  -0.01556  -0.01556   1.90747
   A20        1.95827  -0.00181   0.00000  -0.00718  -0.00718   1.95109
   A21        2.21187  -0.00101   0.00000  -0.00400  -0.00400   2.20786
   A22        2.11305   0.00282   0.00000   0.01118   0.01118   2.12423
   A23        1.84715  -0.00252   0.00000  -0.01555  -0.01555   1.83160
   A24        1.90790  -0.00269   0.00000  -0.01660  -0.01660   1.89130
    D1        0.00000  -0.00000   0.00000  -0.00004  -0.00004  -0.00004
    D2        3.14159  -0.00000   0.00000  -0.00005  -0.00005   3.14154
    D3        3.14157  -0.00000   0.00000  -0.00003  -0.00003   3.14154
    D4       -0.00002  -0.00000   0.00000  -0.00004  -0.00004  -0.00006
    D5       -0.00002   0.00000   0.00000   0.00002   0.00002  -0.00000
    D6        3.14159   0.00000   0.00000   0.00002   0.00002  -3.14158
    D7        3.14159   0.00000   0.00000   0.00001   0.00001  -3.14159
    D8        0.00001   0.00000   0.00000   0.00000   0.00000   0.00002
    D9       -3.14155  -0.00000   0.00000  -0.00001  -0.00001  -3.14156
   D10        0.00002  -0.00000   0.00000  -0.00000  -0.00000   0.00002
   D11        0.00001   0.00000   0.00000   0.00005   0.00005   0.00006
   D12       -3.14158   0.00000   0.00000   0.00002   0.00002  -3.14156
   D13       -3.14157   0.00000   0.00000   0.00005   0.00005  -3.14152
   D14        0.00002   0.00000   0.00000   0.00002   0.00002   0.00004
   D15        3.14159  -0.00001   0.00000  -0.00099  -0.00099   3.14060
   D16       -0.00046   0.00001   0.00000   0.00098   0.00097   0.00051
   D17       -0.00001  -0.00001   0.00000  -0.00100  -0.00099  -0.00100
   D18        3.14113   0.00001   0.00000   0.00097   0.00097  -3.14109
   D19       -0.00001  -0.00000   0.00000  -0.00002  -0.00002  -0.00003
   D20        3.14154  -0.00000   0.00000  -0.00002  -0.00002   3.14152
   D21        3.14159   0.00000   0.00000   0.00001   0.00001   3.14159
   D22       -0.00006   0.00000   0.00000   0.00001   0.00001  -0.00005
   D23       -0.00002   0.00000   0.00000   0.00000   0.00000  -0.00002
   D24        3.14157   0.00000   0.00000   0.00001   0.00001   3.14158
   D25       -3.14156  -0.00000   0.00000  -0.00001  -0.00001  -3.14156
   D26        0.00003   0.00000   0.00000   0.00000   0.00000   0.00003
   D27        3.14108   0.00000   0.00000   0.00010   0.00010   3.14119
   D28       -0.00057   0.00000   0.00000   0.00011   0.00011  -0.00045
   D29        0.00003   0.00000   0.00000   0.00000   0.00000   0.00003
   D30       -3.14158   0.00000   0.00000   0.00001   0.00001  -3.14157
   D31       -3.14155  -0.00000   0.00000  -0.00001  -0.00001  -3.14156
   D32        0.00002  -0.00000   0.00000  -0.00000  -0.00000   0.00002
   D33        3.14134   0.00001   0.00000   0.00094   0.00094  -3.14090
   D34        0.00018  -0.00001   0.00000  -0.00090  -0.00091  -0.00073
         Item               Value     Threshold  Converged?
 Maximum Force            0.018966     0.000450     NO 
 RMS     Force            0.003653     0.000300     NO 
 Maximum Displacement     0.030822     0.001800     NO 
 RMS     Displacement     0.009949     0.001200     NO 
 Predicted change in Energy=-9.273407D-04
 GradGradGradGradGradGradGradGradGradGradGradGradGradGradGradGradGradGrad

                          Input orientation:                          
 ---------------------------------------------------------------------
 Center     Atomic      Atomic             Coordinates (Angstroms)
 Number     Number       Type             X           Y           Z
 ---------------------------------------------------------------------
      1          6           0        0.237013    1.278033   -0.000101
      2          6           0        0.473101   -0.123777   -0.000318
      3          6           0       -0.629168   -1.005533   -0.000266
      4          6           0       -1.943686   -0.527862   -0.000079
      5          6           0       -2.174012    0.859410    0.000098
      6          6           0       -1.091210    1.745409    0.000105
      7          8           0       -2.958147   -1.458996   -0.000131
      8          6           0        1.856660   -0.673903   -0.000613
      9          8           0        1.859192   -2.049174    0.000475
     10          8           0        2.896747   -0.028639   -0.000193
     11          8           0        1.293204    2.142944   -0.000088
     12          1           0       -0.454218   -2.082468   -0.000401
     13          1           0       -3.196436    1.253863    0.000233
     14          1           0       -1.278425    2.825152    0.000263
     15          1           0       -3.816409   -0.999528    0.000388
     16          1           0        2.805453   -2.299854    0.000826
     17          1           0        0.944704    3.053174    0.000100
 ---------------------------------------------------------------------
                    Distance matrix (angstroms):
                    1          2          3          4          5
     1  C    0.000000
     2  C    1.421552   0.000000
     3  C    2.442324   1.411556   0.000000
     4  C    2.831379   2.450336   1.398616   0.000000
     5  C    2.447098   2.823803   2.421684   1.406263   0.000000
     6  C    1.408054   2.437402   2.789474   2.427855   1.399091
     7  O    4.207182   3.681885   2.372714   1.377004   2.447422
     8  C    2.536397   1.488917   2.507852   3.803151   4.312466
     9  O    3.701591   2.372425   2.698356   4.095885   4.972585
    10  O    2.963373   2.425513   3.658743   4.866110   5.147935
    11  O    1.365141   2.410518   3.688960   4.196506   3.697167
    12  H    3.430856   2.167116   1.091054   2.152979   3.407689
    13  H    3.433534   3.919617   3.419903   2.178056   1.095876
    14  H    2.165670   3.429872   3.885316   3.418373   2.160143
    15  H    4.649464   4.377995   3.187247   1.931207   2.480548
    16  H    4.404334   3.189855   3.670408   5.068953   5.897120
    17  H    1.911008   3.211764   4.353180   4.600719   3.813003
                    6          7          8          9         10
     6  C    0.000000
     7  O    3.708594   0.000000
     8  C    3.813529   4.878395   0.000000
     9  O    4.806634   4.853356   1.375274   0.000000
    10  O    4.364751   6.027082   1.223989   2.271362   0.000000
    11  O    2.417325   5.572070   2.872649   4.230154   2.699468
    12  H    3.880516   2.580384   2.706328   2.313649   3.930290
    13  H    2.161850   2.723305   5.408332   6.038993   6.226692
    14  H    1.095853   4.601673   4.698099   5.796869   5.057290
    15  H    3.867996   0.973512   5.682407   5.771846   6.783001
    16  H    5.616773   5.824614   1.882532   0.978903   2.273049
    17  H    2.419750   5.965897   3.837025   5.183652   3.648019
                   11         12         13         14         15
    11  O    0.000000
    12  H    4.572482   0.000000
    13  H    4.576825   4.318666   0.000000
    14  H    2.660579   4.976349   2.479458   0.000000
    15  H    5.998606   3.532293   2.337122   4.590157   0.000000
    16  H    4.693118   3.266912   6.975068   6.553147   6.748327
    17  H    0.974664   5.322763   4.515148   2.234792   6.252407
                   16         17
    16  H    0.000000
    17  H    5.667212   0.000000
 Stoichiometry    C7H6O4
 Framework group  C1[X(C7H6O4)]
 Deg. of freedom    45
 Full point group                 C1      NOp   1
 Largest Abelian subgroup         C1      NOp   1
 Largest concise Abelian subgroup C1      NOp   1
                         Standard orientation:                         
 ---------------------------------------------------------------------
 Center     Atomic      Atomic             Coordinates (Angstroms)
 Number     Number       Type             X           Y           Z
 ---------------------------------------------------------------------
      1          6           0        0.239463    1.278459   -0.000037
      2          6           0        0.471428   -0.124040   -0.000254
      3          6           0       -0.633429   -1.002551   -0.000202
      4          6           0       -1.946537   -0.521017   -0.000014
      5          6           0       -2.172783    0.866927    0.000162
      6          6           0       -1.087379    1.749738    0.000170
      7          8           0       -2.963732   -1.449164   -0.000067
      8          6           0        1.853363   -0.678232   -0.000549
      9          8           0        1.851851   -2.053505    0.000539
     10          8           0        2.895344   -0.036029   -0.000129
     11          8           0        1.298192    2.140260   -0.000024
     12          1           0       -0.461646   -2.079996   -0.000337
     13          1           0       -3.194042    1.264385    0.000297
     14          1           0       -1.271419    2.830026    0.000328
     15          1           0       -3.820639   -0.987173    0.000452
     16          1           0        2.797371   -2.306965    0.000890
     17          1           0        0.952371    3.051510    0.000164
 ---------------------------------------------------------------------
 Rotational constants (GHZ):      1.7407585      0.9061501      0.5959362
 Standard basis: 6-31+G(d,p) (6D, 7F)
 There are   239 symmetry adapted cartesian basis functions of A   symmetry.
 There are   239 symmetry adapted basis functions of A   symmetry.
   239 basis functions,   394 primitive gaussians,   239 cartesian basis functions
    40 alpha electrons       40 beta electrons
       nuclear repulsion energy       586.7805222675 Hartrees.
 NAtoms=   17 NActive=   17 NUniq=   17 SFac= 1.00D+00 NAtFMM=   60 NAOKFM=F Big=F
 Integral buffers will be    131072 words long.
 Raffenetti 2 integral format.
 Two-electron integral symmetry is turned on.
 Nuclear repulsion after empirical dispersion term =      586.7626199606 Hartrees.
 One-electron integrals computed using PRISM.
 NBasis=   239 RedAO= T EigKep=  3.39D-06  NBF=   239
 NBsUse=   239 1.00D-06 EigRej= -1.00D+00 NBFU=   239
 Initial guess from the checkpoint file:  "pbeDHBgd3.chk"
 B after Tr=    -0.000000    0.000000    0.000000
         Rot=    0.999999    0.000008   -0.000005    0.001425 Ang=   0.16 deg.
 ExpMin= 4.38D-02 ExpMax= 5.48D+03 ExpMxC= 8.25D+02 IAcc=2 IRadAn=         4 AccDes= 0.00D+00
 Harris functional with IExCor= 1009 and IRadAn=       4 diagonalized for initial guess.
 HarFok:  IExCor= 1009 AccDes= 0.00D+00 IRadAn=         4 IDoV= 1 UseB2=F ITyADJ=14
 ICtDFT=  3500011 ScaDFX=  1.000000  1.000000  1.000000  1.000000
 FoFCou: FMM=F IPFlag=           0 FMFlag=      100000 FMFlg1=           0
         NFxFlg=           0 DoJE=T BraDBF=F KetDBF=T FulRan=T
         wScrn=  0.000000 ICntrl=     500 IOpCl=  0 I1Cent=   200000004 NGrid=           0
         NMat0=    1 NMatS0=      1 NMatT0=    0 NMatD0=    1 NMtDS0=    0 NMtDT0=    0
 Petite list used in FoFCou.
 Keep J ints in memory in canonical form, NReq=418393415.
 Requested convergence on RMS density matrix=1.00D-08 within 128 cycles.
 Requested convergence on MAX density matrix=1.00D-06.
 Requested convergence on             energy=1.00D-06.
 No special actions if energy rises.
 EnCoef did     6 forward-backward iterations
 SCF Done:  E(RPBE-PBE) =  -570.679206116     A.U. after   13 cycles
            NFock= 13  Conv=0.44D-08     -V/T= 2.0094
 Calling FoFJK, ICntrl=      2527 FMM=F ISym2X=0 I1Cent= 0 IOpClX= 0 NMat=1 NMatS=1 NMatT=0.
 ***** Axes restored to original set *****
 -------------------------------------------------------------------
 Center     Atomic                   Forces (Hartrees/Bohr)
 Number     Number              X              Y              Z
 -------------------------------------------------------------------
      1        6          -0.001003870   -0.000064047   -0.000005311
      2        6           0.000445458   -0.000739735   -0.000054490
      3        6          -0.000223036    0.000518332   -0.000006715
      4        6           0.000537977    0.000473215    0.000002228
      5        6           0.000685188    0.000076021    0.000000826
      6        6           0.000037206   -0.000610398    0.000003494
      7        8           0.000444135   -0.000930896    0.000002940
      8        6          -0.003322530    0.001621879    0.000192848
      9        8          -0.000226364   -0.001135162   -0.000056726
     10        8           0.001579183   -0.000256156   -0.000072441
     11        8           0.001039625   -0.000515361   -0.000002931
     12        1           0.000003810    0.000157740   -0.000001344
     13        1           0.000038724   -0.000037504   -0.000000427
     14        1          -0.000001085    0.000011769    0.000000362
     15        1          -0.000586639    0.000603934   -0.000001568
     16        1           0.001184251   -0.000016654   -0.000001209
     17        1          -0.000632033    0.000843024    0.000000464
 -------------------------------------------------------------------
 Cartesian Forces:  Max     0.003322530 RMS     0.000723772

 GradGradGradGradGradGradGradGradGradGradGradGradGradGradGradGradGradGrad
 Berny optimization.
 Using GEDIIS/GDIIS optimizer.
 FormGI is forming the generalized inverse of G from B-inverse, IUseBI=4.
 Internal  Forces:  Max     0.001809399 RMS     0.000442081
 Search for a local minimum.
 Step number   2 out of a maximum of   85
 All quantities printed in internal units (Hartrees-Bohrs-Radians)
 Mixed Optimization -- En-DIIS/RFO-DIIS
 Update second derivatives using D2CorX and points    1    2
 DE= -9.35D-04 DEPred=-9.27D-04 R= 1.01D+00
 TightC=F SS=  1.41D+00  RLast= 6.50D-02 DXNew= 5.0454D-01 1.9504D-01
 Trust test= 1.01D+00 RLast= 6.50D-02 DXMaxT set to 3.00D-01
 ITU=  1  0
 Use linear search instead of GDIIS.
     Eigenvalues ---    0.00935   0.01304   0.01647   0.01964   0.02033
     Eigenvalues ---    0.02035   0.02098   0.02110   0.02127   0.02129
     Eigenvalues ---    0.02138   0.02151   0.02165   0.02202   0.15562
     Eigenvalues ---    0.16000   0.16000   0.16000   0.16000   0.16001
     Eigenvalues ---    0.22368   0.23485   0.24599   0.24943   0.25000
     Eigenvalues ---    0.25000   0.25000   0.25700   0.33703   0.35089
     Eigenvalues ---    0.35246   0.35961   0.40940   0.41763   0.44379
     Eigenvalues ---    0.46147   0.46235   0.48793   0.49360   0.50363
     Eigenvalues ---    0.52305   0.52785   0.53728   0.54214   0.96434
 RFO step:  Lambda=-4.42547089D-05 EMin= 9.35125522D-03
 Quartic linear search produced a step of  0.02293.
 Iteration  1 RMS(Cart)=  0.00327900 RMS(Int)=  0.00001221
 Iteration  2 RMS(Cart)=  0.00001433 RMS(Int)=  0.00000345
 Iteration  3 RMS(Cart)=  0.00000000 RMS(Int)=  0.00000345
 Variable       Old X    -DE/DX   Delta X   Delta X   Delta X     New X
                                 (Linear)    (Quad)   (Total)
    R1        2.68634   0.00009   0.00030   0.00028   0.00058   2.68693
    R2        2.66084  -0.00066   0.00033  -0.00146  -0.00113   2.65971
    R3        2.57974   0.00053   0.00016   0.00103   0.00119   2.58094
    R4        2.66745  -0.00050   0.00025  -0.00109  -0.00084   2.66662
    R5        2.81364  -0.00081   0.00007  -0.00245  -0.00238   2.81127
    R6        2.64300  -0.00056   0.00032  -0.00121  -0.00089   2.64212
    R7        2.06179  -0.00016   0.00037  -0.00042  -0.00004   2.06175
    R8        2.65745  -0.00041   0.00036  -0.00093  -0.00057   2.65688
    R9        2.60216   0.00032   0.00012   0.00067   0.00079   2.60295
   R10        2.64390  -0.00074   0.00026  -0.00165  -0.00138   2.64252
   R11        2.07091  -0.00005   0.00036  -0.00012   0.00024   2.07114
   R12        2.07086   0.00001   0.00036   0.00006   0.00042   2.07128
   R13        1.83967   0.00081   0.00034   0.00154   0.00188   1.84155
   R14        2.59889   0.00116   0.00036   0.00233   0.00269   2.60158
   R15        2.31300   0.00120   0.00044   0.00128   0.00172   2.31473
   R16        1.84986   0.00115   0.00034   0.00223   0.00257   1.85243
   R17        1.84185   0.00101   0.00035   0.00193   0.00228   1.84413
    A1        2.07600  -0.00002  -0.00001  -0.00001  -0.00002   2.07597
    A2        2.09010   0.00026  -0.00007   0.00101   0.00094   2.09104
    A3        2.11709  -0.00024   0.00009  -0.00100  -0.00092   2.11617
    A4        2.07865  -0.00014   0.00002  -0.00044  -0.00042   2.07824
    A5        2.11610  -0.00006  -0.00009  -0.00031  -0.00040   2.11570
    A6        2.08843   0.00020   0.00007   0.00075   0.00081   2.08925
    A7        2.11834   0.00004   0.00000   0.00025   0.00025   2.11859
    A8        2.08446  -0.00005  -0.00005  -0.00030  -0.00035   2.08411
    A9        2.08039   0.00001   0.00004   0.00005   0.00010   2.08048
   A10        2.08387  -0.00002  -0.00001  -0.00018  -0.00019   2.08368
   A11        2.05045   0.00007  -0.00001   0.00034   0.00032   2.05077
   A12        2.14887  -0.00005   0.00003  -0.00016  -0.00013   2.14874
   A13        2.09204   0.00011  -0.00001   0.00033   0.00032   2.09236
   A14        2.10353  -0.00007   0.00001  -0.00028  -0.00027   2.10326
   A15        2.08762  -0.00004  -0.00000  -0.00005  -0.00005   2.08756
   A16        2.11747   0.00003   0.00001   0.00004   0.00005   2.11753
   A17        2.08083  -0.00002  -0.00001  -0.00005  -0.00006   2.08077
   A18        2.08488  -0.00001  -0.00000   0.00001   0.00001   2.08489
   A19        1.90747  -0.00048  -0.00036  -0.00308  -0.00344   1.90403
   A20        1.95109   0.00118  -0.00016   0.00482   0.00465   1.95574
   A21        2.20786   0.00063  -0.00009   0.00256   0.00246   2.21032
   A22        2.12423  -0.00181   0.00026  -0.00738  -0.00713   2.11711
   A23        1.83160  -0.00052  -0.00036  -0.00338  -0.00374   1.82787
   A24        1.89130  -0.00053  -0.00038  -0.00341  -0.00379   1.88751
    D1       -0.00004   0.00000  -0.00000   0.00016   0.00016   0.00012
    D2        3.14154   0.00000  -0.00000   0.00018   0.00018  -3.14147
    D3        3.14154   0.00000  -0.00000   0.00012   0.00012  -3.14152
    D4       -0.00006   0.00000  -0.00000   0.00014   0.00014   0.00007
    D5       -0.00000  -0.00000   0.00000  -0.00007  -0.00007  -0.00007
    D6       -3.14158  -0.00000   0.00000  -0.00006  -0.00006   3.14155
    D7       -3.14159  -0.00000   0.00000  -0.00003  -0.00003   3.14157
    D8        0.00002  -0.00000   0.00000  -0.00002  -0.00002   0.00000
    D9       -3.14156   0.00000  -0.00000   0.00003   0.00003  -3.14153
   D10        0.00002  -0.00000  -0.00000  -0.00001  -0.00001   0.00001
   D11        0.00006  -0.00000   0.00000  -0.00017  -0.00017  -0.00011
   D12       -3.14156  -0.00000   0.00000  -0.00007  -0.00007   3.14155
   D13       -3.14152  -0.00000   0.00000  -0.00018  -0.00018   3.14148
   D14        0.00004  -0.00000   0.00000  -0.00008  -0.00008  -0.00004
   D15        3.14060   0.00005  -0.00002   0.00393   0.00392  -3.13867
   D16        0.00051  -0.00005   0.00002  -0.00364  -0.00363  -0.00311
   D17       -0.00100   0.00005  -0.00002   0.00395   0.00393   0.00293
   D18       -3.14109  -0.00005   0.00002  -0.00363  -0.00361   3.13848
   D19       -0.00003   0.00000  -0.00000   0.00008   0.00008   0.00005
   D20        3.14152   0.00000  -0.00000   0.00009   0.00009  -3.14158
   D21        3.14159  -0.00000   0.00000  -0.00002  -0.00002   3.14157
   D22       -0.00005  -0.00000   0.00000  -0.00001  -0.00001  -0.00006
   D23       -0.00002   0.00000   0.00000   0.00002   0.00002  -0.00000
   D24        3.14158  -0.00000   0.00000  -0.00001  -0.00001   3.14157
   D25       -3.14156   0.00000  -0.00000   0.00001   0.00001  -3.14156
   D26        0.00003  -0.00000   0.00000  -0.00002  -0.00002   0.00001
   D27        3.14119   0.00000   0.00000   0.00009   0.00009   3.14127
   D28       -0.00045   0.00000   0.00000   0.00010   0.00010  -0.00036
   D29        0.00003  -0.00000   0.00000  -0.00002  -0.00002   0.00002
   D30       -3.14157  -0.00000   0.00000  -0.00003  -0.00003   3.14158
   D31       -3.14156   0.00000  -0.00000   0.00001   0.00001  -3.14155
   D32        0.00002  -0.00000  -0.00000  -0.00001  -0.00001   0.00001
   D33       -3.14090  -0.00005   0.00002  -0.00364  -0.00361   3.13868
   D34       -0.00073   0.00005  -0.00002   0.00352   0.00349   0.00275
         Item               Value     Threshold  Converged?
 Maximum Force            0.001809     0.000450     NO 
 RMS     Force            0.000442     0.000300     NO 
 Maximum Displacement     0.014434     0.001800     NO 
 RMS     Displacement     0.003281     0.001200     NO 
 Predicted change in Energy=-2.256396D-05
 GradGradGradGradGradGradGradGradGradGradGradGradGradGradGradGradGradGrad

                          Input orientation:                          
 ---------------------------------------------------------------------
 Center     Atomic      Atomic             Coordinates (Angstroms)
 Number     Number       Type             X           Y           Z
 ---------------------------------------------------------------------
      1          6           0        0.236638    1.276900    0.000478
      2          6           0        0.472179   -0.125314    0.001214
      3          6           0       -0.630486   -1.005865    0.000999
      4          6           0       -1.944282   -0.527581    0.000210
      5          6           0       -2.173476    0.859574   -0.000444
      6          6           0       -1.090833    1.744614   -0.000297
      7          8           0       -2.959898   -1.458073    0.000071
      8          6           0        1.854552   -0.675018    0.002203
      9          8           0        1.863452   -2.051681   -0.000930
     10          8           0        2.897020   -0.031876   -0.000567
     11          8           0        1.292874    2.142752    0.000589
     12          1           0       -0.456069   -2.082863    0.001525
     13          1           0       -3.195815    1.254596   -0.001092
     14          1           0       -1.277585    2.824663   -0.000822
     15          1           0       -3.817028   -0.994403   -0.000206
     16          1           0        2.813092   -2.294775   -0.002707
     17          1           0        0.940027    3.052601    0.000073
 ---------------------------------------------------------------------
                    Distance matrix (angstroms):
                    1          2          3          4          5
     1  C    0.000000
     2  C    1.421860   0.000000
     3  C    2.441909   1.411112   0.000000
     4  C    2.830648   2.449715   1.398148   0.000000
     5  C    2.445978   2.823030   2.420884   1.405962   0.000000
     6  C    1.407458   2.437138   2.788737   2.427189   1.398360
     7  O    4.206890   3.681766   2.372900   1.377422   2.447437
     8  C    2.535278   1.487659   2.506965   3.801695   4.310451
     9  O    3.704858   2.376243   2.704341   4.101429   4.977167
    10  O    2.964883   2.426642   3.659502   4.866614   5.148263
    11  O    1.365772   2.411984   3.689593   4.196411   3.696232
    12  H    3.430430   2.166481   1.091030   2.152599   3.406967
    13  H    3.432526   3.918972   3.419152   2.177726   1.096002
    14  H    2.165281   3.429875   3.884801   3.417898   2.159675
    15  H    4.646615   4.376370   3.186564   1.930052   2.477598
    16  H    4.403974   3.191621   3.676891   5.074996   5.900489
    17  H    1.909940   3.212169   4.351741   4.597493   3.808316
                    6          7          8          9         10
     6  C    0.000000
     7  O    3.708181   0.000000
     8  C    3.811813   4.877715   0.000000
     9  O    4.810370   4.859740   1.376695   0.000000
    10  O    4.365649   6.028062   1.224900   2.268893   0.000000
    11  O    2.416728   5.572433   2.873206   4.233064   2.702275
    12  H    3.879756   2.580605   2.705734   2.319732   3.930619
    13  H    2.161265   2.722909   5.406443   6.043811   6.227171
    14  H    1.096076   4.601305   4.696600   5.800417   5.058373
    15  H    3.864499   0.974507   5.680567   5.778035   6.782692
    16  H    5.617588   5.833308   1.882136   0.980262   2.264456
    17  H    2.415621   5.962851   3.838164   5.187138   3.652919
                   11         12         13         14         15
    11  O    0.000000
    12  H    4.573251   0.000000
    13  H    4.575714   4.317968   0.000000
    14  H    2.659373   4.975812   2.478854   0.000000
    15  H    5.996069   3.532817   2.333217   4.586288   0.000000
    16  H    4.690705   3.276024   6.978896   6.553036   6.756439
    17  H    0.975872   5.321849   4.509769   2.229296   6.245623
                   16         17
    16  H    0.000000
    17  H    5.665934   0.000000
 Stoichiometry    C7H6O4
 Framework group  C1[X(C7H6O4)]
 Deg. of freedom    45
 Full point group                 C1      NOp   1
 Largest Abelian subgroup         C1      NOp   1
 Largest concise Abelian subgroup C1      NOp   1
                         Standard orientation:                         
 ---------------------------------------------------------------------
 Center     Atomic      Atomic             Coordinates (Angstroms)
 Number     Number       Type             X           Y           Z
 ---------------------------------------------------------------------
      1          6           0        0.237111    1.278424    0.000275
      2          6           0        0.470763   -0.124107    0.001011
      3          6           0       -0.633087   -1.003171    0.000796
      4          6           0       -1.946238   -0.523119    0.000007
      5          6           0       -2.173563    0.864344   -0.000647
      6          6           0       -1.089729    1.747925   -0.000500
      7          8           0       -2.963106   -1.452242   -0.000132
      8          6           0        1.852394   -0.675672    0.002000
      9          8           0        1.859440   -2.052345   -0.001133
     10          8           0        2.895728   -0.033934   -0.000770
     11          8           0        1.294512    2.142852    0.000386
     12          1           0       -0.460121   -2.080403    0.001322
     13          1           0       -3.195370    1.260743   -0.001295
     14          1           0       -1.275026    2.828225   -0.001025
     15          1           0       -3.819611   -0.987417   -0.000409
     16          1           0        2.808751   -2.296718   -0.002911
     17          1           0        0.942891    3.053175   -0.000130
 ---------------------------------------------------------------------
 Rotational constants (GHZ):      1.7404274      0.9055838      0.5956525
 Standard basis: 6-31+G(d,p) (6D, 7F)
 There are   239 symmetry adapted cartesian basis functions of A   symmetry.
 There are   239 symmetry adapted basis functions of A   symmetry.
   239 basis functions,   394 primitive gaussians,   239 cartesian basis functions
    40 alpha electrons       40 beta electrons
       nuclear repulsion energy       586.6971699985 Hartrees.
 NAtoms=   17 NActive=   17 NUniq=   17 SFac= 1.00D+00 NAtFMM=   60 NAOKFM=F Big=F
 Integral buffers will be    131072 words long.
 Raffenetti 2 integral format.
 Two-electron integral symmetry is turned on.
 Nuclear repulsion after empirical dispersion term =      586.6792686840 Hartrees.
 One-electron integrals computed using PRISM.
 NBasis=   239 RedAO= T EigKep=  3.38D-06  NBF=   239
 NBsUse=   239 1.00D-06 EigRej= -1.00D+00 NBFU=   239
 Initial guess from the checkpoint file:  "pbeDHBgd3.chk"
 B after Tr=     0.000000   -0.000000   -0.000000
         Rot=    1.000000   -0.000027    0.000013   -0.000683 Ang=  -0.08 deg.
 Keep J ints in memory in canonical form, NReq=418393415.
 Requested convergence on RMS density matrix=1.00D-08 within 128 cycles.
 Requested convergence on MAX density matrix=1.00D-06.
 Requested convergence on             energy=1.00D-06.
 No special actions if energy rises.
 SCF Done:  E(RPBE-PBE) =  -570.679228837     A.U. after   11 cycles
            NFock= 11  Conv=0.56D-08     -V/T= 2.0094
 Calling FoFJK, ICntrl=      2527 FMM=F ISym2X=0 I1Cent= 0 IOpClX= 0 NMat=1 NMatS=1 NMatT=0.
 ***** Axes restored to original set *****
 -------------------------------------------------------------------
 Center     Atomic                   Forces (Hartrees/Bohr)
 Number     Number              X              Y              Z
 -------------------------------------------------------------------
      1        6          -0.000224080   -0.000105063    0.000021222
      2        6           0.000513768   -0.000262180    0.000215066
      3        6          -0.000027033    0.000017779    0.000024284
      4        6           0.000269430    0.000112113   -0.000014559
      5        6           0.000027359   -0.000012799    0.000001240
      6        6           0.000043896   -0.000053456   -0.000014624
      7        8          -0.000196499   -0.000022861    0.000000747
      8        6          -0.000744358    0.000572620   -0.000769289
      9        8          -0.000228378   -0.000624904    0.000226347
     10        8           0.000252779    0.000163983    0.000291103
     11        8           0.000129464    0.000152951    0.000010789
     12        1           0.000038400    0.000083213    0.000004302
     13        1           0.000094605   -0.000055820    0.000002103
     14        1           0.000015192   -0.000115243   -0.000001496
     15        1           0.000051140   -0.000059211   -0.000001969
     16        1          -0.000042352    0.000249849    0.000006043
     17        1           0.000026668   -0.000040970   -0.000001308
 -------------------------------------------------------------------
 Cartesian Forces:  Max     0.000769289 RMS     0.000236931

 GradGradGradGradGradGradGradGradGradGradGradGradGradGradGradGradGradGrad
 Berny optimization.
 Using GEDIIS/GDIIS optimizer.
 FormGI is forming the generalized inverse of G from B-inverse, IUseBI=4.
 Internal  Forces:  Max     0.000843659 RMS     0.000150533
 Search for a local minimum.
 Step number   3 out of a maximum of   85
 All quantities printed in internal units (Hartrees-Bohrs-Radians)
 Mixed Optimization -- En-DIIS/RFO-DIIS
 Swapping is turned off.
 Update second derivatives using D2CorX and points    1    2    3
 DE= -2.27D-05 DEPred=-2.26D-05 R= 1.01D+00
 TightC=F SS=  1.41D+00  RLast= 1.56D-02 DXNew= 5.0454D-01 4.6768D-02
 Trust test= 1.01D+00 RLast= 1.56D-02 DXMaxT set to 3.00D-01
 ITU=  1  1  0
     Eigenvalues ---    0.00935   0.01534   0.01647   0.01965   0.02033
     Eigenvalues ---    0.02035   0.02098   0.02110   0.02127   0.02129
     Eigenvalues ---    0.02138   0.02151   0.02165   0.02202   0.13414
     Eigenvalues ---    0.16000   0.16000   0.16000   0.16000   0.16339
     Eigenvalues ---    0.22363   0.23482   0.23977   0.24796   0.25000
     Eigenvalues ---    0.25000   0.25016   0.26689   0.33341   0.35093
     Eigenvalues ---    0.35405   0.35949   0.41176   0.41768   0.44378
     Eigenvalues ---    0.45931   0.46257   0.46445   0.49052   0.50388
     Eigenvalues ---    0.52481   0.53534   0.54181   0.54958   0.95172
 En-DIIS/RFO-DIIS IScMMF=        0 using points:     3    2
 RFO step:  Lambda=-4.57576088D-06.
 DidBck=F Rises=F RFO-DIIS coefs:    0.98678    0.01322
 Iteration  1 RMS(Cart)=  0.00457206 RMS(Int)=  0.00003472
 Iteration  2 RMS(Cart)=  0.00004148 RMS(Int)=  0.00001992
 Iteration  3 RMS(Cart)=  0.00000000 RMS(Int)=  0.00001992
 Variable       Old X    -DE/DX   Delta X   Delta X   Delta X     New X
                                 (Linear)    (Quad)   (Total)
    R1        2.68693  -0.00013  -0.00001   0.00011   0.00010   2.68703
    R2        2.65971  -0.00017   0.00001  -0.00074  -0.00072   2.65899
    R3        2.58094   0.00019  -0.00002   0.00099   0.00097   2.58191
    R4        2.66662  -0.00016   0.00001  -0.00063  -0.00062   2.66600
    R5        2.81127  -0.00084   0.00003  -0.00353  -0.00350   2.80777
    R6        2.64212  -0.00018   0.00001  -0.00065  -0.00064   2.64148
    R7        2.06175  -0.00008   0.00000  -0.00006  -0.00006   2.06169
    R8        2.65688  -0.00012   0.00001  -0.00035  -0.00034   2.65654
    R9        2.60295   0.00016  -0.00001   0.00073   0.00072   2.60367
   R10        2.64252  -0.00009   0.00002  -0.00070  -0.00068   2.64184
   R11        2.07114  -0.00011  -0.00000  -0.00003  -0.00004   2.07111
   R12        2.07128  -0.00012  -0.00001   0.00003   0.00003   2.07131
   R13        1.84155  -0.00007  -0.00002   0.00089   0.00087   1.84242
   R14        2.60158   0.00038  -0.00004   0.00213   0.00209   2.60367
   R15        2.31473   0.00030  -0.00002   0.00129   0.00127   2.31600
   R16        1.85243  -0.00011  -0.00003   0.00114   0.00111   1.85353
   R17        1.84413  -0.00005  -0.00003   0.00112   0.00109   1.84522
    A1        2.07597  -0.00009   0.00000  -0.00036  -0.00036   2.07561
    A2        2.09104   0.00001  -0.00001   0.00042   0.00041   2.09145
    A3        2.11617   0.00008   0.00001  -0.00006  -0.00005   2.11612
    A4        2.07824   0.00010   0.00001   0.00022   0.00022   2.07846
    A5        2.11570   0.00004   0.00001  -0.00005  -0.00004   2.11566
    A6        2.08925  -0.00015  -0.00001  -0.00017  -0.00018   2.08907
    A7        2.11859  -0.00002  -0.00000   0.00001   0.00001   2.11861
    A8        2.08411  -0.00004   0.00000  -0.00044  -0.00043   2.08368
    A9        2.08048   0.00006  -0.00000   0.00042   0.00042   2.08090
   A10        2.08368  -0.00004   0.00000  -0.00025  -0.00025   2.08342
   A11        2.05077   0.00006  -0.00000   0.00037   0.00037   2.05114
   A12        2.14874  -0.00002   0.00000  -0.00012  -0.00011   2.14862
   A13        2.09236   0.00004  -0.00000   0.00031   0.00031   2.09266
   A14        2.10326  -0.00003   0.00000  -0.00029  -0.00029   2.10297
   A15        2.08756  -0.00000   0.00000  -0.00002  -0.00002   2.08755
   A16        2.11753   0.00001  -0.00000   0.00007   0.00007   2.11760
   A17        2.08077  -0.00000   0.00000  -0.00005  -0.00005   2.08072
   A18        2.08489  -0.00001  -0.00000  -0.00003  -0.00003   2.08486
   A19        1.90403   0.00004   0.00005  -0.00147  -0.00142   1.90261
   A20        1.95574  -0.00020  -0.00006   0.00132   0.00116   1.95690
   A21        2.21032   0.00010  -0.00003   0.00152   0.00139   2.21172
   A22        2.11711   0.00011   0.00009  -0.00271  -0.00271   2.11439
   A23        1.82787  -0.00042   0.00005  -0.00448  -0.00443   1.82344
   A24        1.88751   0.00002   0.00005  -0.00177  -0.00172   1.88579
    D1        0.00012  -0.00001  -0.00000  -0.00054  -0.00054  -0.00042
    D2       -3.14147  -0.00001  -0.00000  -0.00059  -0.00059   3.14112
    D3       -3.14152  -0.00001  -0.00000  -0.00040  -0.00040   3.14126
    D4        0.00007  -0.00001  -0.00000  -0.00045  -0.00045  -0.00038
    D5       -0.00007   0.00001   0.00000   0.00026   0.00026   0.00018
    D6        3.14155   0.00000   0.00000   0.00019   0.00019  -3.14145
    D7        3.14157   0.00000   0.00000   0.00012   0.00012  -3.14150
    D8        0.00000   0.00000   0.00000   0.00005   0.00005   0.00005
    D9       -3.14153  -0.00000  -0.00000  -0.00012  -0.00012   3.14153
   D10        0.00001   0.00000   0.00000   0.00003   0.00003   0.00004
   D11       -0.00011   0.00001   0.00000   0.00055   0.00055   0.00044
   D12        3.14155   0.00001   0.00000   0.00022   0.00022  -3.14141
   D13        3.14148   0.00001   0.00000   0.00060   0.00060  -3.14110
   D14       -0.00004   0.00001   0.00000   0.00027   0.00027   0.00023
   D15       -3.13867  -0.00020  -0.00005  -0.01330  -0.01336   3.13116
   D16       -0.00311   0.00019   0.00005   0.01249   0.01255   0.00944
   D17        0.00293  -0.00020  -0.00005  -0.01335  -0.01341  -0.01048
   D18        3.13848   0.00019   0.00005   0.01244   0.01250  -3.13220
   D19        0.00005  -0.00001  -0.00000  -0.00026  -0.00026  -0.00021
   D20       -3.14158  -0.00001  -0.00000  -0.00024  -0.00024   3.14136
   D21        3.14157   0.00000   0.00000   0.00007   0.00007  -3.14154
   D22       -0.00006   0.00000   0.00000   0.00009   0.00009   0.00003
   D23       -0.00000  -0.00000  -0.00000  -0.00004  -0.00004  -0.00004
   D24        3.14157   0.00000   0.00000   0.00006   0.00006  -3.14156
   D25       -3.14156  -0.00000  -0.00000  -0.00005  -0.00005   3.14157
   D26        0.00001   0.00000   0.00000   0.00004   0.00004   0.00005
   D27        3.14127   0.00000  -0.00000   0.00012   0.00012   3.14139
   D28       -0.00036   0.00000  -0.00000   0.00014   0.00014  -0.00022
   D29        0.00002   0.00000   0.00000   0.00003   0.00003   0.00005
   D30        3.14158   0.00000   0.00000   0.00010   0.00010  -3.14150
   D31       -3.14155  -0.00000  -0.00000  -0.00006  -0.00006   3.14157
   D32        0.00001   0.00000   0.00000   0.00001   0.00001   0.00002
   D33        3.13868   0.00019   0.00005   0.01231   0.01234  -3.13217
   D34        0.00275  -0.00018  -0.00005  -0.01192  -0.01194  -0.00919
         Item               Value     Threshold  Converged?
 Maximum Force            0.000844     0.000450     NO 
 RMS     Force            0.000151     0.000300     YES
 Maximum Displacement     0.022681     0.001800     NO 
 RMS     Displacement     0.004571     0.001200     NO 
 Predicted change in Energy=-1.031187D-05
 GradGradGradGradGradGradGradGradGradGradGradGradGradGradGradGradGradGrad

                          Input orientation:                          
 ---------------------------------------------------------------------
 Center     Atomic      Atomic             Coordinates (Angstroms)
 Number     Number       Type             X           Y           Z
 ---------------------------------------------------------------------
      1          6           0        0.236828    1.276574   -0.001521
      2          6           0        0.471971   -0.125761   -0.004024
      3          6           0       -0.630498   -1.006032   -0.003308
      4          6           0       -1.943947   -0.527791   -0.000725
      5          6           0       -2.172682    0.859255    0.001460
      6          6           0       -1.090315    1.744065    0.001079
      7          8           0       -2.960237   -1.458113   -0.000479
      8          6           0        1.852484   -0.675121   -0.007424
      9          8           0        1.862699   -2.052839    0.003848
     10          8           0        2.896580   -0.033385    0.000829
     11          8           0        1.293355    2.142882   -0.001784
     12          1           0       -0.455695   -2.082933   -0.005046
     13          1           0       -3.194994    1.254290    0.003532
     14          1           0       -1.277094    2.824122    0.002879
     15          1           0       -3.816912   -0.992642    0.001596
     16          1           0        2.814195   -2.290933    0.009295
     17          1           0        0.938625    3.052614    0.000090
 ---------------------------------------------------------------------
                    Distance matrix (angstroms):
                    1          2          3          4          5
     1  C    0.000000
     2  C    1.421915   0.000000
     3  C    2.441833   1.410785   0.000000
     4  C    2.830462   2.449142   1.397809   0.000000
     5  C    2.445384   2.822141   2.420259   1.405782   0.000000
     6  C    1.407077   2.436599   2.788277   2.426937   1.398001
     7  O    4.207106   3.681742   2.373198   1.377804   2.447537
     8  C    2.533672   1.485808   2.504939   3.799295   4.307709
     9  O    3.705196   2.376514   2.704050   4.100774   4.976405
    10  O    2.964840   2.426373   3.658734   4.865711   5.147254
    11  O    1.366287   2.412761   3.690105   4.196740   3.696096
    12  H    3.430144   2.165892   1.090997   2.152528   3.406546
    13  H    3.431898   3.918064   3.418441   2.177372   1.095983
    14  H    2.164921   3.429443   3.884354   3.417606   2.159348
    15  H    4.645661   4.375618   3.186447   1.929790   2.476492
    16  H    4.401141   3.189697   3.676553   5.074317   5.898534
    17  H    1.909670   3.212452   4.351409   4.596577   3.806712
                    6          7          8          9         10
     6  C    0.000000
     7  O    3.708174   0.000000
     8  C    3.809541   4.876004   0.000000
     9  O    4.810071   4.859468   1.377802   0.000000
    10  O    4.365165   6.027616   1.225572   2.268724   0.000000
    11  O    2.416805   5.573169   2.872942   4.234177   2.703049
    12  H    3.879265   2.581308   2.703633   2.318607   3.929176
    13  H    2.160916   2.722545   5.403682   6.042960   6.226186
    14  H    1.096089   4.601143   4.694578   5.800263   5.058152
    15  H    3.863146   0.974967   5.678289   5.777717   6.781678
    16  H    5.614845   5.834189   1.880430   0.980848   2.259066
    17  H    2.414311   5.962196   3.838125   5.188408   3.654720
                   11         12         13         14         15
    11  O    0.000000
    12  H    4.573478   0.000000
    13  H    4.575468   4.317510   0.000000
    14  H    2.659195   4.975334   2.478450   0.000000
    15  H    5.995528   3.533633   2.331413   4.584579   0.000000
    16  H    4.687408   3.276531   6.977034   6.549998   6.757012
    17  H    0.976447   5.321465   4.507858   2.227470   6.243335
                   16         17
    16  H    0.000000
    17  H    5.663157   0.000000
 Stoichiometry    C7H6O4
 Framework group  C1[X(C7H6O4)]
 Deg. of freedom    45
 Full point group                 C1      NOp   1
 Largest Abelian subgroup         C1      NOp   1
 Largest concise Abelian subgroup C1      NOp   1
                         Standard orientation:                         
 ---------------------------------------------------------------------
 Center     Atomic      Atomic             Coordinates (Angstroms)
 Number     Number       Type             X           Y           Z
 ---------------------------------------------------------------------
      1          6           0        0.237438    1.278452   -0.000832
      2          6           0        0.470673   -0.124202   -0.003335
      3          6           0       -0.632992   -1.002972   -0.002619
      4          6           0       -1.945790   -0.522945   -0.000036
      5          6           0       -2.172638    0.864412    0.002149
[...]
 ! D30   D(4,5,6,14)          -179.9996         -DE/DX =    0.0                 !
 ! D31   D(13,5,6,1)          -179.9988         -DE/DX =    0.0                 !
 ! D32   D(13,5,6,14)            0.0006         -DE/DX =    0.0                 !
 ! D33   D(2,8,9,16)           179.9799         -DE/DX =    0.0                 !
 ! D34   D(10,8,9,16)            0.0174         -DE/DX =    0.0                 !
 --------------------------------------------------------------------------------
 GradGradGradGradGradGradGradGradGradGradGradGradGradGradGradGradGradGrad

 1\1\ WCSS.PL-BEM-C612-X99\Freq\RPBEPBE\6-31+G(d,p)\C7H6O4\PHZD\19-Jun-
 2024\0\\#N Geom=AllCheck Guess=TCheck SCRF=Check GenChk RPBEPBE/6-31+G
 (d,p) Freq\\[No Title]\\0,1\C,0.2369290488,1.276914628,0.0000641429\C,
 0.4722366592,-0.1252490478,0.0001346078\C,-0.6300695136,-1.0058917042,
 0.0001158168\C,-1.9436745994,-0.5278706987,0.0000277674\C,-2.172745782
 7,0.8591533983,-0.000040565\C,-1.0903872562,1.744256974,-0.0000122265\
 O,-2.9596672473,-1.458361592,-0.0000153494\C,1.8528520378,-0.674702129
 2,0.0002178142\O,1.8612002815,-2.0521590249,0.0000270618\O,2.896343975
 4,-0.0324843445,-0.0002588745\O,1.2934735547,2.1429279541,0.0000906936
 \H,-0.455024427,-2.0826907697,0.0001741503\H,-3.1950296005,1.253960384
 8,-0.0001195573\H,-1.2773416029,2.8241397917,-0.0000594638\H,-3.816686
 2539,-0.9942863996,0.0001183313\H,2.8117449428,-2.2921799212,-0.000229
 7459\H,0.9402087834,3.052773501,0.0000633963\\Version=ES64L-G09RevE.01
 \State=1-A\HF=-570.6792328\RMSD=5.932e-09\RMSF=8.506e-05\ZeroPoint=0.1
 199181\Thermal=0.1298053\Dipole=-1.4728837,0.725711,0.0001581\DipoleDe
 riv=0.6719497,0.8392666,0.0000305,0.4478116,0.6339091,0.0000201,-0.000
 0525,0.0000615,0.0590746,-0.6102773,0.45191,0.0000107,-0.0043225,-0.15
 06563,-0.0000054,-0.0000008,-0.0000149,-0.0005109,0.0563316,-0.4488581
 ,0.0000204,0.199314,-0.054762,-0.0000017,-0.000063,0.0000358,-0.126595
 7,0.8417834,0.8973276,0.0000232,0.9278708,0.3613447,0.0000146,0.000036
 5,0.0000543,0.054489,-0.0354333,0.1516603,0.0000171,-0.3935004,0.10062
 64,-0.0000219,-0.000002,0.0000035,-0.1430771,-0.1296581,-0.4419124,0.0
 000046,0.1250525,0.049509,-0.000003,0.0000232,-0.0000573,-0.1668651,-1
 .066915,-0.6784028,-0.0000357,-0.7624681,-0.6163424,0.0000218,-0.00010
 11,-0.0000308,-0.3444738,1.8750753,-0.3328692,-0.0000675,-0.2793649,1.
 6963007,-0.0000523,-0.0001953,0.0000471,0.230766,-0.4461348,0.2212141,
 -0.000017,0.289259,-1.3476821,0.0000571,0.0000064,-0.0001888,-0.344778
 9,-1.2520992,-0.1220745,0.0000246,-0.1005187,-0.6120232,-0.0000167,0.0
 002717,0.0001163,-0.3213204,-0.6812561,-0.7665153,-0.0000219,-0.605352
 7,-0.8162922,-0.0000226,-0.0000124,-0.0000331,-0.3005095,0.1246936,-0.
 0045512,-0.000007,-0.0105294,0.0335964,0.0000074,0.000005,0.0000005,0.
 1417447,-0.1109225,0.0303616,-0.0000133,0.025819,0.0674391,0.0000061,-
 0.0000214,0.0000067,0.1433721,0.0567945,-0.0214209,-0.000003,0.0002572
 ,-0.1165865,0.0000073,0.0000081,0.0000129,0.1470075,0.3003209,0.086938
 ,0.0000102,0.1414148,0.1794944,-0.0000281,0.0000555,-0.0000069,0.32748
 81,0.1860274,-0.0326069,0.0000296,-0.1022425,0.3378676,0.0000119,0.000
 0453,-0.0000099,0.3251024,0.2197199,0.1705331,-0.0000056,0.1015002,0.2
 542577,0.0000053,-0.0000032,0.000003,0.3190869\Polar=138.6081213,-1.32
 84456,118.4973242,-0.000858,-0.0016607,53.4828683\PG=C01 [X(C7H6O4)]\N
 Imag=0\\0.65354426,0.00439950,0.66496707,0.00002634,-0.00001921,0.1371
 7693,-0.12686838,0.05592240,-0.00000739,0.61347063,0.01539771,-0.27002
 880,0.00001086,0.02488634,0.65586345,-0.00000730,0.00001352,-0.0574614
 3,0.00000966,-0.00001970,0.12229547,0.04600239,-0.05051467,0.00000527,
 -0.22647257,-0.08464503,-0.00001102,0.67450378,-0.01889114,-0.03554199
 ,0.00000118,-0.12108733,-0.19713227,0.00000246,-0.01253947,0.70532140,
 0.00000154,-0.00000176,-0.00134634,-0.00000816,0.00000278,-0.04562181,
 0.00003170,-0.00002764,0.11265252,-0.03116043,0.02978104,-0.00000305,-
 0.04876171,-0.03165943,-0.00000079,-0.29099717,0.10857099,-0.00001620,
 0.68052187,0.03268697,-0.03650699,0.00000307,0.00592695,0.04639626,-0.
 00000424,0.04763001,-0.14682209,0.00000654,-0.01611403,0.65909119,-0.0
 0000386,0.00000419,0.00188397,-0.00000385,-0.00000304,-0.00246774,-0.0
 0001256,0.00000882,-0.05535670,0.00002405,-0.00001343,0.12499857,-0.04
 963457,-0.00016101,-0.00000258,-0.00796804,-0.01285370,0.00000029,0.01
 051087,0.02978502,-0.00000181,-0.12640900,0.07583181,-0.00000786,0.702
 36644,-0.03954967,0.05162653,-0.00000423,-0.01629056,-0.03967201,0.000
 00125,0.06489545,-0.01036028,0.00000370,0.00847082,-0.30133269,0.00000
 822,-0.00208264,0.65391869,-0.00000081,-0.00000217,-0.00350750,0.00000
 069,0.00000047,0.00283865,-0.00000226,0.00000266,0.00174120,-0.0000046
 6,0.00001351,-0.05117726,0.00003635,-0.00002041,0.10432175,-0.27280725
 ,0.03833625,-0.00001177,0.00883348,0.05812273,-0.00000102,-0.05006598,
 -0.00519379,-0.00000177,0.04694401,-0.05459120,0.00000672,-0.25302253,
 -0.09242972,-0.00000932,0.65546360,0.10233258,-0.14490536,0.00000765,0
 .02588343,-0.00694551,0.00000342,-0.00509030,-0.00368571,-0.00000020,-
 0.01642730,-0.03917780,-0.00000014,-0.14223539,-0.20536896,-0.00000157
 ,0.01620058,0.69866884,-0.00001168,0.00000301,-0.05463020,-0.00000189,
 0.00000508,0.00336203,-0.00000281,-0.00000044,0.00280198,0.00000382,-0
 .00000112,-0.00208463,-0.00000640,0.00000165,-0.04126676,0.00002598,-0
 .00002006,0.10086695,0.00615479,-0.00063767,0.00000060,-0.00051745,0.0
 0600556,-0.00000065,-0.05041246,-0.03217352,-0.00000255,-0.19775499,-0
 .12157382,-0.00000395,-0.00018386,-0.00433532,-0.00000097,-0.00582424,
 0.00033306,-0.00000025,0.62352773,-0.00057695,0.00420429,-0.00000025,0
 .00033493,-0.00595730,0.00000133,0.00391351,0.01542445,0.00000020,-0.0
 7004703,-0.18586190,-0.00000934,-0.04211170,-0.03598481,-0.00000187,0.
 00689348,-0.00252257,0.00000044,-0.06160559,0.36231452,0.00000155,-0.0
 0000075,-0.00158714,0.00000095,0.00000067,0.00433523,-0.00000338,-0.00
 000067,0.00539772,0.00000254,-0.00000510,-0.03325744,0.00000217,0.0000
 0215,0.00560111,-0.00000238,0.00000053,0.00648186,-0.00005466,0.000040
 92,0.02099728,0.01247154,0.03048718,0.00000041,-0.16415189,0.03510036,
 -0.00001807,-0.03846100,-0.00258163,-0.00000074,0.00312124,-0.01203760
 ,0.00000149,0.00286595,0.00421215,-0.00000019,-0.00145497,-0.00063966,
 0.00000149,0.00270222,0.00371117,0.00000017,0.83199504,0.03127608,-0.0
 0897423,0.00000259,0.04937696,-0.11243409,0.00000724,-0.01136621,0.018
 55811,-0.00000362,-0.00488319,0.00113933,-0.00000116,-0.00238171,-0.00
 403181,0.00000036,0.00154280,-0.00611044,0.00000068,-0.00389438,-0.002
 08639,0.00000013,0.14679654,0.59763849,-0.00000161,-0.00000556,0.00143
 703,-0.00000156,-0.00000008,-0.07198494,0.00000245,0.00000283,-0.00103
 529,-0.00000099,0.00000134,0.00778041,0.00000108,-0.00000104,-0.001083
 30,-0.00000077,0.00000036,0.00541241,-0.00000087,-0.00000053,0.0004306
 1,-0.00019961,-0.00007866,0.19010188,-0.00816182,-0.00426502,-0.000000
 25,-0.00654169,0.04046589,0.00000319,-0.00566486,0.00276632,0.00000069
 ,0.00184347,0.00157911,0.00000044,-0.00045584,0.00043015,-0.00000010,-
 0.00004041,0.00216034,-0.00000045,-0.00091034,-0.00065880,-0.00000009,
 -0.11402441,0.02760333,0.00001772,0.56920647,0.00169637,0.00419582,-0.
 00000040,0.01827207,-0.02939106,-0.00000701,-0.00179929,-0.00430761,0.
 00000150,0.00020290,-0.00302258,0.00000037,0.00070624,0.00110961,-0.00
 000012,0.00016530,-0.00032120,0.00000030,0.00203338,0.00189794,0.00000
 002,-0.00597273,-0.21444865,-0.00000860,-0.08198870,0.37710881,0.00000
 086,0.00000089,0.00174158,-0.00000170,-0.00000345,0.00950510,0.0000004
 5,-0.00000087,0.00072789,0.00000036,-0.00000071,-0.00082942,0.00000009
 ,0.00000046,0.00003841,-0.00000023,-0.00000026,-0.00061813,0.00000044,
 0.00000033,0.00011915,0.00000869,-0.00002756,-0.05709490,-0.00013448,0
 .00003764,0.03278983,-0.00591621,-0.01192981,-0.00000087,-0.05648127,-
 0.01867585,0.00002274,0.00062296,0.00840920,0.00000027,-0.00224805,0.0
 0350087,-0.00000200,-0.00149573,-0.00302797,0.00000034,0.00227191,-0.0
 0024464,-0.00000034,-0.00244991,-0.00144952,-0.00000006,-0.51887001,-0
 .24306374,0.00018364,0.00727488,-0.04764441,0.00000899,0.57603153,-0.0
 0586170,-0.00681288,-0.00000098,-0.01010786,0.01800839,0.00000223,0.00
 458256,-0.00112217,0.00000033,-0.00132127,0.00238574,-0.00000036,-0.00
 016593,-0.00089427,-0.00000004,0.00100214,0.00045797,-0.00000031,0.000
 78968,0.00013095,0.00000006,-0.24263580,-0.24772982,0.00010489,-0.0604
 2961,-0.07039479,0.00002036,0.31053677,0.30135401,0.00000114,0.0000050
 2,-0.00096301,0.00001137,0.00000694,0.01807947,-0.00000009,-0.00000336
 ,0.00277465,0.00000051,-0.00000048,-0.00151786,-0.00000033,0.00000066,
 0.00021798,0.00000031,-0.00000011,-0.00070747,0.00000085,0.00000030,-0
 .00018033,0.00019667,0.00010780,-0.07002975,0.00000338,0.00001153,0.02
 684879,-0.00021275,-0.00012834,0.02902023,-0.22347634,-0.07378909,-0.0
 0000640,0.01654571,-0.00755074,0.00000069,-0.00943826,0.00266238,0.000
 00027,0.00680048,-0.00278561,0.00000120,0.00037778,0.00849030,-0.00000
 081,-0.05042884,-0.03547853,-0.00000247,-0.00532268,-0.00357700,-0.000
 00090,-0.01245222,0.00130189,0.00000165,0.00183297,-0.00029446,-0.0000
 0011,0.00534729,0.00658726,-0.00000214,0.37010875,-0.12478124,-0.17668
 983,-0.00000197,-0.03017266,-0.04012275,0.00000023,0.00314178,-0.00285
 552,0.00000102,0.00217158,0.00307770,0.00000024,0.00146358,-0.00354824
 ,0.00000016,-0.00377454,0.00550569,-0.00000029,-0.00517723,-0.00349763
 ,-0.00000074,-0.01383964,0.00126749,0.00000138,0.00139255,-0.00140565,
 -0.00000051,0.00949189,-0.00174602,-0.00000270,-0.02433013,0.62841537,
 -0.00000642,0.00000081,-0.03653339,0.00000248,-0.00000013,0.00331890,-
 0.00000074,0.00000062,0.00369376,0.00000033,-0.00000023,-0.00124519,-0
 .00000051,0.00000047,0.00704243,-0.00000258,-0.00000178,0.00884333,-0.
 00000031,-0.00000008,-0.00038852,-0.00000111,-0.00000007,-0.00291392,0
 .00000017,-0.00000060,0.00036619,0.00000054,0.00000002,0.00114504,0.00
 001556,-0.00000998,0.02470560,-0.00363227,-0.00156512,-0.00000037,0.00
 671055,-0.02241714,0.00000177,-0.05939363,0.04633340,-0.00000382,-0.00
 006182,0.02776477,-0.00000200,-0.00517455,0.00110635,-0.00000051,-0.00
 092158,-0.00075349,-0.00000011,0.00218203,-0.00016617,0.00000021,0.001
 60464,-0.00360940,-0.00000017,-0.00387189,0.00187917,0.00000053,0.0005
 9971,0.00112453,-0.00000032,0.00031324,-0.00157392,0.00000004,0.061513
 34,-0.00313953,0.00105592,-0.00000020,0.00335115,-0.01388020,0.0000007
 8,0.04505088,-0.32747181,0.00001660,-0.00095024,-0.00613378,0.00000047
 ,0.00142178,0.00030349,0.00000028,0.00029634,0.00064148,0.,-0.00051048
 ,0.00045394,-0.00000020,0.00047279,-0.00176841,-0.00000035,0.00282902,
 0.00023538,-0.00000017,0.00003181,0.00037819,0.00000003,0.00052149,-0.
 00077123,0.00000009,-0.04937085,0.34669814,-0.00000016,-0.00000019,0.0
 0536954,0.00000189,-0.00000008,0.00186751,-0.00000499,0.00001507,-0.03
 293310,-0.00000027,0.00000164,0.00610154,-0.00000046,0.00000073,0.0047
 5631,-0.00000050,-0.00000011,-0.00066328,0.00000028,0.00000007,-0.0031
 2878,-0.00000118,0.00000046,-0.00399984,0.00000017,-0.00000045,0.00056
 345,0.00000083,0.00000017,0.00073868,-0.00000015,0.,0.00045578,0.00000
 444,-0.00001747,0.02256192,-0.00008665,-0.00396769,-0.00000034,0.00025
 997,-0.00031036,0.00000002,0.00175317,0.00130066,-0.00000026,-0.005331
 96,-0.00298520,-0.00000041,-0.28351400,0.09099402,-0.00001924,-0.01774
 280,0.01043005,-0.00000145,0.00331522,0.00005508,0.00000026,0.00024343
 ,-0.00016015,-0.00000003,-0.00012975,0.00021437,0.00000004,-0.00017274
 ,0.00004140,0.00000006,-0.00166286,0.00012539,-0.00000010,-0.00020512,
 -0.00001856,0.00000002,0.30228001,-0.00278926,-0.00206569,0.00000009,-
 0.00120474,-0.00079584,0.00000003,0.00019229,-0.00615933,0.00000045,0.
 02747331,-0.00465251,0.00000182,0.09188928,-0.09065268,0.00000790,-0.0
 1849028,0.00980187,-0.00000126,0.00123654,0.00267067,-0.00000032,0.000
 13014,-0.00036615,-0.00000008,0.00013320,0.00015053,0.00000001,0.00000
 532,0.00007507,-0.00000001,-0.00121386,0.00020762,-0.00000002,0.001446
 83,-0.00012610,0.00000007,-0.09757684,0.09183320,-0.00000065,0.0000006
 5,0.00674326,0.00000025,-0.00000009,-0.00064004,-0.00000069,0.00000014
 ,0.00460800,-0.00000084,0.00000029,0.00409840,-0.00001978,0.00000734,-
 0.03002556,0.00000024,0.00000052,0.00213986,-0.00000028,-0.00000006,-0
 .00314701,-0.00000015,-0.00000010,-0.00074486,-0.00000002,0.00000004,0
 .00018194,-0.00000003,0.00000008,0.00006836,0.00000010,0.,0.00005482,0
 .00000006,-0.00000007,-0.00034519,0.00002120,-0.00000892,0.02033726,-0
 .00197542,0.02670691,-0.00000109,-0.00482633,0.00066566,-0.00000090,-0
 .00125833,-0.00058777,0.,-0.00326649,-0.00208056,-0.00000045,0.0069483
 6,-0.02379079,0.00000128,-0.06154392,0.04772168,-0.00000311,-0.0001188
 2,-0.00166903,0.00000010,0.00069868,0.00123937,0.00000001,-0.00057899,
 0.00027920,0.00000010,-0.00004148,-0.00012525,0.,0.00267075,0.00211045
 ,0.00000025,0.00007274,0.00003615,0.,0.00089175,0.00014276,0.00000022,
 0.06305391,-0.00395721,-0.01031800,0.00000032,0.00276751,0.00092769,0.
 00000046,-0.00004084,0.00059871,-0.00000004,-0.00354643,0.00107684,-0.
 00000024,0.00524338,-0.01543081,0.00000095,0.04732253,-0.31067226,0.00
 001229,-0.00002498,-0.00137297,0.00000018,-0.00135041,-0.00040058,0.00
 000018,0.00043335,-0.00021587,-0.00000009,0.00051131,0.00025833,-0.000
 00022,-0.00039471,0.00351375,-0.00000025,0.00002683,-0.00007305,0.,-0.
 00007011,0.00086941,-0.00000009,-0.04936104,0.33120056,-0.00000033,0.0
 0000122,0.00353698,-0.00000028,0.00000055,0.00401226,-0.00000011,-0.00
 000007,-0.00081351,-0.00000037,0.00000015,0.00605694,0.00000008,-0.000
 00065,0.00159034,-0.00000306,0.00001249,-0.02789179,-0.00000017,0.,0.0
 0048724,-0.00000015,-0.00000002,0.00032642,0.,0.00000002,-0.00009047,0
 .00000005,0.,-0.00000740,0.00000047,0.00000018,-0.00360520,0.00000004,
 -0.00000001,-0.00027458,0.00000030,-0.00000018,-0.00372366,0.00000370,
 -0.00001347,0.01989439,-0.00000649,-0.00049247,-0.00000003,-0.00031242
 ,0.00168077,-0.00000070,-0.00221867,-0.00587554,0.00000071,-0.03341569
 ,0.01722470,0.00000303,0.00542862,0.00263130,0.00000025,-0.00077045,0.
 00034235,-0.00000055,-0.37429932,0.16670558,0.00005359,-0.00072901,-0.
 00004922,0.00000005,0.00014107,-0.00025197,-0.00000004,0.00010841,0.00
 005248,0.00000001,0.00068989,0.00055520,0.00000013,0.00037837,-0.00008
 319,0.00000017,-0.00006425,-0.00143008,0.00000041,0.00024758,0.0002658
 5,0.00000002,0.40492314,0.00037502,0.00010340,0.00000025,-0.00008580,0
 .00086209,-0.00000055,-0.00417184,-0.00323680,0.00000011,-0.03078542,0
 .00878531,0.00000395,-0.00393773,0.00195702,-0.00000024,-0.00003920,-0
 .00071503,-0.00000009,0.21896982,-0.15014136,-0.00003704,-0.00051084,0
 .00000986,-0.00000002,0.00008854,-0.00018057,-0.00000002,0.00010260,0.
 00003820,0.00000002,-0.00004673,-0.00028194,-0.00000003,-0.00033810,0.
 00010856,0.,0.00167732,-0.00100878,0.00000027,0.00002623,0.00009624,-0
 .00000008,-0.18118447,0.14358097,-0.00000035,0.00000021,0.00028778,-0.
 00000093,-0.00000024,0.00164744,-0.00000007,-0.00000066,0.00164132,-0.
 00000450,-0.00000133,-0.00338874,-0.00000031,-0.00000049,-0.00017904,0
 .00000049,-0.00000007,-0.00082006,0.00006252,-0.00003144,-0.00206571,-
 0.00000006,0.,0.00004607,-0.00000003,-0.00000001,-0.00004053,0.0000000
 2,0.00000002,-0.00007076,0.00000022,0.00000027,-0.00009922,0.00000012,
 0.,-0.00072291,-0.00000005,0.00000041,0.00043748,-0.00000006,-0.000000
 08,-0.00006137,-0.00005705,0.00003346,0.00332961,-0.00026612,0.0001333
 4,0.00000029,0.00156830,-0.00051192,0.00000253,0.00008035,-0.00020151,
 0.,0.00017971,-0.00011553,0.,0.00002230,0.00003599,0.00000003,0.000101
 19,0.00019087,-0.00000015,0.00004587,0.00005113,0.,-0.00346011,0.01153
 902,-0.00000135,-0.44026775,0.11177142,0.00011598,-0.00429075,-0.00644
 500,0.00000128,-0.00002966,-0.00011547,0.,0.00015528,0.00024195,-0.000
 00009,0.00001219,0.00001875,-0.00000002,-0.00001239,-0.00000041,-0.000
 00002,-0.00003170,-0.00001339,0.,0.44618223,0.00193963,0.00024502,0.00
 000027,-0.00196134,-0.00725089,-0.00000129,-0.00149996,-0.00006659,0.,
 0.00021288,0.00080865,-0.00000016,-0.00033281,-0.00020092,0.00000005,0
 .00001726,-0.00058267,0.00000005,-0.00029409,-0.00026712,0.,0.05626624
 ,-0.02052744,-0.00001557,0.06781378,-0.06110629,-0.00002615,-0.0059464
 6,0.00684884,0.00000266,-0.00006426,0.00022544,-0.00000005,0.00048598,
 0.00047574,0.00000007,-0.00003936,0.00004860,0.,0.00015209,-0.00005919
 ,0.00000001,0.00004246,0.00003328,0.,-0.11663173,0.08136734,0.00000043
 ,0.00000031,0.00076606,-0.00000150,0.,0.00410905,-0.00000083,-0.000000
 08,-0.00021398,-0.00000004,0.00000021,0.00024666,-0.00000010,0.0000000
 2,0.00001971,-0.00000006,-0.00000018,-0.00031450,0.,-0.00000002,-0.000
 07804,0.00001247,-0.00000822,0.00359264,0.00010979,-0.00003425,-0.0138
 4355,-0.00000180,0.00000188,-0.00571818,-0.00000006,0.00000003,0.00009
 288,0.00000011,0.00000019,-0.00035861,0.,0.00000002,-0.00004600,0.0000
 0002,0.,-0.00005644,0.,0.,0.00004460,-0.00011846,0.00004010,0.01177224
 ,0.00581897,-0.03844405,0.00000123,-0.00448690,-0.00370083,-0.00000043
 ,0.00090941,-0.00069625,0.00000014,-0.00000348,0.00013836,0.00000003,-
 0.00066220,0.00024015,-0.00000006,0.00100878,-0.00472563,0.00000037,-0
 .00013377,0.00019691,-0.00000006,-0.00209911,-0.00126800,0.00000036,0.
 00034890,0.00073113,0.00000002,-0.00029052,0.00237560,0.00000004,-0.10
 187599,0.18331242,-0.00000771,-0.00026902,-0.00018051,0.,0.00015439,0.
 00003662,-0.00000002,-0.00096160,0.00217536,-0.00000016,-0.00006908,-0
 .00012600,0.00000003,0.00001105,-0.00016030,0.00000001,0.10260016,0.00
 944284,-0.03455427,0.00000097,-0.00581144,0.00155282,-0.00000015,0.002
 26113,-0.00114049,0.00000004,-0.00114917,0.00074934,-0.00000020,-0.000
 07845,-0.00143787,0.00000009,0.00461934,0.00593168,0.00000008,0.000859
 05,0.00059528,0.00000014,0.00239173,0.00026470,-0.00000050,-0.00035346
 ,0.00009619,0.00000011,-0.00060737,-0.00123575,0.00000027,0.12996181,-
 0.41129426,0.00001122,-0.00037367,-0.00012626,0.00000002,0.00028996,0.
 00017012,0.,-0.00146607,0.00000118,-0.00000014,-0.00013374,-0.00001046
 ,-0.00000004,0.00005249,0.00000820,0.,-0.13990498,0.44042983,0.0000013
 0,-0.00000020,-0.00291411,-0.00000004,-0.00000054,0.00280484,-0.000000
 34,0.00000002,0.00128170,0.00000012,-0.00000013,0.00015849,0.00000007,
 0.00000018,-0.00092845,-0.00000026,-0.00000049,-0.00091160,-0.00000005
 ,0.,-0.00001722,-0.00000012,0.00000016,-0.00024066,-0.00000013,0.00000
 003,-0.00036532,0.00000044,0.,0.00030158,-0.00000711,0.00001269,-0.004
 93330,-0.00000001,0.00000005,0.00001157,0.,0.,0.00000295,-0.00000007,0
 .00000010,0.00061984,0.,0.,0.00001402,-0.00000001,0.,-0.00001453,0.000
 00621,-0.00001190,0.00513020\\-0.00003379,-0.00001313,-0.00000249,-0.0
 0010085,-0.00012278,-0.00002458,0.00010327,0.00010969,-0.00000266,0.00
 000763,0.00004411,0.00000222,0.00009045,0.00001335,-0.00000055,-0.0000
 1696,-0.00010355,0.00000172,0.00010247,-0.00014541,-0.00000144,-0.0001
 5585,-0.00015438,0.00008832,-0.00023037,0.00008478,-0.00002603,0.00016
 111,0.00010275,-0.00003371,0.00016227,-0.00009683,-0.00000119,-0.00000
 370,-0.00002814,-0.00000039,-0.00001780,0.00000755,-0.00000027,0.00000
 938,0.00002979,0.00000021,-0.00012194,0.00010533,0.00000116,0.00013391
 ,0.00002031,-0.00000051,-0.00008921,0.00014657,0.00000019\\\@


 IF YOU BELIEVE CERTAIN WORDS, YOU BELIEVE THEIR HIDDEN ARGUMENTS.
 WHEN YOU BELIEVE SOMETHING IS RIGHT OR WRONG, TRUE OR FALSE, 
 YOU BELIEVE THE ASSUMPTIONS IN THE WORDS WHICH EXPRESS THE ARGUMENTS.
 SUCH ASSUMPTIONS ARE OFTEN FULL OF HOLES, BUT REMAIN MOST PRECIOUS 
 TO THE CONVINCED.

                 -- THE OPEN-ENDED PROOF FROM THE PANOPLIA PROPHETICA
                    CHILDREN OF DUNE BY FRANK HERBERT
 Job cpu time:       0 days  0 hours 21 minutes 59.8 seconds.
 File lengths (MBytes):  RWF=    107 Int=      0 D2E=      0 Chk=      5 Scr=      1
 Normal termination of Gaussian 09 at Wed Jun 19 13:59:10 2024.
