 Entering Gaussian System, Link 0=g09
 Input=pbeDHByanggd3.gjf
 Output=pbeDHByanggd3.log
 Initial command:
 /home/phzd/g09E/g09/l1.exe "/home/phzd/g09E/scratch/Gau-65166.inp" -scrdir="/home/phzd/g09E/scratch/"
 Default is to use a total of  18 processors:
                               18 via shared-memory
                                1 via Linda
 Entering Link 1 = /home/phzd/g09E/g09/l1.exe PID=     65168.
  
 Copyright (c) 1988,1990,1992,1993,1995,1998,2003,2009,2015,
            Gaussian, Inc.  All Rights Reserved.
  
 This is part of the Gaussian(R) 09 program.  It is based on
 the Gaussian(R) 03 system (copyright 2003, Gaussian, Inc.),
 the Gaussian(R) 98 system (copyright 1998, Gaussian, Inc.),
 the Gaussian(R) 94 system (copyright 1995, Gaussian, Inc.),
 the Gaussian 92(TM) system (copyright 1992, Gaussian, Inc.),
 the Gaussian 90(TM) system (copyright 1990, Gaussian, Inc.),
 the Gaussian 88(TM) system (copyright 1988, Gaussian, Inc.),
 the Gaussian 86(TM) system (copyright 1986, Carnegie Mellon
 University), and the Gaussian 82(TM) system (copyright 1983,
 Carnegie Mellon University). Gaussian is a federally registered
 trademark of Gaussian, Inc.
  
 This software contains proprietary and confidential information,
 including trade secrets, belonging to Gaussian, Inc.
  
 This software is provided under written license and may be
 used, copied, transmitted, or stored only in accord with that
 written license.
  
 The following legend is applicable only to US Government
 contracts under FAR:
  
                    RESTRICTED RIGHTS LEGEND
  
 Use, reproduction and disclosure by the US Government is
 subject to restrictions as set forth in subparagraphs (a)
 and (c) of the Commercial Computer Software - Restricted
 Rights clause in FAR 52.227-19.
  
 Gaussian, Inc.
 340 Quinnipiac St., Bldg. 40, Wallingford CT 06492
  
  
 ---------------------------------------------------------------
 Warning -- This program may not be used in any manner that
 competes with the business of Gaussian, Inc. or will provide
 assistance to any competitor of Gaussian, Inc.  The licensee
 of this program is prohibited from giving any competitor of
 Gaussian, Inc. access to this program.  By using this program,
 the user acknowledges that Gaussian, Inc. is engaged in the
 business of creating and licensing software in the field of
 computational chemistry and represents and warrants to the
 licensee that it is not a competitor of Gaussian, Inc. and that
 it will not use this program in any manner prohibited above.
 ---------------------------------------------------------------
  

 Cite this work as:
 Gaussian 09, Revision E.01,
 M. J. Frisch, G. W. Trucks, H. B. Schlegel, G. E. Scuseria, 
 M. A. Robb, J. R. Cheeseman, G. Scalmani, V. Barone, B. Mennucci, 
 G. A. Petersson, H. Nakatsuji, M. Caricato, X. Li, H. P. Hratchian, 
 A. F. Izmaylov, J. Bloino, G. Zheng, J. L. Sonnenberg, M. Hada, 
 M. Ehara, K. Toyota, R. Fukuda, J. Hasegawa, M. Ishida, T. Nakajima, 
 Y. Honda, O. Kitao, H. Nakai, T. Vreven, J. A. Montgomery, Jr., 
 J. E. Peralta, F. Ogliaro, M. Bearpark, J. J. Heyd, E. Brothers, 
 K. N. Kudin, V. N. Staroverov, T. Keith, R. Kobayashi, J. Normand, 
 K. Raghavachari, A. Rendell, J. C. Burant, S. S. Iyengar, J. Tomasi, 
 M. Cossi, N. Rega, J. M. Millam, M. Klene, J. E. Knox, J. B. Cross, 
 V. Bakken, C. Adamo, J. Jaramillo, R. Gomperts, R. E. Stratmann, 
 O. Yazyev, A. J. Austin, R. Cammi, C. Pomelli, J. W. Ochterski, 
 R. L. Martin, K. Morokuma, V. G. Zakrzewski, G. A. Voth, 
 P. Salvador, J. J. Dannenberg, S. Dapprich, A. D. Daniels, 
 O. Farkas, J. B. Foresman, J. V. Ortiz, J. Cioslowski, 
 and D. J. Fox, Gaussian, Inc., Wallingford CT, 2013.
 
 ******************************************
 Gaussian 09:  ES64L-G09RevE.01 30-Nov-2015
                19-Jun-2024 
 ******************************************
 %chk=pbeDHByanggd3.chk
 --------------------------------------
 # opt freq pbepbe/6-31+g(d,p) em=gd3bj
 --------------------------------------
 1/14=-1,18=20,19=15,26=3,38=1/1,3;
 2/9=110,12=2,17=6,18=5,40=1/2;
 3/5=1,6=6,7=111,11=2,16=1,25=1,30=1,71=1,74=1009,124=41/1,2,3;
 4//1;
 5/5=2,38=5/2;
 6/7=2,8=2,9=2,10=2,28=1/1;
 7//1,2,3,16;
 1/14=-1,18=20,19=15,26=3/3(2);
 2/9=110/2;
 99//99;
 2/9=110/2;
 3/5=1,6=6,7=111,11=2,16=1,25=1,30=1,71=1,74=1009,124=41/1,2,3;
 4/5=5,16=3,69=1/1;
 5/5=2,38=5/2;
 7//1,2,3,16;
 1/14=-1,18=20,19=15,26=3/3(-5);
 2/9=110/2;
 6/7=2,8=2,9=2,10=2,19=2,28=1/1;
 99/9=1/99;
 ----------
 [No Title]
 ----------
 Symbolic Z-matrix:
 Charge =  1 Multiplicity = 1
 C                    -0.21627   1.27711  -0.00007 
 C                    -0.42627  -0.13796  -0.00009 
 C                     0.69504  -1.01621  -0.00009 
 C                     1.9836   -0.51706   0.00004 
 C                     2.17716   0.88247   0.00005 
 C                     1.10019   1.75598   0.00001 
 O                     3.00309  -1.40947   0.00008 
 C                    -1.72551  -0.71669   0. 
 O                    -1.81352  -2.02783  -0.0002 
 O                    -2.79332   0.03542   0.00031 
 O                    -1.27743   2.10011  -0.00016 
 H                     0.54817  -2.08873  -0.00018 
 H                     3.18552   1.28879   0.00008 
 H                     1.27722   2.8277   -0.00003 
 H                     3.86808  -0.97675   0.00032 
 H                    -2.71313  -2.39483  -0.0002 
 H                    -3.64331  -0.43704   0.0007 
 H                    -1.00074   3.02912  -0.00007 
 

 GradGradGradGradGradGradGradGradGradGradGradGradGradGradGradGradGradGrad
 Berny optimization.
 Initialization pass.
                           ----------------------------
                           !    Initial Parameters    !
                           ! (Angstroms and Degrees)  !
 --------------------------                            --------------------------
 ! Name  Definition              Value          Derivative Info.                !
 --------------------------------------------------------------------------------
 ! R1    R(1,2)                  1.4306         estimate D2E/DX2                !
 ! R2    R(1,6)                  1.4009         estimate D2E/DX2                !
 ! R3    R(1,11)                 1.3429         estimate D2E/DX2                !
 ! R4    R(2,3)                  1.4243         estimate D2E/DX2                !
 ! R5    R(2,8)                  1.4223         estimate D2E/DX2                !
 ! R6    R(3,4)                  1.3819         estimate D2E/DX2                !
 ! R7    R(3,12)                 1.0825         estimate D2E/DX2                !
 ! R8    R(4,5)                  1.4128         estimate D2E/DX2                !
 ! R9    R(4,7)                  1.3549         estimate D2E/DX2                !
 ! R10   R(5,6)                  1.3867         estimate D2E/DX2                !
 ! R11   R(5,13)                 1.0871         estimate D2E/DX2                !
 ! R12   R(6,14)                 1.0862         estimate D2E/DX2                !
 ! R13   R(7,15)                 0.9672         estimate D2E/DX2                !
 ! R14   R(8,9)                  1.3141         estimate D2E/DX2                !
 ! R15   R(8,10)                 1.3061         estimate D2E/DX2                !
 ! R16   R(9,16)                 0.9716         estimate D2E/DX2                !
 ! R17   R(10,17)                0.9725         estimate D2E/DX2                !
 ! R18   R(11,18)                0.9693         estimate D2E/DX2                !
 ! A1    A(2,1,6)              118.4304         estimate D2E/DX2                !
 ! A2    A(2,1,11)             119.355          estimate D2E/DX2                !
 ! A3    A(6,1,11)             122.2146         estimate D2E/DX2                !
 ! A4    A(1,2,3)              119.6281         estimate D2E/DX2                !
 ! A5    A(1,2,8)              122.4512         estimate D2E/DX2                !
 ! A6    A(3,2,8)              117.9208         estimate D2E/DX2                !
 ! A7    A(2,3,4)              120.7558         estimate D2E/DX2                !
 ! A8    A(2,3,12)             120.2721         estimate D2E/DX2                !
 ! A9    A(4,3,12)             118.9721         estimate D2E/DX2                !
 ! A10   A(3,4,5)              119.049          estimate D2E/DX2                !
 ! A11   A(3,4,7)              117.6278         estimate D2E/DX2                !
 ! A12   A(5,4,7)              123.3232         estimate D2E/DX2                !
 ! A13   A(4,5,6)              121.1709         estimate D2E/DX2                !
 ! A14   A(4,5,13)             119.821          estimate D2E/DX2                !
 ! A15   A(6,5,13)             119.0081         estimate D2E/DX2                !
 ! A16   A(1,6,5)              120.9657         estimate D2E/DX2                !
 ! A17   A(1,6,14)             119.3686         estimate D2E/DX2                !
 ! A18   A(5,6,14)             119.6656         estimate D2E/DX2                !
 ! A19   A(4,7,15)             112.2256         estimate D2E/DX2                !
 ! A20   A(2,8,9)              117.8503         estimate D2E/DX2                !
 ! A21   A(2,8,10)             120.8308         estimate D2E/DX2                !
 ! A22   A(9,8,10)             121.3189         estimate D2E/DX2                !
 ! A23   A(8,9,16)             116.0338         estimate D2E/DX2                !
 ! A24   A(8,10,17)            115.7739         estimate D2E/DX2                !
 ! A25   A(1,11,18)            111.2106         estimate D2E/DX2                !
 ! D1    D(6,1,2,3)             -0.0026         estimate D2E/DX2                !
 ! D2    D(6,1,2,8)            179.9921         estimate D2E/DX2                !
 ! D3    D(11,1,2,3)           179.9952         estimate D2E/DX2                !
 ! D4    D(11,1,2,8)            -0.0101         estimate D2E/DX2                !
 ! D5    D(2,1,6,5)              0.0005         estimate D2E/DX2                !
 ! D6    D(2,1,6,14)           179.9966         estimate D2E/DX2                !
 ! D7    D(11,1,6,5)          -179.9973         estimate D2E/DX2                !
 ! D8    D(11,1,6,14)           -0.0011         estimate D2E/DX2                !
 ! D9    D(2,1,11,18)          179.996          estimate D2E/DX2                !
 ! D10   D(6,1,11,18)           -0.0063         estimate D2E/DX2                !
 ! D11   D(1,2,3,4)              0.0052         estimate D2E/DX2                !
 ! D12   D(1,2,3,12)          -179.9955         estimate D2E/DX2                !
 ! D13   D(8,2,3,4)           -179.9897         estimate D2E/DX2                !
 ! D14   D(8,2,3,12)             0.0096         estimate D2E/DX2                !
 ! D15   D(1,2,8,9)            179.9919         estimate D2E/DX2                !
 ! D16   D(1,2,8,10)            -0.0104         estimate D2E/DX2                !
 ! D17   D(3,2,8,9)             -0.0134         estimate D2E/DX2                !
 ! D18   D(3,2,8,10)           179.9843         estimate D2E/DX2                !
 ! D19   D(2,3,4,5)             -0.0055         estimate D2E/DX2                !
 ! D20   D(2,3,4,7)            179.9972         estimate D2E/DX2                !
 ! D21   D(12,3,4,5)           179.9952         estimate D2E/DX2                !
 ! D22   D(12,3,4,7)            -0.0021         estimate D2E/DX2                !
 ! D23   D(3,4,5,6)              0.0033         estimate D2E/DX2                !
 ! D24   D(3,4,5,13)          -179.9956         estimate D2E/DX2                !
 ! D25   D(7,4,5,6)           -179.9996         estimate D2E/DX2                !
 ! D26   D(7,4,5,13)             0.0015         estimate D2E/DX2                !
 ! D27   D(3,4,7,15)          -179.9908         estimate D2E/DX2                !
 ! D28   D(5,4,7,15)             0.012          estimate D2E/DX2                !
 ! D29   D(4,5,6,1)             -0.0008         estimate D2E/DX2                !
 ! D30   D(4,5,6,14)          -179.997          estimate D2E/DX2                !
 ! D31   D(13,5,6,1)           179.9981         estimate D2E/DX2                !
 ! D32   D(13,5,6,14)            0.0019         estimate D2E/DX2                !
 ! D33   D(2,8,9,16)          -179.9951         estimate D2E/DX2                !
 ! D34   D(10,8,9,16)            0.0072         estimate D2E/DX2                !
 ! D35   D(2,8,10,17)         -179.9777         estimate D2E/DX2                !
 ! D36   D(9,8,10,17)            0.02           estimate D2E/DX2                !
 --------------------------------------------------------------------------------
 Trust Radius=3.00D-01 FncErr=1.00D-07 GrdErr=1.00D-06
 Number of steps in this run=     89 maximum allowed number of steps=    108.
 GradGradGradGradGradGradGradGradGradGradGradGradGradGradGradGradGradGrad

                          Input orientation:                          
 ---------------------------------------------------------------------
 Center     Atomic      Atomic             Coordinates (Angstroms)
 Number     Number       Type             X           Y           Z
 ---------------------------------------------------------------------
      1          6           0       -0.216273    1.277105   -0.000067
      2          6           0       -0.426271   -0.137963   -0.000090
      3          6           0        0.695035   -1.016208   -0.000092
      4          6           0        1.983602   -0.517055    0.000036
      5          6           0        2.177158    0.882470    0.000051
      6          6           0        1.100194    1.755980    0.000009
      7          8           0        3.003093   -1.409467    0.000084
      8          6           0       -1.725510   -0.716693    0.000000
      9          8           0       -1.813522   -2.027826   -0.000195
     10          8           0       -2.793317    0.035423    0.000313
     11          8           0       -1.277430    2.100110   -0.000163
     12          1           0        0.548172   -2.088730   -0.000183
     13          1           0        3.185520    1.288787    0.000078
     14          1           0        1.277220    2.827700   -0.000028
     15          1           0        3.868079   -0.976747    0.000317
     16          1           0       -2.713134   -2.394831   -0.000202
     17          1           0       -3.643314   -0.437036    0.000695
     18          1           0       -1.000736    3.029117   -0.000072
 ---------------------------------------------------------------------
                    Distance matrix (angstroms):
                    1          2          3          4          5
     1  C    0.000000
     2  C    1.430565   0.000000
     3  C    2.467745   1.424304   0.000000
     4  C    2.838743   2.439508   1.381868   0.000000
     5  C    2.425747   2.796270   2.408665   1.412846   0.000000
     6  C    1.400859   2.432512   2.801639   2.438667   1.386676
     7  O    4.193088   3.657494   2.341321   1.354903   2.436215
     8  C    2.500605   1.422305   2.439005   3.714481   4.217599
     9  O    3.670664   2.344365   2.704853   4.086634   4.939165
    10  O    2.860582   2.373388   3.643423   4.808761   5.042134
    11  O    1.342904   2.394461   3.688097   4.181373   3.662899
    12  H    3.451553   2.180603   1.082530   2.128526   3.388455
    13  H    3.401813   3.883381   3.393452   2.169256   1.087146
    14  H    2.152874   3.420093   3.887746   3.418532   2.143317
    15  H    4.664952   4.375500   3.173289   1.939735   2.513146
    16  H    4.440431   3.212973   3.676441   5.058198   5.886906
    17  H    3.831826   3.230915   4.376838   5.627485   5.968165
    18  H    1.919617   3.218758   4.386376   4.634826   3.834984
                    6          7          8          9         10
     6  C    0.000000
     7  O    3.693383   0.000000
     8  C    3.754826   4.779082   0.000000
     9  O    4.775660   4.856145   1.314084   0.000000
    10  O    4.256729   5.973782   1.306097   2.284074   0.000000
    11  O    2.402399   5.535342   2.852219   4.162601   2.561415
    12  H    3.884137   2.547162   2.655582   2.362479   3.959492
    13  H    2.137020   2.704414   5.304731   5.999195   6.108798
    14  H    1.086242   4.575175   4.645332   5.755764   4.936201
    15  H    3.889600   0.967185   5.599631   5.778006   6.737855
    16  H    5.636551   5.800534   1.947190   0.971594   2.431576
    17  H    5.225915   6.717168   1.938087   2.424614   0.972478
    18  H    2.456580   5.977598   3.815284   5.121845   3.489348
                   11         12         13         14         15
    11  O    0.000000
    12  H    4.569377   0.000000
    13  H    4.536096   4.285233   0.000000
    14  H    2.656242   4.970191   2.451502   0.000000
    15  H    5.995274   3.501184   2.366122   4.602865   0.000000
    16  H    4.718659   3.275640   6.954363   6.572500   6.732260
    17  H    3.469080   4.505180   7.043539   5.905096   7.530758
    18  H    0.969337   5.347100   4.533595   2.286843   6.304943
                   16         17         18
    16  H    0.000000
    17  H    2.167532   0.000000
    18  H    5.687840   4.358605   0.000000
 Stoichiometry    C7H7O4(1+)
 Framework group  C1[X(C7H7O4)]
 Deg. of freedom    48
 Full point group                 C1      NOp   1
 Largest Abelian subgroup         C1      NOp   1
 Largest concise Abelian subgroup C1      NOp   1
                         Standard orientation:                         
 ---------------------------------------------------------------------
 Center     Atomic      Atomic             Coordinates (Angstroms)
 Number     Number       Type             X           Y           Z
 ---------------------------------------------------------------------
      1          6           0       -0.216273    1.277105   -0.000067
      2          6           0       -0.426271   -0.137963   -0.000090
      3          6           0        0.695035   -1.016208   -0.000092
      4          6           0        1.983602   -0.517055    0.000036
      5          6           0        2.177158    0.882470    0.000051
      6          6           0        1.100194    1.755980    0.000009
      7          8           0        3.003093   -1.409466    0.000084
      8          6           0       -1.725510   -0.716693    0.000000
      9          8           0       -1.813522   -2.027826   -0.000195
     10          8           0       -2.793317    0.035423    0.000313
     11          8           0       -1.277430    2.100110   -0.000163
     12          1           0        0.548172   -2.088730   -0.000183
     13          1           0        3.185520    1.288788    0.000078
     14          1           0        1.277219    2.827700   -0.000028
     15          1           0        3.868079   -0.976746    0.000317
     16          1           0       -2.713134   -2.394831   -0.000202
     17          1           0       -3.643314   -0.437037    0.000695
     18          1           0       -1.000737    3.029117   -0.000072
 ---------------------------------------------------------------------
 Rotational constants (GHZ):      1.7664212      0.9026013      0.5973625
 Standard basis: 6-31+G(d,p) (6D, 7F)
 There are   244 symmetry adapted cartesian basis functions of A   symmetry.
 There are   244 symmetry adapted basis functions of A   symmetry.
   244 basis functions,   401 primitive gaussians,   244 cartesian basis functions
    40 alpha electrons       40 beta electrons
       nuclear repulsion energy       605.6097235074 Hartrees.
 NAtoms=   18 NActive=   18 NUniq=   18 SFac= 1.00D+00 NAtFMM=   60 NAOKFM=F Big=F
 Integral buffers will be    131072 words long.
 Raffenetti 2 integral format.
 Two-electron integral symmetry is turned on.
 Nuclear repulsion after empirical dispersion term =      605.5910926051 Hartrees.
 One-electron integrals computed using PRISM.
 NBasis=   244 RedAO= T EigKep=  3.29D-06  NBF=   244
 NBsUse=   244 1.00D-06 EigRej= -1.00D+00 NBFU=   244
 ExpMin= 4.38D-02 ExpMax= 5.48D+03 ExpMxC= 8.25D+02 IAcc=2 IRadAn=         4 AccDes= 0.00D+00
 Harris functional with IExCor= 1009 and IRadAn=       4 diagonalized for initial guess.
 HarFok:  IExCor= 1009 AccDes= 0.00D+00 IRadAn=         4 IDoV= 1 UseB2=F ITyADJ=14
 ICtDFT=  3500011 ScaDFX=  1.000000  1.000000  1.000000  1.000000
 FoFCou: FMM=F IPFlag=           0 FMFlag=      100000 FMFlg1=           0
         NFxFlg=           0 DoJE=T BraDBF=F KetDBF=T FulRan=T
         wScrn=  0.000000 ICntrl=     500 IOpCl=  0 I1Cent=   200000004 NGrid=           0
         NMat0=    1 NMatS0=      1 NMatT0=    0 NMatD0=    1 NMtDS0=    0 NMtDT0=    0
 Petite list used in FoFCou.
 Keep J ints in memory in canonical form, NReq=454277305.
 Requested convergence on RMS density matrix=1.00D-08 within 128 cycles.
 Requested convergence on MAX density matrix=1.00D-06.
 Requested convergence on             energy=1.00D-06.
 No special actions if energy rises.
 EnCoef did     2 forward-backward iterations
 EnCoef did     2 forward-backward iterations
 EnCoef did     6 forward-backward iterations
 SCF Done:  E(RPBE-PBE) =  -571.011638163     A.U. after   18 cycles
            NFock= 18  Conv=0.35D-08     -V/T= 2.0089

 **********************************************************************

            Population analysis using the SCF density.

 **********************************************************************

 Orbital symmetries:
       Occupied  (A) (A) (A) (A) (A) (A) (A) (A) (A) (A) (A) (A)
                 (A) (A) (A) (A) (A) (A) (A) (A) (A) (A) (A) (A)
                 (A) (A) (A) (A) (A) (A) (A) (A) (A) (A) (A) (A)
                 (A) (A) (A) (A)
       Virtual   (A) (A) (A) (A) (A) (A) (A) (A) (A) (A) (A) (A)
                 (A) (A) (A) (A) (A) (A) (A) (A) (A) (A) (A) (A)
                 (A) (A) (A) (A) (A) (A) (A) (A) (A) (A) (A) (A)
                 (A) (A) (A) (A) (A) (A) (A) (A) (A) (A) (A) (A)
                 (A) (A) (A) (A) (A) (A) (A) (A) (A) (A) (A) (A)
                 (A) (A) (A) (A) (A) (A) (A) (A) (A) (A) (A) (A)
                 (A) (A) (A) (A) (A) (A) (A) (A) (A) (A) (A) (A)
                 (A) (A) (A) (A) (A) (A) (A) (A) (A) (A) (A) (A)
                 (A) (A) (A) (A) (A) (A) (A) (A) (A) (A) (A) (A)
                 (A) (A) (A) (A) (A) (A) (A) (A) (A) (A) (A) (A)
                 (A) (A) (A) (A) (A) (A) (A) (A) (A) (A) (A) (A)
                 (A) (A) (A) (A) (A) (A) (A) (A) (A) (A) (A) (A)
                 (A) (A) (A) (A) (A) (A) (A) (A) (A) (A) (A) (A)
                 (A) (A) (A) (A) (A) (A) (A) (A) (A) (A) (A) (A)
                 (A) (A) (A) (A) (A) (A) (A) (A) (A) (A) (A) (A)
                 (A) (A) (A) (A) (A) (A) (A) (A) (A) (A) (A) (A)
                 (A) (A) (A) (A) (A) (A) (A) (A) (A) (A) (A) (A)
 The electronic state is 1-A.
 Alpha  occ. eigenvalues --  -19.04332 -19.04284 -18.98383 -18.95303 -10.25320
 Alpha  occ. eigenvalues --  -10.14818 -10.12047 -10.10190 -10.08071 -10.07284
 Alpha  occ. eigenvalues --  -10.07051  -1.25643  -1.18096  -1.15427  -1.12211
 Alpha  occ. eigenvalues --   -0.95358  -0.89374  -0.83874  -0.81326  -0.77847
 Alpha  occ. eigenvalues --   -0.73539  -0.72676  -0.67674  -0.65981  -0.61922
 Alpha  occ. eigenvalues --   -0.61886  -0.60718  -0.57816  -0.54706  -0.53777
 Alpha  occ. eigenvalues --   -0.53737  -0.52372  -0.51383  -0.51044  -0.50190
 Alpha  occ. eigenvalues --   -0.47016  -0.45472  -0.43199  -0.40644  -0.34303
 Alpha virt. eigenvalues --   -0.27844  -0.19999  -0.18726  -0.15969  -0.14458
 Alpha virt. eigenvalues --   -0.13762  -0.12732  -0.11220  -0.10345  -0.08822
 Alpha virt. eigenvalues --   -0.07786  -0.06511  -0.05635  -0.05389  -0.05231
 Alpha virt. eigenvalues --   -0.04137  -0.01746  -0.01536  -0.01072  -0.00770
 Alpha virt. eigenvalues --   -0.00410   0.00359   0.00392   0.01498   0.02088
 Alpha virt. eigenvalues --    0.02333   0.02416   0.03675   0.03856   0.04617
 Alpha virt. eigenvalues --    0.05493   0.06269   0.06395   0.06927   0.07669
 Alpha virt. eigenvalues --    0.07895   0.08365   0.08889   0.09829   0.10161
 Alpha virt. eigenvalues --    0.11450   0.12005   0.12397   0.12867   0.13364
 Alpha virt. eigenvalues --    0.13782   0.14774   0.16032   0.16376   0.16568
 Alpha virt. eigenvalues --    0.16689   0.17433   0.17956   0.20234   0.21132
 Alpha virt. eigenvalues --    0.21663   0.22664   0.24495   0.25381   0.26297
 Alpha virt. eigenvalues --    0.27966   0.29346   0.30292   0.33896   0.39664
 Alpha virt. eigenvalues --    0.40870   0.46223   0.46914   0.48745   0.51287
 Alpha virt. eigenvalues --    0.52419   0.53172   0.54263   0.55052   0.56083
 Alpha virt. eigenvalues --    0.57819   0.59043   0.63981   0.64089   0.66931
 Alpha virt. eigenvalues --    0.68533   0.74084   0.74675   0.78341   0.79328
 Alpha virt. eigenvalues --    0.81502   0.83873   0.85351   0.87655   0.88656
 Alpha virt. eigenvalues --    0.89002   0.90998   0.93675   0.95387   0.95978
 Alpha virt. eigenvalues --    0.97339   0.98141   0.98989   1.00522   1.00986
 Alpha virt. eigenvalues --    1.02347   1.04280   1.05208   1.05590   1.06144
 Alpha virt. eigenvalues --    1.07233   1.07430   1.10929   1.11271   1.11880
 Alpha virt. eigenvalues --    1.14782   1.16153   1.16706   1.18525   1.18660
 Alpha virt. eigenvalues --    1.21733   1.25141   1.29016   1.29570   1.32928
 Alpha virt. eigenvalues --    1.35736   1.36377   1.38303   1.39318   1.42782
 Alpha virt. eigenvalues --    1.47332   1.49717   1.53309   1.53491   1.54537
 Alpha virt. eigenvalues --    1.63495   1.65086   1.67252   1.68000   1.69387
 Alpha virt. eigenvalues --    1.70642   1.71744   1.72111   1.74692   1.79099
 Alpha virt. eigenvalues --    1.79913   1.80300   1.83654   1.90475   1.97004
 Alpha virt. eigenvalues --    1.97716   2.01005   2.02260   2.04927   2.07860
 Alpha virt. eigenvalues --    2.10702   2.13127   2.14145   2.16092   2.17306
 Alpha virt. eigenvalues --    2.18230   2.21707   2.23656   2.25006   2.26515
 Alpha virt. eigenvalues --    2.28201   2.30306   2.33274   2.34586   2.36274
 Alpha virt. eigenvalues --    2.37895   2.38761   2.40574   2.42473   2.44644
 Alpha virt. eigenvalues --    2.48737   2.48851   2.50680   2.51702   2.55233
 Alpha virt. eigenvalues --    2.56903   2.64535   2.70235   2.73004   2.80085
 Alpha virt. eigenvalues --    2.82310   2.86589   2.92857   2.95726   3.01243
 Alpha virt. eigenvalues --    3.09010   3.14661   3.23472   3.24844   3.28992
 Alpha virt. eigenvalues --    3.31577   3.33511   3.55563   3.97784   4.01649
 Alpha virt. eigenvalues --    4.05910   4.08248   4.09640   4.21698   4.25808
 Alpha virt. eigenvalues --    4.32499   4.36803   4.56850   4.71328
          Condensed to atoms (all electrons):
               1          2          3          4          5          6
     1  C   20.130075  -5.187287  -4.806294   0.736216   0.977700  -3.699656
     2  C   -5.187287  12.270932  -2.058233   1.118435  -0.766817   0.418161
     3  C   -4.806294  -2.058233  15.902389  -3.771193  -0.486444   0.227705
     4  C    0.736216   1.118435  -3.771193   9.144164  -0.444775   0.409938
     5  C    0.977700  -0.766817  -0.486444  -0.444775   6.473922  -0.351174
     6  C   -3.699656   0.418161   0.227705   0.409938  -0.351174   8.662254
     7  O   -0.031043   0.053649   0.071284  -0.051817  -0.106836   0.040486
     8  C   -1.256472  -0.321908   0.899737  -0.943495   0.073063  -0.291595
     9  O   -0.114930   0.119631  -0.017271   0.038209  -0.007962   0.025265
    10  O   -0.044713   0.052235  -0.127107   0.017778   0.013852   0.082948
    11  O    0.152773  -0.234393   0.075855  -0.005649   0.036166   0.116730
    12  H    0.016810   0.028532   0.130390   0.109699   0.025047  -0.000148
    13  H    0.019707   0.003201  -0.024503   0.027956   0.223851   0.069446
    14  H    0.022154  -0.017728  -0.012597   0.007155   0.115731   0.200219
    15  H    0.001641  -0.012323   0.083891  -0.052257  -0.023602   0.007332
    16  H   -0.004830  -0.016135   0.021107  -0.002529   0.000452   0.004465
    17  H    0.001828   0.007440   0.004727   0.005241  -0.000381  -0.010059
    18  H   -0.038253   0.133162  -0.001443   0.002857   0.001561  -0.111888
               7          8          9         10         11         12
     1  C   -0.031043  -1.256472  -0.114930  -0.044713   0.152773   0.016810
     2  C    0.053649  -0.321908   0.119631   0.052235  -0.234393   0.028532
     3  C    0.071284   0.899737  -0.017271  -0.127107   0.075855   0.130390
     4  C   -0.051817  -0.943495   0.038209   0.017778  -0.005649   0.109699
     5  C   -0.106836   0.073063  -0.007962   0.013852   0.036166   0.025047
     6  C    0.040486  -0.291595   0.025265   0.082948   0.116730  -0.000148
     7  O    8.302526  -0.004628   0.000049   0.000133   0.000383  -0.007483
     8  C   -0.004628   6.853924   0.053807   0.099913  -0.197449  -0.000204
     9  O    0.000049   0.053807   8.190152  -0.114547   0.001870   0.003300
    10  O    0.000133   0.099913  -0.114547   8.218976  -0.006135   0.000643
    11  O    0.000383  -0.197449   0.001870  -0.006135   8.322808  -0.000288
    12  H   -0.007483  -0.000204   0.003300   0.000643  -0.000288   0.499682
    13  H   -0.013983   0.000384  -0.000003   0.000019  -0.000543  -0.000138
    14  H   -0.000540   0.008771   0.000004  -0.000006  -0.016999   0.000009
    15  H    0.208361   0.002676   0.000010   0.000001  -0.000010  -0.000058
    16  H    0.000008   0.032537   0.194858  -0.016926   0.000066   0.000297
    17  H    0.000001   0.026677  -0.017788   0.177137   0.003765   0.000007
    18  H   -0.000009   0.021809   0.000018  -0.000130   0.191689   0.000004
              13         14         15         16         17         18
     1  C    0.019707   0.022154   0.001641  -0.004830   0.001828  -0.038253
     2  C    0.003201  -0.017728  -0.012323  -0.016135   0.007440   0.133162
     3  C   -0.024503  -0.012597   0.083891   0.021107   0.004727  -0.001443
     4  C    0.027956   0.007155  -0.052257  -0.002529   0.005241   0.002857
     5  C    0.223851   0.115731  -0.023602   0.000452  -0.000381   0.001561
     6  C    0.069446   0.200219   0.007332   0.004465  -0.010059  -0.111888
     7  O   -0.013983  -0.000540   0.208361   0.000008   0.000001  -0.000009
     8  C    0.000384   0.008771   0.002676   0.032537   0.026677   0.021809
     9  O   -0.000003   0.000004   0.000010   0.194858  -0.017788   0.000018
    10  O    0.000019  -0.000006   0.000001  -0.016926   0.177137  -0.000130
    11  O   -0.000543  -0.016999  -0.000010   0.000066   0.003765   0.191689
    12  H   -0.000138   0.000009  -0.000058   0.000297   0.000007   0.000004
    13  H    0.523239  -0.005662   0.005753  -0.000000   0.000000  -0.000023
    14  H   -0.005662   0.523494  -0.000009  -0.000000  -0.000000   0.008067
    15  H    0.005753  -0.000009   0.400026   0.000000   0.000000  -0.000000
    16  H   -0.000000  -0.000000   0.000000   0.376897   0.009125  -0.000000
    17  H    0.000000  -0.000000   0.000000   0.009125   0.374081  -0.000011
    18  H   -0.000023   0.008067  -0.000000  -0.000000  -0.000011   0.377946
 Mulliken charges:
               1
     1  C   -0.875427
     2  C    0.409447
     3  C   -0.112001
     4  C   -0.345934
     5  C    0.246646
     6  C    0.199568
     7  O   -0.460541
     8  C    0.942454
     9  O   -0.354674
    10  O   -0.354071
    11  O   -0.440637
    12  H    0.193900
    13  H    0.171300
    14  H    0.167938
    15  H    0.378568
    16  H    0.400608
    17  H    0.418210
    18  H    0.414645
 Sum of Mulliken charges =   1.00000
 Mulliken charges with hydrogens summed into heavy atoms:
               1
     1  C   -0.875427
     2  C    0.409447
     3  C    0.081900
     4  C   -0.345934
     5  C    0.417946
     6  C    0.367506
     7  O   -0.081973
     8  C    0.942454
     9  O    0.045934
    10  O    0.064139
    11  O   -0.025993
 Electronic spatial extent (au):  <R**2>=           1737.8156
 Charge=              1.0000 electrons
 Dipole moment (field-independent basis, Debye):
    X=             -3.7437    Y=              0.3987    Z=              0.0012  Tot=              3.7649
 Quadrupole moment (field-independent basis, Debye-Ang):
   XX=            -13.7277   YY=            -40.1332   ZZ=            -63.6579
   XY=             15.9582   XZ=             -0.0015   YZ=             -0.0003
 Traceless Quadrupole moment (field-independent basis, Debye-Ang):
   XX=             25.4453   YY=             -0.9603   ZZ=            -24.4849
   XY=             15.9582   XZ=             -0.0015   YZ=             -0.0003
 Octapole moment (field-independent basis, Debye-Ang**2):
  XXX=            -41.1176  YYY=             30.6275  ZZZ=              0.0010  XYY=            -33.9132
  XXY=            -39.9171  XXZ=              0.0234  XZZ=             -8.5545  YZZ=             -3.0151
  YYZ=             -0.0014  XYZ=             -0.0009
 Hexadecapole moment (field-independent basis, Debye-Ang**3):
 XXXX=           -580.9669 YYYY=           -502.6967 ZZZZ=            -63.0466 XXXY=            133.7519
 XXXZ=             -0.0223 YYYX=             47.4217 YYYZ=              0.0035 ZZZX=             -0.0020
 ZZZY=             -0.0007 XXYY=           -260.3079 XXZZ=           -238.1255 YYZZ=           -137.7683
 XXYZ=             -0.0097 YYXZ=              0.0027 ZZXY=             -1.4532
 N-N= 6.055910926051D+02 E-N=-2.532625863573D+03  KE= 5.659747896763D+02
 Calling FoFJK, ICntrl=      2527 FMM=F ISym2X=0 I1Cent= 0 IOpClX= 0 NMat=1 NMatS=1 NMatT=0.
 ***** Axes restored to original set *****
 -------------------------------------------------------------------
 Center     Atomic                   Forces (Hartrees/Bohr)
 Number     Number              X              Y              Z
 -------------------------------------------------------------------
      1        6          -0.000518826    0.001913757    0.000001770
      2        6           0.000487468   -0.002000117    0.000000061
      3        6          -0.004340211    0.000473392   -0.000002694
      4        6           0.005520667   -0.000593980   -0.000002164
      5        6           0.000302960    0.000933651    0.000001687
      6        6           0.000753396   -0.000445644   -0.000002758
      7        8          -0.005637267   -0.007100172   -0.000001215
      8        6           0.001875650   -0.000372449   -0.000000089
      9        8           0.008916704   -0.008092461   -0.000000497
     10        8          -0.001395798    0.012875469    0.000000843
     11        8          -0.008161494   -0.005398618    0.000001029
     12        1          -0.001069210   -0.005674907    0.000002226
     13        1           0.005110994    0.002081078    0.000000978
     14        1           0.000911843    0.005472866    0.000001127
     15        1           0.006491945    0.004816851    0.000000557
     16        1          -0.006960939   -0.001807001    0.000000690
     17        1          -0.005836471   -0.004315693   -0.000001364
     18        1           0.003548589    0.007233976   -0.000000187
 -------------------------------------------------------------------
 Cartesian Forces:  Max     0.012875469 RMS     0.004044614

 GradGradGradGradGradGradGradGradGradGradGradGradGradGradGradGradGradGrad
 Berny optimization.
 FormGI is forming the generalized inverse of G from B-inverse, IUseBI=4.
 Internal  Forces:  Max     0.010835754 RMS     0.003238062
 Search for a local minimum.
 Step number   1 out of a maximum of   89
 All quantities printed in internal units (Hartrees-Bohrs-Radians)
 Mixed Optimization -- RFO/linear search
 Second derivative matrix not updated -- first step.
 ITU=  0
     Eigenvalues ---    0.01735   0.01794   0.01807   0.01965   0.02020
     Eigenvalues ---    0.02056   0.02103   0.02135   0.02173   0.02205
     Eigenvalues ---    0.02288   0.02349   0.02447   0.02828   0.02934
     Eigenvalues ---    0.16000   0.16000   0.16000   0.16000   0.16000
     Eigenvalues ---    0.16000   0.16000   0.22358   0.23489   0.24598
     Eigenvalues ---    0.25000   0.25000   0.25000   0.25000   0.25000
     Eigenvalues ---    0.35144   0.35251   0.35690   0.38971   0.40352
     Eigenvalues ---    0.42115   0.42661   0.44101   0.46855   0.48072
     Eigenvalues ---    0.52874   0.53053   0.53513   0.53956   0.53991
     Eigenvalues ---    0.56559   0.63429   0.65528
 RFO step:  Lambda=-1.76075239D-03 EMin= 1.73538689D-02
 Linear search not attempted -- first point.
 Iteration  1 RMS(Cart)=  0.01045198 RMS(Int)=  0.00003836
 Iteration  2 RMS(Cart)=  0.00005339 RMS(Int)=  0.00000058
 Iteration  3 RMS(Cart)=  0.00000000 RMS(Int)=  0.00000058
 Variable       Old X    -DE/DX   Delta X   Delta X   Delta X     New X
                                 (Linear)    (Quad)   (Total)
    R1        2.70338   0.00578   0.00000   0.01380   0.01380   2.71718
    R2        2.64724   0.00629   0.00000   0.01368   0.01368   2.66093
    R3        2.53772   0.00477   0.00000   0.00841   0.00841   2.54613
    R4        2.69154   0.00286   0.00000   0.00665   0.00665   2.69819
    R5        2.68777   0.00380   0.00000   0.00899   0.00899   2.69676
    R6        2.61135   0.00813   0.00000   0.01670   0.01670   2.62806
    R7        2.04569   0.00577   0.00000   0.01608   0.01608   2.06176
    R8        2.66989   0.00617   0.00000   0.01436   0.01436   2.68425
    R9        2.56039   0.00214   0.00000   0.00396   0.00396   2.56435
   R10        2.62044   0.00527   0.00000   0.01111   0.01111   2.63155
   R11        2.05441   0.00552   0.00000   0.01562   0.01562   2.07003
   R12        2.05270   0.00555   0.00000   0.01566   0.01566   2.06836
   R13        1.82772   0.00796   0.00000   0.01471   0.01471   1.84243
   R14        2.48326   0.00975   0.00000   0.01533   0.01533   2.49859
   R15        2.46817   0.01084   0.00000   0.01649   0.01649   2.48466
   R16        1.83605   0.00713   0.00000   0.01339   0.01339   1.84943
   R17        1.83772   0.00720   0.00000   0.01357   0.01357   1.85129
   R18        1.83178   0.00794   0.00000   0.01479   0.01479   1.84658
    A1        2.06700   0.00011   0.00000  -0.00016  -0.00016   2.06684
    A2        2.08314  -0.00059   0.00000  -0.00205  -0.00205   2.08109
    A3        2.13305   0.00048   0.00000   0.00221   0.00221   2.13526
    A4        2.08790   0.00052   0.00000   0.00135   0.00135   2.08926
    A5        2.13718  -0.00023   0.00000  -0.00056  -0.00056   2.13662
    A6        2.05811  -0.00029   0.00000  -0.00079  -0.00079   2.05731
    A7        2.10759  -0.00018   0.00000  -0.00086  -0.00086   2.10673
    A8        2.09914  -0.00020   0.00000  -0.00138  -0.00138   2.09776
    A9        2.07645   0.00038   0.00000   0.00224   0.00224   2.07870
   A10        2.07780   0.00001   0.00000   0.00073   0.00073   2.07853
   A11        2.05299  -0.00019   0.00000  -0.00108  -0.00108   2.05191
   A12        2.15240   0.00017   0.00000   0.00035   0.00035   2.15275
   A13        2.11483  -0.00054   0.00000  -0.00158  -0.00157   2.11326
   A14        2.09127   0.00030   0.00000   0.00095   0.00094   2.09221
   A15        2.07708   0.00025   0.00000   0.00063   0.00063   2.07771
   A16        2.11125   0.00008   0.00000   0.00051   0.00051   2.11176
   A17        2.08338  -0.00004   0.00000  -0.00023  -0.00023   2.08314
   A18        2.08856  -0.00004   0.00000  -0.00028  -0.00028   2.08828
   A19        1.95871  -0.00257   0.00000  -0.01590  -0.01590   1.94280
   A20        2.05688  -0.00143   0.00000  -0.00567  -0.00567   2.05121
   A21        2.10890  -0.00191   0.00000  -0.00758  -0.00758   2.10131
   A22        2.11741   0.00334   0.00000   0.01325   0.01325   2.13066
   A23        2.02517  -0.00175   0.00000  -0.01080  -0.01080   2.01438
   A24        2.02064  -0.00173   0.00000  -0.01070  -0.01070   2.00994
   A25        1.94099  -0.00244   0.00000  -0.01509  -0.01509   1.92590
    D1       -0.00005   0.00000   0.00000   0.00002   0.00002  -0.00002
    D2        3.14145   0.00000   0.00000   0.00009   0.00009   3.14154
    D3        3.14151   0.00000   0.00000   0.00003   0.00003   3.14154
    D4       -0.00018   0.00000   0.00000   0.00009   0.00009  -0.00008
    D5        0.00001  -0.00000   0.00000  -0.00000  -0.00000   0.00000
    D6        3.14153   0.00000   0.00000   0.00003   0.00003   3.14157
    D7       -3.14155  -0.00000   0.00000  -0.00001  -0.00001  -3.14156
    D8       -0.00002   0.00000   0.00000   0.00002   0.00002   0.00000
    D9        3.14152   0.00000   0.00000   0.00003   0.00003   3.14155
   D10       -0.00011   0.00000   0.00000   0.00004   0.00004  -0.00007
   D11        0.00009  -0.00000   0.00000  -0.00005  -0.00005   0.00004
   D12       -3.14151  -0.00000   0.00000  -0.00004  -0.00004  -3.14156
   D13       -3.14141  -0.00000   0.00000  -0.00011  -0.00011  -3.14152
   D14        0.00017  -0.00000   0.00000  -0.00010  -0.00010   0.00006
   D15        3.14145   0.00000   0.00000   0.00006   0.00006   3.14151
   D16       -0.00018   0.00000   0.00000   0.00013   0.00013  -0.00005
   D17       -0.00023   0.00000   0.00000   0.00012   0.00012  -0.00011
   D18        3.14132   0.00000   0.00000   0.00019   0.00019   3.14151
   D19       -0.00010   0.00000   0.00000   0.00005   0.00005  -0.00004
   D20        3.14154   0.00000   0.00000   0.00003   0.00003   3.14158
   D21        3.14151   0.00000   0.00000   0.00005   0.00005   3.14156
   D22       -0.00004   0.00000   0.00000   0.00003   0.00003  -0.00001
   D23        0.00006  -0.00000   0.00000  -0.00003  -0.00003   0.00003
   D24       -3.14152  -0.00000   0.00000  -0.00004  -0.00004  -3.14156
   D25       -3.14159  -0.00000   0.00000  -0.00001  -0.00001   3.14159
   D26        0.00003  -0.00000   0.00000  -0.00002  -0.00002   0.00000
   D27       -3.14143  -0.00000   0.00000  -0.00004  -0.00004  -3.14147
   D28        0.00021  -0.00000   0.00000  -0.00006  -0.00006   0.00015
   D29       -0.00001   0.00000   0.00000   0.00001   0.00001  -0.00001
   D30       -3.14154  -0.00000   0.00000  -0.00003  -0.00003  -3.14157
   D31        3.14156   0.00000   0.00000   0.00002   0.00002   3.14158
   D32        0.00003  -0.00000   0.00000  -0.00002  -0.00002   0.00002
   D33       -3.14151   0.00000   0.00000   0.00002   0.00002  -3.14149
   D34        0.00013  -0.00000   0.00000  -0.00005  -0.00005   0.00007
   D35       -3.14120  -0.00000   0.00000  -0.00015  -0.00015  -3.14135
   D36        0.00035  -0.00000   0.00000  -0.00007  -0.00007   0.00028
         Item               Value     Threshold  Converged?
 Maximum Force            0.010836     0.000450     NO 
 RMS     Force            0.003238     0.000300     NO 
 Maximum Displacement     0.031692     0.001800     NO 
 RMS     Displacement     0.010436     0.001200     NO 
 Predicted change in Energy=-8.841194D-04
 GradGradGradGradGradGradGradGradGradGradGradGradGradGradGradGradGradGrad

                          Input orientation:                          
 ---------------------------------------------------------------------
 Center     Atomic      Atomic             Coordinates (Angstroms)
 Number     Number       Type             X           Y           Z
 ---------------------------------------------------------------------
      1          6           0       -0.219039    1.280809   -0.000004
      2          6           0       -0.429611   -0.141557   -0.000008
      3          6           0        0.693580   -1.023096   -0.000020
      4          6           0        1.990461   -0.520934    0.000022
      5          6           0        2.186289    0.885948    0.000024
      6          6           0        1.104144    1.762406    0.000014
      7          8           0        3.010433   -1.415975    0.000026
      8          6           0       -1.733319   -0.721951    0.000037
      9          8           0       -1.814669   -2.041643   -0.000064
     10          8           0       -2.802330    0.043541    0.000140
     11          8           0       -1.285689    2.103990   -0.000053
     12          1           0        0.542987   -2.103692   -0.000055
     13          1           0        3.202291    1.295426    0.000025
     14          1           0        1.282067    2.842379   -0.000007
     15          1           0        3.875885   -0.967020    0.000166
     16          1           0       -2.722800   -2.406484   -0.000123
     17          1           0       -3.657217   -0.434895    0.000380
     18          1           0       -0.994896    3.036884   -0.000008
 ---------------------------------------------------------------------
                    Distance matrix (angstroms):
                    1          2          3          4          5
     1  C    0.000000
     2  C    1.437868   0.000000
     3  C    2.478075   1.427821   0.000000
     4  C    2.850995   2.449628   1.390708   0.000000
     5  C    2.437523   2.810463   2.423351   1.420446   0.000000
     6  C    1.408101   2.444888   2.815597   2.449326   1.392557
     7  O    4.207390   3.668521   2.349928   1.356997   2.445008
     8  C    2.510795   1.427063   2.445511   3.729202   4.236586
     9  O    3.685746   2.351322   2.707167   4.097752   4.957666
    10  O    2.864301   2.379927   3.655011   4.825917   5.059246
    11  O    1.347356   2.403195   3.700834   4.198022   3.679437
    12  H    3.469226   2.189959   1.091038   2.144832   3.411508
    13  H    3.421361   3.905846   3.416018   2.183506   1.095414
    14  H    2.166061   3.440016   3.910015   3.437106   2.155281
    15  H    4.671311   4.383913   3.182799   1.937477   2.507634
    16  H    4.457012   3.223137   3.685840   5.076429   5.910945
    17  H    3.842487   3.240908   4.390377   5.648333   5.990925
    18  H    1.919832   3.228317   4.397090   4.644398   3.840113
                    6          7          8          9         10
     6  C    0.000000
     7  O    3.706217   0.000000
     8  C    3.771368   4.794251   0.000000
     9  O    4.794816   4.865498   1.322198   0.000000
    10  O    4.267907   5.993196   1.314824   2.307265   0.000000
    11  O    2.414121   5.553991   2.861173   4.179246   2.558446
    12  H    3.906611   2.561492   2.662851   2.358472   3.975142
    13  H    2.149486   2.718181   5.331984   6.025439   6.133733
    14  H    1.094531   4.595740   4.668725   5.783031   4.951342
    15  H    3.890028   0.974971   5.614555   5.791133   6.754243
    16  H    5.659076   5.818167   1.953645   0.978678   2.451316
    17  H    5.243919   6.739441   1.945195   2.444713   0.979660
    18  H    2.455660   5.989208   3.830680   5.144266   3.496701
                   11         12         13         14         15
    11  O    0.000000
    12  H    4.587880   0.000000
    13  H    4.560235   4.315774   0.000000
    14  H    2.671814   5.000985   2.465831   0.000000
    15  H    6.006077   3.521397   2.360592   4.608624   0.000000
    16  H    4.733885   3.279794   6.986476   6.602236   6.753866
    17  H    3.474202   4.519579   7.074380   5.927651   7.551873
    18  H    0.977166   5.365688   4.544123   2.285256   6.305218
                   16         17         18
    16  H    0.000000
    17  H    2.181811   0.000000
    18  H    5.711034   4.375066   0.000000
 Stoichiometry    C7H7O4(1+)
 Framework group  C1[X(C7H7O4)]
 Deg. of freedom    48
 Full point group                 C1      NOp   1
 Largest Abelian subgroup         C1      NOp   1
 Largest concise Abelian subgroup C1      NOp   1
                         Standard orientation:                         
 ---------------------------------------------------------------------
 Center     Atomic      Atomic             Coordinates (Angstroms)
 Number     Number       Type             X           Y           Z
 ---------------------------------------------------------------------
      1          6           0       -0.218778    1.281829   -0.000019
      2          6           0       -0.428891   -0.140605   -0.000022
      3          6           0        0.694586   -1.021781   -0.000034
      4          6           0        1.991305   -0.519200    0.000008
      5          6           0        2.186677    0.887746    0.000009
      6          6           0        1.104249    1.763854    0.000000
      7          8           0        3.011565   -1.413911    0.000012
      8          6           0       -1.732410   -0.721420    0.000023
      9          8           0       -1.813334   -2.041139   -0.000079
     10          8           0       -2.801669    0.043726    0.000126
     11          8           0       -1.285695    2.104665   -0.000067
     12          1           0        0.544342   -2.102425   -0.000069
     13          1           0        3.202547    1.297553    0.000011
     14          1           0        1.281823    2.843884   -0.000022
     15          1           0        3.876873   -0.964676    0.000151
     16          1           0       -2.721347   -2.406274   -0.000137
     17          1           0       -3.656401   -0.434987    0.000366
     18          1           0       -0.995203    3.037653   -0.000023
 ---------------------------------------------------------------------
 Rotational constants (GHZ):      1.7512857      0.8969821      0.5931696
 Standard basis: 6-31+G(d,p) (6D, 7F)
 There are   244 symmetry adapted cartesian basis functions of A   symmetry.
 There are   244 symmetry adapted basis functions of A   symmetry.
   244 basis functions,   401 primitive gaussians,   244 cartesian basis functions
    40 alpha electrons       40 beta electrons
       nuclear repulsion energy       603.1148551953 Hartrees.
 NAtoms=   18 NActive=   18 NUniq=   18 SFac= 1.00D+00 NAtFMM=   60 NAOKFM=F Big=F
 Integral buffers will be    131072 words long.
 Raffenetti 2 integral format.
 Two-electron integral symmetry is turned on.
 Nuclear repulsion after empirical dispersion term =      603.0962869763 Hartrees.
 One-electron integrals computed using PRISM.
 NBasis=   244 RedAO= T EigKep=  3.44D-06  NBF=   244
 NBsUse=   244 1.00D-06 EigRej= -1.00D+00 NBFU=   244
 Initial guess from the checkpoint file:  "pbeDHByanggd3.chk"
 B after Tr=     0.000000   -0.000000    0.000000
         Rot=    1.000000   -0.000000   -0.000002   -0.000170 Ang=  -0.02 deg.
 ExpMin= 4.38D-02 ExpMax= 5.48D+03 ExpMxC= 8.25D+02 IAcc=2 IRadAn=         4 AccDes= 0.00D+00
 Harris functional with IExCor= 1009 and IRadAn=       4 diagonalized for initial guess.
 HarFok:  IExCor= 1009 AccDes= 0.00D+00 IRadAn=         4 IDoV= 1 UseB2=F ITyADJ=14
 ICtDFT=  3500011 ScaDFX=  1.000000  1.000000  1.000000  1.000000
 FoFCou: FMM=F IPFlag=           0 FMFlag=      100000 FMFlg1=           0
         NFxFlg=           0 DoJE=T BraDBF=F KetDBF=T FulRan=T
         wScrn=  0.000000 ICntrl=     500 IOpCl=  0 I1Cent=   200000004 NGrid=           0
         NMat0=    1 NMatS0=      1 NMatT0=    0 NMatD0=    1 NMtDS0=    0 NMtDT0=    0
 Petite list used in FoFCou.
 Keep J ints in memory in canonical form, NReq=454277305.
 Requested convergence on RMS density matrix=1.00D-08 within 128 cycles.
 Requested convergence on MAX density matrix=1.00D-06.
 Requested convergence on             energy=1.00D-06.
 No special actions if energy rises.
 SCF Done:  E(RPBE-PBE) =  -571.012552639     A.U. after   13 cycles
            NFock= 13  Conv=0.23D-08     -V/T= 2.0093
 Calling FoFJK, ICntrl=      2527 FMM=F ISym2X=0 I1Cent= 0 IOpClX= 0 NMat=1 NMatS=1 NMatT=0.
 ***** Axes restored to original set *****
 -------------------------------------------------------------------
 Center     Atomic                   Forces (Hartrees/Bohr)
 Number     Number              X              Y              Z
 -------------------------------------------------------------------
      1        6           0.001332377   -0.000028072    0.000000216
      2        6           0.000283154   -0.000590199    0.000000690
      3        6          -0.000325587    0.000357114   -0.000000745
      4        6          -0.000100660    0.000606657   -0.000001485
      5        6          -0.000524709   -0.000132650    0.000001085
      6        6          -0.000316634   -0.000548517   -0.000001054
      7        8          -0.000572348   -0.000891587    0.000000795
      8        6           0.001760937    0.000537692   -0.000005369
      9        8           0.000822666   -0.001401717    0.000002767
     10        8          -0.000714272    0.001874461    0.000002546
     11        8          -0.001309080   -0.000431280    0.000001734
     12        1           0.000118744    0.000177909    0.000001096
     13        1          -0.000067909   -0.000047840    0.000000217
     14        1          -0.000030203   -0.000021990    0.000000506
     15        1           0.000603961    0.000560248   -0.000000869
     16        1          -0.001024790    0.000214548    0.000000433
     17        1          -0.000521470   -0.000973357   -0.000001992
     18        1           0.000585823    0.000738581   -0.000000571
 -------------------------------------------------------------------
 Cartesian Forces:  Max     0.001874461 RMS     0.000616515

 GradGradGradGradGradGradGradGradGradGradGradGradGradGradGradGradGradGrad
 Berny optimization.
 Using GEDIIS/GDIIS optimizer.
 FormGI is forming the generalized inverse of G from B-inverse, IUseBI=4.
 Internal  Forces:  Max     0.001523036 RMS     0.000411042
 Search for a local minimum.
 Step number   2 out of a maximum of   89
 All quantities printed in internal units (Hartrees-Bohrs-Radians)
 Mixed Optimization -- En-DIIS/RFO-DIIS
 Update second derivatives using D2CorX and points    1    2
 DE= -9.14D-04 DEPred=-8.84D-04 R= 1.03D+00
 TightC=F SS=  1.41D+00  RLast= 6.52D-02 DXNew= 5.0454D-01 1.9568D-01
 Trust test= 1.03D+00 RLast= 6.52D-02 DXMaxT set to 3.00D-01
 ITU=  1  0
 Use linear search instead of GDIIS.
     Eigenvalues ---    0.01735   0.01794   0.01807   0.01966   0.02020
     Eigenvalues ---    0.02056   0.02103   0.02135   0.02173   0.02205
     Eigenvalues ---    0.02288   0.02355   0.02447   0.02828   0.02934
     Eigenvalues ---    0.15202   0.16000   0.16000   0.16000   0.16000
     Eigenvalues ---    0.16000   0.16063   0.22360   0.23492   0.24595
     Eigenvalues ---    0.24974   0.25000   0.25000   0.25000   0.25464
     Eigenvalues ---    0.35187   0.35333   0.35952   0.39029   0.40341
     Eigenvalues ---    0.42204   0.42822   0.45143   0.46858   0.49737
     Eigenvalues ---    0.50481   0.52963   0.53330   0.53820   0.53989
     Eigenvalues ---    0.56355   0.62270   0.64802
 RFO step:  Lambda=-3.98034738D-05 EMin= 1.73535572D-02
 Quartic linear search produced a step of  0.04973.
 Iteration  1 RMS(Cart)=  0.00310184 RMS(Int)=  0.00001252
 Iteration  2 RMS(Cart)=  0.00001325 RMS(Int)=  0.00000004
 Iteration  3 RMS(Cart)=  0.00000000 RMS(Int)=  0.00000004
 Variable       Old X    -DE/DX   Delta X   Delta X   Delta X     New X
                                 (Linear)    (Quad)   (Total)
    R1        2.71718  -0.00006   0.00069  -0.00049   0.00019   2.71737
    R2        2.66093  -0.00081   0.00068  -0.00225  -0.00157   2.65936
    R3        2.54613   0.00076   0.00042   0.00119   0.00161   2.54775
    R4        2.69819  -0.00061   0.00033  -0.00167  -0.00134   2.69685
    R5        2.69676  -0.00040   0.00045  -0.00123  -0.00078   2.69598
    R6        2.62806  -0.00030   0.00083  -0.00107  -0.00023   2.62782
    R7        2.06176  -0.00019   0.00080  -0.00099  -0.00019   2.06157
    R8        2.68425  -0.00045   0.00071  -0.00149  -0.00077   2.68348
    R9        2.56435   0.00024   0.00020   0.00036   0.00056   2.56491
   R10        2.63155  -0.00047   0.00055  -0.00135  -0.00080   2.63075
   R11        2.07003  -0.00008   0.00078  -0.00065   0.00013   2.07016
   R12        2.06836  -0.00003   0.00078  -0.00049   0.00029   2.06866
   R13        1.84243   0.00080   0.00073   0.00116   0.00189   1.84432
   R14        2.49859   0.00120   0.00076   0.00158   0.00235   2.50094
   R15        2.48466   0.00152   0.00082   0.00200   0.00282   2.48748
   R16        1.84943   0.00087   0.00067   0.00137   0.00203   1.85146
   R17        1.85129   0.00093   0.00067   0.00149   0.00217   1.85346
   R18        1.84658   0.00088   0.00074   0.00133   0.00206   1.84864
    A1        2.06684  -0.00004  -0.00001  -0.00019  -0.00020   2.06663
    A2        2.08109   0.00007  -0.00010   0.00035   0.00025   2.08134
    A3        2.13526  -0.00003   0.00011  -0.00016  -0.00005   2.13521
    A4        2.08926   0.00002   0.00007   0.00014   0.00020   2.08946
    A5        2.13662  -0.00025  -0.00003  -0.00108  -0.00111   2.13551
    A6        2.05731   0.00023  -0.00004   0.00095   0.00091   2.05822
    A7        2.10673  -0.00003  -0.00004  -0.00004  -0.00008   2.10665
    A8        2.09776   0.00012  -0.00007   0.00071   0.00064   2.09841
    A9        2.07870  -0.00008   0.00011  -0.00068  -0.00056   2.07813
   A10        2.07853  -0.00008   0.00004  -0.00036  -0.00033   2.07820
   A11        2.05191  -0.00003  -0.00005  -0.00011  -0.00017   2.05174
   A12        2.15275   0.00012   0.00002   0.00048   0.00049   2.15324
   A13        2.11326   0.00011  -0.00008   0.00044   0.00036   2.11362
   A14        2.09221  -0.00007   0.00005  -0.00032  -0.00027   2.09194
   A15        2.07771  -0.00004   0.00003  -0.00012  -0.00009   2.07762
   A16        2.11176   0.00003   0.00003   0.00002   0.00004   2.11181
   A17        2.08314  -0.00005  -0.00001  -0.00022  -0.00023   2.08291
   A18        2.08828   0.00002  -0.00001   0.00020   0.00018   2.08846
   A19        1.94280  -0.00041  -0.00079  -0.00231  -0.00310   1.93971
   A20        2.05121   0.00055  -0.00028   0.00244   0.00216   2.05337
   A21        2.10131   0.00027  -0.00038   0.00135   0.00097   2.10228
   A22        2.13066  -0.00082   0.00066  -0.00379  -0.00313   2.12753
   A23        2.01438  -0.00107  -0.00054  -0.00672  -0.00726   2.00712
   A24        2.00994  -0.00111  -0.00053  -0.00702  -0.00755   2.00239
   A25        1.92590  -0.00062  -0.00075  -0.00369  -0.00445   1.92146
    D1       -0.00002   0.00000   0.00000   0.00002   0.00002  -0.00000
    D2        3.14154   0.00000   0.00000   0.00003   0.00004   3.14158
    D3        3.14154   0.00000   0.00000   0.00004   0.00004   3.14158
    D4       -0.00008   0.00000   0.00000   0.00005   0.00006  -0.00003
    D5        0.00000  -0.00000  -0.00000  -0.00000  -0.00000   0.00000
    D6        3.14157   0.00000   0.00000   0.00002   0.00002   3.14158
    D7       -3.14156  -0.00000  -0.00000  -0.00002  -0.00002  -3.14158
    D8        0.00000  -0.00000   0.00000  -0.00000  -0.00000   0.00000
    D9        3.14155   0.00000   0.00000   0.00001   0.00001   3.14157
   D10       -0.00007   0.00000   0.00000   0.00003   0.00004  -0.00003
   D11        0.00004  -0.00000  -0.00000  -0.00003  -0.00004   0.00001
   D12       -3.14156  -0.00000  -0.00000  -0.00003  -0.00003  -3.14159
   D13       -3.14152  -0.00000  -0.00001  -0.00004  -0.00005  -3.14157
   D14        0.00006  -0.00000  -0.00001  -0.00004  -0.00004   0.00002
   D15        3.14151   0.00000   0.00000   0.00011   0.00011  -3.14156
   D16       -0.00005   0.00000   0.00001   0.00004   0.00005   0.00000
   D17       -0.00011   0.00000   0.00001   0.00012   0.00012   0.00001
   D18        3.14151   0.00000   0.00001   0.00006   0.00007   3.14158
   D19       -0.00004   0.00000   0.00000   0.00003   0.00003  -0.00001
   D20        3.14158   0.00000   0.00000   0.00002   0.00002  -3.14159
   D21        3.14156   0.00000   0.00000   0.00002   0.00003   3.14158
   D22       -0.00001   0.00000   0.00000   0.00001   0.00001   0.00001
   D23        0.00003  -0.00000  -0.00000  -0.00001  -0.00002   0.00001
   D24       -3.14156  -0.00000  -0.00000  -0.00002  -0.00002  -3.14158
   D25        3.14159  -0.00000  -0.00000  -0.00000  -0.00000   3.14159
   D26        0.00000  -0.00000  -0.00000  -0.00001  -0.00001  -0.00001
   D27       -3.14147  -0.00000  -0.00000  -0.00003  -0.00003  -3.14151
   D28        0.00015  -0.00000  -0.00000  -0.00004  -0.00005   0.00010
   D29       -0.00001   0.00000   0.00000   0.00000   0.00000  -0.00001
   D30       -3.14157  -0.00000  -0.00000  -0.00002  -0.00002  -3.14159
   D31        3.14158   0.00000   0.00000   0.00001   0.00001   3.14159
   D32        0.00002  -0.00000  -0.00000  -0.00001  -0.00001   0.00000
   D33       -3.14149  -0.00000   0.00000  -0.00004  -0.00004  -3.14153
   D34        0.00007   0.00000  -0.00000   0.00002   0.00001   0.00009
   D35       -3.14135  -0.00000  -0.00001  -0.00003  -0.00004  -3.14139
   D36        0.00028  -0.00000  -0.00000  -0.00010  -0.00010   0.00017
         Item               Value     Threshold  Converged?
 Maximum Force            0.001523     0.000450     NO 
 RMS     Force            0.000411     0.000300     NO 
 Maximum Displacement     0.014605     0.001800     NO 
 RMS     Displacement     0.003106     0.001200     NO 
 Predicted change in Energy=-2.179875D-05
 GradGradGradGradGradGradGradGradGradGradGradGradGradGradGradGradGradGrad

                          Input orientation:                          
 ---------------------------------------------------------------------
 Center     Atomic      Atomic             Coordinates (Angstroms)
 Number     Number       Type             X           Y           Z
 ---------------------------------------------------------------------
      1          6           0       -0.218605    1.280026    0.000012
      2          6           0       -0.428499   -0.142543    0.000001
      3          6           0        0.694385   -1.023325   -0.000003
      4          6           0        1.990967   -0.520734    0.000012
      5          6           0        2.185765    0.885880    0.000018
      6          6           0        1.103661    1.761715    0.000021
      7          8           0        3.011337   -1.415766   -0.000000
      8          6           0       -1.732190   -0.721959    0.000012
      9          8           0       -1.817292   -2.042660    0.000033
     10          8           0       -2.802681    0.044030    0.000031
     11          8           0       -1.286125    2.103477    0.000004
     12          1           0        0.544811   -2.103961   -0.000017
     13          1           0        3.201659    1.295807    0.000019
     14          1           0        1.281056    2.841933    0.000022
     15          1           0        3.876195   -0.963497    0.000090
     16          1           0       -2.730041   -2.398756   -0.000015
     17          1           0       -3.654758   -0.441712    0.000217
     18          1           0       -0.991078    3.036180    0.000036
 ---------------------------------------------------------------------
                    Distance matrix (angstroms):
                    1          2          3          4          5
     1  C    0.000000
     2  C    1.437971   0.000000
     3  C    2.477696   1.427111   0.000000
     4  C    2.850429   2.448845   1.390583   0.000000
     5  C    2.436462   2.809276   2.422659   1.420038   0.000000
     6  C    1.407271   2.444118   2.814952   2.448854   1.392134
     7  O    4.207116   3.667911   2.349953   1.357291   2.445228
     8  C    2.509758   1.426651   2.445217   3.728591   4.235034
     9  O    3.687281   2.353548   2.710639   4.101109   4.959920
    10  O    2.864461   2.381502   3.656326   4.826802   5.058983
    11  O    1.348210   2.404190   3.701258   4.198310   3.679207
    12  H    3.469030   2.189633   1.090938   2.144289   3.410554
    13  H    3.420300   3.904728   3.415377   2.183025   1.095482
    14  H    2.165302   3.439430   3.909527   3.436786   2.155143
    15  H    4.669131   4.382277   3.182372   1.936523   2.505543
    16  H    4.454296   3.222979   3.690326   5.080835   5.912190
    17  H    3.843375   3.240100   4.387861   5.646278   5.989509
    18  H    1.918538   3.228123   4.395494   4.641576   3.836160
                    6          7          8          9         10
     6  C    0.000000
     7  O    3.706159   0.000000
     8  C    3.769707   4.793998   0.000000
     9  O    4.796377   4.869154   1.323439   0.000000
    10  O    4.267312   5.994482   1.316317   2.307653   0.000000
    11  O    2.414100   5.554570   2.860431   4.180022   2.557590
    12  H    3.905863   2.560735   2.663580   2.362898   3.977382
    13  H    2.149108   2.718244   5.330501   6.027871   6.133437
    14  H    1.094687   4.595854   4.667009   5.784376   4.950270
    15  H    3.887638   0.975974   5.613583   5.794858   6.754442
    16  H    5.657455   5.824921   1.951244   0.979753   2.443865
    17  H    5.243820   6.736884   1.942886   2.437071   0.980806
    18  H    2.451977   5.986581   3.830517   5.145604   3.497838
                   11         12         13         14         15
    11  O    0.000000
    12  H    4.588557   0.000000
    13  H    4.559883   4.314773   0.000000
    14  H    2.671279   5.000392   2.465607   0.000000
    15  H    6.004654   3.521189   2.357850   4.606088   0.000000
    16  H    4.728107   3.288094   6.988195   6.599524   6.760349
    17  H    3.476840   4.516575   7.073148   5.928287   7.549007
    18  H    0.978258   5.364699   4.539596   2.280422   6.299822
                   16         17         18
    16  H    0.000000
    17  H    2.164514   0.000000
    18  H    5.706358   4.380745   0.000000
 Stoichiometry    C7H7O4(1+)
 Framework group  C1[X(C7H7O4)]
 Deg. of freedom    48
 Full point group                 C1      NOp   1
 Largest Abelian subgroup         C1      NOp   1
 Largest concise Abelian subgroup C1      NOp   1
                         Standard orientation:                         
 ---------------------------------------------------------------------
 Center     Atomic      Atomic             Coordinates (Angstroms)
 Number     Number       Type             X           Y           Z
 ---------------------------------------------------------------------
      1          6           0       -0.217780    1.281367   -0.000004
      2          6           0       -0.427804   -0.141183   -0.000016
      3          6           0        0.695000   -1.022068   -0.000020
      4          6           0        1.991627   -0.519595   -0.000005
      5          6           0        2.186554    0.887001    0.000001
      6          6           0        1.104530    1.762935    0.000005
      7          8           0        3.011916   -1.414720   -0.000016
      8          6           0       -1.731548   -0.720480   -0.000005
      9          8           0       -1.816771   -2.041172    0.000017
     10          8           0       -2.801969    0.045607    0.000014
     11          8           0       -1.285224    2.104915   -0.000013
     12          1           0        0.545326   -2.102690   -0.000033
     13          1           0        3.202485    1.296835    0.000002
     14          1           0        1.282024    2.843137    0.000005
     15          1           0        3.876814   -0.962531    0.000073
     16          1           0       -2.729553   -2.397185   -0.000031
     17          1           0       -3.654091   -0.440057    0.000201
     18          1           0       -0.990092    3.037592    0.000020
 ---------------------------------------------------------------------
 Rotational constants (GHZ):      1.7516723      0.8966127      0.5930523
 Standard basis: 6-31+G(d,p) (6D, 7F)
 There are   244 symmetry adapted cartesian basis functions of A   symmetry.
 There are   244 symmetry adapted basis functions of A   symmetry.
   244 basis functions,   401 primitive gaussians,   244 cartesian basis functions
    40 alpha electrons       40 beta electrons
       nuclear repulsion energy       603.0650685260 Hartrees.
 NAtoms=   18 NActive=   18 NUniq=   18 SFac= 1.00D+00 NAtFMM=   60 NAOKFM=F Big=F
 Integral buffers will be    131072 words long.
 Raffenetti 2 integral format.
 Two-electron integral symmetry is turned on.
 Nuclear repulsion after empirical dispersion term =      603.0464988109 Hartrees.
 One-electron integrals computed using PRISM.
 NBasis=   244 RedAO= T EigKep=  3.43D-06  NBF=   244
 NBsUse=   244 1.00D-06 EigRej= -1.00D+00 NBFU=   244
 Initial guess from the checkpoint file:  "pbeDHByanggd3.chk"
 B after Tr=     0.000000    0.000000   -0.000000
         Rot=    1.000000    0.000001   -0.000000    0.000203 Ang=   0.02 deg.
 Keep J ints in memory in canonical form, NReq=454277305.
 Requested convergence on RMS density matrix=1.00D-08 within 128 cycles.
 Requested convergence on MAX density matrix=1.00D-06.
 Requested convergence on             energy=1.00D-06.
 No special actions if energy rises.
 SCF Done:  E(RPBE-PBE) =  -571.012576393     A.U. after   11 cycles
            NFock= 11  Conv=0.64D-08     -V/T= 2.0093
 Calling FoFJK, ICntrl=      2527 FMM=F ISym2X=0 I1Cent= 0 IOpClX= 0 NMat=1 NMatS=1 NMatT=0.
 ***** Axes restored to original set *****
 -------------------------------------------------------------------
 Center     Atomic                   Forces (Hartrees/Bohr)
 Number     Number              X              Y              Z
 -------------------------------------------------------------------
      1        6           0.000380525   -0.000065435   -0.000000168
      2        6          -0.000222508   -0.000291343   -0.000001544
      3        6          -0.000117967    0.000016281   -0.000000722
      4        6          -0.000118032    0.000175934   -0.000000648
      5        6           0.000025867   -0.000112407    0.000000599
      6        6          -0.000170945    0.000016242   -0.000000062
      7        8           0.000155984    0.000001489    0.000000881
      8        6           0.000861275    0.000322130    0.000003436
      9        8          -0.000010029   -0.000458125    0.000000136
     10        8          -0.000554892    0.000370443    0.000000065
     11        8          -0.000164748    0.000193602    0.000000593
     12        1           0.000025084    0.000078691    0.000000116
     13        1          -0.000095404   -0.000042336   -0.000000027
     14        1           0.000007390   -0.000109158    0.000000125
     15        1          -0.000051196   -0.000075204   -0.000000638
     16        1           0.000047086    0.000022002   -0.000000351
     17        1           0.000032528   -0.000000782   -0.000001478
     18        1          -0.000030020   -0.000042025   -0.000000311
 -------------------------------------------------------------------
 Cartesian Forces:  Max     0.000861275 RMS     0.000193380

 GradGradGradGradGradGradGradGradGradGradGradGradGradGradGradGradGradGrad
 Berny optimization.
 Using GEDIIS/GDIIS optimizer.
 FormGI is forming the generalized inverse of G from B-inverse, IUseBI=4.
 Internal  Forces:  Max     0.000634003 RMS     0.000116010
 Search for a local minimum.
 Step number   3 out of a maximum of   89
 All quantities printed in internal units (Hartrees-Bohrs-Radians)
 Mixed Optimization -- En-DIIS/RFO-DIIS
 Swapping is turned off.
 Update second derivatives using D2CorX and points    1    2    3
 DE= -2.38D-05 DEPred=-2.18D-05 R= 1.09D+00
 TightC=F SS=  1.41D+00  RLast= 1.41D-02 DXNew= 5.0454D-01 4.2160D-02
 Trust test= 1.09D+00 RLast= 1.41D-02 DXMaxT set to 3.00D-01
 ITU=  1  1  0
     Eigenvalues ---    0.01735   0.01794   0.01807   0.01966   0.02020
     Eigenvalues ---    0.02056   0.02103   0.02135   0.02173   0.02205
     Eigenvalues ---    0.02288   0.02354   0.02447   0.02828   0.02934
     Eigenvalues ---    0.15138   0.16000   0.16000   0.16000   0.16000
     Eigenvalues ---    0.16015   0.16111   0.22354   0.23490   0.24542
     Eigenvalues ---    0.24931   0.25000   0.25000   0.25032   0.26275
     Eigenvalues ---    0.35187   0.35395   0.35979   0.39023   0.39861
     Eigenvalues ---    0.41148   0.42934   0.44007   0.46879   0.48760
     Eigenvalues ---    0.50496   0.52969   0.53319   0.53806   0.54167
     Eigenvalues ---    0.56336   0.60616   0.64487
 En-DIIS/RFO-DIIS IScMMF=        0 using points:     3    2
 RFO step:  Lambda=-1.58088184D-06.
 DidBck=F Rises=F RFO-DIIS coefs:    1.08480   -0.08480
 Iteration  1 RMS(Cart)=  0.00056695 RMS(Int)=  0.00000016
 Iteration  2 RMS(Cart)=  0.00000019 RMS(Int)=  0.00000000
 Variable       Old X    -DE/DX   Delta X   Delta X   Delta X     New X
                                 (Linear)    (Quad)   (Total)
    R1        2.71737  -0.00001   0.00002   0.00002   0.00004   2.71741
    R2        2.65936  -0.00021  -0.00013  -0.00039  -0.00052   2.65883
    R3        2.54775   0.00025   0.00014   0.00044   0.00058   2.54833
    R4        2.69685  -0.00016  -0.00011  -0.00033  -0.00044   2.69641
    R5        2.69598  -0.00045  -0.00007  -0.00109  -0.00116   2.69482
    R6        2.62782  -0.00007  -0.00002  -0.00009  -0.00011   2.62771
    R7        2.06157  -0.00008  -0.00002  -0.00019  -0.00021   2.06137
    R8        2.68348  -0.00016  -0.00007  -0.00031  -0.00038   2.68310
    R9        2.56491   0.00012   0.00005   0.00024   0.00029   2.56520
   R10        2.63075  -0.00002  -0.00007   0.00003  -0.00004   2.63071
   R11        2.07016  -0.00010   0.00001  -0.00027  -0.00026   2.06990
   R12        2.06866  -0.00011   0.00002  -0.00028  -0.00026   2.06840
   R13        1.84432  -0.00008   0.00016  -0.00018  -0.00002   1.84431
   R14        2.50094   0.00044   0.00020   0.00071   0.00091   2.50185
   R15        2.48748   0.00063   0.00024   0.00099   0.00123   2.48871
   R16        1.85146  -0.00005   0.00017  -0.00014   0.00003   1.85149
   R17        1.85346  -0.00003   0.00018  -0.00009   0.00009   1.85355
   R18        1.84864  -0.00005   0.00017  -0.00014   0.00004   1.84868
    A1        2.06663  -0.00003  -0.00002  -0.00012  -0.00014   2.06649
    A2        2.08134  -0.00001   0.00002  -0.00006  -0.00004   2.08131
    A3        2.13521   0.00004  -0.00000   0.00018   0.00018   2.13539
    A4        2.08946   0.00003   0.00002   0.00015   0.00017   2.08962
    A5        2.13551   0.00003  -0.00009   0.00014   0.00005   2.13556
    A6        2.05822  -0.00006   0.00008  -0.00029  -0.00022   2.05800
    A7        2.10665  -0.00001  -0.00001  -0.00004  -0.00005   2.10660
    A8        2.09841   0.00002   0.00005   0.00011   0.00016   2.09857
    A9        2.07813  -0.00001  -0.00005  -0.00007  -0.00012   2.07801
   A10        2.07820  -0.00002  -0.00003  -0.00009  -0.00011   2.07809
   A11        2.05174   0.00000  -0.00001   0.00002   0.00001   2.05175
   A12        2.15324   0.00002   0.00004   0.00006   0.00010   2.15334
   A13        2.11362   0.00003   0.00003   0.00012   0.00015   2.11377
   A14        2.09194  -0.00001  -0.00002  -0.00005  -0.00007   2.09187
   A15        2.07762  -0.00002  -0.00001  -0.00007  -0.00008   2.07755
   A16        2.11181  -0.00000   0.00000  -0.00002  -0.00001   2.11179
   A17        2.08291   0.00002  -0.00002   0.00016   0.00014   2.08306
   A18        2.08846  -0.00002   0.00002  -0.00015  -0.00013   2.08833
   A19        1.93971   0.00007  -0.00026   0.00055   0.00029   1.94000
   A20        2.05337  -0.00014   0.00018  -0.00072  -0.00054   2.05283
   A21        2.10228   0.00010   0.00008   0.00039   0.00047   2.10276
   A22        2.12753   0.00004  -0.00027   0.00033   0.00007   2.12760
   A23        2.00712   0.00000  -0.00062   0.00026  -0.00036   2.00676
   A24        2.00239  -0.00004  -0.00064  -0.00002  -0.00066   2.00173
   A25        1.92146   0.00004  -0.00038   0.00036  -0.00002   1.92144
    D1       -0.00000  -0.00000   0.00000  -0.00001  -0.00000  -0.00001
    D2        3.14158   0.00000   0.00000   0.00000   0.00000   3.14158
    D3        3.14158   0.00000   0.00000   0.00000   0.00000   3.14159
    D4       -0.00003   0.00000   0.00000   0.00001   0.00001  -0.00001
    D5        0.00000   0.00000  -0.00000   0.00000   0.00000   0.00000
    D6        3.14158   0.00000   0.00000   0.00001   0.00001   3.14159
    D7       -3.14158  -0.00000  -0.00000  -0.00000  -0.00001  -3.14159
    D8        0.00000  -0.00000  -0.00000  -0.00000  -0.00000  -0.00000
    D9        3.14157   0.00000   0.00000   0.00001   0.00001   3.14158
   D10       -0.00003   0.00000   0.00000   0.00001   0.00002  -0.00002
   D11        0.00001   0.00000  -0.00000   0.00000  -0.00000   0.00001
   D12       -3.14159   0.00000  -0.00000   0.00000  -0.00000  -3.14159
   D13       -3.14157  -0.00000  -0.00000  -0.00001  -0.00001  -3.14158
   D14        0.00002  -0.00000  -0.00000  -0.00001  -0.00001   0.00001
   D15       -3.14156  -0.00000   0.00001  -0.00001   0.00000  -3.14156
   D16        0.00000   0.00000   0.00000   0.00007   0.00007   0.00007
   D17        0.00001  -0.00000   0.00001  -0.00000   0.00001   0.00002
   D18        3.14158   0.00000   0.00001   0.00007   0.00008  -3.14153
   D19       -0.00001   0.00000   0.00000   0.00000   0.00001  -0.00000
   D20       -3.14159  -0.00000   0.00000  -0.00000   0.00000  -3.14159
   D21        3.14158   0.00000   0.00000   0.00000   0.00001   3.14159
   D22        0.00001  -0.00000   0.00000  -0.00000   0.00000   0.00001
   D23        0.00001  -0.00000  -0.00000  -0.00001  -0.00001   0.00000
   D24       -3.14158  -0.00000  -0.00000  -0.00000  -0.00001  -3.14159
   D25        3.14159  -0.00000  -0.00000  -0.00000  -0.00000   3.14158
   D26       -0.00001   0.00000  -0.00000   0.00000   0.00000  -0.00001
   D27       -3.14151  -0.00000  -0.00000  -0.00002  -0.00002  -3.14153
   D28        0.00010  -0.00000  -0.00000  -0.00003  -0.00003   0.00007
   D29       -0.00001   0.00000   0.00000   0.00000   0.00000  -0.00000
   D30       -3.14159  -0.00000  -0.00000  -0.00000  -0.00000  -3.14159
   D31        3.14159  -0.00000   0.00000  -0.00000   0.00000   3.14159
   D32        0.00000  -0.00000  -0.00000  -0.00000  -0.00000  -0.00000
   D33       -3.14153   0.00000  -0.00000   0.00005   0.00005  -3.14149
   D34        0.00009  -0.00000   0.00000  -0.00003  -0.00002   0.00006
   D35       -3.14139  -0.00000  -0.00000  -0.00008  -0.00009  -3.14148
   D36        0.00017  -0.00000  -0.00001  -0.00000  -0.00001   0.00016
         Item               Value     Threshold  Converged?
 Maximum Force            0.000634     0.000450     NO 
 RMS     Force            0.000116     0.000300     YES
 Maximum Displacement     0.002449     0.001800     NO 
 RMS     Displacement     0.000567     0.001200     YES
 Predicted change in Energy=-1.207995D-06
 GradGradGradGradGradGradGradGradGradGradGradGradGradGradGradGradGradGrad

                          Input orientation:                          
 ---------------------------------------------------------------------
 Center     Atomic      Atomic             Coordinates (Angstroms)
 Number     Number       Type             X           Y           Z
 ---------------------------------------------------------------------
      1          6           0       -0.218578    1.280306    0.000029
      2          6           0       -0.428526   -0.142276    0.000028
      3          6           0        0.693999   -1.023140    0.000014
      4          6           0        1.990603   -0.520771    0.000009
      5          6           0        2.185433    0.885636    0.000012
      6          6           0        1.103513    1.761665    0.000024
      7          8           0        3.010957   -1.416052   -0.000012
      8          6           0       -1.731649   -0.721463    0.000048
      9          8           0       -1.816052   -2.042689    0.000080
     10          8           0       -2.803043    0.044384   -0.000013
     11          8           0       -1.286343    2.103941    0.000036
     12          1           0        0.544398   -2.103662    0.000010
     13          1           0        3.201244    1.295396    0.000002
     14          1           0        1.281234    2.841691    0.000024
     15          1           0        3.876002   -0.964163    0.000042
     16          1           0       -2.728746   -2.398970   -0.000003
     17          1           0       -3.654605   -0.442357    0.000111
     18          1           0       -0.991276    3.036660    0.000051
[...]
 1149,0.0000507352\\Version=ES64L-G09RevE.01\State=1-A\HF=-571.0125775\
 RMSD=6.787e-09\RMSF=4.936e-05\ZeroPoint=0.1317034\Thermal=0.1411318\Di
 pole=-1.4421655,0.1675194,0.000081\DipoleDeriv=0.9096304,-0.9418923,-0
 .0000084,0.0265203,0.7788288,-0.0000012,0.0000036,0.0000106,0.1252335,
 -0.985612,-0.7301299,0.0000035,-0.4585834,-0.4174857,0.0000057,0.00000
 78,-0.0000025,-0.0223335,0.108294,0.6123317,0.0000012,-0.235138,-0.031
 8862,0.0000035,-0.000015,-0.0000028,-0.1189011,0.9683156,-1.068589,-0.
 0000144,-1.1567273,0.0836027,0.0000062,-0.0000147,0.0000123,0.1206014,
 0.1230388,-0.1482326,-0.0000038,0.3761926,0.3388882,-0.0000019,0.00000
 54,0.0000027,-0.0556113,-0.3940209,0.5676747,0.0000051,-0.0218296,0.08
 29211,-0.0000003,-0.0000014,-0.0000044,-0.1165205,-1.1745778,0.6084658
 ,0.0000161,0.812622,-0.468079,0.0000057,0.0000353,-0.0000056,-0.328303
 3,2.4512565,0.6432348,0.0000085,0.5005089,1.7564254,-0.0000367,0.00007
 7,-0.0000161,0.2987187,-0.4984266,-0.321286,0.0000236,-0.7435109,-1.41
 92461,0.0000244,0.0000406,0.0000396,-0.2515369,-1.5640864,-0.0110948,-
 0.0000243,0.5174145,-0.2211019,-0.0000194,-0.0001586,-0.0000417,-0.234
 5425,-0.6374676,0.8585084,0.0000078,0.4400906,-0.964849,-0.0000019,0.0
 000166,-0.000008,-0.2819875,0.0937527,-0.0166365,0.0000009,0.0123301,0
 .0899381,-0.0000009,-0.0000017,-0.0000007,0.1493105,-0.0019676,-0.0041
 604,0.0000006,0.0113137,0.1001543,0.0000002,0.0000002,-0.0000006,0.136
 9078,0.0779518,0.0440163,0.0000007,0.0218163,-0.0090805,-0.0000008,-0.
 0000015,0.0000002,0.1536295,0.425964,-0.0832854,-0.0000033,-0.1130485,
 0.1963331,-0.0000103,-0.000014,-0.0000042,0.3469932,0.3104915,0.134410
 1,-0.0000117,0.1694914,0.4585358,0.0000065,-0.0000343,-0.0000144,0.368
 8258,0.531372,-0.0141719,0.0000004,-0.0612222,0.2268256,0.0000217,0.00
 00586,0.0000351,0.3664112,0.2560918,-0.1291629,-0.0000023,-0.0982405,0
 .4192753,-0.0000004,-0.0000038,0.0000003,0.3431049\Polar=146.4548418,9
 .0632884,118.9190764,-0.0005608,-0.0001176,48.0681756\PG=C01 [X(C7H7O4
 )]\NImag=1\\0.67281562,-0.02061468,0.65829635,-0.00000309,0.00000184,0
 .14618028,-0.12048970,-0.03519613,0.00000023,0.64926802,-0.01719843,-0
 .25327948,-0.00000040,0.00654075,0.64763662,0.00000096,-0.00000002,-0.
 05913030,-0.00000525,-0.00000091,0.12596390,0.04120655,0.03788304,-0.0
 0000008,-0.20418623,0.08495925,0.00000166,0.68559321,0.01926938,-0.032
 80039,-0.00000024,0.10386772,-0.18425851,-0.00000114,0.02827732,0.6984
 8297,-0.00000025,-0.00000021,0.00141240,0.00000213,-0.00000129,-0.0447
 3765,-0.00000416,0.00000281,0.10860456,-0.02990181,-0.02243434,0.00000
 003,-0.04575938,0.01741901,0.00000051,-0.31010714,-0.11144359,0.000000
 66,0.71758416,-0.03084184,-0.02661052,0.00000010,-0.00565312,0.0293911
 3,0.00000009,-0.06554147,-0.14929798,-0.00000038,0.00132121,0.65051709
 ,0.00000021,0.,0.00052993,0.00000056,0.00000006,-0.00304114,0.00000084
 ,-0.00000017,-0.05492011,-0.00000239,0.00000462,0.12942477,-0.05158776
 ,0.00617243,0.00000040,-0.00810963,0.00803406,0.00000005,0.01267679,-0
 .03072172,-0.00000008,-0.12581160,-0.06484783,0.00000039,0.71438421,0.
 04167223,0.04409066,-0.00000018,0.01189579,-0.02389164,-0.00000026,-0.
 05505144,-0.01446920,0.00000040,-0.00292135,-0.27949815,-0.00000099,-0
 .00949581,0.64118750,0.00000053,0.00000016,-0.00303159,-0.00000005,-0.
 00000017,0.00066862,-0.00000015,0.00000025,0.00111161,0.00000040,-0.00
 000016,-0.05436508,-0.00000578,0.00000175,0.11633233,-0.26220246,-0.05
 000624,0.00000096,0.00274504,-0.04233438,-0.00000019,-0.04174471,0.005
 04697,0.00000022,0.04463176,0.04998657,-0.00000039,-0.26337485,0.09674
 183,0.00000230,0.65554272,-0.10505338,-0.15054757,0.00000020,-0.023723
 57,-0.00851911,0.00000034,0.00061004,-0.00249426,-0.00000006,0.0214734
 4,-0.03253489,-0.00000043,0.14763410,-0.21477475,-0.00000166,-0.019763
 40,0.71524896,0.00000057,-0.00000037,-0.06040205,0.00000013,0.00000058
 ,0.00551569,0.00000036,-0.00000013,0.00275378,-0.00000033,-0.00000042,
 -0.00168834,0.00000219,-0.00000110,-0.04460413,-0.00000370,0.00000160,
 0.10573887,0.00438741,-0.00035187,-0.00000004,-0.00038423,-0.00631468,
 -0.00000008,-0.05733459,0.03094349,0.00000088,-0.22768414,0.13695590,0
 .00000223,-0.00074095,0.00732912,0.00000034,-0.00345794,-0.00121681,-0
 .00000001,0.66423289,0.00204531,0.00338930,-0.00000003,-0.00030018,-0.
 00268224,0.00000019,-0.00229841,0.01653636,0.00000020,0.08616334,-0.19
 495372,-0.00000491,0.04209801,-0.03707490,-0.00000098,-0.00815999,-0.0
 0328265,-0.00000005,0.04206733,0.36420496,-0.00000024,-0.00000009,-0.0
 0135981,-0.00000039,0.00000004,0.00441272,0.00000064,0.00000032,0.0066
 0919,-0.00000082,-0.00000349,-0.03539585,0.00000015,-0.00000012,0.0067
 2598,0.00000030,0.00000005,0.00562600,0.00002124,0.00001789,0.02172231
 ,0.01198675,-0.03989307,0.00000006,-0.23480660,-0.06792094,0.00000323,
 -0.05213283,0.00392453,0.00000061,0.00331246,0.01784950,-0.00000020,0.
 00321789,-0.00490608,0.00000001,0.00068183,-0.00187926,-0.00000009,0.0
 0332539,-0.00527507,-0.00000007,0.75406344,-0.03135071,-0.01744096,0.0
 0000062,-0.06774917,-0.12709149,0.00000145,0.00507424,0.01982553,-0.00
 000005,0.00572175,0.00502606,-0.00000024,0.00204975,-0.00520075,0.0000
 0004,-0.00027019,-0.00767282,-0.00000016,0.00440038,-0.00306921,0.,0.0
 0349627,0.70852850,0.00000058,-0.00000085,-0.00189059,0.00000258,0.000
 00289,-0.06893567,0.,-0.00000024,-0.00207223,0.00000027,0.00000094,0.0
 0588973,0.00000004,-0.00000069,-0.00094122,-0.00000039,-0.00000030,0.0
 0513578,0.00000022,-0.00000029,0.00035513,0.00000572,-0.00001823,0.176
 44593,-0.00710340,0.00699710,0.00000024,-0.00709670,-0.04474045,0.0000
 0167,-0.00251645,-0.00414337,0.00000012,0.00177614,-0.00151455,-0.0000
 0024,-0.00013588,-0.00097549,-0.00000006,-0.00121586,-0.00199798,-0.00
 000008,-0.00103539,0.00066895,0.00000003,-0.12284270,-0.05588855,-0.00
 000310,0.55400177,-0.00133111,0.01455195,-0.00000025,-0.03155841,-0.04
 319230,0.00000045,0.00792749,-0.00496430,0.00000020,-0.00077687,-0.007
 31265,0.00000013,-0.00011923,0.00199004,-0.00000007,-0.00209147,0.0012
 1596,0.00000018,-0.00281196,0.00326012,0.00000004,0.00678054,-0.360888
 45,0.00001068,0.17033702,0.53471092,-0.00000044,-0.00000071,0.00298277
 ,0.00000152,0.00000037,0.00964602,-0.00000011,0.00000033,0.00056626,-0
 .00000027,-0.00000009,-0.00120211,-0.00000005,0.00000036,-0.00008425,0
 .00000046,-0.00000010,-0.00083518,0.00000003,0.00000002,0.00020028,-0.
 00000413,0.00000363,-0.04991378,0.00004146,0.00000128,0.02233943,-0.00
 960349,0.01695946,-0.00000008,-0.05763394,0.01419960,-0.00000212,0.004
 24110,-0.00771562,0.00000015,-0.00330008,-0.00900867,0.00000028,-0.001
 86312,0.00612082,0.00000004,0.00345471,0.00176968,0.00000004,-0.003407
 60,0.00326529,0.,-0.30405474,0.15379282,-0.00000956,0.00248151,0.01833
 401,-0.00000183,0.70839107,0.00258848,-0.00670699,-0.00000012,0.004562
 09,0.02059860,-0.00000080,-0.00559300,-0.00205214,-0.00000020,0.001334
 23,0.00515570,0.00000006,0.00058014,-0.00257316,-0.00000001,-0.0014578
 6,-0.00075635,-0.00000011,0.00037010,-0.00140378,-0.00000001,0.0898751
 3,-0.19886068,0.00001307,0.04814443,-0.05197903,0.00000422,0.03297206,
 0.38557923,-0.00000119,0.00000137,0.00039854,-0.00000109,-0.00000263,0
 .00675847,0.00000140,0.00000003,0.00288882,-0.00000025,-0.00000142,0.0
 0011267,-0.00000013,0.00000068,0.00027869,0.00000016,0.00000034,-0.000
 22707,-0.00000024,0.00000044,-0.00011758,-0.00000218,0.00001162,-0.049
 68817,-0.00000157,0.00000258,0.02322880,-0.00004045,-0.00004736,0.0243
 8171,-0.24815255,0.08616858,0.00000064,0.02087771,0.01252912,-0.000000
 19,-0.01349805,-0.00186125,0.00000010,0.01132845,0.00754481,-0.0000002
 3,0.00212445,-0.01424493,0.,-0.05668502,0.03495474,0.00000043,-0.00513
 316,0.00195301,0.00000025,-0.01775623,-0.00373556,-0.00000061,0.002121
 69,0.00339828,0.00000002,0.00777364,-0.00967891,0.00000074,0.38079491,
 0.13608983,-0.19142400,-0.00000121,0.02630898,-0.04097672,-0.00000037,
 0.00140578,-0.00380905,0.00000006,-0.00651426,-0.00159056,0.00000018,-
 0.00431075,0.00147057,-0.00000008,0.00746393,0.00829669,0.00000020,0.0
 0512149,-0.00207112,-0.00000020,0.01751601,0.00426594,0.00000040,-0.00
 179898,-0.00580493,0.00000020,-0.01450647,-0.00245898,-0.00000054,-0.0
 0551197,0.65739392,0.00000174,-0.00000153,-0.03926687,-0.00000006,-0.0
 0000024,0.00338667,-0.00000003,-0.00000001,0.00224856,-0.00000008,0.00
 000006,-0.00085297,0.00000006,0.,0.00664384,0.00000032,-0.00000020,0.0
 1299610,0.00000007,0.,-0.00022977,0.00000025,0.00000013,-0.00271274,-0
 .00000006,-0.00000027,0.00037575,-0.00000024,0.00000032,0.00062042,0.0
 0000063,0.00000855,0.02755679,-0.00409841,0.00096117,0.,0.00550930,0.0
 2251628,0.00000003,-0.05869221,-0.04064605,-0.00000011,0.00144036,-0.0
 2861770,0.00000003,-0.00564623,-0.00092235,0.00000006,-0.00039581,0.00
 067683,0.00000005,0.00192632,0.00046000,-0.00000003,0.00187199,0.00359
 853,0.,-0.00414420,-0.00155169,0.00000034,0.00032685,-0.00047779,-0.00
 000003,0.00042631,0.00157449,0.00000002,0.06124738,0.00327246,0.001734
 45,-0.00000011,-0.00247042,-0.01162908,-0.00000004,-0.04005360,-0.3320
 8142,-0.00000133,0.00055785,-0.00556986,-0.00000001,-0.00135096,-0.000
 49908,0.,-0.00107156,0.00057726,0.00000002,0.00110500,-0.00001147,0.,-
 0.00067083,-0.00183714,0.,-0.00229043,0.00048993,0.00000003,0.00018328
 ,-0.00000117,0.00000003,-0.00075540,-0.00044998,0.,0.04368749,0.349067
 57,0.00000013,0.00000009,0.00343699,-0.00000025,-0.00000021,0.00093233
 ,-0.00000009,-0.00000131,-0.03176800,0.00000025,0.00000002,0.00782861,
 0.00000003,-0.00000007,0.00564090,-0.00000006,0.00000002,-0.00044057,-
 0.00000003,0.00000004,-0.00334531,0.00000003,0.00000009,-0.00266619,0.
 00000041,-0.00000013,0.00076528,-0.00000009,-0.00000004,-0.00010575,0.
 ,-0.00000003,0.00073182,-0.00000019,0.00000140,0.02087948,-0.00076784,
 0.00350550,0.00000012,0.00053402,0.00026569,0.,0.00105729,-0.00054605,
 0.00000004,-0.00218826,0.00256558,0.00000009,-0.28687346,-0.09507690,0
 .00000242,-0.01684406,-0.00956209,0.00000019,0.00262290,0.00009756,0.,
 -0.00014374,-0.00003897,-0.00000001,-0.00002892,-0.00002285,0.,0.00004
 651,-0.00001763,0.00000001,-0.00129653,-0.00030795,-0.00000001,-0.0000
 2104,0.00006921,-0.00000002,0.30288934,0.00322391,-0.00234341,-0.00000
 005,0.00135332,-0.00036319,0.00000002,-0.00021650,-0.00605642,-0.00000
 003,-0.02718344,-0.00496160,0.00000021,-0.09655032,-0.09485863,0.00000
 091,0.01862293,0.01004233,-0.00000019,-0.00077459,0.00252727,-0.000000
 01,-0.00044992,-0.00051595,-0.00000004,-0.00004000,0.00033860,0.,0.000
 25147,-0.00009536,0.00000003,0.00116781,0.00040932,0.00000002,-0.00143
 661,-0.00018823,0.,0.10078472,0.09628418,0.00000011,0.00000002,0.00793
 878,-0.00000003,-0.00000004,-0.00031809,0.00000004,-0.00000005,0.00439
 296,-0.00000012,-0.00000003,0.00602130,0.00000257,0.00000079,-0.036249
 94,0.00000015,0.00000018,0.00475346,0.00000009,0.00000006,-0.00239712,
 0.00000003,0.00000004,-0.00085296,0.00000007,-0.00000002,0.00036262,-0
 .00000003,0.00000001,-0.00010126,0.00000002,-0.00000003,-0.00096270,-0
 .00000003,-0.00000003,-0.00117636,-0.00000273,-0.00000097,0.02194062,-
 0.00260951,-0.02752392,-0.00000004,-0.00444189,-0.00026050,0.00000010,
 -0.00099289,0.00056671,0.00000002,-0.00354208,0.00195441,0.00000010,0.
 00676736,0.02460133,-0.00000004,-0.06114867,-0.04663870,0.00000012,-0.
 00002629,0.00160006,0.,0.00032883,-0.00129664,-0.00000005,-0.00055277,
 -0.00019469,-0.00000002,0.00011841,-0.00006653,0.00000004,0.00277896,-
 0.00131114,-0.00000003,0.00009843,-0.00004755,0.,0.00084659,0.00010869
 ,-0.00000004,0.06331621,0.00290366,-0.00801946,-0.00000003,-0.00169420
 ,0.00076242,0.00000003,-0.00004779,0.00052402,0.,0.00319474,0.00113116
 ,-0.00000005,-0.00387407,-0.01458166,0.00000002,-0.04629615,-0.3192042
 3,-0.00000007,-0.00010871,-0.00104201,0.00000002,0.00059511,-0.0002942
 4,0.,-0.00020743,-0.00009719,0.,-0.00022181,0.00011058,-0.00000002,0.0
 0058054,0.00302287,0.00000003,-0.00003370,-0.00006112,0.,-0.00020478,0
 .00083069,0.00000001,0.04758421,0.33685970,0.00000008,0.00000006,0.003
 59758,0.00000003,0.00000003,0.00401908,0.,0.,-0.00101629,0.00000008,-0
 .00000004,0.00690542,-0.00000002,-0.00000022,0.00260767,0.00000012,0.0
 0000006,-0.03059769,0.00000003,0.,0.00004145,0.00000001,0.,0.00066481,
 0.,0.,-0.00012541,0.,0.,-0.00001263,-0.00000006,0.00000009,-0.00352041
 ,0.,0.,-0.00031320,-0.00000006,0.,-0.00403432,-0.00000021,0.00000008,0
 .02125475,-0.00013868,0.00024684,0.,-0.00012887,-0.00062520,0.00000007
 ,-0.00126342,0.00489753,-0.00000009,-0.03256757,-0.01545021,-0.0000012
 9,0.00487513,-0.00286724,-0.00000005,-0.00063516,-0.00050559,0.0000001
 3,-0.37784067,-0.16303756,-0.00002106,-0.00138127,-0.00047611,-0.00000
 008,0.00021565,0.00073594,-0.00000001,0.00075575,-0.00035422,0.0000001
 1,0.00068373,-0.00055214,-0.00000003,0.00029238,0.00004350,-0.00000004
 ,0.00006846,0.00130976,-0.00000008,0.00026228,-0.00020951,0.,0.4071893
 6,0.00003780,0.00054595,0.00000005,-0.00026881,0.00064560,-0.00000015,
 0.00453141,-0.00300300,-0.00000007,0.03187187,0.00797684,0.00000163,0.
 00395862,0.00200845,0.00000002,-0.00048402,-0.00046795,-0.00000001,-0.
 21632036,-0.14409064,-0.00001447,0.00076299,0.00006571,-0.00000003,-0.
 00012873,-0.00031041,0.,-0.00014971,0.00011005,-0.00000003,0.00007232,
 -0.00038753,0.,0.00036733,0.00007613,0.00000003,-0.00127353,-0.0012256
 3,0.00000003,-0.00004245,0.00006609,-0.00000002,0.17682014,0.13794349,
 0.00000005,0.00000002,0.00023641,0.00000030,-0.00000005,0.00209847,0.0
 0000006,-0.00000028,0.00203273,0.00000192,-0.00000022,-0.00501621,0.00
 000014,-0.00000010,-0.00031592,-0.00000007,-0.00000006,-0.00068124,-0.
 00002475,-0.00001245,-0.00255584,0.00000001,-0.00000004,0.00037297,0.,
 0.,-0.00004099,-0.00000003,0.00000003,-0.00019972,-0.00000006,0.000000
 06,-0.00009251,-0.00000002,0.00000001,-0.00084490,-0.00000004,0.000000
 11,0.00037015,0.00000002,-0.00000002,0.00000512,0.00002243,0.00001300,
 0.00461203,-0.00013145,-0.00148608,0.,0.00447895,0.00250652,-0.0000006
 1,-0.00106491,0.00045633,0.,0.00027049,0.00090619,0.00000007,0.0000751
 0,-0.00039353,0.,0.00018635,-0.00046180,0.,0.00030964,-0.00037051,0.,-
 0.00438279,0.00276160,0.00000078,-0.42065776,-0.16318408,-0.00003656,0
 .00115333,0.00484952,-0.00000046,-0.00058756,0.00078043,0.00000008,0.0
 0025084,-0.00040465,-0.00000009,-0.00000353,-0.00005825,0.,-0.00003984
 ,0.00001624,0.,-0.00011041,0.00003899,0.,0.41945990,-0.00149488,-0.000
 53753,0.00000019,0.00452747,-0.00418236,0.00000032,0.00076217,0.000349
 10,-0.00000019,-0.00030650,0.00139389,-0.00000001,0.00031920,-0.000446
 70,0.,0.00008164,-0.00066389,-0.00000005,0.00059496,-0.00054640,0.,-0.
 04813541,-0.02356237,-0.00000339,-0.11360447,-0.08388527,-0.00000994,0
 .00092309,0.00501677,0.00000071,-0.00024549,0.00075579,-0.00000002,-0.
 00050504,0.00050821,0.00000009,0.00001036,0.00001615,0.00000001,-0.000
 12738,-0.00001458,0.,-0.00013531,0.00004444,0.,0.15332766,0.10880801,0
 .00000023,0.00000057,0.00230778,-0.00000061,0.00000042,0.00406392,0.00
 000026,-0.00000014,-0.00110721,0.00000002,-0.00000012,0.00031208,0.,-0
 .00000005,0.00012386,-0.00000016,0.00000015,-0.00065520,-0.00000002,0.
 00000004,-0.00007469,0.00000213,0.00000189,-0.00475756,-0.00003853,-0.
 00001531,-0.00336397,-0.00000015,0.00000017,-0.00386842,0.00000015,-0.
 00000022,0.00016193,-0.00000016,0.00000003,-0.00023415,0.,0.00000001,-
 0.00003846,0.00000003,0.,-0.00007585,0.00000002,0.,0.00005926,0.000036
 38,0.00001319,0.00490053,0.00104028,-0.00229483,0.00000007,0.00355672,
 0.00740901,0.00000017,-0.00177535,-0.00088920,-0.00000020,0.00014918,0
 .00223350,-0.00000007,0.00029193,-0.00077210,0.,-0.00020563,-0.0002541
 1,0.,0.00038387,-0.00072570,0.,-0.03967852,-0.02088789,0.00000365,0.00
 651527,-0.00377705,-0.00000046,-0.34824773,-0.16638905,0.00004519,-0.0
 0129313,0.00067554,-0.00000010,-0.00012011,0.00005970,0.00000002,-0.00
 000482,-0.00004696,0.,0.00000490,0.00000809,0.,-0.00019273,0.00007917,
 0.00000003,0.00080965,0.00389383,0.00000038,0.37865099,0.00137379,-0.0
 0113157,-0.00000001,0.00341907,-0.00135272,0.00000087,0.00019717,0.000
 51522,0.00000013,0.00033210,0.00038374,-0.00000007,0.00009849,-0.00030
 575,-0.00000002,-0.00030666,-0.00010413,0.00000003,0.00005572,-0.00010
 431,-0.00000001,0.03124002,0.00950777,-0.00000379,0.00078949,0.0005281
 4,0.00000042,-0.21827520,-0.14844603,0.00003399,-0.00104154,-0.0014339
 8,-0.00000021,0.00003568,-0.00000369,0.00000004,-0.00001250,-0.0000117
 1,0.,-0.00000392,0.00002032,0.,-0.00000908,0.00000397,0.,0.00094111,-0
 .00287049,-0.00000069,0.18184119,0.14481798,0.00000040,-0.00000045,-0.
 00152329,0.00000022,0.00000157,0.00534106,-0.00000069,-0.00000006,0.00
 186427,0.00000012,0.00000056,-0.00036738,0.00000005,-0.00000022,0.0000
 2555,0.,-0.00000017,-0.00016906,0.00000004,-0.00000018,-0.00016263,-0.
 00000538,-0.00000076,-0.00435265,-0.00000041,0.00000040,-0.00445343,0.
 00005419,0.00003088,-0.00470650,-0.00000022,0.00000012,0.00033852,0.00
 000005,-0.00000002,0.00022752,0.,-0.00000002,0.00008688,-0.00000002,0.
 ,0.00000776,-0.00000004,0.00000003,-0.00005967,0.00000045,-0.00000087,
 0.00236657,-0.00004874,-0.00003074,0.00549611,0.00535045,0.04090703,0.
 00000056,-0.00393261,0.00301530,0.,0.00053384,0.00071688,-0.00000002,0
 .00036905,0.00015770,0.,-0.00026937,-0.00073390,0.,0.00066775,0.003937
 86,-0.00000001,-0.00014345,-0.00025144,0.,-0.00160917,0.00079847,-0.00
 000003,0.00021802,-0.00009387,0.00000006,-0.00063218,-0.00124118,-0.00
 000007,-0.08450760,-0.16212282,-0.00000253,-0.00027215,0.00013690,-0.0
 0000001,0.00010710,-0.00006603,-0.00000001,-0.00116804,-0.00198444,0.0
 0000002,-0.00008397,0.00012695,0.,-0.00001600,0.00011408,0.,0.00011524
 ,-0.00067493,0.,0.08527307,-0.00459184,-0.03176680,-0.00000036,0.00613
 882,0.00238445,-0.00000009,-0.00282570,-0.00094653,0.00000002,0.002190
 80,0.00135432,-0.00000002,0.00032588,-0.00257286,0.00000003,-0.0057019
 4,0.00564139,0.00000006,-0.00104450,0.00041444,0.00000004,-0.00290952,
 -0.00078544,-0.00000014,0.00039342,0.00134886,-0.00000003,0.00110589,-
 0.00123726,0.00000018,-0.11129415,-0.42520825,-0.00000661,0.00031313,-
 0.00012130,-0.00000001,-0.00023536,0.00017160,0.,0.00109801,-0.0000133
 6,-0.00000005,0.00016846,-0.00000157,-0.00000001,-0.00022569,-0.000182
 75,0.00000005,-0.00016316,-0.00001277,-0.00000009,0.11725744,0.4515338
 4,-0.00000037,0.00000008,-0.00241698,0.00000003,-0.00000003,0.00335591
 ,0.00000006,0.,0.00113633,0.,-0.00000003,-0.00017532,-0.00000002,0.,-0
 .00056693,-0.00000004,0.00000004,-0.00221917,0.00000001,0.,-0.00005445
 ,-0.00000005,-0.00000001,-0.00008060,0.00000003,0.00000011,-0.00044811
 ,-0.00000011,-0.00000011,0.00035898,-0.00000161,-0.00000716,-0.0074224
 3,0.,0.00000002,0.00045149,0.,0.,0.00026447,0.00000004,0.,0.00059217,0
 .,0.,0.00001986,-0.00000003,-0.00000001,-0.00012042,0.00000005,0.00000
 006,0.00004035,0.00000202,0.00000703,0.00728484\\-0.00007755,-0.000047
 46,-0.00000047,0.00013166,0.00002712,-0.00000064,-0.00005182,0.0000384
 1,-0.00000025,-0.00000927,-0.00001841,0.00000034,-0.00005348,0.0000495
 2,-0.00000019,0.00007418,-0.00006064,0.00000017,-0.00003975,-0.0000467
 6,-0.00000060,-0.00013661,-0.00007674,0.00000521,0.00014998,0.00005762
 ,-0.00000206,0.00009652,0.00004151,-0.00000208,-0.00003665,-0.00002915
 ,-0.00000035,-0.00000678,-0.00001602,0.,0.00001117,0.00000195,-0.00000
 005,-0.00001819,0.00002079,0.,0.00006054,0.00004320,0.00000048,-0.0000
 5773,-0.00001829,-0.00000009,-0.00005724,-0.00002866,0.00000046,0.0000
 2101,0.00006201,0.00000013\\\@


 WHEN A MATHEMATICIAN ENGAGED IN INVESTIGATING
 PHYSICAL ACTIONS AND RESULTS HAS ARRIVED AT HIS
 CONCLUSIONS, MAY THEY NOT BE EXPRESSED IN COMMON
 LANGUAGE AS FULLY, CLEARLY, AND DEFINITELY AS IN
 MATHEMATICAL FORMULAE?
           - LETTER FROM M. FARADAY TO J.C. MAXWELL, 1857.
 Job cpu time:       0 days  0 hours 21 minutes 26.0 seconds.
 File lengths (MBytes):  RWF=    115 Int=      0 D2E=      0 Chk=      6 Scr=      1
 Normal termination of Gaussian 09 at Wed Jun 19 15:05:25 2024.
