 Entering Gaussian System, Link 0=g09
 Input=APFDFAyang.gjf
 Output=APFDFAyang.log
 Initial command:
 /home/phzd/g09E/g09/l1.exe "/home/phzd/g09E/scratch/Gau-576545.inp" -scrdir="/home/phzd/g09E/scratch/"
 Default is to use a total of  18 processors:
                               18 via shared-memory
                                1 via Linda
 Entering Link 1 = /home/phzd/g09E/g09/l1.exe PID=    576547.
  
 Copyright (c) 1988,1990,1992,1993,1995,1998,2003,2009,2015,
            Gaussian, Inc.  All Rights Reserved.
  
 This is part of the Gaussian(R) 09 program.  It is based on
 the Gaussian(R) 03 system (copyright 2003, Gaussian, Inc.),
 the Gaussian(R) 98 system (copyright 1998, Gaussian, Inc.),
 the Gaussian(R) 94 system (copyright 1995, Gaussian, Inc.),
 the Gaussian 92(TM) system (copyright 1992, Gaussian, Inc.),
 the Gaussian 90(TM) system (copyright 1990, Gaussian, Inc.),
 the Gaussian 88(TM) system (copyright 1988, Gaussian, Inc.),
 the Gaussian 86(TM) system (copyright 1986, Carnegie Mellon
 University), and the Gaussian 82(TM) system (copyright 1983,
 Carnegie Mellon University). Gaussian is a federally registered
 trademark of Gaussian, Inc.
  
 This software contains proprietary and confidential information,
 including trade secrets, belonging to Gaussian, Inc.
  
 This software is provided under written license and may be
 used, copied, transmitted, or stored only in accord with that
 written license.
  
 The following legend is applicable only to US Government
 contracts under FAR:
  
                    RESTRICTED RIGHTS LEGEND
  
 Use, reproduction and disclosure by the US Government is
 subject to restrictions as set forth in subparagraphs (a)
 and (c) of the Commercial Computer Software - Restricted
 Rights clause in FAR 52.227-19.
  
 Gaussian, Inc.
 340 Quinnipiac St., Bldg. 40, Wallingford CT 06492
  
  
 ---------------------------------------------------------------
 Warning -- This program may not be used in any manner that
 competes with the business of Gaussian, Inc. or will provide
 assistance to any competitor of Gaussian, Inc.  The licensee
 of this program is prohibited from giving any competitor of
 Gaussian, Inc. access to this program.  By using this program,
 the user acknowledges that Gaussian, Inc. is engaged in the
 business of creating and licensing software in the field of
 computational chemistry and represents and warrants to the
 licensee that it is not a competitor of Gaussian, Inc. and that
 it will not use this program in any manner prohibited above.
 ---------------------------------------------------------------
  

 Cite this work as:
 Gaussian 09, Revision E.01,
 M. J. Frisch, G. W. Trucks, H. B. Schlegel, G. E. Scuseria, 
 M. A. Robb, J. R. Cheeseman, G. Scalmani, V. Barone, B. Mennucci, 
 G. A. Petersson, H. Nakatsuji, M. Caricato, X. Li, H. P. Hratchian, 
 A. F. Izmaylov, J. Bloino, G. Zheng, J. L. Sonnenberg, M. Hada, 
 M. Ehara, K. Toyota, R. Fukuda, J. Hasegawa, M. Ishida, T. Nakajima, 
 Y. Honda, O. Kitao, H. Nakai, T. Vreven, J. A. Montgomery, Jr., 
 J. E. Peralta, F. Ogliaro, M. Bearpark, J. J. Heyd, E. Brothers, 
 K. N. Kudin, V. N. Staroverov, T. Keith, R. Kobayashi, J. Normand, 
 K. Raghavachari, A. Rendell, J. C. Burant, S. S. Iyengar, J. Tomasi, 
 M. Cossi, N. Rega, J. M. Millam, M. Klene, J. E. Knox, J. B. Cross, 
 V. Bakken, C. Adamo, J. Jaramillo, R. Gomperts, R. E. Stratmann, 
 O. Yazyev, A. J. Austin, R. Cammi, C. Pomelli, J. W. Ochterski, 
 R. L. Martin, K. Morokuma, V. G. Zakrzewski, G. A. Voth, 
 P. Salvador, J. J. Dannenberg, S. Dapprich, A. D. Daniels, 
 O. Farkas, J. B. Foresman, J. V. Ortiz, J. Cioslowski, 
 and D. J. Fox, Gaussian, Inc., Wallingford CT, 2013.
 
 ******************************************
 Gaussian 09:  ES64L-G09RevE.01 30-Nov-2015
                28-May-2024 
 ******************************************
 %chk=APFDFAyang.chk
 ---------------------------
 # opt freq apfd/6-31+g(d,p)
 ---------------------------
 1/14=-1,18=20,19=15,26=3,38=1/1,3;
 2/9=110,12=2,17=6,18=5,40=1/2;
 3/5=1,6=6,7=111,11=2,16=1,25=1,30=1,71=1,74=-44/1,2,3;
 4//1;
 5/5=2,38=5/2;
 6/7=2,8=2,9=2,10=2,28=1/1;
 7//1,2,3,16;
 1/14=-1,18=20,19=15,26=3/3(2);
 2/9=110/2;
 99//99;
 2/9=110/2;
 3/5=1,6=6,7=111,11=2,16=1,25=1,30=1,71=1,74=-44/1,2,3;
 4/5=5,16=3,69=1/1;
 5/5=2,38=5/2;
 7//1,2,3,16;
 1/14=-1,18=20,19=15,26=3/3(-5);
 2/9=110/2;
 6/7=2,8=2,9=2,10=2,19=2,28=1/1;
 99/9=1/99;
 ----------
 [No Title]
 ----------
 Symbolic Z-matrix:
 Charge =  1 Multiplicity = 1
 C                    -1.47     -2.03014   0.02367 
 C                    -2.51323  -1.08952   0.01183 
 C                    -2.23182   0.30784  -0.00512 
 C                    -0.92297   0.73727  -0.01182 
 C                     0.14691  -0.20925  -0.00255 
 C                    -0.16138  -1.59778   0.01818 
 O                    -3.77305  -1.51471   0.01798 
 C                     1.473     0.27977  -0.01087 
 C                     2.64514  -0.46845  -0.01751 
 C                     3.89469   0.13472   0.00009 
 O                     4.96722  -0.63418  -0.10651 
 O                     4.01808   1.45002   0.13179 
 O                    -3.34939   1.07443  -0.01323 
 C                    -3.20854   2.50158  -0.0298 
 H                    -1.72486  -3.08349   0.03897 
 H                    -0.69016   1.79541  -0.0251 
 H                     0.63377  -2.33344   0.03022 
 H                    -4.37754  -0.75037   0.00912 
 H                     1.58586   1.36181  -0.01166 
 H                     2.64973  -1.55036  -0.03728 
 H                     5.80557  -0.20339   0.12542 
 H                     4.88566   1.80074  -0.12496 
 H                    -4.22227   2.89775  -0.03239 
 H                    -2.67794   2.84267   0.86502 
 H                    -2.68149   2.82203  -0.93432 
 

 GradGradGradGradGradGradGradGradGradGradGradGradGradGradGradGradGradGrad
 Berny optimization.
 Initialization pass.
                           ----------------------------
                           !    Initial Parameters    !
                           ! (Angstroms and Degrees)  !
 --------------------------                            --------------------------
 ! Name  Definition              Value          Derivative Info.                !
 --------------------------------------------------------------------------------
 ! R1    R(1,2)                  1.4047         estimate D2E/DX2                !
 ! R2    R(1,6)                  1.3782         estimate D2E/DX2                !
 ! R3    R(1,15)                 1.0838         estimate D2E/DX2                !
 ! R4    R(2,3)                  1.4255         estimate D2E/DX2                !
 ! R5    R(2,7)                  1.3297         estimate D2E/DX2                !
 ! R6    R(3,4)                  1.3775         estimate D2E/DX2                !
 ! R7    R(3,13)                 1.3552         estimate D2E/DX2                !
 ! R8    R(4,5)                  1.4285         estimate D2E/DX2                !
 ! R9    R(4,16)                 1.0835         estimate D2E/DX2                !
 ! R10   R(5,6)                  1.4225         estimate D2E/DX2                !
 ! R11   R(5,8)                  1.4134         estimate D2E/DX2                !
 ! R12   R(6,17)                 1.0833         estimate D2E/DX2                !
 ! R13   R(7,18)                 0.9745         estimate D2E/DX2                !
 ! R14   R(8,9)                  1.3906         estimate D2E/DX2                !
 ! R15   R(8,19)                 1.0879         estimate D2E/DX2                !
 ! R16   R(9,10)                 1.3876         estimate D2E/DX2                !
 ! R17   R(9,20)                 1.0821         estimate D2E/DX2                !
 ! R18   R(10,11)                1.324          estimate D2E/DX2                !
 ! R19   R(10,12)                1.3276         estimate D2E/DX2                !
 ! R20   R(11,21)                0.9707         estimate D2E/DX2                !
 ! R21   R(12,22)                0.9704         estimate D2E/DX2                !
 ! R22   R(13,14)                1.4342         estimate D2E/DX2                !
 ! R23   R(14,23)                1.0884         estimate D2E/DX2                !
 ! R24   R(14,24)                1.0948         estimate D2E/DX2                !
 ! R25   R(14,25)                1.0948         estimate D2E/DX2                !
 ! A1    A(2,1,6)              119.674          estimate D2E/DX2                !
 ! A2    A(2,1,15)             118.4411         estimate D2E/DX2                !
 ! A3    A(6,1,15)             121.8848         estimate D2E/DX2                !
 ! A4    A(1,2,3)              120.6559         estimate D2E/DX2                !
 ! A5    A(1,2,7)              119.3074         estimate D2E/DX2                !
 ! A6    A(3,2,7)              120.0367         estimate D2E/DX2                !
 ! A7    A(2,3,4)              119.5521         estimate D2E/DX2                !
 ! A8    A(2,3,13)             113.0643         estimate D2E/DX2                !
 ! A9    A(4,3,13)             127.3836         estimate D2E/DX2                !
 ! A10   A(3,4,5)              120.3327         estimate D2E/DX2                !
 ! A11   A(3,4,16)             120.5738         estimate D2E/DX2                !
 ! A12   A(5,4,16)             119.0935         estimate D2E/DX2                !
 ! A13   A(4,5,6)              118.9832         estimate D2E/DX2                !
 ! A14   A(4,5,8)              118.2542         estimate D2E/DX2                !
 ! A15   A(6,5,8)              122.7623         estimate D2E/DX2                !
 ! A16   A(1,6,5)              120.8015         estimate D2E/DX2                !
 ! A17   A(1,6,17)             118.9375         estimate D2E/DX2                !
 ! A18   A(5,6,17)             120.261          estimate D2E/DX2                !
 ! A19   A(2,7,18)             109.6862         estimate D2E/DX2                !
 ! A20   A(5,8,9)              127.2063         estimate D2E/DX2                !
 ! A21   A(5,8,19)             116.1971         estimate D2E/DX2                !
 ! A22   A(9,8,19)             116.5966         estimate D2E/DX2                !
 ! A23   A(8,9,10)             121.6741         estimate D2E/DX2                !
 ! A24   A(8,9,20)             122.7943         estimate D2E/DX2                !
 ! A25   A(10,9,20)            115.5316         estimate D2E/DX2                !
 ! A26   A(9,10,11)            118.426          estimate D2E/DX2                !
 ! A27   A(9,10,12)            121.0369         estimate D2E/DX2                !
 ! A28   A(11,10,12)           120.5347         estimate D2E/DX2                !
 ! A29   A(10,11,21)           115.0035         estimate D2E/DX2                !
 ! A30   A(10,12,22)           114.5143         estimate D2E/DX2                !
 ! A31   A(3,13,14)            118.8136         estimate D2E/DX2                !
 ! A32   A(13,14,23)           105.7098         estimate D2E/DX2                !
 ! A33   A(13,14,24)           110.3762         estimate D2E/DX2                !
 ! A34   A(13,14,25)           110.3705         estimate D2E/DX2                !
 ! A35   A(23,14,24)           109.8735         estimate D2E/DX2                !
 ! A36   A(23,14,25)           109.8691         estimate D2E/DX2                !
 ! A37   A(24,14,25)           110.5342         estimate D2E/DX2                !
 ! D1    D(6,1,2,3)             -0.0323         estimate D2E/DX2                !
 ! D2    D(6,1,2,7)           -179.963          estimate D2E/DX2                !
 ! D3    D(15,1,2,3)           179.8476         estimate D2E/DX2                !
 ! D4    D(15,1,2,7)            -0.0831         estimate D2E/DX2                !
 ! D5    D(2,1,6,5)             -0.1498         estimate D2E/DX2                !
 ! D6    D(2,1,6,17)           179.8323         estimate D2E/DX2                !
 ! D7    D(15,1,6,5)           179.9745         estimate D2E/DX2                !
 ! D8    D(15,1,6,17)           -0.0434         estimate D2E/DX2                !
 ! D9    D(1,2,3,4)              0.0918         estimate D2E/DX2                !
 ! D10   D(1,2,3,13)          -179.9251         estimate D2E/DX2                !
 ! D11   D(7,2,3,4)           -179.978          estimate D2E/DX2                !
 ! D12   D(7,2,3,13)             0.0051         estimate D2E/DX2                !
 ! D13   D(1,2,7,18)           179.9459         estimate D2E/DX2                !
 ! D14   D(3,2,7,18)             0.0147         estimate D2E/DX2                !
 ! D15   D(2,3,4,5)              0.0311         estimate D2E/DX2                !
 ! D16   D(2,3,4,16)           179.9744         estimate D2E/DX2                !
 ! D17   D(13,3,4,5)          -179.9494         estimate D2E/DX2                !
 ! D18   D(13,3,4,16)           -0.0061         estimate D2E/DX2                !
 ! D19   D(2,3,13,14)          179.9724         estimate D2E/DX2                !
 ! D20   D(4,3,13,14)           -0.046          estimate D2E/DX2                !
 ! D21   D(3,4,5,6)             -0.2078         estimate D2E/DX2                !
 ! D22   D(3,4,5,8)            179.9575         estimate D2E/DX2                !
 ! D23   D(16,4,5,6)           179.8481         estimate D2E/DX2                !
 ! D24   D(16,4,5,8)             0.0134         estimate D2E/DX2                !
 ! D25   D(4,5,6,1)              0.2691         estimate D2E/DX2                !
 ! D26   D(4,5,6,17)          -179.7127         estimate D2E/DX2                !
 ! D27   D(8,5,6,1)           -179.9041         estimate D2E/DX2                !
 ! D28   D(8,5,6,17)             0.1141         estimate D2E/DX2                !
 ! D29   D(4,5,8,9)           -179.3093         estimate D2E/DX2                !
 ! D30   D(4,5,8,19)             0.7238         estimate D2E/DX2                !
 ! D31   D(6,5,8,9)              0.8627         estimate D2E/DX2                !
 ! D32   D(6,5,8,19)          -179.1042         estimate D2E/DX2                !
 ! D33   D(5,8,9,10)          -178.761          estimate D2E/DX2                !
 ! D34   D(5,8,9,20)             1.2854         estimate D2E/DX2                !
 ! D35   D(19,8,9,10)            1.2059         estimate D2E/DX2                !
 ! D36   D(19,8,9,20)         -178.7478         estimate D2E/DX2                !
 ! D37   D(8,9,10,11)         -175.121          estimate D2E/DX2                !
 ! D38   D(8,9,10,12)            5.4388         estimate D2E/DX2                !
 ! D39   D(20,9,10,11)           4.8358         estimate D2E/DX2                !
 ! D40   D(20,9,10,12)        -174.6044         estimate D2E/DX2                !
 ! D41   D(9,10,11,21)        -165.7477         estimate D2E/DX2                !
 ! D42   D(12,10,11,21)         13.6955         estimate D2E/DX2                !
 ! D43   D(9,10,12,22)        -162.8481         estimate D2E/DX2                !
 ! D44   D(11,10,12,22)         17.7235         estimate D2E/DX2                !
 ! D45   D(3,13,14,23)        -179.9282         estimate D2E/DX2                !
 ! D46   D(3,13,14,24)         -61.1657         estimate D2E/DX2                !
 ! D47   D(3,13,14,25)          61.3177         estimate D2E/DX2                !
 --------------------------------------------------------------------------------
 Trust Radius=3.00D-01 FncErr=1.00D-07 GrdErr=1.00D-06
 Number of steps in this run=    119 maximum allowed number of steps=    150.
 GradGradGradGradGradGradGradGradGradGradGradGradGradGradGradGradGradGrad

                          Input orientation:                          
 ---------------------------------------------------------------------
 Center     Atomic      Atomic             Coordinates (Angstroms)
 Number     Number       Type             X           Y           Z
 ---------------------------------------------------------------------
      1          6           0       -1.469995   -2.030139    0.023674
      2          6           0       -2.513225   -1.089521    0.011833
      3          6           0       -2.231818    0.307835   -0.005118
      4          6           0       -0.922965    0.737272   -0.011820
      5          6           0        0.146913   -0.209254   -0.002547
      6          6           0       -0.161381   -1.597781    0.018180
      7          8           0       -3.773054   -1.514712    0.017983
      8          6           0        1.472998    0.279774   -0.010873
      9          6           0        2.645135   -0.468448   -0.017510
     10          6           0        3.894687    0.134717    0.000094
     11          8           0        4.967218   -0.634181   -0.106509
     12          8           0        4.018076    1.450018    0.131794
     13          8           0       -3.349387    1.074433   -0.013231
     14          6           0       -3.208537    2.501577   -0.029802
     15          1           0       -1.724857   -3.083486    0.038972
     16          1           0       -0.690164    1.795406   -0.025097
     17          1           0        0.633773   -2.333436    0.030217
     18          1           0       -4.377544   -0.750374    0.009116
     19          1           0        1.585857    1.361810   -0.011655
     20          1           0        2.649727   -1.550362   -0.037282
     21          1           0        5.805565   -0.203389    0.125423
     22          1           0        4.885657    1.800738   -0.124958
     23          1           0       -4.222270    2.897747   -0.032393
     24          1           0       -2.677939    2.842670    0.865024
     25          1           0       -2.681489    2.822028   -0.934317
 ---------------------------------------------------------------------
                    Distance matrix (angstroms):
                    1          2          3          4          5
     1  C    0.000000
     2  C    1.404718   0.000000
     3  C    2.459131   1.425511   0.000000
     4  C    2.821182   2.422119   1.377519   0.000000
     5  C    2.435303   2.802037   2.434286   1.428508   0.000000
     6  C    1.378200   2.406146   2.814005   2.456295   1.422491
     7  O    2.360038   1.329659   2.386969   3.632537   4.131680
     8  C    3.741403   4.214909   3.704927   2.439251   1.413407
     9  C    4.401689   5.195697   4.938364   3.766315   2.511676
    10  C    5.785064   6.523820   6.128953   4.855202   3.763527
    11  O    6.588122   7.495223   7.261115   6.048480   4.840115
    12  O    6.499393   7.008676   6.354880   4.994248   4.213921
    13  O    3.629303   2.320020   1.355249   2.449735   3.724524
    14  C    4.854054   3.658029   2.401477   2.887375   4.313745
    15  H    1.083849   2.144331   3.429287   3.904331   3.430227
    16  H    3.904524   3.412875   2.142420   1.083522   2.172526
    17  H    2.125529   3.383971   3.897329   3.443029   2.179508
    18  H    3.176767   1.894918   2.392519   3.761336   4.556716
    19  H    4.565610   4.776196   3.960499   2.585389   2.130466
    20  H    4.148013   5.183711   5.223353   4.242410   2.839693
    21  H    7.502076   8.366624   8.054683   6.795351   5.660102
    22  H    7.422400   7.944543   7.273347   5.906255   5.148859
    23  H    5.644663   4.338329   3.266541   3.943791   5.361353
    24  H    5.090311   4.027057   2.716903   2.877758   4.248142
    25  H    5.092052   4.027869   2.717863   2.879169   4.249320
                    6          7          8          9         10
     6  C    0.000000
     7  O    3.612628   0.000000
     8  C    2.489428   5.544554   0.000000
     9  C    3.025425   6.503005   1.390606   0.000000
    10  C    4.410619   7.843162   2.426054   1.387623   0.000000
    11  O    5.219828   8.785396   3.613037   2.329690   1.323968
    12  O    5.173959   8.336923   2.804861   2.363847   1.327624
    13  O    4.159939   2.623764   4.887421   6.189895   7.304783
    14  C    5.108052   4.056050   5.182040   6.564044   7.487237
    15  H    2.156898   2.580039   4.641151   5.092980   6.475926
    16  H    3.434414   4.523599   2.641328   4.031044   4.876411
    17  H    1.083330   4.482252   2.744969   2.743362   4.089773
    18  H    4.300490   0.974525   5.940576   7.028386   8.319451
    19  H    3.436991   6.082202   1.087906   2.114698   2.614688
    20  H    2.812055   6.423118   2.175956   1.082104   2.095427
    21  H    6.128644   9.668560   4.361555   3.174745   1.944602
    22  H    6.086297   9.272859   3.737993   3.190719   1.942495
    23  H    6.058312   4.435553   6.268199   7.648055   8.574403
    24  H    5.173762   4.572038   4.956401   6.330678   7.161042
    25  H    5.176186   4.572276   4.957375   6.327771   7.165253
                   11         12         13         14         15
    11  O    0.000000
    12  O    2.302508   0.000000
    13  O    8.490817   7.378456   0.000000
    14  C    8.756816   7.304507   1.434173   0.000000
    15  H    7.127701   7.317278   4.464316   5.779184   0.000000
    16  H    6.157556   4.723498   2.755251   2.615512   4.987813
    17  H    4.656706   5.077238   5.242234   6.176107   2.475033
    18  H    9.346200   8.680047   2.094642   3.455905   3.532853
    19  H    3.927668   2.438042   4.943604   4.928043   5.542928
    20  H    2.492979   3.302006   6.548244   7.123028   4.636083
    21  H    0.970670   2.434936   9.244739   9.412490   8.062859
    22  H    2.436354   0.970373   8.267766   8.125036   8.220791
    23  H    9.845136   8.368165   2.021575   1.088399   6.482076
    24  H    8.454632   6.878497   2.085386   1.094802   6.058882
    25  H    8.434060   6.921212   2.085324   1.094813   6.061149
                   16         17         18         19         20
    16  H    0.000000
    17  H    4.336266   0.000000
    18  H    4.480953   5.255457   0.000000
    19  H    2.316993   3.816158   6.326445   0.000000
    20  H    4.727492   2.163754   7.072812   3.100520   0.000000
    21  H    6.797965   5.594068  10.198452   4.502730   3.435131
    22  H    5.576718   5.932452   9.609008   3.330792   4.029509
    23  H    3.700133   7.137951   3.651660   6.007818   8.185966
    24  H    2.416677   6.201323   4.065858   4.597985   6.963972
    25  H    2.417852   6.204845   4.065553   4.603671   6.953009
                   21         22         23         24         25
    21  H    0.000000
    22  H    2.219335   0.000000
    23  H   10.497591   9.174221   0.000000
    24  H    9.044077   7.698940   1.786994   0.000000
    25  H    9.072281   7.678528   1.786954   1.799463   0.000000
 Stoichiometry    C10H11O4(1+)
 Framework group  C1[X(C10H11O4)]
 Deg. of freedom    69
 Full point group                 C1      NOp   1
 Largest Abelian subgroup         C1      NOp   1
 Largest concise Abelian subgroup C1      NOp   1
                         Standard orientation:                         
 ---------------------------------------------------------------------
 Center     Atomic      Atomic             Coordinates (Angstroms)
 Number     Number       Type             X           Y           Z
 ---------------------------------------------------------------------
      1          6           0        1.469995   -2.030139   -0.023674
      2          6           0        2.513225   -1.089521   -0.011833
      3          6           0        2.231818    0.307835    0.005118
      4          6           0        0.922965    0.737272    0.011820
      5          6           0       -0.146913   -0.209254    0.002547
      6          6           0        0.161381   -1.597781   -0.018180
      7          8           0        3.773054   -1.514712   -0.017983
      8          6           0       -1.472998    0.279774    0.010873
      9          6           0       -2.645135   -0.468448    0.017510
     10          6           0       -3.894687    0.134717   -0.000094
     11          8           0       -4.967218   -0.634181    0.106509
     12          8           0       -4.018076    1.450018   -0.131794
     13          8           0        3.349387    1.074433    0.013231
     14          6           0        3.208537    2.501577    0.029802
     15          1           0        1.724857   -3.083486   -0.038972
     16          1           0        0.690164    1.795406    0.025097
     17          1           0       -0.633773   -2.333436   -0.030217
     18          1           0        4.377544   -0.750374   -0.009116
     19          1           0       -1.585857    1.361810    0.011655
     20          1           0       -2.649727   -1.550362    0.037282
     21          1           0       -5.805565   -0.203389   -0.125423
     22          1           0       -4.885657    1.800738    0.124958
     23          1           0        4.222270    2.897747    0.032393
     24          1           0        2.677939    2.842670   -0.865024
     25          1           0        2.681489    2.822028    0.934317
 ---------------------------------------------------------------------
 Rotational constants (GHZ):      1.5333472      0.2849645      0.2408013
 Standard basis: 6-31+G(d,p) (6D, 7F)
 There are   321 symmetry adapted cartesian basis functions of A   symmetry.
 There are   321 symmetry adapted basis functions of A   symmetry.
   321 basis functions,   525 primitive gaussians,   321 cartesian basis functions
    51 alpha electrons       51 beta electrons
       nuclear repulsion energy       838.5196916743 Hartrees.
 NAtoms=   25 NActive=   25 NUniq=   25 SFac= 1.00D+00 NAtFMM=   60 NAOKFM=F Big=F
 Integral buffers will be    131072 words long.
 Raffenetti 2 integral format.
 Two-electron integral symmetry is turned on.
 R6APFD:  NTU= -4 IXU= 1 FactS= 1.050
 Nuclear repulsion after empirical dispersion term =      838.5035982211 Hartrees.
 One-electron integrals computed using PRISM.
 NBasis=   321 RedAO= T EigKep=  1.40D-06  NBF=   321
 NBsUse=   320 1.00D-06 EigRej=  6.62D-07 NBFU=   320
 ExpMin= 4.38D-02 ExpMax= 5.48D+03 ExpMxC= 8.25D+02 IAcc=2 IRadAn=         4 AccDes= 0.00D+00
 Harris functional with IExCor= 3731 and IRadAn=       4 diagonalized for initial guess.
 HarFok:  IExCor= 3731 AccDes= 0.00D+00 IRadAn=         4 IDoV= 1 UseB2=F ITyADJ=14
 ICtDFT=  3500011 ScaDFX=  1.000000  1.000000  1.000000  1.000000
 FoFCou: FMM=F IPFlag=           0 FMFlag=      100000 FMFlg1=           0
         NFxFlg=           0 DoJE=T BraDBF=F KetDBF=T FulRan=T
         wScrn=  0.000000 ICntrl=     500 IOpCl=  0 I1Cent=   200000004 NGrid=           0
         NMat0=    1 NMatS0=      1 NMatT0=    0 NMatD0=    1 NMtDS0=    0 NMtDT0=    0
 Petite list used in FoFCou.
 Requested convergence on RMS density matrix=1.00D-08 within 128 cycles.
 Requested convergence on MAX density matrix=1.00D-06.
 Requested convergence on             energy=1.00D-06.
 No special actions if energy rises.
 SCF Done:  E(RAPFD) =  -687.816833310     A.U. after   15 cycles
            NFock= 15  Conv=0.97D-08     -V/T= 2.0089

 **********************************************************************

            Population analysis using the SCF density.

 **********************************************************************

 Orbital symmetries:
       Occupied  (A) (A) (A) (A) (A) (A) (A) (A) (A) (A) (A) (A)
                 (A) (A) (A) (A) (A) (A) (A) (A) (A) (A) (A) (A)
                 (A) (A) (A) (A) (A) (A) (A) (A) (A) (A) (A) (A)
                 (A) (A) (A) (A) (A) (A) (A) (A) (A) (A) (A) (A)
                 (A) (A) (A)
       Virtual   (A) (A) (A) (A) (A) (A) (A) (A) (A) (A) (A) (A)
                 (A) (A) (A) (A) (A) (A) (A) (A) (A) (A) (A) (A)
                 (A) (A) (A) (A) (A) (A) (A) (A) (A) (A) (A) (A)
                 (A) (A) (A) (A) (A) (A) (A) (A) (A) (A) (A) (A)
                 (A) (A) (A) (A) (A) (A) (A) (A) (A) (A) (A) (A)
                 (A) (A) (A) (A) (A) (A) (A) (A) (A) (A) (A) (A)
                 (A) (A) (A) (A) (A) (A) (A) (A) (A) (A) (A) (A)
                 (A) (A) (A) (A) (A) (A) (A) (A) (A) (A) (A) (A)
                 (A) (A) (A) (A) (A) (A) (A) (A) (A) (A) (A) (A)
                 (A) (A) (A) (A) (A) (A) (A) (A) (A) (A) (A) (A)
                 (A) (A) (A) (A) (A) (A) (A) (A) (A) (A) (A) (A)
                 (A) (A) (A) (A) (A) (A) (A) (A) (A) (A) (A) (A)
                 (A) (A) (A) (A) (A) (A) (A) (A) (A) (A) (A) (A)
                 (A) (A) (A) (A) (A) (A) (A) (A) (A) (A) (A) (A)
                 (A) (A) (A) (A) (A) (A) (A) (A) (A) (A) (A) (A)
                 (A) (A) (A) (A) (A) (A) (A) (A) (A) (A) (A) (A)
                 (A) (A) (A) (A) (A) (A) (A) (A) (A) (A) (A) (A)
                 (A) (A) (A) (A) (A) (A) (A) (A) (A) (A) (A) (A)
                 (A) (A) (A) (A) (A) (A) (A) (A) (A) (A) (A) (A)
                 (A) (A) (A) (A) (A) (A) (A) (A) (A) (A) (A) (A)
                 (A) (A) (A) (A) (A) (A) (A) (A) (A) (A) (A) (A)
                 (A) (A) (A) (A) (A) (A) (A) (A) (A) (A) (A) (A)
                 (A) (A) (A) (A) (A)
 The electronic state is 1-A.
 Alpha  occ. eigenvalues --  -19.43299 -19.43139 -19.37454 -19.37079 -10.54008
 Alpha  occ. eigenvalues --  -10.43698 -10.42069 -10.40841 -10.38445 -10.37872
 Alpha  occ. eigenvalues --  -10.37817 -10.37158 -10.37034 -10.35802  -1.33287
 Alpha  occ. eigenvalues --   -1.25596  -1.24892  -1.21790  -1.02981  -0.98992
 Alpha  occ. eigenvalues --   -0.93131  -0.91819  -0.86832  -0.84559  -0.81054
 Alpha  occ. eigenvalues --   -0.79517  -0.76454  -0.73434  -0.71417  -0.68501
 Alpha  occ. eigenvalues --   -0.66408  -0.65203  -0.64841  -0.63392  -0.61363
 Alpha  occ. eigenvalues --   -0.60155  -0.59244  -0.57729  -0.56622  -0.56592
 Alpha  occ. eigenvalues --   -0.56095  -0.54202  -0.53990  -0.53080  -0.51767
 Alpha  occ. eigenvalues --   -0.49382  -0.48580  -0.48411  -0.44542  -0.39589
 Alpha  occ. eigenvalues --   -0.36142
 Alpha virt. eigenvalues --   -0.24717  -0.15033  -0.13942  -0.13847  -0.09662
 Alpha virt. eigenvalues --   -0.09051  -0.08519  -0.08421  -0.07399  -0.06517
 Alpha virt. eigenvalues --   -0.05540  -0.05186  -0.04469  -0.03977  -0.03812
 Alpha virt. eigenvalues --   -0.02465  -0.01956  -0.01511  -0.01196  -0.00386
 Alpha virt. eigenvalues --    0.00805   0.01179   0.02107   0.02339   0.03065
 Alpha virt. eigenvalues --    0.03411   0.03731   0.03803   0.04326   0.04532
 Alpha virt. eigenvalues --    0.04974   0.05132   0.05356   0.05767   0.06092
 Alpha virt. eigenvalues --    0.07703   0.08223   0.08478   0.08639   0.09394
 Alpha virt. eigenvalues --    0.09597   0.10161   0.10631   0.10746   0.11713
 Alpha virt. eigenvalues --    0.11875   0.12362   0.12946   0.13578   0.14033
 Alpha virt. eigenvalues --    0.14539   0.14924   0.15527   0.15975   0.16899
 Alpha virt. eigenvalues --    0.16988   0.17350   0.18190   0.18347   0.19089
 Alpha virt. eigenvalues --    0.19572   0.20067   0.20591   0.21292   0.21723
 Alpha virt. eigenvalues --    0.23147   0.23542   0.24055   0.24418   0.24679
 Alpha virt. eigenvalues --    0.25753   0.26172   0.27441   0.28262   0.28608
 Alpha virt. eigenvalues --    0.30020   0.31003   0.31560   0.33999   0.35624
 Alpha virt. eigenvalues --    0.36668   0.38064   0.39470   0.46134   0.49518
 Alpha virt. eigenvalues --    0.53058   0.53773   0.54710   0.55173   0.57529
 Alpha virt. eigenvalues --    0.58244   0.58338   0.59447   0.60500   0.61002
 Alpha virt. eigenvalues --    0.61752   0.62211   0.63681   0.64840   0.65833
 Alpha virt. eigenvalues --    0.65925   0.67832   0.72321   0.72978   0.74604
 Alpha virt. eigenvalues --    0.76821   0.79200   0.79740   0.80205   0.80664
 Alpha virt. eigenvalues --    0.82781   0.84447   0.85394   0.87006   0.90897
 Alpha virt. eigenvalues --    0.91124   0.94034   0.94314   0.95458   0.96929
 Alpha virt. eigenvalues --    0.98004   0.99687   1.00076   1.01805   1.03662
 Alpha virt. eigenvalues --    1.04400   1.05121   1.05590   1.06819   1.07747
 Alpha virt. eigenvalues --    1.08135   1.09675   1.10462   1.11492   1.12034
 Alpha virt. eigenvalues --    1.12550   1.13657   1.15522   1.15736   1.16986
 Alpha virt. eigenvalues --    1.17817   1.18458   1.19483   1.21491   1.22821
 Alpha virt. eigenvalues --    1.23127   1.23843   1.26448   1.27158   1.28613
 Alpha virt. eigenvalues --    1.29186   1.30698   1.33632   1.34493   1.38648
 Alpha virt. eigenvalues --    1.41830   1.43109   1.44042   1.46006   1.46964
 Alpha virt. eigenvalues --    1.49657   1.52654   1.56330   1.61461   1.63670
 Alpha virt. eigenvalues --    1.65279   1.67494   1.67962   1.70386   1.71910
 Alpha virt. eigenvalues --    1.73023   1.74494   1.76409   1.77067   1.77241
 Alpha virt. eigenvalues --    1.78523   1.79905   1.80469   1.83426   1.83717
 Alpha virt. eigenvalues --    1.85001   1.88919   1.90652   1.91117   1.92772
 Alpha virt. eigenvalues --    1.92860   1.95199   1.95615   2.01064   2.01883
 Alpha virt. eigenvalues --    2.04096   2.05025   2.08149   2.09431   2.10811
 Alpha virt. eigenvalues --    2.14542   2.14762   2.16411   2.19207   2.23188
 Alpha virt. eigenvalues --    2.24816   2.25280   2.26230   2.29456   2.32697
 Alpha virt. eigenvalues --    2.33961   2.35465   2.36282   2.37072   2.39043
 Alpha virt. eigenvalues --    2.40877   2.41571   2.42762   2.44158   2.44965
 Alpha virt. eigenvalues --    2.45652   2.48364   2.49770   2.51337   2.52606
 Alpha virt. eigenvalues --    2.53914   2.55730   2.57655   2.58260   2.60107
 Alpha virt. eigenvalues --    2.61764   2.61961   2.64698   2.70160   2.71166
 Alpha virt. eigenvalues --    2.73919   2.74023   2.75445   2.77276   2.83163
 Alpha virt. eigenvalues --    2.85851   2.89549   2.95343   2.97723   3.02311
 Alpha virt. eigenvalues --    3.05554   3.08454   3.10750   3.15592   3.21656
 Alpha virt. eigenvalues --    3.23749   3.29001   3.31091   3.32309   3.36090
 Alpha virt. eigenvalues --    3.38557   3.42940   3.43228   3.49422   3.69018
 Alpha virt. eigenvalues --    4.07208   4.13341   4.16378   4.22016   4.24040
 Alpha virt. eigenvalues --    4.28083   4.32487   4.35635   4.40179   4.41651
 Alpha virt. eigenvalues --    4.47771   4.55333   4.68698   4.97712
          Condensed to atoms (all electrons):
               1          2          3          4          5          6
     1  C   11.919847  -0.018715  -1.400710  -1.505592  -0.272733  -2.434770
     2  C   -0.018715  16.216910  -3.472924  -4.280948  -0.776592  -0.021534
     3  C   -1.400710  -3.472924  13.147183   0.400225  -0.958245  -1.722527
     4  C   -1.505592  -4.280948   0.400225  15.441719   1.116892  -1.313589
     5  C   -0.272733  -0.776592  -0.958245   1.116892   8.651375  -0.279862
     6  C   -2.434770  -0.021534  -1.722527  -1.313589  -0.279862  10.601294
     7  O   -0.412210   0.098817   0.290145   0.109580  -0.042708  -0.047952
     8  C   -0.000834  -0.680609  -0.025318  -2.731831  -0.645653   0.614017
     9  C   -0.276933  -0.154490  -0.449309  -1.383259  -0.120815   0.637716
    10  C   -0.156670   0.026931   0.049220  -0.490740  -1.221512   0.106656
    11  O    0.000482   0.000656   0.000337   0.006597   0.022358  -0.004703
    12  O   -0.004728  -0.001017   0.001570  -0.016451  -0.009190   0.003361
    13  O    0.058919  -0.837626   0.554666   0.224937  -0.009896  -0.043667
    14  C    0.044476  -0.034775  -0.078183   0.020652  -0.051594  -0.004400
    15  H    0.132460   0.125184  -0.003526   0.015537  -0.016821   0.087232
    16  H   -0.003873   0.000464  -0.101754   0.227776   0.038370  -0.004192
    17  H   -0.017483  -0.014713  -0.006015   0.021422   0.119801   0.175379
    18  H    0.161302   0.172110  -0.291595  -0.064134   0.002867   0.007374
    19  H    0.009371   0.004819   0.035844   0.259775   0.041197  -0.071364
    20  H    0.037098  -0.005597   0.008939   0.009738   0.066860  -0.012713
    21  H    0.000273   0.000039  -0.000037   0.001072  -0.000920   0.002051
    22  H   -0.000488  -0.000014   0.000400   0.005440   0.011914  -0.004540
    23  H    0.001660   0.045222   0.036430  -0.058127  -0.003289  -0.000310
    24  H   -0.002340  -0.028650  -0.059038   0.071249   0.008480   0.002335
    25  H   -0.001225  -0.033927  -0.060703   0.072810   0.017359   0.000846
               7          8          9         10         11         12
     1  C   -0.412210  -0.000834  -0.276933  -0.156670   0.000482  -0.004728
     2  C    0.098817  -0.680609  -0.154490   0.026931   0.000656  -0.001017
     3  C    0.290145  -0.025318  -0.449309   0.049220   0.000337   0.001570
     4  C    0.109580  -2.731831  -1.383259  -0.490740   0.006597  -0.016451
     5  C   -0.042708  -0.645653  -0.120815  -1.221512   0.022358  -0.009190
     6  C   -0.047952   0.614017   0.637716   0.106656  -0.004703   0.003361
     7  O    8.242570   0.004405   0.000258   0.000246   0.000000  -0.000000
     8  C    0.004405   9.614010  -1.415336   0.758785  -0.139898   0.133181
     9  C    0.000258  -1.415336  11.747461  -2.235294   0.334299  -0.152066
    10  C    0.000246   0.758785  -2.235294   8.295860  -0.075563   0.185028
    11  O    0.000000  -0.139898   0.334299  -0.075563   8.141371  -0.093595
    12  O   -0.000000   0.133181  -0.152066   0.185028  -0.093595   8.190076
    13  O   -0.007188  -0.025350  -0.003356   0.000038   0.000001  -0.000006
    14  C    0.002745  -0.032154  -0.003598  -0.002432  -0.000001  -0.000008
    15  H   -0.006823  -0.006526   0.001025  -0.000005   0.000000  -0.000000
    16  H   -0.000368   0.137010   0.027559   0.000396  -0.000000  -0.000083
    17  H   -0.000562   0.015508  -0.004589   0.023491   0.000142   0.000015
    18  H    0.202799   0.000149   0.000101   0.000015   0.000000   0.000000
    19  H   -0.000006   0.246138  -0.160400  -0.065574   0.000731  -0.005332
    20  H   -0.000002   0.050251   0.301180  -0.131582  -0.010622   0.007077
    21  H   -0.000000   0.057493  -0.089037   0.045425   0.217193  -0.002061
    22  H   -0.000000  -0.003563   0.049471  -0.038026  -0.002781   0.211188
    23  H   -0.000140   0.000278   0.000097   0.000005   0.000000  -0.000000
    24  H   -0.000104   0.000133  -0.000262   0.000003  -0.000000   0.000001
    25  H   -0.000086  -0.001623  -0.000258  -0.000087   0.000000  -0.000000
              13         14         15         16         17         18
     1  C    0.058919   0.044476   0.132460  -0.003873  -0.017483   0.161302
     2  C   -0.837626  -0.034775   0.125184   0.000464  -0.014713   0.172110
     3  C    0.554666  -0.078183  -0.003526  -0.101754  -0.006015  -0.291595
     4  C    0.224937   0.020652   0.015537   0.227776   0.021422  -0.064134
     5  C   -0.009896  -0.051594  -0.016821   0.038370   0.119801   0.002867
     6  C   -0.043667  -0.004400   0.087232  -0.004192   0.175379   0.007374
     7  O   -0.007188   0.002745  -0.006823  -0.000368  -0.000562   0.202799
     8  C   -0.025350  -0.032154  -0.006526   0.137010   0.015508   0.000149
     9  C   -0.003356  -0.003598   0.001025   0.027559  -0.004589   0.000101
    10  C    0.000038  -0.002432  -0.000005   0.000396   0.023491   0.000015
    11  O    0.000001  -0.000001   0.000000  -0.000000   0.000142   0.000000
    12  O   -0.000006  -0.000008  -0.000000  -0.000083   0.000015   0.000000
    13  O    8.546329   0.061744  -0.000522  -0.012466   0.000149   0.042159
    14  C    0.061744   5.020940   0.000019  -0.000075  -0.000043   0.004328
    15  H   -0.000522   0.000019   0.469529   0.000011  -0.003771  -0.000041
    16  H   -0.012466  -0.000075   0.000011   0.513770  -0.000108  -0.000018
    17  H    0.000149  -0.000043  -0.003771  -0.000108   0.517283   0.000004
    18  H    0.042159   0.004328  -0.000041  -0.000018   0.000004   0.347075
    19  H    0.000057   0.001068   0.000001   0.003102  -0.000009   0.000000
    20  H    0.000001   0.000022   0.000004  -0.000000   0.001148   0.000000
    21  H    0.000000   0.000000   0.000000   0.000000  -0.000000  -0.000000
    22  H   -0.000000   0.000005  -0.000000  -0.000000   0.000000   0.000000
    23  H   -0.064173   0.412472  -0.000000   0.000071  -0.000000  -0.000071
    24  H   -0.040050   0.406852   0.000000  -0.000661   0.000000   0.000034
    25  H   -0.040328   0.405539   0.000000  -0.000635   0.000000   0.000033
              19         20         21         22         23         24
     1  C    0.009371   0.037098   0.000273  -0.000488   0.001660  -0.002340
     2  C    0.004819  -0.005597   0.000039  -0.000014   0.045222  -0.028650
     3  C    0.035844   0.008939  -0.000037   0.000400   0.036430  -0.059038
     4  C    0.259775   0.009738   0.001072   0.005440  -0.058127   0.071249
     5  C    0.041197   0.066860  -0.000920   0.011914  -0.003289   0.008480
     6  C   -0.071364  -0.012713   0.002051  -0.004540  -0.000310   0.002335
     7  O   -0.000006  -0.000002  -0.000000  -0.000000  -0.000140  -0.000104
     8  C    0.246138   0.050251   0.057493  -0.003563   0.000278   0.000133
     9  C   -0.160400   0.301180  -0.089037   0.049471   0.000097  -0.000262
    10  C   -0.065574  -0.131582   0.045425  -0.038026   0.000005   0.000003
    11  O    0.000731  -0.010622   0.217193  -0.002781   0.000000  -0.000000
    12  O   -0.005332   0.007077  -0.002061   0.211188  -0.000000   0.000001
    13  O    0.000057   0.000001   0.000000  -0.000000  -0.064173  -0.040050
    14  C    0.001068   0.000022   0.000000   0.000005   0.412472   0.406852
    15  H    0.000001   0.000004   0.000000  -0.000000  -0.000000   0.000000
    16  H    0.003102  -0.000000   0.000000  -0.000000   0.000071  -0.000661
    17  H   -0.000009   0.001148  -0.000000   0.000000  -0.000000   0.000000
    18  H    0.000000   0.000000  -0.000000   0.000000  -0.000071   0.000034
    19  H    0.505425   0.003071   0.000009  -0.000052   0.000000  -0.000001
    20  H    0.003071   0.482033   0.000034  -0.000166  -0.000000   0.000000
    21  H    0.000009   0.000034   0.372003   0.002578   0.000000  -0.000000
    22  H   -0.000052  -0.000166   0.002578   0.372439  -0.000000   0.000000
    23  H    0.000000  -0.000000   0.000000  -0.000000   0.476666  -0.023014
    24  H   -0.000001   0.000000  -0.000000   0.000000  -0.023014   0.524364
    25  H   -0.000001   0.000000   0.000000  -0.000000  -0.023006  -0.038436
              25
     1  C   -0.001225
     2  C   -0.033927
     3  C   -0.060703
     4  C    0.072810
     5  C    0.017359
     6  C    0.000846
     7  O   -0.000086
     8  C   -0.001623
     9  C   -0.000258
    10  C   -0.000087
    11  O    0.000000
    12  O   -0.000000
    13  O   -0.040328
    14  C    0.405539
    15  H    0.000000
    16  H   -0.000635
    17  H    0.000000
    18  H    0.000033
    19  H   -0.000001
    20  H    0.000000
    21  H    0.000000
    22  H   -0.000000
    23  H   -0.023006
    24  H   -0.038436
    25  H    0.524693
 Mulliken charges:
               1
     1  C    0.143415
     2  C   -0.329020
     3  C    0.104928
     4  C   -0.160751
     5  C    0.312356
     6  C   -0.272141
     7  O   -0.433418
     8  C    0.077337
     9  C   -0.650165
    10  C    0.925387
    11  O   -0.397004
    12  O   -0.446958
    13  O   -0.404371
    14  C   -0.173598
    15  H    0.207033
    16  H    0.175706
    17  H    0.172952
    18  H    0.415509
    19  H    0.192130
    20  H    0.193229
    21  H    0.393884
    22  H    0.396193
    23  H    0.199228
    24  H    0.179105
    25  H    0.179033
 Sum of Mulliken charges =   1.00000
 Mulliken charges with hydrogens summed into heavy atoms:
               1
     1  C    0.350448
     2  C   -0.329020
     3  C    0.104928
     4  C    0.014955
     5  C    0.312356
     6  C   -0.099189
     7  O   -0.017909
     8  C    0.269467
     9  C   -0.456936
    10  C    0.925387
    11  O   -0.003120
    12  O   -0.050765
    13  O   -0.404371
    14  C    0.383769
 Electronic spatial extent (au):  <R**2>=           4161.5813
 Charge=              1.0000 electrons
 Dipole moment (field-independent basis, Debye):
    X=             -7.6439    Y=              3.4718    Z=              0.0667  Tot=              8.3957
 Quadrupole moment (field-independent basis, Debye-Ang):
   XX=              9.3693   YY=            -61.0615   ZZ=            -82.6973
   XY=             -2.3024   XZ=              0.3567   YZ=              1.2799
 Traceless Quadrupole moment (field-independent basis, Debye-Ang):
   XX=             54.1658   YY=            -16.2650   ZZ=            -37.9008
   XY=             -2.3024   XZ=              0.3567   YZ=              1.2799
 Octapole moment (field-independent basis, Debye-Ang**2):
  XXX=           -327.5961  YYY=             21.4167  ZZZ=             -0.0645  XYY=              3.9142
  XXY=             96.4749  XXZ=             -3.6422  XZZ=             -3.6725  YZZ=              5.4785
  YYZ=              1.6596  XYZ=             -4.8990
 Hexadecapole moment (field-independent basis, Debye-Ang**3):
 XXXX=          -1356.1017 YYYY=           -780.8048 ZZZZ=            -91.5886 XXXY=           -243.5639
 XXXZ=             35.1766 YYYX=             27.9428 YYYZ=              4.1272 ZZZX=              0.6593
 ZZZY=              0.0086 XXYY=           -672.2427 XXZZ=           -710.0361 YYZZ=           -174.2528
 XXYZ=             26.2111 YYXZ=             -6.6986 ZZXY=             -2.6855
 N-N= 8.385035982211D+02 E-N=-3.266716766967D+03  KE= 6.817340634430D+02
 R6APFD:  NTU= -4 IXU= 1 FactS= 1.050
 Calling FoFJK, ICntrl=      2127 FMM=F ISym2X=0 I1Cent= 0 IOpClX= 0 NMat=1 NMatS=1 NMatT=0.
 ***** Axes restored to original set *****
 -------------------------------------------------------------------
 Center     Atomic                   Forces (Hartrees/Bohr)
 Number     Number              X              Y              Z
 -------------------------------------------------------------------
      1        6           0.000114274    0.002568774   -0.000026278
      2        6          -0.004793931   -0.000380443    0.000003923
      3        6          -0.002705278    0.003570308   -0.000058335
      4        6           0.001584081   -0.003422053    0.000034668
      5        6          -0.001022073   -0.000724046    0.000021159
      6        6          -0.001899030    0.002430551   -0.000048043
      7        8           0.004855407    0.003320077   -0.000040466
      8        6           0.000291140   -0.002139729    0.000018927
      9        6          -0.000301701    0.001869832   -0.000003636
     10        6           0.005698072    0.003226603    0.000129845
     11        8          -0.003495808    0.003059030    0.000911882
     12        8           0.000134877   -0.004340788   -0.001050639
     13        8           0.003362695    0.000750873    0.000013069
     14        6           0.000511466   -0.005892014    0.000054212
     15        1          -0.000327221   -0.000854541    0.000010733
     16        1           0.000043155    0.001286905   -0.000018232
     17        1           0.000746078   -0.000692770    0.000013739
     18        1           0.002009789   -0.001647898    0.000016218
     19        1           0.000299934    0.001184893   -0.000009856
     20        1           0.000115855   -0.000935518   -0.000002129
     21        1          -0.002591355   -0.000974675   -0.000606777
     22        1          -0.002420334   -0.001299192    0.000631326
     23        1          -0.000073999   -0.000201401    0.000003598
     24        1          -0.000071694    0.000122429    0.000228708
     25        1          -0.000064397    0.000114792   -0.000227617
 -------------------------------------------------------------------
 Cartesian Forces:  Max     0.005892014 RMS     0.001928463

 GradGradGradGradGradGradGradGradGradGradGradGradGradGradGradGradGradGrad
 Berny optimization.
 FormGI is forming the generalized inverse of G from B-inverse, IUseBI=4.
 GSVD:  received Info=                   1 from GESDD.
 Internal  Forces:  Max     0.007039395 RMS     0.001646580
 Search for a local minimum.
 Step number   1 out of a maximum of  119
 All quantities printed in internal units (Hartrees-Bohrs-Radians)
 Mixed Optimization -- RFO/linear search
 Second derivative matrix not updated -- first step.
 ITU=  0
     Eigenvalues ---    0.01240   0.01774   0.01830   0.01911   0.01931
     Eigenvalues ---    0.02017   0.02054   0.02063   0.02115   0.02145
     Eigenvalues ---    0.02208   0.02213   0.02231   0.02235   0.02252
     Eigenvalues ---    0.02284   0.02465   0.02622   0.02649   0.02698
     Eigenvalues ---    0.10156   0.10684   0.16000   0.16000   0.16000
     Eigenvalues ---    0.16000   0.16000   0.16000   0.16000   0.16000
     Eigenvalues ---    0.16000   0.16000   0.16000   0.22000   0.22000
     Eigenvalues ---    0.22369   0.23477   0.24604   0.24999   0.25000
     Eigenvalues ---    0.25000   0.25000   0.25000   0.25000   0.34262
     Eigenvalues ---    0.34264   0.34998   0.35056   0.35533   0.35572
     Eigenvalues ---    0.35595   0.35741   0.38889   0.40199   0.40395
     Eigenvalues ---    0.41881   0.43469   0.43790   0.47100   0.47213
     Eigenvalues ---    0.47735   0.49497   0.52463   0.53240   0.53301
     Eigenvalues ---    0.53920   0.59586   0.60070   0.60953
 RFO step:  Lambda=-6.39722296D-04 EMin= 1.23973185D-02
 Linear search not attempted -- first point.
 Iteration  1 RMS(Cart)=  0.01207233 RMS(Int)=  0.00001620
 Iteration  2 RMS(Cart)=  0.00002677 RMS(Int)=  0.00000062
 Iteration  3 RMS(Cart)=  0.00000000 RMS(Int)=  0.00000062
 Variable       Old X    -DE/DX   Delta X   Delta X   Delta X     New X
                                 (Linear)    (Quad)   (Total)
    R1        2.65453  -0.00239   0.00000  -0.00536  -0.00536   2.64918
    R2        2.60442  -0.00194   0.00000  -0.00396  -0.00396   2.60046
    R3        2.04818   0.00091   0.00000   0.00255   0.00255   2.05073
    R4        2.69383  -0.00247   0.00000  -0.00592  -0.00592   2.68791
    R5        2.51269  -0.00704   0.00000  -0.01180  -0.01180   2.50089
    R6        2.60313  -0.00119   0.00000  -0.00234  -0.00234   2.60079
    R7        2.56105  -0.00591   0.00000  -0.01095  -0.01095   2.55010
    R8        2.69949  -0.00268   0.00000  -0.00646  -0.00646   2.69303
    R9        2.04756   0.00127   0.00000   0.00355   0.00355   2.05111
   R10        2.68812  -0.00231   0.00000  -0.00550  -0.00550   2.68262
   R11        2.67095  -0.00224   0.00000  -0.00514  -0.00514   2.66581
   R12        2.04720   0.00102   0.00000   0.00286   0.00286   2.05006
   R13        1.84159  -0.00254   0.00000  -0.00484  -0.00484   1.83674
   R14        2.62786  -0.00275   0.00000  -0.00582  -0.00582   2.62204
   R15        2.05584   0.00121   0.00000   0.00345   0.00345   2.05929
   R16        2.62223  -0.00254   0.00000  -0.00532  -0.00532   2.61691
   R17        2.04488   0.00093   0.00000   0.00261   0.00261   2.04749
   R18        2.50194  -0.00617   0.00000  -0.01011  -0.01011   2.49182
   R19        2.50885  -0.00583   0.00000  -0.00970  -0.00970   2.49915
   R20        1.83430  -0.00281   0.00000  -0.00528  -0.00528   1.82902
   R21        1.83374  -0.00280   0.00000  -0.00525  -0.00525   1.82849
   R22        2.71019  -0.00581   0.00000  -0.01437  -0.01437   2.69583
   R23        2.05678  -0.00000   0.00000  -0.00001  -0.00001   2.05677
   R24        2.06888   0.00019   0.00000   0.00055   0.00055   2.06942
   R25        2.06890   0.00019   0.00000   0.00055   0.00055   2.06945
    A1        2.08871  -0.00029   0.00000  -0.00141  -0.00141   2.08730
    A2        2.06719   0.00003   0.00000  -0.00002  -0.00002   2.06717
    A3        2.12729   0.00026   0.00000   0.00143   0.00143   2.12872
    A4        2.10584   0.00045   0.00000   0.00183   0.00183   2.10767
    A5        2.08231  -0.00050   0.00000  -0.00199  -0.00199   2.08031
    A6        2.09503   0.00005   0.00000   0.00017   0.00017   2.09520
    A7        2.08658  -0.00012   0.00000  -0.00029  -0.00029   2.08629
    A8        1.97334  -0.00192   0.00000  -0.00774  -0.00774   1.96560
    A9        2.22326   0.00204   0.00000   0.00804   0.00804   2.23130
   A10        2.10020  -0.00050   0.00000  -0.00200  -0.00200   2.09820
   A11        2.10441   0.00001   0.00000  -0.00050  -0.00050   2.10391
   A12        2.07857   0.00049   0.00000   0.00251   0.00251   2.08108
   A13        2.07665   0.00057   0.00000   0.00240   0.00240   2.07905
   A14        2.06393  -0.00065   0.00000  -0.00265  -0.00265   2.06128
   A15        2.14261   0.00008   0.00000   0.00025   0.00025   2.14285
   A16        2.10838  -0.00011   0.00000  -0.00053  -0.00052   2.10786
   A17        2.07585   0.00005   0.00000   0.00027   0.00027   2.07612
   A18        2.09895   0.00005   0.00000   0.00026   0.00026   2.09921
   A19        1.91439  -0.00102   0.00000  -0.00633  -0.00633   1.90806
   A20        2.22017  -0.00027   0.00000  -0.00122  -0.00122   2.21895
   A21        2.02802   0.00031   0.00000   0.00172   0.00172   2.02975
   A22        2.03499  -0.00004   0.00000  -0.00050  -0.00050   2.03449
   A23        2.12361  -0.00153   0.00000  -0.00692  -0.00692   2.11669
   A24        2.14316   0.00088   0.00000   0.00418   0.00418   2.14735
   A25        2.01641   0.00065   0.00000   0.00274   0.00274   2.01914
   A26        2.06692  -0.00140   0.00000  -0.00560  -0.00560   2.06132
   A27        2.11249  -0.00124   0.00000  -0.00493  -0.00493   2.10756
   A28        2.10373   0.00264   0.00000   0.01053   0.01053   2.11426
   A29        2.00719  -0.00060   0.00000  -0.00376  -0.00376   2.00343
   A30        1.99865  -0.00057   0.00000  -0.00355  -0.00355   1.99510
   A31        2.07369  -0.00157   0.00000  -0.00628  -0.00628   2.06741
   A32        1.84498  -0.00047   0.00000  -0.00344  -0.00344   1.84154
   A33        1.92643   0.00017   0.00000   0.00131   0.00131   1.92774
   A34        1.92633   0.00017   0.00000   0.00130   0.00130   1.92763
   A35        1.91765  -0.00002   0.00000  -0.00067  -0.00067   1.91699
   A36        1.91758  -0.00002   0.00000  -0.00062  -0.00062   1.91696
   A37        1.92919   0.00015   0.00000   0.00187   0.00187   1.93106
    D1       -0.00056  -0.00000   0.00000  -0.00002  -0.00002  -0.00058
    D2       -3.14095   0.00000   0.00000   0.00004   0.00004  -3.14091
    D3        3.13893   0.00000   0.00000   0.00002   0.00002   3.13895
    D4       -0.00145   0.00000   0.00000   0.00007   0.00007  -0.00138
    D5       -0.00261   0.00000   0.00000   0.00017   0.00017  -0.00245
    D6        3.13867  -0.00000   0.00000  -0.00007  -0.00007   3.13860
    D7        3.14115   0.00000   0.00000   0.00013   0.00013   3.14128
    D8       -0.00076  -0.00000   0.00000  -0.00010  -0.00010  -0.00086
    D9        0.00160  -0.00000   0.00000  -0.00007  -0.00007   0.00153
   D10       -3.14028   0.00000   0.00000   0.00005   0.00005  -3.14023
   D11       -3.14121  -0.00000   0.00000  -0.00012  -0.00012  -3.14133
   D12        0.00009   0.00000   0.00000  -0.00000  -0.00001   0.00008
   D13        3.14065   0.00000   0.00000   0.00002   0.00002   3.14067
   D14        0.00026   0.00000   0.00000   0.00008   0.00008   0.00033
   D15        0.00054  -0.00000   0.00000   0.00001   0.00001   0.00055
   D16        3.14115   0.00000   0.00000   0.00004   0.00004   3.14118
   D17       -3.14071  -0.00000   0.00000  -0.00013  -0.00013  -3.14084
   D18       -0.00011  -0.00000   0.00000  -0.00010  -0.00010  -0.00021
   D19        3.14111   0.00001   0.00000   0.00023   0.00023   3.14134
   D20       -0.00080   0.00001   0.00000   0.00036   0.00036  -0.00044
   D21       -0.00363   0.00000   0.00000   0.00013   0.00013  -0.00349
   D22        3.14085   0.00000   0.00000   0.00011   0.00011   3.14097
   D23        3.13894   0.00000   0.00000   0.00011   0.00010   3.13905
   D24        0.00023   0.00000   0.00000   0.00009   0.00009   0.00032
   D25        0.00470  -0.00000   0.00000  -0.00022  -0.00022   0.00448
   D26       -3.13658   0.00000   0.00000   0.00002   0.00002  -3.13656
   D27       -3.13992  -0.00000   0.00000  -0.00020  -0.00020  -3.14012
   D28        0.00199   0.00000   0.00000   0.00003   0.00003   0.00202
   D29       -3.12954   0.00001   0.00000   0.00061   0.00061  -3.12892
   D30        0.01263   0.00001   0.00000   0.00027   0.00027   0.01291
   D31        0.01506   0.00001   0.00000   0.00059   0.00059   0.01565
   D32       -3.12596   0.00000   0.00000   0.00025   0.00025  -3.12571
   D33       -3.11997   0.00000   0.00000   0.00021   0.00021  -3.11976
   D34        0.02243   0.00001   0.00000   0.00025   0.00025   0.02268
   D35        0.02105   0.00001   0.00000   0.00055   0.00055   0.02159
   D36       -3.11974   0.00001   0.00000   0.00059   0.00059  -3.11915
   D37       -3.05644   0.00004   0.00000   0.00132   0.00131  -3.05512
   D38        0.09492   0.00001   0.00000   0.00076   0.00076   0.09568
   D39        0.08440   0.00004   0.00000   0.00128   0.00128   0.08568
   D40       -3.04742   0.00001   0.00000   0.00072   0.00072  -3.04670
   D41       -2.89284  -0.00000   0.00000  -0.00028  -0.00028  -2.89313
   D42        0.23903  -0.00000   0.00000   0.00019   0.00019   0.23922
   D43       -2.84224   0.00004   0.00000   0.00153   0.00153  -2.84071
   D44        0.30933   0.00003   0.00000   0.00105   0.00105   0.31038
   D45       -3.14034  -0.00000   0.00000  -0.00035  -0.00035  -3.14069
   D46       -1.06754  -0.00022   0.00000  -0.00245  -0.00245  -1.06999
   D47        1.07020   0.00021   0.00000   0.00169   0.00169   1.07188
         Item               Value     Threshold  Converged?
 Maximum Force            0.007039     0.000450     NO 
 RMS     Force            0.001647     0.000300     NO 
 Maximum Displacement     0.052549     0.001800     NO 
 RMS     Displacement     0.012071     0.001200     NO 
 Predicted change in Energy=-3.203691D-04
 GradGradGradGradGradGradGradGradGradGradGradGradGradGradGradGradGradGrad

                          Input orientation:                          
 ---------------------------------------------------------------------
 Center     Atomic      Atomic             Coordinates (Angstroms)
 Number     Number       Type             X           Y           Z
 ---------------------------------------------------------------------
      1          6           0       -1.468704   -2.023321    0.023844
      2          6           0       -2.506591   -1.081023    0.011918
      3          6           0       -2.223552    0.312807   -0.005154
      4          6           0       -0.915062    0.739363   -0.011834
      5          6           0        0.148554   -0.209060   -0.002389
      6          6           0       -0.161202   -1.594281    0.018275
      7          8           0       -3.761114   -1.502399    0.018173
      8          6           0        1.472701    0.277357   -0.010558
      9          6           0        2.640380   -0.472109   -0.017690
     10          6           0        3.884717    0.135339    0.000460
     11          8           0        4.951947   -0.631471   -0.108024
     12          8           0        3.995344    1.446444    0.133691
     13          8           0       -3.341003    1.069293   -0.013125
     14          6           0       -3.200693    2.488845   -0.030050
     15          1           0       -1.727532   -3.077089    0.039258
     16          1           0       -0.680369    1.799002   -0.025221
     17          1           0        0.633757   -2.332370    0.030461
     18          1           0       -4.358068   -0.735407    0.009177
     19          1           0        1.588987    1.360866   -0.011106
     20          1           0        2.646816   -1.555378   -0.038265
     21          1           0        5.786824   -0.200086    0.123651
     22          1           0        4.857849    1.801619   -0.123560
     23          1           0       -4.215721    2.881669   -0.032863
     24          1           0       -2.672011    2.831794    0.865555
     25          1           0       -2.675273    2.810538   -0.935423
 ---------------------------------------------------------------------
                    Distance matrix (angstroms):
                    1          2          3          4          5
     1  C    0.000000
     2  C    1.401883   0.000000
     3  C    2.455225   1.422380   0.000000
     4  C    2.817838   2.418126   1.376278   0.000000
     5  C    2.430587   2.794695   2.428835   1.425088   0.000000
     6  C    1.376105   2.400900   2.809060   2.452571   1.419582
     7  O    2.350859   1.323415   2.378994   3.623039   4.118089
     8  C    3.734456   4.204815   3.696427   2.432050   1.410686
     9  C    4.392328   5.182949   4.926874   3.756177   2.505719
    10  C    5.772302   6.506034   6.110849   4.837652   3.752004
    11  O    6.571102   7.473036   7.238096   6.025797   4.823088
    12  O    6.473573   6.976968   6.322902   4.963188   4.190108
    13  O    3.615402   2.306671   1.349456   2.448274   3.716357
    14  C    4.833460   3.636963   2.385491   2.878389   4.300803
    15  H    1.085200   2.142886   3.426281   3.902310   3.427393
    16  H    3.903079   3.410427   2.142567   1.085401   2.172544
    17  H    2.125064   3.380532   3.893898   3.440374   2.178290
    18  H    3.163441   1.883461   2.378048   3.745621   4.537269
    19  H    4.561075   4.768344   3.953975   2.580025   2.130631
    20  H    4.142503   5.175436   5.216484   4.237159   2.838164
    21  H    7.481767   8.340820   8.027813   6.768767   5.639686
    22  H    7.394401   7.909675   7.237184   5.870892   5.122009
    23  H    5.622121   4.315792   3.250932   3.935005   5.347937
    24  H    5.072333   4.008267   2.702693   2.869660   4.237417
    25  H    5.073676   4.008760   2.703352   2.870736   4.238221
                    6          7          8          9         10
     6  C    0.000000
     7  O    3.601084   0.000000
     8  C    2.484653   5.528217   0.000000
     9  C    3.018183   6.483974   1.387525   0.000000
    10  C    4.400155   7.819286   2.416218   1.384809   0.000000
    11  O    5.204541   8.757390   3.597307   2.318814   1.318615
    12  O    5.151331   8.298896   2.784116   2.353655   1.322492
    13  O    4.148101   2.605969   4.878413   6.176802   7.285841
    14  C    5.090457   4.030686   5.170268   6.548705   7.466120
    15  H    2.156977   2.572071   4.636408   5.086041   6.466725
    16  H    3.433045   4.515764   2.636538   4.023106   4.858852
    17  H    1.084843   4.472572   2.741566   2.736681   4.081571
    18  H    4.283856   0.971963   5.918103   7.003450   8.288653
    19  H    3.434664   6.068173   1.089731   2.113119   2.602389
    20  H    2.808857   6.408398   2.176748   1.083483   2.095810
    21  H    6.110148   9.636923   4.342537   3.161343   1.935381
    22  H    6.061611   9.231639   3.714212   3.177769   1.933612
    23  H    6.039525   4.407871   6.256284   7.632443   8.553393
    24  H    5.158700   4.548564   4.946854   6.318022   7.142124
    25  H    5.160670   4.548607   4.947531   6.314600   7.146050
                   11         12         13         14         15
    11  O    0.000000
    12  O    2.300270   0.000000
    13  O    8.466087   7.347503   0.000000
    14  C    8.729718   7.272989   1.426570   0.000000
    15  H    7.114645   7.295381   4.449553   5.758006   0.000000
    16  H    6.134903   4.691679   2.758912   2.613032   4.987682
    17  H    4.643166   5.058691   5.231819   6.160420   2.475959
    18  H    9.311332   8.634551   2.071680   3.425910   3.521945
    19  H    3.910026   2.412229   4.938605   4.920744   5.540512
    20  H    2.484371   3.295304   6.537852   7.109794   4.632120
    21  H    0.967878   2.433220   9.216684   9.382400   8.046727
    22  H    2.434958   0.967596   8.232234   8.088332   8.197289
    23  H    9.818041   8.337218   2.012518   1.088394   6.457793
    24  H    8.430112   6.848974   2.079914   1.095092   6.040672
    25  H    8.408715   6.892089   2.079847   1.095104   6.042547
                   16         17         18         19         20
    16  H    0.000000
    17  H    4.335696   0.000000
    18  H    4.466529   5.241093   0.000000
    19  H    2.311307   3.814994   6.305730   0.000000
    20  H    4.724638   2.158899   7.052872   3.102293   0.000000
    21  H    6.770754   5.577582  10.159651   4.480689   3.423841
    22  H    5.539092   5.912405   9.559668   3.300359   4.020618
    23  H    3.697423   7.120930   3.620120   6.000662   8.172016
    24  H    2.413872   6.188221   4.037462   4.592196   6.953711
    25  H    2.414811   6.191293   4.037053   4.597806   6.941956
                   21         22         23         24         25
    21  H    0.000000
    22  H    2.220570   0.000000
    23  H   10.467694   9.138075   0.000000
    24  H    9.016353   7.664098   1.786808   0.000000
    25  H    9.043925   7.643623   1.786800   1.801106   0.000000
 Stoichiometry    C10H11O4(1+)
 Framework group  C1[X(C10H11O4)]
 Deg. of freedom    69
 Full point group                 C1      NOp   1
 Largest Abelian subgroup         C1      NOp   1
 Largest concise Abelian subgroup C1      NOp   1
                         Standard orientation:                         
 ---------------------------------------------------------------------
 Center     Atomic      Atomic             Coordinates (Angstroms)
 Number     Number       Type             X           Y           Z
 ---------------------------------------------------------------------
      1          6           0        1.467355   -2.024898   -0.023764
      2          6           0        2.505734   -1.083143   -0.011837
      3          6           0        2.223423    0.310835    0.005235
      4          6           0        0.915156    0.738074    0.011915
      5          6           0       -0.148955   -0.209794    0.002470
      6          6           0        0.160078   -1.595176   -0.018194
      7          8           0        3.760037   -1.505174   -0.018093
      8          6           0       -1.472848    0.277314    0.010639
      9          6           0       -2.640918   -0.471543    0.017771
     10          6           0       -3.884938    0.136555   -0.000379
     11          8           0       -4.952568   -0.629698    0.108105
     12          8           0       -3.994881    1.447717   -0.133611
     13          8           0        3.341268    1.066737    0.013206
     14          6           0        3.201699    2.486363    0.030131
     15          1           0        1.725633   -3.078802   -0.039177
     16          1           0        0.681016    1.797835    0.025302
     17          1           0       -0.635267   -2.332850   -0.030380
     18          1           0        4.357391   -0.738493   -0.009096
     19          1           0       -1.588568    1.360884    0.011187
     20          1           0       -2.647920   -1.554808    0.038345
     21          1           0       -5.787220   -0.197877   -0.123570
     22          1           0       -4.857201    1.803342    0.123641
     23          1           0        4.216932    2.878657    0.032943
     24          1           0        2.673196    2.829588   -0.865474
     25          1           0        2.676447    2.808330    0.935504
 ---------------------------------------------------------------------
 Rotational constants (GHZ):      1.5453343      0.2868033      0.2424136
 Standard basis: 6-31+G(d,p) (6D, 7F)
 There are   321 symmetry adapted cartesian basis functions of A   symmetry.
 There are   321 symmetry adapted basis functions of A   symmetry.
   321 basis functions,   525 primitive gaussians,   321 cartesian basis functions
    51 alpha electrons       51 beta electrons
       nuclear repulsion energy       841.0686647845 Hartrees.
 NAtoms=   25 NActive=   25 NUniq=   25 SFac= 1.00D+00 NAtFMM=   60 NAOKFM=F Big=F
 Integral buffers will be    131072 words long.
 Raffenetti 2 integral format.
 Two-electron integral symmetry is turned on.
 R6APFD:  NTU= -4 IXU= 1 FactS= 1.050
 Nuclear repulsion after empirical dispersion term =      841.0525120929 Hartrees.
 One-electron integrals computed using PRISM.
 NBasis=   321 RedAO= T EigKep=  1.37D-06  NBF=   321
 NBsUse=   320 1.00D-06 EigRej=  6.47D-07 NBFU=   320
 Initial guess from the checkpoint file:  "APFDFAyang.chk"
 B after Tr=    -0.000000   -0.000000   -0.000000
         Rot=    1.000000    0.000050    0.000006    0.000194 Ang=   0.02 deg.
 ExpMin= 4.38D-02 ExpMax= 5.48D+03 ExpMxC= 8.25D+02 IAcc=2 IRadAn=         4 AccDes= 0.00D+00
 Harris functional with IExCor= 3731 and IRadAn=       4 diagonalized for initial guess.
 HarFok:  IExCor= 3731 AccDes= 0.00D+00 IRadAn=         4 IDoV= 1 UseB2=F ITyADJ=14
 ICtDFT=  3500011 ScaDFX=  1.000000  1.000000  1.000000  1.000000
 FoFCou: FMM=F IPFlag=           0 FMFlag=      100000 FMFlg1=           0
         NFxFlg=           0 DoJE=T BraDBF=F KetDBF=T FulRan=T
         wScrn=  0.000000 ICntrl=     500 IOpCl=  0 I1Cent=   200000004 NGrid=           0
         NMat0=    1 NMatS0=      1 NMatT0=    0 NMatD0=    1 NMtDS0=    0 NMtDT0=    0
 Petite list used in FoFCou.
 Requested convergence on RMS density matrix=1.00D-08 within 128 cycles.
 Requested convergence on MAX density matrix=1.00D-06.
 Requested convergence on             energy=1.00D-06.
 No special actions if energy rises.
 SCF Done:  E(RAPFD) =  -687.817135103     A.U. after   11 cycles
            NFock= 11  Conv=0.60D-08     -V/T= 2.0087
 R6APFD:  NTU= -4 IXU= 1 FactS= 1.050
 Calling FoFJK, ICntrl=      2127 FMM=F ISym2X=0 I1Cent= 0 IOpClX= 0 NMat=1 NMatS=1 NMatT=0.
 ***** Axes restored to original set *****
 -------------------------------------------------------------------
 Center     Atomic                   Forces (Hartrees/Bohr)
 Number     Number              X              Y              Z
 -------------------------------------------------------------------
      1        6           0.000405571   -0.000373761    0.000002233
      2        6          -0.000882096   -0.001513588    0.000014269
      3        6          -0.000847070    0.000531433   -0.000014317
      4        6           0.000241921    0.000033711   -0.000003382
      5        6          -0.000452531   -0.000137782    0.000003089
      6        6           0.000201281   -0.000040080    0.000012343
      7        8           0.000921712    0.000918233   -0.000010944
      8        6           0.000116565   -0.000042252   -0.000017563
      9        6          -0.001151783   -0.000680636   -0.000022611
     10        6           0.001031584    0.000495872   -0.000027705
     11        8          -0.000294679    0.001114095    0.000302756
     12        8           0.000770032   -0.001003024   -0.000196783
     13        8           0.000919717    0.001028714    0.000002459
     14        6          -0.000922461   -0.001783616    0.000012454
     15        1          -0.000025914    0.000040359   -0.000002353
     16        1          -0.000036129   -0.000042612    0.000001879
     17        1           0.000029186    0.000066647   -0.000000210
     18        1          -0.000378332    0.000157814   -0.000002936
     19        1          -0.000038739   -0.000121609   -0.000009358
     20        1          -0.000075415    0.000121274    0.000005674
     21        1           0.000400180   -0.000302728   -0.000125916
     22        1           0.000017937    0.000414735    0.000088387
     23        1           0.000091326    0.000688151   -0.000009341
     24        1          -0.000022848    0.000214713   -0.000025851
     25        1          -0.000019016    0.000215938    0.000023728
 -------------------------------------------------------------------
 Cartesian Forces:  Max     0.001783616 RMS     0.000513071

 GradGradGradGradGradGradGradGradGradGradGradGradGradGradGradGradGradGrad
 Berny optimization.
 Using GEDIIS/GDIIS optimizer.
 FormGI is forming the generalized inverse of G from B-inverse, IUseBI=4.
 GSVD:  received Info=                   1 from GESDD.
 Internal  Forces:  Max     0.002056210 RMS     0.000384857
 Search for a local minimum.
 Step number   2 out of a maximum of  119
 All quantities printed in internal units (Hartrees-Bohrs-Radians)
 Mixed Optimization -- En-DIIS/RFO-DIIS
 Update second derivatives using D2CorX and points    1    2
 DE= -3.02D-04 DEPred=-3.20D-04 R= 9.42D-01
 TightC=F SS=  1.41D+00  RLast= 3.98D-02 DXNew= 5.0454D-01 1.1931D-01
 Trust test= 9.42D-01 RLast= 3.98D-02 DXMaxT set to 3.00D-01
 ITU=  1  0
 Use linear search instead of GDIIS.
     Eigenvalues ---    0.01240   0.01774   0.01830   0.01911   0.01931
     Eigenvalues ---    0.02017   0.02053   0.02063   0.02115   0.02145
     Eigenvalues ---    0.02209   0.02213   0.02231   0.02235   0.02252
     Eigenvalues ---    0.02284   0.02467   0.02622   0.02650   0.02697
     Eigenvalues ---    0.10160   0.10702   0.15832   0.16000   0.16000
     Eigenvalues ---    0.16000   0.16000   0.16000   0.16000   0.16000
     Eigenvalues ---    0.16000   0.16000   0.16370   0.21978   0.22236
     Eigenvalues ---    0.22374   0.23487   0.23943   0.24654   0.25000
     Eigenvalues ---    0.25000   0.25000   0.25000   0.26887   0.34256
     Eigenvalues ---    0.34263   0.34975   0.35090   0.35528   0.35565
     Eigenvalues ---    0.35588   0.35769   0.38217   0.39066   0.40327
     Eigenvalues ---    0.42048   0.43581   0.44319   0.47027   0.47137
     Eigenvalues ---    0.48714   0.50077   0.52590   0.53268   0.53483
     Eigenvalues ---    0.56291   0.57399   0.59974   0.60860
 RFO step:  Lambda=-4.73762907D-05 EMin= 1.23971727D-02
 Quartic linear search produced a step of -0.06033.
 Iteration  1 RMS(Cart)=  0.00484692 RMS(Int)=  0.00000624
 Iteration  2 RMS(Cart)=  0.00000943 RMS(Int)=  0.00000081
 Iteration  3 RMS(Cart)=  0.00000000 RMS(Int)=  0.00000081
 Variable       Old X    -DE/DX   Delta X   Delta X   Delta X     New X
                                 (Linear)    (Quad)   (Total)
    R1        2.64918   0.00062   0.00032   0.00059   0.00092   2.65009
    R2        2.60046   0.00027   0.00024  -0.00003   0.00021   2.60067
    R3        2.05073  -0.00003  -0.00015   0.00026   0.00011   2.05084
    R4        2.68791   0.00059   0.00036   0.00058   0.00094   2.68885
    R5        2.50089  -0.00086   0.00071  -0.00295  -0.00224   2.49865
    R6        2.60079   0.00042   0.00014   0.00049   0.00064   2.60142
    R7        2.55010   0.00017   0.00066  -0.00120  -0.00054   2.54957
    R8        2.69303   0.00036   0.00039  -0.00009   0.00030   2.69333
    R9        2.05111  -0.00005  -0.00021   0.00035   0.00014   2.05125
   R10        2.68262   0.00009   0.00033  -0.00058  -0.00025   2.68237
   R11        2.66581   0.00074   0.00031   0.00090   0.00121   2.66702
   R12        2.05006  -0.00002  -0.00017   0.00033   0.00016   2.05021
   R13        1.83674   0.00035   0.00029  -0.00003   0.00027   1.83701
   R14        2.62204   0.00048   0.00035   0.00017   0.00052   2.62256
   R15        2.05929  -0.00012  -0.00021   0.00014  -0.00007   2.05923
   R16        2.61691   0.00206   0.00032   0.00332   0.00365   2.62056
   R17        2.04749  -0.00012  -0.00016   0.00003  -0.00013   2.04736
   R18        2.49182  -0.00041   0.00061  -0.00200  -0.00139   2.49043
   R19        2.49915  -0.00052   0.00059  -0.00213  -0.00154   2.49761
   R20        1.82902   0.00018   0.00032  -0.00039  -0.00007   1.82895
   R21        1.82849   0.00015   0.00032  -0.00046  -0.00014   1.82835
   R22        2.69583  -0.00076   0.00087  -0.00373  -0.00286   2.69296
   R23        2.05677   0.00016   0.00000   0.00044   0.00044   2.05721
   R24        2.06942   0.00003  -0.00003   0.00016   0.00013   2.06956
   R25        2.06945   0.00003  -0.00003   0.00016   0.00013   2.06958
    A1        2.08730  -0.00005   0.00008  -0.00037  -0.00028   2.08701
    A2        2.06717  -0.00001   0.00000  -0.00010  -0.00010   2.06707
    A3        2.12872   0.00006  -0.00009   0.00047   0.00038   2.12910
    A4        2.10767   0.00007  -0.00011   0.00066   0.00055   2.10822
    A5        2.08031   0.00082   0.00012   0.00275   0.00287   2.08318
    A6        2.09520  -0.00090  -0.00001  -0.00341  -0.00342   2.09178
    A7        2.08629  -0.00028   0.00002  -0.00102  -0.00100   2.08529
    A8        1.96560  -0.00011   0.00047  -0.00150  -0.00104   1.96456
    A9        2.23130   0.00039  -0.00048   0.00252   0.00204   2.23334
   A10        2.09820   0.00015   0.00012   0.00031   0.00043   2.09863
   A11        2.10391  -0.00010   0.00003  -0.00053  -0.00050   2.10341
   A12        2.08108  -0.00005  -0.00015   0.00022   0.00007   2.08115
   A13        2.07905   0.00006  -0.00014   0.00042   0.00028   2.07933
   A14        2.06128   0.00003   0.00016  -0.00019  -0.00003   2.06125
   A15        2.14285  -0.00009  -0.00001  -0.00024  -0.00025   2.14260
   A16        2.10786   0.00004   0.00003  -0.00001   0.00002   2.10788
   A17        2.07612   0.00005  -0.00002   0.00044   0.00042   2.07654
   A18        2.09921  -0.00009  -0.00002  -0.00042  -0.00044   2.09877
   A19        1.90806   0.00037   0.00038   0.00132   0.00170   1.90976
   A20        2.21895   0.00032   0.00007   0.00120   0.00127   2.22022
   A21        2.02975  -0.00019  -0.00010  -0.00061  -0.00071   2.02903
   A22        2.03449  -0.00013   0.00003  -0.00059  -0.00056   2.03393
   A23        2.11669   0.00060   0.00042   0.00159   0.00201   2.11870
   A24        2.14735  -0.00037  -0.00025  -0.00113  -0.00138   2.14596
   A25        2.01914  -0.00022  -0.00017  -0.00046  -0.00062   2.01852
   A26        2.06132   0.00022   0.00034   0.00004   0.00038   2.06170
   A27        2.10756   0.00058   0.00030   0.00152   0.00181   2.10938
   A28        2.11426  -0.00080  -0.00064  -0.00157  -0.00220   2.11206
   A29        2.00343   0.00087   0.00023   0.00456   0.00479   2.00821
   A30        1.99510   0.00074   0.00021   0.00383   0.00405   1.99915
   A31        2.06741   0.00127   0.00038   0.00392   0.00430   2.07171
   A32        1.84154   0.00096   0.00021   0.00537   0.00557   1.84712
   A33        1.92774   0.00010  -0.00008   0.00067   0.00059   1.92833
   A34        1.92763   0.00011  -0.00008   0.00069   0.00061   1.92823
   A35        1.91699  -0.00043   0.00004  -0.00240  -0.00236   1.91463
   A36        1.91696  -0.00043   0.00004  -0.00238  -0.00235   1.91461
   A37        1.93106  -0.00027  -0.00011  -0.00170  -0.00181   1.92924
    D1       -0.00058   0.00000   0.00000   0.00000   0.00001  -0.00058
    D2       -3.14091   0.00000  -0.00000   0.00006   0.00005  -3.14086
    D3        3.13895  -0.00000  -0.00000  -0.00001  -0.00001   3.13894
    D4       -0.00138   0.00000  -0.00000   0.00004   0.00004  -0.00134
    D5       -0.00245  -0.00000  -0.00001  -0.00003  -0.00004  -0.00249
    D6        3.13860  -0.00000   0.00000  -0.00004  -0.00003   3.13856
    D7        3.14128  -0.00000  -0.00001  -0.00002  -0.00002   3.14125
    D8       -0.00086  -0.00000   0.00001  -0.00003  -0.00002  -0.00088
    D9        0.00153   0.00000   0.00000   0.00000   0.00001   0.00154
   D10       -3.14023   0.00000  -0.00000   0.00002   0.00002  -3.14021
   D11       -3.14133  -0.00000   0.00001  -0.00004  -0.00004  -3.14137
   D12        0.00008  -0.00000   0.00000  -0.00003  -0.00003   0.00006
   D13        3.14067   0.00000  -0.00000   0.00000  -0.00000   3.14067
   D14        0.00033   0.00000  -0.00000   0.00005   0.00004   0.00038
   D15        0.00055   0.00000  -0.00000   0.00001   0.00001   0.00056
   D16        3.14118   0.00000  -0.00000   0.00002   0.00001   3.14120
   D17       -3.14084   0.00000   0.00001  -0.00001  -0.00000  -3.14084
   D18       -0.00021   0.00000   0.00001  -0.00000   0.00000  -0.00021
   D19        3.14134   0.00001  -0.00001   0.00029   0.00028  -3.14156
   D20       -0.00044   0.00001  -0.00002   0.00031   0.00029  -0.00015
   D21       -0.00349  -0.00000  -0.00001  -0.00004  -0.00005  -0.00354
   D22        3.14097  -0.00000  -0.00001   0.00000  -0.00001   3.14096
   D23        3.13905  -0.00000  -0.00001  -0.00004  -0.00005   3.13900
   D24        0.00032  -0.00000  -0.00001  -0.00000  -0.00001   0.00031
   D25        0.00448   0.00000   0.00001   0.00005   0.00006   0.00454
[...]
 12,-0.00256349,0.00274050,-0.03686198,0.00001958,-0.00001017,-0.000164
 75,0.00009329,-0.00010823,-0.00290439,0.00002943,0.00015030,0.00017561
 ,-0.00004264,-0.00003772,-0.00031777,0.00004094,-0.00000535,-0.0001169
 2,-0.00002116,0.00003025,0.00017459,0.00000344,-0.00001373,-0.00037780
 ,0.00000011,0.00000380,-0.00014888,0.00000360,-0.00008136,-0.00487466,
 -0.00001213,0.00003204,0.00130608,0.00263417,-0.00298382,0.02373480,-0
 .00257675,-0.00522362,0.00008373,-0.04099714,0.03446606,-0.00042882,-0
 .00159164,0.00174397,-0.00000565,-0.00178593,0.00126926,-0.00001216,0.
 00201987,0.00078252,-0.00000619,-0.00143878,0.00093516,-0.00002428,-0.
 19873810,0.18681178,-0.00225791,-0.00203237,-0.00013851,0.00001434,0.0
 0185102,0.00009212,0.00001940,-0.00203085,-0.00100535,-0.00001640,0.00
 118185,-0.00039175,-0.00013351,0.00037727,0.00095506,0.00014432,-0.000
 26521,0.00229502,-0.00002943,0.00119060,-0.00139275,0.00001869,0.00012
 369,-0.00004638,0.00000207,0.00036619,0.00008758,-0.00000100,-0.000325
 33,-0.00020108,0.00000182,0.24487388,-0.00730690,0.00042874,0.00005312
 ,-0.00263386,0.01449630,-0.00019925,-0.01310176,0.00119589,-0.00001346
 ,0.00430185,-0.00064197,-0.00000917,-0.00319082,-0.00113652,0.00001799
 ,0.00245561,0.00186924,-0.00000309,0.23408148,-0.33458572,0.00392884,0
 .00272442,-0.00016077,-0.00000774,-0.00190725,-0.00001121,-0.00002398,
 0.00188136,0.00110144,0.00002284,-0.00100632,0.00031709,0.00012364,-0.
 00031830,-0.00097070,-0.00013267,0.00348973,0.00240922,-0.00005841,0.0
 0241201,-0.00334666,0.00003436,-0.00006783,0.00004500,-0.00001044,-0.0
 0030910,-0.00004416,0.00000515,-0.00021248,-0.00007543,-0.00000543,-0.
 22189066,0.31726171,0.00007448,0.00005492,0.00458782,0.00009154,-0.000
 23326,-0.00249012,0.00014177,-0.00001528,-0.00009729,-0.00004544,-0.00
 000436,-0.00071446,0.00002684,0.00001001,0.00005455,-0.00001979,0.0000
 1114,0.00161948,-0.00285961,0.00395457,-0.01297557,-0.00002532,-0.0000
 0582,-0.00008995,0.00002676,0.00001203,-0.00006577,-0.00002957,-0.0000
 1185,-0.00002932,0.00001773,-0.00000446,-0.00001753,0.00000093,0.00001
 921,0.00001076,-0.00003562,-0.00005038,-0.00167207,-0.00002853,0.00002
 552,-0.00122784,0.00000151,-0.00001146,-0.00051295,0.00000542,0.000008
 06,0.00043973,0.00000154,-0.00000780,-0.00055792,0.00266638,-0.0037189
 1,0.01337988,0.00024449,-0.00152630,0.00003991,0.00021255,-0.00033350,
 -0.00001470,0.00002799,0.00060851,-0.00000511,0.00034381,-0.00245892,0
 .00004475,-0.00084452,-0.02930386,-0.00000432,-0.00543385,0.00004046,-
 0.00004614,0.00005021,0.00019990,0.00000741,-0.06168922,-0.02903079,0.
 00006373,0.00510494,0.02833554,0.00021659,0.00046753,0.00407717,0.0001
 6185,0.00047418,-0.00071744,-0.00008284,-0.00282274,-0.00169894,-0.000
 67587,0.00007867,0.00005924,-0.00000329,-0.00002748,-0.00008726,0.0000
 0210,-0.00039889,-0.00004956,0.00000823,-0.00128966,0.00111723,-0.0000
 1875,0.00009082,0.00000697,-0.00000122,-0.00005251,-0.00003938,-0.0000
 0113,0.06948776,0.00044394,-0.00060374,0.00003661,-0.00013163,-0.00005
 108,-0.00000127,0.00011441,0.00047610,0.00001064,0.00176842,0.00145987
 ,0.00006021,0.00046279,-0.00841227,-0.00007481,-0.00155697,0.00087256,
 -0.00012347,0.00017508,0.00006046,-0.00000553,-0.02860795,-0.33630429,
 0.00002871,-0.00202063,-0.01475551,-0.00019325,-0.00042402,-0.00170529
 ,-0.00017205,0.00015248,0.00016869,0.00001838,-0.00153516,0.00100955,0
 .00004579,0.00006544,-0.00008725,-0.00000704,-0.00001298,0.00003172,0.
 00000047,-0.00015089,0.00000408,0.00001028,-0.00038236,0.00056127,-0.0
 0001518,0.00009025,0.00007912,-0.00000302,-0.00003424,0.00002308,-0.00
 000054,0.02975984,0.35620518,0.00009954,-0.00003855,-0.00089770,-0.000
 07976,0.00001816,0.00049281,0.00001060,0.00005725,0.00006872,-0.000074
 01,-0.00001821,-0.00360483,0.00034568,0.00035129,0.00776799,-0.0000194
 5,0.00001391,0.00624809,0.00007795,0.00000857,-0.00012829,-0.00049586,
 -0.00005058,-0.04724411,0.00076335,-0.00013302,0.00733551,-0.00019146,
 -0.00042094,-0.00473721,0.00037851,0.00011183,0.00005774,-0.00087768,0
 .00037368,0.00061504,0.00001026,-0.00002330,0.00022891,0.00000145,0.00
 001447,0.00004590,0.00000172,-0.00000951,-0.00072041,-0.00001034,0.000
 00055,0.00037417,-0.00000525,-0.00001020,-0.00006356,-0.00000826,0.000
 01132,0.00007318,-0.00003310,0.00026655,0.02711787,0.00012265,-0.00045
 545,0.00002313,0.00012838,0.00038062,0.00001108,-0.00039470,-0.0005145
 3,-0.00000210,0.00055180,-0.00021583,-0.00001748,0.00007176,-0.0014124
 9,0.00003316,-0.00097850,0.00152329,-0.00004495,-0.00010604,-0.0001310
 8,-0.00000271,0.00743808,0.02805942,0.00050586,-0.05766569,0.00352846,
 -0.00012101,0.00381254,-0.02976802,-0.00093430,-0.00044948,0.00004725,
 0.00007457,-0.00618537,-0.00250241,0.00079245,0.00017017,-0.00014322,0
 .00000313,0.00002047,0.00010719,-0.00000143,-0.00004153,-0.00000488,-0
 .00000322,0.00017179,-0.00013962,0.00000148,0.00036541,-0.00063701,0.0
 0001436,0.00001979,-0.00001943,-0.00000173,-0.00416767,0.00197122,-0.0
 0004003,0.05684368,-0.00011733,0.00029070,0.00002177,0.00005490,-0.000
 01512,0.00000663,-0.00000714,-0.00012327,0.00000981,0.00022013,-0.0001
 6113,0.00000059,-0.00149139,-0.00049368,0.00011797,-0.00056424,0.00029
 404,-0.00001205,-0.00017387,-0.00000463,-0.00000418,0.00114324,-0.0112
 0461,-0.00021689,-0.00414404,-0.35341248,-0.00677328,0.00265055,-0.011
 72399,-0.00048565,0.00135211,0.00061448,0.00015739,-0.00164360,0.00101
 924,0.00053734,-0.00001379,0.00006884,-0.00000194,-0.00000403,-0.00003
 809,-0.00000004,-0.00000320,0.00000166,-0.00000056,-0.00001313,0.00007
 014,-0.00000377,-0.00028192,0.00099717,-0.00001663,0.00000945,-0.00002
 316,-0.00000269,0.00153769,0.00056806,-0.00016425,0.00133988,0.3731697
 7,0.00000519,0.00001067,-0.00025255,-0.00006170,-0.00006156,-0.0003369
 3,0.00005791,0.00009142,0.00001666,-0.00013166,0.00004474,-0.00013892,
 0.00023164,0.00013207,-0.00360664,0.00001202,-0.00015095,-0.00047176,0
 .00005135,0.00001655,0.00014252,-0.00060832,-0.00003859,0.00265431,0.0
 0063967,-0.00665644,-0.03224555,-0.00061714,-0.00096143,-0.00022356,0.
 00052468,0.00002807,-0.00216301,-0.00035789,0.00079594,0.00444225,0.00
 000558,-0.00002117,0.00004145,-0.00000038,0.00000726,0.00002158,0.0000
 0225,0.00000148,0.00013273,-0.00000374,0.00000198,0.00009925,0.0000176
 2,0.00006317,0.00127799,-0.00000762,0.00000850,0.00004976,0.00008876,0
 .00012642,0.00692573,0.00036644,0.00727403,0.02283536,0.00092249,-0.00
 043042,0.00001682,-0.00142778,-0.00050112,0.00000300,0.00000280,0.0014
 0231,-0.00000246,-0.00098900,0.00033071,-0.00011268,0.00203760,0.00145
 140,-0.00005177,-0.00059784,-0.00115819,0.00004995,0.00143836,0.000238
 34,-0.00000517,-0.00440480,-0.00024447,0.00067029,0.00393403,0.0047844
 8,-0.00036446,-0.03953607,-0.02037057,-0.00656296,-0.38415419,-0.16436
 341,-0.08712315,0.00605937,-0.00298366,0.00055088,0.00051276,-0.000707
 61,0.00002315,0.00000866,0.00036998,-0.00000752,0.00001830,-0.00000771
 ,-0.00000075,-0.00003919,-0.00002189,-0.00000409,-0.00004478,-0.000032
 97,-0.00001403,-0.00020736,0.00016843,-0.00000358,-0.00014680,0.000052
 94,-0.00006429,0.00036063,0.00005611,-0.00019186,0.41550864,0.00021794
 ,-0.00010332,0.00000739,-0.00029883,-0.00010391,0.00000434,0.00001777,
 0.00030841,-0.00002782,-0.00021906,0.00013333,0.00007046,0.00062760,0.
 00011662,0.00028980,-0.00018173,-0.00034184,-0.00004047,0.00029431,0.0
 0003789,0.00000012,-0.00038329,0.00103260,-0.00060394,0.00319960,-0.00
 242229,-0.00113150,0.03032556,0.01133849,0.00744936,-0.21379394,-0.141
 67104,-0.05973731,-0.00059538,-0.00029193,-0.00078684,0.00010788,-0.00
 018299,-0.00001071,0.00001249,0.00011097,-0.00000009,0.00000029,0.0000
 0006,-0.00000685,0.00001285,-0.00001703,0.00000552,0.00000107,0.000020
 80,-0.00000086,-0.00003636,0.00004788,-0.00000143,0.00001731,0.0000076
 7,-0.00010629,0.00019716,0.00027475,0.00003272,0.17855074,0.13568680,-
 0.00027579,0.00013888,-0.00006006,0.00041288,0.00014696,0.00003463,-0.
 00005216,-0.00043006,0.00002871,0.00035317,-0.00011743,-0.00039683,-0.
 00070452,-0.00045820,-0.00060999,0.00023098,0.00042282,0.00026388,-0.0
 0040371,-0.00006292,-0.00001966,0.00200239,-0.00023767,0.00262208,-0.0
 0062589,-0.00100461,0.00314242,0.00887928,0.00219212,-0.00392102,-0.10
 306743,-0.05442854,-0.02879850,0.00018361,-0.00075018,-0.00344672,-0.0
 0012209,0.00020831,0.00005221,-0.00000469,-0.00010764,0.00001881,-0.00
 000225,0.00000225,0.00001507,-0.00000157,0.00001318,-0.00001401,0.0000
 0520,-0.00001527,-0.00003079,0.00005380,-0.00005483,0.00000869,-0.0000
 4793,-0.00000485,0.00014078,-0.00004465,-0.00005645,-0.00094341,0.0937
 9735,0.05318903,0.02969889,0.00067762,-0.00033989,0.00005514,-0.001067
 77,-0.00041816,0.00000693,0.00001923,0.00107050,-0.00001389,-0.0007052
 8,0.00030571,0.00001375,0.00170137,0.00068251,-0.00016128,-0.00054288,
 -0.00092062,-0.00013080,0.00108942,0.00018567,-0.00000449,-0.00300219,
 0.00098992,0.00017573,0.00630911,0.00068034,0.00145887,-0.00540602,-0.
 00121864,-0.00174458,0.00052456,0.00425967,0.00021908,-0.42577876,-0.1
 7126381,0.11489019,0.00039598,-0.00053663,-0.00000078,0.00000610,0.000
 28517,0.00000345,0.00000870,-0.00000436,0.00000647,-0.00002430,-0.0000
 2354,0.00001047,-0.00003473,-0.00000426,-0.00000017,-0.00015709,0.0001
 2812,-0.00000001,0.00029615,-0.00020607,0.00021262,-0.00006994,0.00009
 255,-0.00002318,0.00078791,0.00193304,-0.00057478,0.42500678,0.0005659
 1,-0.00021054,0.00002950,-0.00090568,-0.00028119,0.00003068,-0.0000645
 5,0.00084565,-0.00001473,-0.00049124,0.00029036,-0.00002326,0.00105608
 ,0.00083451,0.00024117,-0.00026908,-0.00071057,-0.00006457,0.00089519,
 0.00013104,-0.00001155,-0.00101246,0.00048917,0.00020696,0.00549275,-0
 .00503412,-0.00053903,-0.04951277,-0.02382764,0.01077946,0.00191850,0.
 00505501,-0.00098590,-0.12403075,-0.09366182,0.03097289,0.00038663,-0.
 00055742,0.00000708,0.00002572,0.00032197,-0.00000603,0.00001691,-0.00
 000196,-0.00000510,-0.00003379,0.00000316,-0.00000965,-0.00003487,0.00
 001020,-0.00003533,-0.00012854,0.00011998,-0.00000866,-0.00055561,0.00
 039692,-0.00024886,-0.00119917,-0.00017815,-0.00074066,0.00351346,-0.0
 0395698,0.00138516,0.16439799,0.11998428,0.00025225,-0.00014185,-0.000
 15254,-0.00041059,-0.00019828,-0.00000360,0.00003744,0.00046386,-0.000
 02051,-0.00033727,0.00012845,-0.00008155,0.00075667,0.00029191,0.00011
 532,-0.00022581,-0.00043895,0.00019143,0.00042811,0.00007745,0.0000005
 0,-0.00155505,0.00064839,-0.00076994,0.00251913,-0.00229239,0.00239507
 ,-0.00857179,-0.00660462,-0.00357644,0.00026302,-0.00063707,-0.0032412
 5,0.12208953,0.04871089,-0.03524013,0.00014025,-0.00020913,-0.00001369
 ,0.00000399,0.00011076,0.00003535,0.00000265,-0.00000142,0.00000478,-0
 .00000144,-0.00001134,0.00004050,-0.00000770,0.00002815,0.00012249,-0.
 00005977,0.00005262,0.00002607,0.00030117,-0.00000249,-0.00005015,-0.0
 0061219,-0.00038724,0.00175173,-0.00060464,0.00140504,0.00221862,-0.11
 439692,-0.04096259,0.03625820,-0.00018688,-0.00003512,0.00000330,0.000
 31442,-0.00030068,0.00000391,0.00146898,-0.00215687,0.00002265,-0.0002
 8765,-0.00041389,0.00000737,0.00013124,0.00007401,0.00000361,0.0000030
 2,0.00015202,-0.00000760,0.00003550,0.00014791,-0.00000179,0.00015018,
 -0.00003825,-0.00000420,-0.00013999,0.00000626,0.00000240,0.00018033,0
 .00007557,0.00000063,-0.00010087,0.00002896,0.00001090,-0.00004159,-0.
 00007659,-0.00001377,0.00775870,-0.00298542,0.00003260,-0.30936013,0.0
 9722911,-0.00100268,0.00001882,-0.00001828,0.00000013,0.00023299,0.000
 32755,-0.00000435,0.00000667,0.00002263,-0.00000023,-0.00003384,-0.000
 09700,0.00000136,0.00002470,0.00000165,0.00000079,0.00000022,-0.000000
 01,-0.00000003,0.00001953,0.00000266,-0.00000390,0.00001500,0.00001456
 ,0.00000531,0.32154061,-0.00048943,-0.00044047,0.00001036,0.00216338,-
 0.00072056,0.00000878,-0.00261342,-0.00515018,0.00008187,-0.00106390,-
 0.00048953,0.00000972,0.00052660,0.00030693,-0.00000316,-0.00002243,0.
 00008571,-0.00000716,-0.00035027,0.00016995,-0.00000362,-0.00020251,-0
 .00012352,0.00000312,0.00023526,0.00003675,0.00000518,-0.00022526,-0.0
 0015016,-0.00000572,0.00013127,-0.00003965,-0.00001509,0.00004324,0.00
 013829,0.00001761,0.03707137,-0.02844551,0.00033009,0.08125536,-0.0749
 5496,0.00023656,0.00013457,-0.00009055,0.00000078,0.00024048,0.0004721
 2,-0.00001282,0.00002139,0.00003564,-0.00000076,0.00022321,-0.00025763
 ,0.00000547,0.00002876,-0.00000145,-0.00000080,-0.00000745,0.00000398,
 -0.00000104,-0.00001938,-0.00000688,0.00000686,-0.00001516,-0.00001518
 ,-0.00000647,-0.10004359,0.09936526,0.00000695,0.00000506,-0.00003835,
 -0.00002802,0.00001648,0.00033881,0.00003341,0.00007443,0.00052403,0.0
 0001455,0.00000838,0.00021512,-0.00000730,-0.00000157,0.00014508,0.,-0
 .00000241,-0.00002189,0.00000388,-0.00000505,-0.00013856,0.00000180,0.
 00000223,0.00002339,-0.00000264,-0.00000147,0.00000243,0.00000174,0.00
 000237,-0.00000837,-0.00000168,0.00000131,-0.00000001,0.00000076,-0.00
 000214,0.00000165,-0.00049428,0.00038049,-0.00011969,-0.00079269,0.000
 21425,-0.05062860,-0.00000171,0.00000070,-0.00003033,-0.00000271,-0.00
 001299,-0.00046925,-0.00000041,-0.00000078,-0.00001631,-0.00000250,0.0
 0000575,0.00020821,-0.00000002,-0.00000038,-0.00000847,0.00000021,-0.0
 0000002,-0.00000099,0.00000046,-0.00000025,0.00000230,-0.00000045,0.00
 000062,0.00000028,0.00102412,-0.00058578,0.04660748,0.00021828,0.00003
 867,-0.00001871,0.00036693,0.00014264,-0.00027649,0.00080536,0.0009993
 3,0.00135346,0.00021086,-0.00084158,0.00010411,-0.00013927,0.00026101,
 -0.00045462,0.00006010,-0.00036074,-0.00003606,-0.00027610,-0.00010601
 ,0.00010726,-0.00016188,0.00002055,0.00002250,0.00022910,0.00000658,0.
 00000913,-0.00029334,-0.00012879,0.00000489,0.00017322,-0.00005075,-0.
 00002011,0.00006815,0.00013441,0.00002195,0.00111813,-0.00273953,0.001
 06067,-0.11436553,-0.03562846,-0.10682935,0.00001471,-0.00001236,0.000
 01010,-0.00089074,0.00078121,0.00112065,0.00000043,-0.00000632,0.00005
 125,0.00011441,0.00022762,-0.00013655,-0.00001577,0.00000303,-0.000002
 88,-0.00000928,0.00000049,-0.00000119,-0.00003200,-0.00000452,0.000003
 94,-0.00002416,-0.00002293,-0.00000948,-0.01090219,-0.00884094,-0.0250
 3326,0.11560643,-0.00053001,0.00007912,0.00007799,-0.00046533,-0.00170
 052,0.00069343,-0.00617685,0.00451936,-0.00167864,0.00064000,0.0006749
 7,0.00027659,0.00053186,-0.00007386,0.00026261,0.00035715,0.00026678,0
 .00005704,0.00086528,-0.00034748,0.00011568,-0.00033569,-0.00012734,-0
 .00001857,0.00037054,0.00003775,0.00001412,-0.00038770,-0.00021426,-0.
 00000618,0.00023752,-0.00008199,-0.00002605,0.00007254,0.00020836,0.00
 003265,-0.01443926,-0.02691229,-0.02553441,-0.03189367,-0.06787787,-0.
 05700242,0.00001964,-0.00000955,-0.00007438,0.00091986,-0.00039416,-0.
 00092305,0.00001607,0.00001670,-0.00004293,0.00040914,0.00096697,-0.00
 036497,0.00000829,-0.00000221,-0.00001235,-0.00000224,0.00000279,-0.00
 000155,-0.00003839,-0.00000918,0.00001076,-0.00003024,-0.00002298,-0.0
 0001083,0.00407973,0.00527878,0.00954300,0.04065802,0.08066652,-0.0001
 3374,0.00010243,-0.00001585,0.00019086,-0.00055330,-0.00024150,-0.0008
 3566,0.00090642,0.00070123,-0.00072892,-0.00089831,-0.00019889,0.00031
 842,0.00036504,-0.00015580,0.00002732,0.00005960,-0.00004623,0.0001647
 1,0.00020707,0.00002232,-0.00001172,-0.00010907,0.00002766,0.00002812,
 0.00003437,0.00000674,0.00000276,-0.00007576,-0.00000876,-0.00000720,0
 .00000919,0.00000073,-0.00000124,0.00006219,0.00001027,0.00446921,0.00
 031101,0.00905091,-0.10731033,-0.06300268,-0.23711468,0.00000807,-0.00
 000484,0.00001550,0.00080498,0.00000345,-0.00007309,0.00001436,0.00005
 544,0.00001373,-0.00001400,0.00008009,0.,0.00005178,-0.00000763,-0.000
 01837,-0.00000933,0.00000504,-0.00000445,0.00000504,-0.00000571,-0.000
 00044,0.00000235,-0.00000638,-0.00000626,0.00193139,0.00110749,0.00158
 940,0.11508737,0.06829784,0.24495369,0.00022092,0.00003908,0.00000727,
 0.00036601,0.00015361,0.00027418,0.00080394,0.00094676,-0.00137564,0.0
 0021591,-0.00083471,-0.00007646,-0.00013964,0.00027544,0.00043438,0.00
 005883,-0.00036257,0.00006258,-0.00027702,-0.00010998,-0.00010294,-0.0
 0016333,0.00001942,-0.00001659,0.00023017,0.00000731,-0.00001341,-0.00
 029387,-0.00012920,-0.00001018,0.00017227,-0.00004943,-0.00001479,0.00
 006912,0.00013341,0.00002417,0.00108366,-0.00276490,-0.00096256,-0.113
 86040,-0.03267325,0.10745244,0.00001482,-0.00001275,-0.00000939,-0.000
 90081,0.00074090,-0.00113834,0.00000047,-0.00000833,-0.00005167,0.0001
 1434,0.00023046,0.00013062,-0.00001470,0.00000142,-0.00000007,-0.00000
 917,0.00000060,0.00000157,-0.00003127,-0.00000515,0.00000875,-0.000024
 80,-0.00002226,-0.00000688,-0.01084777,-0.00818117,0.02527980,0.008124
 18,0.00511371,-0.01405459,0.11508815,-0.00052917,0.00007533,-0.0000846
 5,-0.00047217,-0.00170805,-0.00065364,-0.00614912,0.00454939,0.0015778
 4,0.00065342,0.00068154,-0.00030333,0.00052236,-0.00009214,-0.00026120
 ,0.00035813,0.00026662,-0.00006016,0.00086125,-0.00035189,-0.00010805,
 -0.00033499,-0.00012622,0.00003042,0.00037080,0.00003685,-0.00001515,-
 0.00038844,-0.00021279,0.00000240,0.00023866,-0.00008219,-0.00003058,0
 .00007022,0.00020854,0.00002729,-0.01448554,-0.02629631,0.02651643,-0.
 02894028,-0.06482223,0.05251758,0.00001883,-0.00000674,0.00007470,0.00
 088341,-0.00036376,0.00091860,0.00001564,0.00001670,0.00004206,0.00040
 894,0.00097136,0.00034094,0.00000465,-0.00000121,0.00000928,-0.0000016
 6,0.00000268,-0.00000162,-0.00003911,-0.00000890,0.00001232,-0.0000298
 1,-0.00002374,-0.00001284,0.00400307,0.00499281,-0.00964222,0.00546936
 ,0.00505559,-0.00694299,0.03749157,0.07723875,0.00014706,-0.00010537,-
 0.00001484,-0.00018009,0.00059285,-0.00023381,0.00099840,-0.00101819,0
 .00068501,0.00070971,0.00087782,-0.00022150,-0.00033257,-0.00036785,-0
 .00013585,-0.00003741,-0.00006530,-0.00004403,-0.00018710,-0.00019659,
 0.00003045,0.00002153,0.00011315,0.00002838,-0.00003859,-0.00003502,0.
 00000762,0.00000743,0.00007743,-0.00000189,-0.00000125,-0.00000613,0.0
 0000338,0.00000142,-0.00006668,0.00000262,-0.00406039,0.00065363,0.008
 35625,0.10784028,0.05850634,-0.24061366,-0.00000861,0.00000566,0.00001
 399,-0.00082527,-0.00000098,-0.00009204,-0.00001495,-0.00005527,0.0000
 1471,0.00000296,-0.00010684,-0.00000735,-0.00005185,0.00000744,-0.0000
 1936,0.00000927,-0.00000492,-0.00000357,-0.00000354,0.00000629,-0.0000
 0564,-0.00000371,0.00000877,-0.00000428,-0.00201192,-0.00118145,0.0018
 2263,0.01386143,0.00631462,-0.01850785,-0.11584225,-0.06395341,0.24894
 065\\-0.00003651,0.00001359,0.00000069,0.00002430,-0.00001465,-0.00000
 022,0.00010076,-0.00006693,-0.00000198,-0.00001995,0.00003795,0.000000
 30,0.00000243,-0.00001284,-0.00000247,0.00002403,0.00002511,0.00000101
 ,-0.00003476,-0.00002207,0.00000114,0.00003852,-0.00000460,-0.00000208
 ,-0.00002035,0.00001060,-0.00000557,-0.00000636,0.00001283,0.00000098,
 -0.00000054,-0.00003395,-0.00000209,-0.00002596,0.00001542,0.00001826,
 -0.00004635,0.00008426,0.00000387,-0.00002204,-0.00009079,-0.00000107,
 0.00001687,-0.00000058,0.00000113,-0.00000541,-0.00001190,0.00000020,-
 0.00000162,0.00000016,0.00000055,-0.00001528,0.00000934,0.00000065,-0.
 00000628,0.00000083,0.00000190,0.00001411,0.00000297,0.00000072,0.0000
 0371,0.00002271,-0.00000291,0.00000890,0.00000464,-0.00001306,-0.00000
 313,-0.00000885,0.00000006,0.00000505,0.00001370,0.00000371,0.00000585
 ,0.00001302,-0.00000370\\\@


 BUT 'GLORY' DOESN'T MEAN 'A NICE KNOCK DOWN ARGUMENT', ALICE OBJECTED.
 WHEN I USE A WORD, HUMPTY DUMPTY SAID, IN A RATHER SCORNFUL TONE,
 IT MEANS JUST WHAT I CHOOSE IT TO MEAN....
 NEITHER MORE NOR LESS....
 THE QUESTION IS, SAID ALICE,
 WHETHER YOU CAN MAKE WORDS MEAN SO MANY DIFFERENT THINGS...
 THE QUESTION IS, SAID HUMPTY DUMPTY,
 WHICH IS TO BE MASTER....
 THAT IS ALL.....

 ALICE THROUGH THE LOOKING GLASS
 Job cpu time:       0 days  1 hours 24 minutes 16.5 seconds.
 File lengths (MBytes):  RWF=    264 Int=      0 D2E=      0 Chk=      9 Scr=      1
 Normal termination of Gaussian 09 at Tue May 28 18:44:08 2024.
