 Entering Gaussian System, Link 0=g09
 Input=b3lypFAyanggd3.gjf
 Output=b3lypFAyanggd3.log
 Initial command:
 /home/phzd/g09E/g09/l1.exe "/home/phzd/g09E/scratch/Gau-74970.inp" -scrdir="/home/phzd/g09E/scratch/"
 Default is to use a total of  18 processors:
                               18 via shared-memory
                                1 via Linda
 Entering Link 1 = /home/phzd/g09E/g09/l1.exe PID=     74972.
  
 Copyright (c) 1988,1990,1992,1993,1995,1998,2003,2009,2015,
            Gaussian, Inc.  All Rights Reserved.
  
 This is part of the Gaussian(R) 09 program.  It is based on
 the Gaussian(R) 03 system (copyright 2003, Gaussian, Inc.),
 the Gaussian(R) 98 system (copyright 1998, Gaussian, Inc.),
 the Gaussian(R) 94 system (copyright 1995, Gaussian, Inc.),
 the Gaussian 92(TM) system (copyright 1992, Gaussian, Inc.),
 the Gaussian 90(TM) system (copyright 1990, Gaussian, Inc.),
 the Gaussian 88(TM) system (copyright 1988, Gaussian, Inc.),
 the Gaussian 86(TM) system (copyright 1986, Carnegie Mellon
 University), and the Gaussian 82(TM) system (copyright 1983,
 Carnegie Mellon University). Gaussian is a federally registered
 trademark of Gaussian, Inc.
  
 This software contains proprietary and confidential information,
 including trade secrets, belonging to Gaussian, Inc.
  
 This software is provided under written license and may be
 used, copied, transmitted, or stored only in accord with that
 written license.
  
 The following legend is applicable only to US Government
 contracts under FAR:
  
                    RESTRICTED RIGHTS LEGEND
  
 Use, reproduction and disclosure by the US Government is
 subject to restrictions as set forth in subparagraphs (a)
 and (c) of the Commercial Computer Software - Restricted
 Rights clause in FAR 52.227-19.
  
 Gaussian, Inc.
 340 Quinnipiac St., Bldg. 40, Wallingford CT 06492
  
  
 ---------------------------------------------------------------
 Warning -- This program may not be used in any manner that
 competes with the business of Gaussian, Inc. or will provide
 assistance to any competitor of Gaussian, Inc.  The licensee
 of this program is prohibited from giving any competitor of
 Gaussian, Inc. access to this program.  By using this program,
 the user acknowledges that Gaussian, Inc. is engaged in the
 business of creating and licensing software in the field of
 computational chemistry and represents and warrants to the
 licensee that it is not a competitor of Gaussian, Inc. and that
 it will not use this program in any manner prohibited above.
 ---------------------------------------------------------------
  

 Cite this work as:
 Gaussian 09, Revision E.01,
 M. J. Frisch, G. W. Trucks, H. B. Schlegel, G. E. Scuseria, 
 M. A. Robb, J. R. Cheeseman, G. Scalmani, V. Barone, B. Mennucci, 
 G. A. Petersson, H. Nakatsuji, M. Caricato, X. Li, H. P. Hratchian, 
 A. F. Izmaylov, J. Bloino, G. Zheng, J. L. Sonnenberg, M. Hada, 
 M. Ehara, K. Toyota, R. Fukuda, J. Hasegawa, M. Ishida, T. Nakajima, 
 Y. Honda, O. Kitao, H. Nakai, T. Vreven, J. A. Montgomery, Jr., 
 J. E. Peralta, F. Ogliaro, M. Bearpark, J. J. Heyd, E. Brothers, 
 K. N. Kudin, V. N. Staroverov, T. Keith, R. Kobayashi, J. Normand, 
 K. Raghavachari, A. Rendell, J. C. Burant, S. S. Iyengar, J. Tomasi, 
 M. Cossi, N. Rega, J. M. Millam, M. Klene, J. E. Knox, J. B. Cross, 
 V. Bakken, C. Adamo, J. Jaramillo, R. Gomperts, R. E. Stratmann, 
 O. Yazyev, A. J. Austin, R. Cammi, C. Pomelli, J. W. Ochterski, 
 R. L. Martin, K. Morokuma, V. G. Zakrzewski, G. A. Voth, 
 P. Salvador, J. J. Dannenberg, S. Dapprich, A. D. Daniels, 
 O. Farkas, J. B. Foresman, J. V. Ortiz, J. Cioslowski, 
 and D. J. Fox, Gaussian, Inc., Wallingford CT, 2013.
 
 ******************************************
 Gaussian 09:  ES64L-G09RevE.01 30-Nov-2015
                20-Jun-2024 
 ******************************************
 %chk=b3lypFAyanggd3.chk
 ----------------------------
 # opt freq b3lyp/6-31+g(d,p)
 ----------------------------
 1/14=-1,18=20,19=15,26=3,38=1/1,3;
 2/9=110,12=2,17=6,18=5,40=1/2;
 3/5=1,6=6,7=111,11=2,16=1,25=1,30=1,71=1,74=-5/1,2,3;
 4//1;
 5/5=2,38=5/2;
 6/7=2,8=2,9=2,10=2,28=1/1;
 7//1,2,3,16;
 1/14=-1,18=20,19=15,26=3/3(2);
 2/9=110/2;
 99//99;
 2/9=110/2;
 3/5=1,6=6,7=111,11=2,16=1,25=1,30=1,71=1,74=-5/1,2,3;
 4/5=5,16=3,69=1/1;
 5/5=2,38=5/2;
 7//1,2,3,16;
 1/14=-1,18=20,19=15,26=3/3(-5);
 2/9=110/2;
 6/7=2,8=2,9=2,10=2,19=2,28=1/1;
 99/9=1/99;
 ----------
 [No Title]
 ----------
 Symbolic Z-matrix:
 Charge =  1 Multiplicity = 1
 C                    -2.55336   0.22479  -0.03627 
 C                    -2.50119  -1.115     0.01045 
 C                    -1.30317  -1.73347   0.04937 
 C                    -0.20018  -0.95654   0.02405 
 C                    -0.22631   0.39228  -0.02106 
 C                    -1.44035   0.97061  -0.04948 
 O                    -3.64711  -1.85059   0.01808 
 C                     0.93735   1.07943  -0.03556 
 C                     1.1037    2.4144   -0.07696 
 C                     2.30745   3.01502  -0.08736 
 O                     2.38441   4.23295  -0.09675 
 O                     3.51027   2.37379  -0.05524 
 O                    -1.30443  -3.10854   0.08916 
 C                    -0.08564  -3.80434  -0.02636 
 H                    -3.53908   0.72002  -0.06547 
 H                     0.78337  -1.45214   0.04623 
 H                    -1.57885   2.06172  -0.08811 
 H                    -3.4187   -2.79417   0.03842 
 H                     1.86666   0.48244  -0.01051 
 H                     0.23064   3.08513  -0.10555 
 H                     3.32029   4.55053  -0.15056 
 H                     4.09746   2.81343   0.58036 
 H                    -0.31605  -4.89337  -0.0236 
 H                     0.41135  -3.55592  -0.99056 
 H                     0.56848  -3.5893    0.84773 
 

 GradGradGradGradGradGradGradGradGradGradGradGradGradGradGradGradGradGrad
 Berny optimization.
 Initialization pass.
                           ----------------------------
                           !    Initial Parameters    !
                           ! (Angstroms and Degrees)  !
 --------------------------                            --------------------------
 ! Name  Definition              Value          Derivative Info.                !
 --------------------------------------------------------------------------------
 ! R1    R(1,2)                  1.3416         estimate D2E/DX2                !
 ! R2    R(1,6)                  1.3399         estimate D2E/DX2                !
 ! R3    R(1,15)                 1.1035         estimate D2E/DX2                !
 ! R4    R(2,3)                  1.3488         estimate D2E/DX2                !
 ! R5    R(2,7)                  1.3617         estimate D2E/DX2                !
 ! R6    R(3,4)                  1.3494         estimate D2E/DX2                !
 ! R7    R(3,13)                 1.3756         estimate D2E/DX2                !
 ! R8    R(4,5)                  1.3498         estimate D2E/DX2                !
 ! R9    R(4,16)                 1.1016         estimate D2E/DX2                !
 ! R10   R(5,6)                  1.3451         estimate D2E/DX2                !
 ! R11   R(5,8)                  1.3515         estimate D2E/DX2                !
 ! R12   R(6,17)                 1.1005         estimate D2E/DX2                !
 ! R13   R(7,18)                 0.9711         estimate D2E/DX2                !
 ! R14   R(8,9)                  1.3459         estimate D2E/DX2                !
 ! R15   R(8,19)                 1.1048         estimate D2E/DX2                !
 ! R16   R(9,10)                 1.3453         estimate D2E/DX2                !
 ! R17   R(9,20)                 1.1013         estimate D2E/DX2                !
 ! R18   R(10,11)                1.2204         estimate D2E/DX2                !
 ! R19   R(10,12)                1.3634         estimate D2E/DX2                !
 ! R20   R(11,21)                0.9898         estimate D2E/DX2                !
 ! R21   R(12,22)                0.9706         estimate D2E/DX2                !
 ! R22   R(13,14)                1.4082         estimate D2E/DX2                !
 ! R23   R(14,23)                1.1131         estimate D2E/DX2                !
 ! R24   R(14,24)                1.1128         estimate D2E/DX2                !
 ! R25   R(14,25)                1.1127         estimate D2E/DX2                !
 ! A1    A(2,1,6)              121.5956         estimate D2E/DX2                !
 ! A2    A(2,1,15)             118.9353         estimate D2E/DX2                !
 ! A3    A(6,1,15)             119.4691         estimate D2E/DX2                !
 ! A4    A(1,2,3)              119.5677         estimate D2E/DX2                !
 ! A5    A(1,2,7)              120.4589         estimate D2E/DX2                !
 ! A6    A(3,2,7)              119.9734         estimate D2E/DX2                !
 ! A7    A(2,3,4)              117.4822         estimate D2E/DX2                !
 ! A8    A(2,3,13)             117.2814         estimate D2E/DX2                !
 ! A9    A(4,3,13)             125.2269         estimate D2E/DX2                !
 ! A10   A(3,4,5)              124.0658         estimate D2E/DX2                !
 ! A11   A(3,4,16)             118.0604         estimate D2E/DX2                !
 ! A12   A(5,4,16)             117.8732         estimate D2E/DX2                !
 ! A13   A(4,5,6)              116.6038         estimate D2E/DX2                !
 ! A14   A(4,5,8)              119.4563         estimate D2E/DX2                !
 ! A15   A(6,5,8)              123.9399         estimate D2E/DX2                !
 ! A16   A(1,6,5)              120.6799         estimate D2E/DX2                !
 ! A17   A(1,6,17)             116.5948         estimate D2E/DX2                !
 ! A18   A(5,6,17)             122.725          estimate D2E/DX2                !
 ! A19   A(2,7,18)             109.0913         estimate D2E/DX2                !
 ! A20   A(5,8,9)              127.6656         estimate D2E/DX2                !
 ! A21   A(5,8,19)             116.6965         estimate D2E/DX2                !
 ! A22   A(9,8,19)             115.6379         estimate D2E/DX2                !
 ! A23   A(8,9,10)             123.6172         estimate D2E/DX2                !
 ! A24   A(8,9,20)             120.4564         estimate D2E/DX2                !
 ! A25   A(10,9,20)            115.9265         estimate D2E/DX2                !
 ! A26   A(9,10,11)            120.1346         estimate D2E/DX2                !
 ! A27   A(9,10,12)            125.3953         estimate D2E/DX2                !
 ! A28   A(11,10,12)           114.4502         estimate D2E/DX2                !
 ! A29   A(10,11,21)           112.3504         estimate D2E/DX2                !
 ! A30   A(10,12,22)           109.6395         estimate D2E/DX2                !
 ! A31   A(3,13,14)            119.39           estimate D2E/DX2                !
 ! A32   A(13,14,23)           107.7021         estimate D2E/DX2                !
 ! A33   A(13,14,24)           110.3232         estimate D2E/DX2                !
 ! A34   A(13,14,25)           110.4177         estimate D2E/DX2                !
 ! A35   A(23,14,24)           108.2389         estimate D2E/DX2                !
 ! A36   A(23,14,25)           107.9871         estimate D2E/DX2                !
 ! A37   A(24,14,25)           112.021          estimate D2E/DX2                !
 ! D1    D(6,1,2,3)              0.2055         estimate D2E/DX2                !
 ! D2    D(6,1,2,7)           -179.763          estimate D2E/DX2                !
 ! D3    D(15,1,2,3)          -179.8602         estimate D2E/DX2                !
 ! D4    D(15,1,2,7)             0.1713         estimate D2E/DX2                !
 ! D5    D(2,1,6,5)              0.2519         estimate D2E/DX2                !
 ! D6    D(2,1,6,17)          -179.9717         estimate D2E/DX2                !
 ! D7    D(15,1,6,5)          -179.6821         estimate D2E/DX2                !
 ! D8    D(15,1,6,17)            0.0943         estimate D2E/DX2                !
 ! D9    D(1,2,3,4)             -0.7171         estimate D2E/DX2                !
 ! D10   D(1,2,3,13)          -179.6561         estimate D2E/DX2                !
 ! D11   D(7,2,3,4)            179.2515         estimate D2E/DX2                !
 ! D12   D(7,2,3,13)             0.3125         estimate D2E/DX2                !
 ! D13   D(1,2,7,18)           179.033          estimate D2E/DX2                !
 ! D14   D(3,2,7,18)            -0.9354         estimate D2E/DX2                !
 ! D15   D(2,3,4,5)              0.8397         estimate D2E/DX2                !
 ! D16   D(2,3,4,16)          -179.4571         estimate D2E/DX2                !
 ! D17   D(13,3,4,5)           179.6853         estimate D2E/DX2                !
 ! D18   D(13,3,4,16)           -0.6116         estimate D2E/DX2                !
 ! D19   D(2,3,13,14)          172.6501         estimate D2E/DX2                !
 ! D20   D(4,3,13,14)           -6.1975         estimate D2E/DX2                !
 ! D21   D(3,4,5,6)             -0.3989         estimate D2E/DX2                !
 ! D22   D(3,4,5,8)            179.6211         estimate D2E/DX2                !
 ! D23   D(16,4,5,6)           179.8974         estimate D2E/DX2                !
 ! D24   D(16,4,5,8)            -0.0826         estimate D2E/DX2                !
 ! D25   D(4,5,6,1)             -0.1597         estimate D2E/DX2                !
 ! D26   D(4,5,6,17)          -179.922          estimate D2E/DX2                !
 ! D27   D(8,5,6,1)            179.8194         estimate D2E/DX2                !
 ! D28   D(8,5,6,17)             0.057          estimate D2E/DX2                !
 ! D29   D(4,5,8,9)           -179.9006         estimate D2E/DX2                !
 ! D30   D(4,5,8,19)             0.0887         estimate D2E/DX2                !
 ! D31   D(6,5,8,9)              0.121          estimate D2E/DX2                !
 ! D32   D(6,5,8,19)          -179.8898         estimate D2E/DX2                !
 ! D33   D(5,8,9,10)           179.9437         estimate D2E/DX2                !
 ! D34   D(5,8,9,20)            -0.1047         estimate D2E/DX2                !
 ! D35   D(19,8,9,10)           -0.0456         estimate D2E/DX2                !
 ! D36   D(19,8,9,20)          179.9059         estimate D2E/DX2                !
 ! D37   D(8,9,10,11)         -178.4305         estimate D2E/DX2                !
 ! D38   D(8,9,10,12)           -0.1479         estimate D2E/DX2                !
 ! D39   D(20,9,10,11)           1.6159         estimate D2E/DX2                !
 ! D40   D(20,9,10,12)         179.8985         estimate D2E/DX2                !
 ! D41   D(9,10,11,21)        -177.0673         estimate D2E/DX2                !
 ! D42   D(12,10,11,21)          4.4705         estimate D2E/DX2                !
 ! D43   D(9,10,12,22)        -135.098          estimate D2E/DX2                !
 ! D44   D(11,10,12,22)         43.2705         estimate D2E/DX2                !
 ! D45   D(3,13,14,23)        -177.0852         estimate D2E/DX2                !
 ! D46   D(3,13,14,24)         -59.1442         estimate D2E/DX2                !
 ! D47   D(3,13,14,25)          65.2242         estimate D2E/DX2                !
 --------------------------------------------------------------------------------
 Trust Radius=3.00D-01 FncErr=1.00D-07 GrdErr=1.00D-06
 Number of steps in this run=    119 maximum allowed number of steps=    150.
 GradGradGradGradGradGradGradGradGradGradGradGradGradGradGradGradGradGrad

                          Input orientation:                          
 ---------------------------------------------------------------------
 Center     Atomic      Atomic             Coordinates (Angstroms)
 Number     Number       Type             X           Y           Z
 ---------------------------------------------------------------------
      1          6           0       -2.553361    0.224792   -0.036267
      2          6           0       -2.501187   -1.115002    0.010448
      3          6           0       -1.303168   -1.733470    0.049372
      4          6           0       -0.200182   -0.956540    0.024048
      5          6           0       -0.226306    0.392282   -0.021056
      6          6           0       -1.440352    0.970608   -0.049479
      7          8           0       -3.647114   -1.850588    0.018080
      8          6           0        0.937349    1.079431   -0.035556
      9          6           0        1.103698    2.414399   -0.076962
     10          6           0        2.307452    3.015015   -0.087355
     11          8           0        2.384412    4.232951   -0.096753
     12          8           0        3.510268    2.373785   -0.055238
     13          8           0       -1.304426   -3.108536    0.089162
     14          6           0       -0.085643   -3.804342   -0.026359
     15          1           0       -3.539084    0.720024   -0.065468
     16          1           0        0.783372   -1.452142    0.046232
     17          1           0       -1.578848    2.061716   -0.088112
     18          1           0       -3.418696   -2.794174    0.038422
     19          1           0        1.866659    0.482444   -0.010511
     20          1           0        0.230641    3.085131   -0.105548
     21          1           0        3.320289    4.550535   -0.150563
     22          1           0        4.097461    2.813433    0.580360
     23          1           0       -0.316047   -4.893369   -0.023604
     24          1           0        0.411351   -3.555923   -0.990562
     25          1           0        0.568477   -3.589303    0.847732
 ---------------------------------------------------------------------
                    Distance matrix (angstroms):
                    1          2          3          4          5
     1  C    0.000000
     2  C    1.341623   0.000000
     3  C    2.324889   1.348802   0.000000
     4  C    2.633749   2.306495   1.349385   0.000000
     5  C    2.333124   2.729099   2.383991   1.349829   0.000000
     6  C    1.339853   2.340669   2.709359   2.292886   1.345056
     7  O    2.346583   1.361725   2.347079   3.560997   4.090712
     8  C    3.593809   4.079361   3.597157   2.332961   1.351472
     9  C    4.262642   5.045742   4.797268   3.615734   2.420949
    10  C    5.604949   6.339528   5.966857   4.698286   3.647335
    11  O    6.360079   7.244389   7.015538   5.798753   4.644601
    12  O    6.433205   6.950794   6.328480   4.986461   4.229599
    13  O    3.561832   2.326502   1.375642   2.419645   3.664726
    14  C    4.724791   3.615074   2.403459   2.850550   4.198984
    15  H    1.103520   2.109577   3.321467   3.737265   3.329247
    16  H    3.735331   3.302010   2.105423   1.101586   2.103777
    17  H    2.080061   3.309375   3.807668   3.320116   2.149622
    18  H    3.141423   1.913694   2.366574   3.706203   4.510919
    19  H    4.427598   4.650844   3.868031   2.518670   2.094933
    20  H    3.992118   5.011732   5.059198   4.066634   2.732650
    21  H    7.295538   8.124889   7.804169   6.538507   5.466825
    22  H    7.163430   7.700621   7.079765   5.743859   4.991857
    23  H    5.585813   4.364866   3.311298   3.938822   5.286413
    24  H    4.898367   3.929757   2.709681   2.856606   4.115200
    25  H    5.007459   4.030639   2.754006   2.863692   4.152047
                    6          7          8          9         10
     6  C    0.000000
     7  O    3.582389   0.000000
     8  C    2.380231   5.441065   0.000000
     9  C    2.925317   6.385089   1.345929   0.000000
    10  C    4.269317   7.690388   2.371993   1.345315   0.000000
    11  O    5.027319   8.567493   3.470220   2.224354   1.220401
    12  O    5.145637   8.311367   2.880217   2.407011   1.363442
    13  O    4.083762   2.660014   4.751860   6.027393   7.111589
    14  C    4.963458   4.062414   4.989773   6.331653   7.227327
    15  H    2.113699   2.574237   4.490938   4.942314   6.280879
    16  H    3.289958   4.448456   2.537570   3.881742   4.721881
    17  H    1.100541   4.426638   2.701646   2.705654   4.001513
    18  H    4.253840   0.971053   5.829701   6.898884   8.157896
    19  H    3.343074   5.987115   1.104825   2.078214   2.571793
    20  H    2.695657   6.278024   2.127714   1.101330   2.078074
    21  H    5.957331   9.462955   4.211911   3.079248   1.840559
    22  H    5.870270   9.058018   3.656832   3.090941   1.921096
    23  H    5.970842   4.511791   6.102908   7.444595   8.332428
    24  H    4.980354   4.516267   4.761850   6.079371   6.898421
    25  H    5.062921   4.634939   4.765852   6.098029   6.893144
                   11         12         13         14         15
    11  O    0.000000
    12  O    2.173884   0.000000
    13  O    8.218243   7.297806   0.000000
    14  C    8.408579   7.148473   1.408163   0.000000
    15  H    6.886903   7.240745   4.435705   5.691895   0.000000
    16  H    5.907965   4.699359   2.665405   2.508645   4.838844
    17  H    4.519045   5.098781   5.180564   6.053438   2.375537
    18  H    9.114539   8.644485   2.138115   3.483372   3.517794
    19  H    3.787058   2.506117   4.791748   4.710442   5.411240
    20  H    2.440553   3.356262   6.384031   6.897184   4.450412
    21  H    0.989758   2.187103   8.950242   9.023290   7.856911
    22  H    2.325521   0.970603   8.030652   7.852478   7.944575
    23  H    9.517749   8.212991   2.043340   1.113137   6.473013
    24  H    8.084456   6.755705   2.076018   1.112835   5.894528
    25  H    8.085625   6.710284   2.077097   1.112722   6.022980
                   16         17         18         19         20
    16  H    0.000000
    17  H    4.236193   0.000000
    18  H    4.411177   5.194297   0.000000
    19  H    2.217962   3.790995   6.218810   0.000000
    20  H    4.573335   2.078926   6.921316   3.075641   0.000000
    21  H    6.519724   5.495422   9.969673   4.322270   3.419848
    22  H    5.428039   5.764756   9.393166   3.280109   3.936570
    23  H    3.613259   7.069090   3.746585   5.802046   7.997627
    24  H    2.374708   6.027701   4.038357   4.403048   6.702201
    25  H    2.292605   6.117256   4.145451   4.359011   6.750626
                   21         22         23         24         25
    21  H    0.000000
    22  H    2.038570   0.000000
    23  H   10.120592   8.901608   0.000000
    24  H    8.653449   7.524885   1.803574   0.000000
    25  H    8.650204   7.315753   1.800610   1.845299   0.000000
 Stoichiometry    C10H11O4(1+)
 Framework group  C1[X(C10H11O4)]
 Deg. of freedom    69
 Full point group                 C1      NOp   1
 Largest Abelian subgroup         C1      NOp   1
 Largest concise Abelian subgroup C1      NOp   1
                         Standard orientation:                         
 ---------------------------------------------------------------------
 Center     Atomic      Atomic             Coordinates (Angstroms)
 Number     Number       Type             X           Y           Z
 ---------------------------------------------------------------------
      1          6           0       -1.448744   -1.939991    0.009420
      2          6           0       -2.458004   -1.056377   -0.014468
      3          6           0       -2.185788    0.264443   -0.038953
      4          6           0       -0.887845    0.633133   -0.023102
      5          6           0        0.144799   -0.235883   -0.000891
      6          6           0       -0.168819   -1.543785    0.013720
      7          8           0       -3.750617   -1.484682   -0.013471
      8          6           0        1.410982    0.236570    0.005857
      9          6           0        2.553863   -0.474044    0.025244
     10          6           0        3.777949    0.084050    0.029482
     11          8           0        4.773278   -0.622051    0.018547
     12          8           0        4.035562    1.422822    0.012204
     13          8           0       -3.255997    1.128603   -0.055498
     14          6           0       -3.029137    2.512154    0.075816
     15          1           0       -1.683356   -3.018141    0.026971
     16          1           0       -0.654807    1.709736   -0.033638
     17          1           0        0.592735   -2.338037    0.033444
     18          1           0       -4.340733   -0.713518   -0.017102
     19          1           0        1.531058    1.334787   -0.006006
     20          1           0        2.526534   -1.574941    0.039589
     21          1           0        5.609343   -0.094834    0.070089
     22          1           0        4.739610    1.611306   -0.628781
     23          1           0       -4.020681    3.017814    0.090704
     24          1           0       -2.512795    2.729613    1.037327
     25          1           0       -2.460246    2.897052   -0.799608
 ---------------------------------------------------------------------
 Rotational constants (GHZ):      1.5839479      0.2999054      0.2527451
 Standard basis: 6-31+G(d,p) (6D, 7F)
 There are   321 symmetry adapted cartesian basis functions of A   symmetry.
 There are   321 symmetry adapted basis functions of A   symmetry.
   321 basis functions,   525 primitive gaussians,   321 cartesian basis functions
    51 alpha electrons       51 beta electrons
       nuclear repulsion energy       857.9020526495 Hartrees.
 NAtoms=   25 NActive=   25 NUniq=   25 SFac= 1.00D+00 NAtFMM=   60 NAOKFM=F Big=F
 Integral buffers will be    131072 words long.
 Raffenetti 2 integral format.
 Two-electron integral symmetry is turned on.
 One-electron integrals computed using PRISM.
 NBasis=   321 RedAO= T EigKep=  1.49D-06  NBF=   321
 NBsUse=   319 1.00D-06 EigRej=  8.47D-07 NBFU=   319
 ExpMin= 4.38D-02 ExpMax= 5.48D+03 ExpMxC= 8.25D+02 IAcc=2 IRadAn=         4 AccDes= 0.00D+00
 Harris functional with IExCor=  402 and IRadAn=       4 diagonalized for initial guess.
 HarFok:  IExCor=  402 AccDes= 0.00D+00 IRadAn=         4 IDoV= 1 UseB2=F ITyADJ=14
 ICtDFT=  3500011 ScaDFX=  1.000000  1.000000  1.000000  1.000000
 FoFCou: FMM=F IPFlag=           0 FMFlag=      100000 FMFlg1=           0
         NFxFlg=           0 DoJE=T BraDBF=F KetDBF=T FulRan=T
         wScrn=  0.000000 ICntrl=     500 IOpCl=  0 I1Cent=   200000004 NGrid=           0
         NMat0=    1 NMatS0=      1 NMatT0=    0 NMatD0=    1 NMtDS0=    0 NMtDT0=    0
 Petite list used in FoFCou.
 Requested convergence on RMS density matrix=1.00D-08 within 128 cycles.
 Requested convergence on MAX density matrix=1.00D-06.
 Requested convergence on             energy=1.00D-06.
 No special actions if energy rises.
 SCF Done:  E(RB3LYP) =  -688.313862281     A.U. after   16 cycles
            NFock= 16  Conv=0.46D-08     -V/T= 2.0071

 **********************************************************************

            Population analysis using the SCF density.

 **********************************************************************

 Orbital symmetries:
       Occupied  (A) (A) (A) (A) (A) (A) (A) (A) (A) (A) (A) (A)
                 (A) (A) (A) (A) (A) (A) (A) (A) (A) (A) (A) (A)
                 (A) (A) (A) (A) (A) (A) (A) (A) (A) (A) (A) (A)
                 (A) (A) (A) (A) (A) (A) (A) (A) (A) (A) (A) (A)
                 (A) (A) (A)
       Virtual   (A) (A) (A) (A) (A) (A) (A) (A) (A) (A) (A) (A)
                 (A) (A) (A) (A) (A) (A) (A) (A) (A) (A) (A) (A)
                 (A) (A) (A) (A) (A) (A) (A) (A) (A) (A) (A) (A)
                 (A) (A) (A) (A) (A) (A) (A) (A) (A) (A) (A) (A)
                 (A) (A) (A) (A) (A) (A) (A) (A) (A) (A) (A) (A)
                 (A) (A) (A) (A) (A) (A) (A) (A) (A) (A) (A) (A)
                 (A) (A) (A) (A) (A) (A) (A) (A) (A) (A) (A) (A)
                 (A) (A) (A) (A) (A) (A) (A) (A) (A) (A) (A) (A)
                 (A) (A) (A) (A) (A) (A) (A) (A) (A) (A) (A) (A)
                 (A) (A) (A) (A) (A) (A) (A) (A) (A) (A) (A) (A)
                 (A) (A) (A) (A) (A) (A) (A) (A) (A) (A) (A) (A)
                 (A) (A) (A) (A) (A) (A) (A) (A) (A) (A) (A) (A)
                 (A) (A) (A) (A) (A) (A) (A) (A) (A) (A) (A) (A)
                 (A) (A) (A) (A) (A) (A) (A) (A) (A) (A) (A) (A)
                 (A) (A) (A) (A) (A) (A) (A) (A) (A) (A) (A) (A)
                 (A) (A) (A) (A) (A) (A) (A) (A) (A) (A) (A) (A)
                 (A) (A) (A) (A) (A) (A) (A) (A) (A) (A) (A) (A)
                 (A) (A) (A) (A) (A) (A) (A) (A) (A) (A) (A) (A)
                 (A) (A) (A) (A) (A) (A) (A) (A) (A) (A) (A) (A)
                 (A) (A) (A) (A) (A) (A) (A) (A) (A) (A) (A) (A)
                 (A) (A) (A) (A) (A) (A) (A) (A) (A) (A) (A) (A)
                 (A) (A) (A) (A) (A) (A) (A) (A) (A) (A) (A) (A)
                 (A) (A) (A) (A)
 The electronic state is 1-A.
 Alpha  occ. eigenvalues --  -19.40937 -19.38202 -19.32444 -19.32356 -10.51675
 Alpha  occ. eigenvalues --  -10.39999 -10.38799 -10.38307 -10.36533 -10.35628
 Alpha  occ. eigenvalues --  -10.33901 -10.33833 -10.33762 -10.32657  -1.36082
 Alpha  occ. eigenvalues --   -1.23841  -1.22037  -1.19059  -1.04984  -1.00010
 Alpha  occ. eigenvalues --   -0.94222  -0.91439  -0.86997  -0.83760  -0.80375
 Alpha  occ. eigenvalues --   -0.79363  -0.76327  -0.73450  -0.70962  -0.68884
 Alpha  occ. eigenvalues --   -0.67726  -0.65823  -0.64668  -0.63365  -0.60983
 Alpha  occ. eigenvalues --   -0.60735  -0.58007  -0.57186  -0.56360  -0.56240
 Alpha  occ. eigenvalues --   -0.55375  -0.53823  -0.52905  -0.52361  -0.52262
 Alpha  occ. eigenvalues --   -0.48917  -0.47361  -0.46876  -0.45108  -0.39718
 Alpha  occ. eigenvalues --   -0.36855
 Alpha virt. eigenvalues --   -0.25309  -0.16946  -0.14124  -0.13515  -0.11423
 Alpha virt. eigenvalues --   -0.10394  -0.10065  -0.09772  -0.07783  -0.07552
 Alpha virt. eigenvalues --   -0.06870  -0.06531  -0.05731  -0.05129  -0.04759
 Alpha virt. eigenvalues --   -0.03431  -0.03397  -0.02609  -0.02133  -0.01389
 Alpha virt. eigenvalues --   -0.00303   0.00087   0.00698   0.01449   0.01472
 Alpha virt. eigenvalues --    0.02223   0.02391   0.02544   0.03438   0.03610
 Alpha virt. eigenvalues --    0.04092   0.04821   0.05077   0.05587   0.06122
 Alpha virt. eigenvalues --    0.06859   0.07136   0.07640   0.08182   0.08530
 Alpha virt. eigenvalues --    0.09388   0.09726   0.10012   0.10717   0.10817
 Alpha virt. eigenvalues --    0.11346   0.11969   0.12747   0.13412   0.13698
 Alpha virt. eigenvalues --    0.14037   0.14371   0.15135   0.15493   0.16347
 Alpha virt. eigenvalues --    0.16734   0.17041   0.17947   0.18648   0.18835
 Alpha virt. eigenvalues --    0.19540   0.20017   0.20479   0.21301   0.22020
 Alpha virt. eigenvalues --    0.23132   0.23358   0.23895   0.23977   0.24629
 Alpha virt. eigenvalues --    0.26123   0.26572   0.27357   0.29003   0.29080
 Alpha virt. eigenvalues --    0.29808   0.31919   0.32717   0.34505   0.36754
 Alpha virt. eigenvalues --    0.39017   0.41039   0.48951   0.51540   0.52274
 Alpha virt. eigenvalues --    0.53473   0.54654   0.55099   0.55292   0.56167
 Alpha virt. eigenvalues --    0.57790   0.58923   0.60222   0.60690   0.61464
 Alpha virt. eigenvalues --    0.61970   0.62362   0.64374   0.65241   0.66407
 Alpha virt. eigenvalues --    0.67174   0.71642   0.71902   0.72739   0.73432
 Alpha virt. eigenvalues --    0.76228   0.76814   0.78195   0.79388   0.79652
 Alpha virt. eigenvalues --    0.82169   0.83365   0.85257   0.88180   0.90240
 Alpha virt. eigenvalues --    0.91903   0.94552   0.94829   0.96291   0.96977
 Alpha virt. eigenvalues --    0.98329   0.98918   1.00644   1.01130   1.03841
 Alpha virt. eigenvalues --    1.04670   1.05213   1.06239   1.07256   1.08083
 Alpha virt. eigenvalues --    1.08918   1.09537   1.10349   1.11147   1.12292
 Alpha virt. eigenvalues --    1.13245   1.14446   1.16303   1.16947   1.17517
 Alpha virt. eigenvalues --    1.18379   1.19952   1.21268   1.23049   1.23765
 Alpha virt. eigenvalues --    1.24553   1.25926   1.27535   1.27972   1.30429
 Alpha virt. eigenvalues --    1.31087   1.33415   1.34507   1.34619   1.40736
 Alpha virt. eigenvalues --    1.42204   1.45517   1.46968   1.50182   1.54309
 Alpha virt. eigenvalues --    1.57129   1.57487   1.61844   1.65356   1.68033
 Alpha virt. eigenvalues --    1.69070   1.69547   1.72309   1.73083   1.74694
 Alpha virt. eigenvalues --    1.75956   1.77086   1.77746   1.79569   1.81233
 Alpha virt. eigenvalues --    1.81530   1.84723   1.84925   1.85570   1.87573
 Alpha virt. eigenvalues --    1.89213   1.89971   1.91560   1.93222   1.93833
 Alpha virt. eigenvalues --    1.94818   1.97557   2.01707   2.04013   2.06594
 Alpha virt. eigenvalues --    2.08595   2.09609   2.10697   2.14415   2.16782
 Alpha virt. eigenvalues --    2.18406   2.20527   2.21196   2.21994   2.23256
 Alpha virt. eigenvalues --    2.25578   2.29424   2.30240   2.33438   2.35281
 Alpha virt. eigenvalues --    2.36542   2.37643   2.39573   2.39708   2.41815
 Alpha virt. eigenvalues --    2.42231   2.43479   2.44809   2.46425   2.48656
 Alpha virt. eigenvalues --    2.50059   2.51150   2.51285   2.51702   2.53655
 Alpha virt. eigenvalues --    2.56727   2.59977   2.61489   2.63889   2.65102
 Alpha virt. eigenvalues --    2.65952   2.68131   2.68350   2.71820   2.72453
 Alpha virt. eigenvalues --    2.74717   2.77497   2.79481   2.86468   2.87373
 Alpha virt. eigenvalues --    2.92645   2.98004   3.01929   3.03639   3.07955
 Alpha virt. eigenvalues --    3.08719   3.10397   3.13527   3.22396   3.23956
 Alpha virt. eigenvalues --    3.26734   3.28697   3.29863   3.33778   3.36451
 Alpha virt. eigenvalues --    3.43036   3.48923   3.50481   3.79760   4.04842
 Alpha virt. eigenvalues --    4.12023   4.18508   4.19350   4.24806   4.27059
 Alpha virt. eigenvalues --    4.33258   4.35974   4.39279   4.44527   4.47027
 Alpha virt. eigenvalues --    4.54851   4.72398   5.04273
          Condensed to atoms (all electrons):
               1          2          3          4          5          6
     1  C    9.969838   1.850077  -3.716759  -0.251057  -0.119932  -0.669237
     2  C    1.850077  13.952294  -1.373440  -5.254328  -0.396354  -1.181865
     3  C   -3.716759  -1.373440  15.523880  -1.047966  -1.623140   0.085218
     4  C   -0.251057  -5.254328  -1.047966  18.514572   2.070881  -2.980485
     5  C   -0.119932  -0.396354  -1.623140   2.070881   9.008964  -0.581020
     6  C   -0.669237  -1.181865   0.085218  -2.980485  -0.581020   9.126859
     7  O   -0.508416   0.061568   0.349472   0.102118  -0.042472  -0.008228
     8  C   -0.703882  -0.658123  -1.421662  -2.865419  -0.424190   1.255171
     9  C   -0.015823  -0.247359  -0.875701  -2.448802  -1.282521   0.976560
    10  C   -0.138983  -0.084426   0.133523  -0.758022  -1.362001   0.005903
    11  O   -0.001012   0.000356   0.003217   0.027505   0.084188  -0.016183
    12  O   -0.004227  -0.002360   0.004979   0.001557   0.010473  -0.021152
    13  O   -0.010946  -0.780054   0.266531   0.498039   0.001997  -0.035111
    14  C    0.036894   0.002242  -0.103958   0.006975  -0.016228  -0.009177
    15  H    0.254554   0.068911   0.071766   0.007946  -0.011687  -0.059323
    16  H   -0.017679   0.021486  -0.154611   0.243382   0.029010   0.008655
    17  H   -0.037405  -0.021521  -0.007951   0.080776   0.155689   0.179841
    18  H    0.176827   0.151373  -0.309696  -0.032705   0.005749   0.002252
    19  H    0.011813   0.009146   0.033788   0.247634   0.065264  -0.044532
    20  H   -0.004984  -0.004284   0.001358   0.027274   0.118484  -0.045777
    21  H    0.000321   0.000059  -0.000053   0.000926  -0.002751   0.002749
    22  H   -0.000147   0.000023   0.000169   0.002447   0.007088  -0.000811
    23  H    0.006691   0.064510   0.092266  -0.132830  -0.015657  -0.000830
    24  H   -0.006887  -0.035771  -0.098595   0.098595   0.030500   0.004349
    25  H   -0.003467  -0.039593  -0.123081   0.122107   0.025405   0.002253
               7          8          9         10         11         12
     1  C   -0.508416  -0.703882  -0.015823  -0.138983  -0.001012  -0.004227
     2  C    0.061568  -0.658123  -0.247359  -0.084426   0.000356  -0.002360
     3  C    0.349472  -1.421662  -0.875701   0.133523   0.003217   0.004979
     4  C    0.102118  -2.865419  -2.448802  -0.758022   0.027505   0.001557
     5  C   -0.042472  -0.424190  -1.282521  -1.362001   0.084188   0.010473
     6  C   -0.008228   1.255171   0.976560   0.005903  -0.016183  -0.021152
     7  O    8.359739   0.009052   0.001502   0.000876   0.000000   0.000000
     8  C    0.009052  10.945368  -1.816026   1.087726   0.048204   0.115242
     9  C    0.001502  -1.816026  16.260994  -3.717970   0.109955  -0.343071
    10  C    0.000876   1.087726  -3.717970   9.805302  -0.152967   0.389365
    11  O    0.000000   0.048204   0.109955  -0.152967   8.166950  -0.124859
    12  O    0.000000   0.115242  -0.343071   0.389365  -0.124859   8.258523
    13  O   -0.019417  -0.024929  -0.001324  -0.000278   0.000001  -0.000007
    14  C    0.000666  -0.035314  -0.001601  -0.002622   0.000001  -0.000009
    15  H   -0.006624  -0.005954  -0.003478  -0.000513   0.000000  -0.000000
    16  H   -0.000581   0.142519   0.026698   0.001520   0.000006  -0.000074
    17  H   -0.000787  -0.050941  -0.023626   0.020435   0.000174   0.000017
    18  H    0.195920   0.000376   0.000358   0.000029   0.000000  -0.000000
    19  H   -0.000009   0.220701  -0.211475  -0.052038   0.001606  -0.006279
    20  H   -0.000006  -0.084020   0.368922  -0.065373  -0.013628   0.007942
    21  H   -0.000000   0.039999  -0.044488   0.018579   0.214776  -0.000425
    22  H   -0.000000   0.000129   0.084716  -0.072793  -0.006279   0.209215
    23  H   -0.000107  -0.002390   0.000062   0.000003  -0.000000  -0.000000
    24  H   -0.000006   0.005681  -0.000199  -0.000038   0.000000   0.000001
    25  H   -0.000195   0.002967  -0.000282  -0.000087  -0.000000  -0.000000
              13         14         15         16         17         18
     1  C   -0.010946   0.036894   0.254554  -0.017679  -0.037405   0.176827
     2  C   -0.780054   0.002242   0.068911   0.021486  -0.021521   0.151373
     3  C    0.266531  -0.103958   0.071766  -0.154611  -0.007951  -0.309696
     4  C    0.498039   0.006975   0.007946   0.243382   0.080776  -0.032705
     5  C    0.001997  -0.016228  -0.011687   0.029010   0.155689   0.005749
     6  C   -0.035111  -0.009177  -0.059323   0.008655   0.179841   0.002252
     7  O   -0.019417   0.000666  -0.006624  -0.000581  -0.000787   0.195920
     8  C   -0.024929  -0.035314  -0.005954   0.142519  -0.050941   0.000376
     9  C   -0.001324  -0.001601  -0.003478   0.026698  -0.023626   0.000358
    10  C   -0.000278  -0.002622  -0.000513   0.001520   0.020435   0.000029
    11  O    0.000001   0.000001   0.000000   0.000006   0.000174   0.000000
    12  O   -0.000007  -0.000009  -0.000000  -0.000074   0.000017  -0.000000
    13  O    8.642447   0.046977  -0.000782  -0.018897   0.000212   0.035105
    14  C    0.046977   4.973847   0.000147   0.002706   0.000091   0.003032
    15  H   -0.000782   0.000147   0.512585   0.000019  -0.006388  -0.000006
    16  H   -0.018897   0.002706   0.000019   0.571501  -0.000191  -0.000020
    17  H    0.000212   0.000091  -0.006388  -0.000191   0.570121   0.000006
    18  H    0.035105   0.003032  -0.000006  -0.000020   0.000006   0.364682
    19  H    0.000108   0.000925   0.000003   0.004791  -0.000047   0.000000
    20  H    0.000004   0.000039   0.000013  -0.000001   0.001432   0.000000
    21  H    0.000000   0.000000   0.000000   0.000000  -0.000000   0.000000
    22  H   -0.000000  -0.000002  -0.000000   0.000000   0.000000   0.000000
    23  H   -0.060852   0.413694  -0.000000   0.000044  -0.000000  -0.000064
    24  H   -0.048687   0.402931   0.000000  -0.000533   0.000000   0.000019
    25  H   -0.041817   0.406815   0.000000  -0.000271   0.000000   0.000037
              19         20         21         22         23         24
     1  C    0.011813  -0.004984   0.000321  -0.000147   0.006691  -0.006887
     2  C    0.009146  -0.004284   0.000059   0.000023   0.064510  -0.035771
     3  C    0.033788   0.001358  -0.000053   0.000169   0.092266  -0.098595
     4  C    0.247634   0.027274   0.000926   0.002447  -0.132830   0.098595
     5  C    0.065264   0.118484  -0.002751   0.007088  -0.015657   0.030500
     6  C   -0.044532  -0.045777   0.002749  -0.000811  -0.000830   0.004349
     7  O   -0.000009  -0.000006  -0.000000  -0.000000  -0.000107  -0.000006
     8  C    0.220701  -0.084020   0.039999   0.000129  -0.002390   0.005681
     9  C   -0.211475   0.368922  -0.044488   0.084716   0.000062  -0.000199
    10  C   -0.052038  -0.065373   0.018579  -0.072793   0.000003  -0.000038
    11  O    0.001606  -0.013628   0.214776  -0.006279  -0.000000   0.000000
    12  O   -0.006279   0.007942  -0.000425   0.209215  -0.000000   0.000001
    13  O    0.000108   0.000004   0.000000  -0.000000  -0.060852  -0.048687
    14  C    0.000925   0.000039   0.000000  -0.000002   0.413694   0.402931
    15  H    0.000003   0.000013   0.000000  -0.000000  -0.000000   0.000000
    16  H    0.004791  -0.000001   0.000000   0.000000   0.000044  -0.000533
    17  H   -0.000047   0.001432  -0.000000   0.000000  -0.000000   0.000000
    18  H    0.000000   0.000000   0.000000   0.000000  -0.000064   0.000019
    19  H    0.542906   0.003844   0.000028  -0.000119   0.000000  -0.000005
    20  H    0.003844   0.521818   0.000112  -0.000160   0.000000   0.000000
    21  H    0.000028   0.000112   0.368735   0.004903   0.000000  -0.000000
    22  H   -0.000119  -0.000160   0.004903   0.400841  -0.000000   0.000000
    23  H    0.000000   0.000000   0.000000  -0.000000   0.508333  -0.024997
    24  H   -0.000005   0.000000  -0.000000   0.000000  -0.024997   0.556340
    25  H   -0.000005  -0.000000   0.000000  -0.000000  -0.026153  -0.038436
              25
     1  C   -0.003467
     2  C   -0.039593
     3  C   -0.123081
     4  C    0.122107
     5  C    0.025405
     6  C    0.002253
     7  O   -0.000195
     8  C    0.002967
     9  C   -0.000282
    10  C   -0.000087
    11  O   -0.000000
    12  O   -0.000000
    13  O   -0.041817
    14  C    0.406815
    15  H    0.000000
    16  H   -0.000271
    17  H    0.000000
    18  H    0.000037
    19  H   -0.000005
    20  H   -0.000000
    21  H    0.000000
    22  H   -0.000000
    23  H   -0.026153
    24  H   -0.038436
    25  H    0.559181
 Mulliken charges:
               1
     1  C   -0.096173
     2  C   -0.102566
     3  C    0.290444
     4  C   -0.281121
     5  C    0.264261
     6  C    0.003920
     7  O   -0.494066
     8  C    0.219713
     9  C   -0.796022
    10  C    0.944851
    11  O   -0.342008
    12  O   -0.494850
    13  O   -0.448318
    14  C   -0.129072
    15  H    0.178810
    16  H    0.140519
    17  H    0.140064
    18  H    0.406728
    19  H    0.171950
    20  H    0.166990
    21  H    0.396529
    22  H    0.370780
    23  H    0.178278
    24  H    0.155737
    25  H    0.154623
 Sum of Mulliken charges =   1.00000
 Mulliken charges with hydrogens summed into heavy atoms:
               1
     1  C    0.082637
     2  C   -0.102566
     3  C    0.290444
     4  C   -0.140602
     5  C    0.264261
     6  C    0.143983
     7  O   -0.087338
     8  C    0.391664
     9  C   -0.629031
    10  C    0.944851
    11  O    0.054521
    12  O   -0.124070
    13  O   -0.448318
    14  C    0.359566
 Electronic spatial extent (au):  <R**2>=           3976.6119
 Charge=              1.0000 electrons
 Dipole moment (field-independent basis, Debye):
    X=              8.3649    Y=              2.6365    Z=             -0.8114  Tot=              8.8080
 Quadrupole moment (field-independent basis, Debye-Ang):
   XX=              0.6466   YY=            -65.1496   ZZ=            -80.6440
   XY=             -1.4526   XZ=             -5.5095   YZ=             -1.9610
 Traceless Quadrupole moment (field-independent basis, Debye-Ang):
   XX=             49.0289   YY=            -16.7673   ZZ=            -32.2617
   XY=             -1.4526   XZ=             -5.5095   YZ=             -1.9610
 Octapole moment (field-independent basis, Debye-Ang**2):
  XXX=            312.8397  YYY=             16.1125  ZZZ=             -0.9898  XYY=             -8.4452
  XXY=             74.4779  XXZ=            -22.3980  XZZ=              9.7849  YZZ=              6.0488
  YYZ=             -3.0279  XYZ=            -12.0222
 Hexadecapole moment (field-independent basis, Debye-Ang**3):
 XXXX=          -1536.2786 YYYY=           -791.3330 ZZZZ=            -90.6400 XXXY=            142.0169
 XXXZ=           -123.2455 YYYX=            -52.6649 YYYZ=             -7.8337 ZZZX=             -5.1571
 ZZZY=             -1.7258 XXYY=           -711.9976 XXZZ=           -650.4933 YYZZ=           -169.1933
 XXYZ=            -48.4084 YYXZ=            -21.4367 ZZXY=              9.2234
 N-N= 8.579020526495D+02 E-N=-3.306549957950D+03  KE= 6.834491764596D+02
 Calling FoFJK, ICntrl=      2127 FMM=F ISym2X=0 I1Cent= 0 IOpClX= 0 NMat=1 NMatS=1 NMatT=0.
 ***** Axes restored to original set *****
 -------------------------------------------------------------------
 Center     Atomic                   Forces (Hartrees/Bohr)
 Number     Number              X              Y              Z
 -------------------------------------------------------------------
      1        6          -0.060183707    0.049932978   -0.001771682
      2        6          -0.068727204   -0.051475474    0.001573510
      3        6           0.039789645   -0.053068072    0.000487596
      4        6           0.056065544   -0.067826358    0.003175756
      5        6           0.002941228    0.002745580   -0.000045964
      6        6          -0.039757474    0.070832923   -0.002955702
      7        8           0.010681125    0.014346435   -0.000423895
      8        6           0.064555729   -0.013760427    0.001464746
      9        6          -0.044427924    0.020037080   -0.004780136
     10        6           0.048695589   -0.090238108    0.008897629
     11        8           0.020947254    0.136312313   -0.001387519
     12        8          -0.017284508   -0.013635832   -0.000479512
     13        8          -0.019785450    0.014834983    0.000479800
     14        6           0.018099300   -0.015574627   -0.001089157
     15        1           0.009075823   -0.007540968    0.000324333
     16        1          -0.008855191    0.004258627   -0.000282015
     17        1           0.003930895   -0.009662853    0.000243311
     18        1           0.000377916   -0.001996335    0.000213712
     19        1          -0.007829588    0.004311569   -0.000172809
     20        1           0.011296240   -0.003953445   -0.001342928
     21        1          -0.018346684    0.002634869   -0.002382306
     22        1           0.004092727   -0.002989569   -0.000454785
     23        1          -0.000581790    0.014883087    0.000300577
     24        1          -0.001522301   -0.001800866    0.010526641
     25        1          -0.003247195   -0.001607509   -0.010119201
 -------------------------------------------------------------------
 Cartesian Forces:  Max     0.136312313 RMS     0.030991143

 GradGradGradGradGradGradGradGradGradGradGradGradGradGradGradGradGradGrad
 Berny optimization.
 FormGI is forming the generalized inverse of G from B-inverse, IUseBI=4.
 Internal  Forces:  Max     0.138854829 RMS     0.023671235
 Search for a local minimum.
 Step number   1 out of a maximum of  119
 All quantities printed in internal units (Hartrees-Bohrs-Radians)
 Mixed Optimization -- RFO/linear search
 Second derivative matrix not updated -- first step.
 ITU=  0
     Eigenvalues ---    0.01584   0.02014   0.02175   0.02198   0.02622
     Eigenvalues ---    0.02700   0.02731   0.02755   0.02761   0.02767
     Eigenvalues ---    0.02772   0.02797   0.02804   0.02808   0.02812
     Eigenvalues ---    0.02845   0.02856   0.02873   0.02931   0.04068
     Eigenvalues ---    0.10199   0.10674   0.16000   0.16000   0.16000
     Eigenvalues ---    0.16000   0.16000   0.16000   0.16000   0.16000
     Eigenvalues ---    0.16000   0.16000   0.16000   0.22000   0.22000
     Eigenvalues ---    0.22369   0.23471   0.24598   0.24995   0.24996
     Eigenvalues ---    0.24997   0.25000   0.25000   0.25000   0.32270
     Eigenvalues ---    0.32302   0.32314   0.33154   0.33296   0.33507
     Eigenvalues ---    0.33535   0.33622   0.44294   0.49389   0.49535
     Eigenvalues ---    0.49908   0.50097   0.52258   0.52600   0.53162
     Eigenvalues ---    0.53254   0.54709   0.55153   0.55741   0.55897
     Eigenvalues ---    0.56030   0.56166   0.56891   0.95206
 RFO step:  Lambda=-8.93834730D-02 EMin= 1.58379919D-02
 Linear search not attempted -- first point.
 Maximum step size (   0.300) exceeded in Quadratic search.
    -- Step size scaled by   0.789
 Iteration  1 RMS(Cart)=  0.07784581 RMS(Int)=  0.00123286
 Iteration  2 RMS(Cart)=  0.00159550 RMS(Int)=  0.00012359
 Iteration  3 RMS(Cart)=  0.00000146 RMS(Int)=  0.00012358
 Iteration  4 RMS(Cart)=  0.00000000 RMS(Int)=  0.00012358
 Variable       Old X    -DE/DX   Delta X   Delta X   Delta X     New X
                                 (Linear)    (Quad)   (Total)
    R1        2.53530   0.06601   0.00000   0.07867   0.07864   2.61394
    R2        2.53195   0.04651   0.00000   0.05579   0.05577   2.58773
    R3        2.08535  -0.01150   0.00000  -0.02148  -0.02148   2.06387
    R4        2.54887   0.07289   0.00000   0.08866   0.08866   2.63752
    R5        2.57329  -0.01598   0.00000  -0.02049  -0.02049   2.55280
    R6        2.54997   0.03824   0.00000   0.04675   0.04676   2.59673
    R7        2.59959  -0.01072   0.00000  -0.01438  -0.01438   2.58521
    R8        2.55081   0.07966   0.00000   0.09874   0.09877   2.64957
    R9        2.08170  -0.00983   0.00000  -0.01827  -0.01827   2.06342
   R10        2.54179   0.08518   0.00000   0.10426   0.10426   2.64605
   R11        2.55391   0.07283   0.00000   0.09029   0.09029   2.64420
   R12        2.07972  -0.01008   0.00000  -0.01869  -0.01869   2.06103
   R13        1.83502   0.00203   0.00000   0.00258   0.00258   1.83760
   R14        2.54344   0.04844   0.00000   0.05895   0.05895   2.60239
   R15        2.08782  -0.00892   0.00000  -0.01672  -0.01672   2.07110
   R16        2.54228   0.04839   0.00000   0.05878   0.05878   2.60105
   R17        2.08121  -0.01133   0.00000  -0.02105  -0.02105   2.06016
   R18        2.30622   0.13885   0.00000   0.10521   0.10521   2.41143
   R19        2.57653  -0.00383   0.00000  -0.00494  -0.00494   2.57159
   R20        1.87037  -0.01637   0.00000  -0.02209  -0.02209   1.84828
   R21        1.83417   0.00083   0.00000   0.00105   0.00105   1.83522
   R22        2.66104   0.01308   0.00000   0.01939   0.01939   2.68043
   R23        2.10352  -0.01444   0.00000  -0.02765  -0.02765   2.07588
   R24        2.10295  -0.01020   0.00000  -0.01953  -0.01953   2.08343
   R25        2.10274  -0.01017   0.00000  -0.01945  -0.01945   2.08329
    A1        2.12224  -0.00611   0.00000  -0.01529  -0.01533   2.10691
    A2        2.07581   0.00028   0.00000  -0.00113  -0.00111   2.07470
    A3        2.08513   0.00583   0.00000   0.01642   0.01644   2.10157
    A4        2.08685   0.00560   0.00000   0.01095   0.01092   2.09777
    A5        2.10240  -0.00859   0.00000  -0.01894  -0.01893   2.08348
    A6        2.09393   0.00299   0.00000   0.00799   0.00801   2.10194
    A7        2.05045   0.00827   0.00000   0.01749   0.01750   2.06795
    A8        2.04695  -0.01434   0.00000  -0.03244  -0.03245   2.01450
    A9        2.18562   0.00608   0.00000   0.01504   0.01503   2.20065
   A10        2.16536  -0.01158   0.00000  -0.02848  -0.02844   2.13691
   A11        2.06054   0.00560   0.00000   0.01365   0.01363   2.07417
   A12        2.05727   0.00598   0.00000   0.01484   0.01482   2.07209
   A13        2.03512   0.00452   0.00000   0.01389   0.01392   2.04904
   A14        2.08491  -0.00352   0.00000  -0.00988  -0.00990   2.07501
   A15        2.16316  -0.00100   0.00000  -0.00401  -0.00403   2.15913
   A16        2.10626  -0.00069   0.00000   0.00148   0.00147   2.10773
   A17        2.03496   0.00314   0.00000   0.00809   0.00810   2.04306
   A18        2.14195  -0.00244   0.00000  -0.00957  -0.00957   2.13239
   A19        1.90400   0.00019   0.00000   0.00060   0.00060   1.90461
   A20        2.22819   0.00456   0.00000   0.01162   0.01162   2.23981
   A21        2.03674  -0.00291   0.00000  -0.00781  -0.00781   2.02893
   A22        2.01826  -0.00165   0.00000  -0.00381  -0.00381   2.01445
   A23        2.15753  -0.00321   0.00000  -0.00820  -0.00820   2.14933
   A24        2.10236   0.00554   0.00000   0.01655   0.01655   2.11891
   A25        2.02330  -0.00233   0.00000  -0.00836  -0.00836   2.01494
   A26        2.09674   0.00017   0.00000   0.00055   0.00045   2.09719
   A27        2.18856  -0.03018   0.00000  -0.07004  -0.07014   2.11842
   A28        1.99753   0.03010   0.00000   0.07014   0.07004   2.06758
   A29        1.96088   0.01560   0.00000   0.04936   0.04936   2.01024
   A30        1.91357   0.00922   0.00000   0.02916   0.02916   1.94273
   A31        2.08375   0.00217   0.00000   0.00503   0.00503   2.08878
   A32        1.87976  -0.00618   0.00000  -0.01941  -0.01937   1.86039
   A33        1.92550   0.00345   0.00000   0.01086   0.01086   1.93637
   A34        1.92715   0.00364   0.00000   0.01143   0.01144   1.93859
   A35        1.88913   0.00164   0.00000   0.00535   0.00539   1.89451
   A36        1.88473   0.00151   0.00000   0.00491   0.00495   1.88969
   A37        1.95514  -0.00427   0.00000  -0.01377  -0.01380   1.94134
    D1        0.00359  -0.00010   0.00000  -0.00028  -0.00024   0.00334
    D2       -3.13746  -0.00016   0.00000  -0.00055  -0.00050  -3.13796
    D3       -3.13915  -0.00014   0.00000  -0.00079  -0.00078  -3.13993
    D4        0.00299  -0.00020   0.00000  -0.00107  -0.00104   0.00195
    D5        0.00440  -0.00025   0.00000  -0.00160  -0.00160   0.00280
    D6       -3.14110  -0.00010   0.00000  -0.00067  -0.00067   3.14141
    D7       -3.13604  -0.00020   0.00000  -0.00107  -0.00105  -3.13709
    D8        0.00165  -0.00005   0.00000  -0.00014  -0.00012   0.00153
    D9       -0.01252   0.00022   0.00000   0.00190   0.00192  -0.01059
   D10       -3.13559  -0.00055   0.00000  -0.00301  -0.00293  -3.13852
   D11        3.12853   0.00028   0.00000   0.00216   0.00218   3.13071
   D12        0.00546  -0.00050   0.00000  -0.00275  -0.00267   0.00278
   D13        3.12471   0.00018   0.00000   0.00118   0.00117   3.12589
   D14       -0.01633   0.00012   0.00000   0.00090   0.00091  -0.01541
   D15        0.01466  -0.00039   0.00000  -0.00252  -0.00252   0.01214
   D16       -3.13212  -0.00026   0.00000  -0.00185  -0.00187  -3.13398
   D17        3.13610   0.00021   0.00000   0.00227   0.00236   3.13846
   D18       -0.01067   0.00034   0.00000   0.00294   0.00301  -0.00767
   D19        3.01331   0.00127   0.00000   0.00876   0.00873   3.02205
   D20       -0.10817   0.00043   0.00000   0.00346   0.00349  -0.10468
   D21       -0.00696   0.00010   0.00000   0.00079   0.00080  -0.00616
   D22        3.13498   0.00009   0.00000   0.00066   0.00066   3.13564
   D23        3.13980  -0.00003   0.00000   0.00012   0.00016   3.13996
   D24       -0.00144  -0.00003   0.00000  -0.00001   0.00002  -0.00143
   D25       -0.00279   0.00020   0.00000   0.00130   0.00130  -0.00149
   D26       -3.14023   0.00003   0.00000   0.00027   0.00028  -3.13995
   D27        3.13844   0.00021   0.00000   0.00144   0.00145   3.13989
   D28        0.00099   0.00004   0.00000   0.00041   0.00043   0.00142
   D29       -3.13986   0.00015   0.00000   0.00105   0.00105  -3.13881
   D30        0.00155   0.00015   0.00000   0.00103   0.00104   0.00259
   D31        0.00211   0.00014   0.00000   0.00090   0.00089   0.00301
   D32       -3.13967   0.00014   0.00000   0.00089   0.00088  -3.13879
   D33        3.14061   0.00042   0.00000   0.00283   0.00285  -3.13973
   D34       -0.00183  -0.00011   0.00000  -0.00072  -0.00074  -0.00256
   D35       -0.00080   0.00042   0.00000   0.00285   0.00286   0.00206
   D36        3.13995  -0.00011   0.00000  -0.00071  -0.00072   3.13923
   D37       -3.11420  -0.00146   0.00000  -0.00900  -0.00861  -3.12281
   D38       -0.00258   0.00315   0.00000   0.02031   0.01994   0.01736
   D39        0.02820  -0.00096   0.00000  -0.00560  -0.00523   0.02297
   D40        3.13982   0.00366   0.00000   0.02371   0.02332  -3.12004
   D41       -3.09041   0.00453   0.00000   0.02983   0.03054  -3.05987
   D42        0.07802   0.00134   0.00000   0.00578   0.00508   0.08310
   D43       -2.35790  -0.00193   0.00000  -0.01300  -0.01307  -2.37097
   D44        0.75521   0.00206   0.00000   0.01394   0.01401   0.76922
   D45       -3.09072   0.00007   0.00000   0.00058   0.00058  -3.09014
   D46       -1.03226   0.00033   0.00000   0.00164   0.00159  -1.03067
   D47        1.13838  -0.00014   0.00000  -0.00027  -0.00021   1.13817
         Item               Value     Threshold  Converged?
 Maximum Force            0.138855     0.000450     NO 
 RMS     Force            0.023671     0.000300     NO 
 Maximum Displacement     0.338330     0.001800     NO 
 RMS     Displacement     0.077484     0.001200     NO 
 Predicted change in Energy=-4.683739D-02
 GradGradGradGradGradGradGradGradGradGradGradGradGradGradGradGradGradGrad

                          Input orientation:                          
 ---------------------------------------------------------------------
 Center     Atomic      Atomic             Coordinates (Angstroms)
 Number     Number       Type             X           Y           Z
 ---------------------------------------------------------------------
      1          6           0       -2.626773    0.220366   -0.040392
      2          6           0       -2.540429   -1.159431    0.004962
      3          6           0       -1.292757   -1.783723    0.044993
      4          6           0       -0.165749   -0.997781    0.025344
      5          6           0       -0.225985    0.402321   -0.018850
      6          6           0       -1.495581    0.992030   -0.050653
      7          8           0       -3.673813   -1.894481    0.009742
      8          6           0        0.968896    1.130372   -0.029084
      9          6           0        1.136201    2.496774   -0.066853
     10          6           0        2.371499    3.103810   -0.075395
     11          8           0        2.460248    4.376708   -0.090321
     12          8           0        3.519827    2.373664   -0.066613
     13          8           0       -1.321144   -3.150898    0.084293
     14          6           0       -0.110040   -3.881797   -0.020269
     15          1           0       -3.614126    0.686281   -0.069584
     16          1           0        0.813440   -1.480380    0.049173
     17          1           0       -1.632966    2.073372   -0.087263
     18          1           0       -3.441255   -2.838480    0.029185
     19          1           0        1.894242    0.543635   -0.003751
     20          1           0        0.281682    3.173120   -0.096319
     21          1           0        3.369152    4.729572   -0.167774
     22          1           0        4.166329    2.740169    0.558572
     23          1           0       -0.384413   -4.945484   -0.018302
     24          1           0        0.406848   -3.654698   -0.967246
     25          1           0        0.543681   -3.691881    0.846868
 ---------------------------------------------------------------------
                    Distance matrix (angstroms):
                    1          2          3          4          5
     1  C    0.000000
     2  C    1.383239   0.000000
     3  C    2.408995   1.395718   0.000000
     4  C    2.746787   2.380262   1.374131   0.000000
     5  C    2.407770   2.792183   2.433283   1.402093   0.000000
     6  C    1.369367   2.392401   2.784796   2.394488   1.400230
     7  O    2.360378   1.350882   2.383892   3.620888   4.142902
     8  C    3.709053   4.190431   3.689513   2.412346   1.399251
     9  C    4.398035   5.185615   4.922905   3.730347   2.498917
    10  C    5.770459   6.504515   6.109766   4.823984   3.748088
    11  O    6.569281   7.460877   7.214864   5.982839   4.797573
    12  O    6.512916   7.015311   6.360604   4.995855   4.233153
    13  O    3.617406   2.336426   1.368034   2.444243   3.719593
    14  C    4.812701   3.649480   2.409356   2.884915   4.285687
    15  H    1.092151   2.136594   3.391577   3.838798   3.400398
    16  H    3.838701   3.369480   2.127933   1.091917   2.151649
    17  H    2.103208   3.359019   3.874328   3.405493   2.185564
    18  H    3.166190   1.905592   2.393492   3.757276   4.565420
    19  H    4.532706   4.750454   3.946636   2.573009   2.124985
    20  H    4.144996   5.171611   5.202799   4.196595   2.817988
    21  H    7.503351   8.344659   8.012594   6.733156   5.627814
    22  H    7.270103   7.777786   7.108514   5.746607   5.009128
    23  H    5.631578   4.356965   3.290263   3.953996   5.350151
    24  H    5.007797   3.982209   2.722836   2.893495   4.214183
    25  H    5.113187   4.078461   2.767052   2.904543   4.254920
                    6          7          8          9         10
     6  C    0.000000
     7  O    3.616669   0.000000
     8  C    2.468451   5.541299   0.000000
     9  C    3.031632   6.513465   1.377124   0.000000
    10  C    4.406193   7.844486   2.421549   1.376418   0.000000
    11  O    5.206362   8.772944   3.573035   2.299522   1.276075
    12  O    5.202258   8.364888   2.838033   2.386803   1.360826
    13  O    4.148793   2.668181   4.856584   6.160972   7.265155
    14  C    5.067034   4.080540   5.126989   6.499342   7.413486
    15  H    2.140578   2.582671   4.604666   5.083650   6.455400
    16  H    3.384428   4.506493   2.616547   3.991916   4.843332
    17  H    1.090649   4.462996   2.768090   2.801423   4.134934
    18  H    4.297072   0.972417   5.933347   7.030453   8.313234
    19  H    3.419672   6.078473   1.095978   2.096034   2.605264
    20  H    2.813877   6.429446   2.156294   1.090191   2.091071
    21  H    6.135842   9.670209   4.328360   3.159373   1.909698
    22  H    5.956875   9.124090   3.627721   3.103557   1.937927
    23  H    6.040680   4.486597   6.224756   7.596172   8.508199
    24  H    5.104063   4.550238   4.908456   6.259654   7.094553
    25  H    5.186825   4.660331   4.919575   6.283742   7.097387
                   11         12         13         14         15
    11  O    0.000000
    12  O    2.266154   0.000000
    13  O    8.425809   7.347010   0.000000
    14  C    8.649520   7.232487   1.418422   0.000000
    15  H    7.107581   7.330795   4.472737   5.757464   0.000000
    16  H    6.085796   4.710796   2.710776   2.573798   4.930706
    17  H    4.696783   5.161577   5.236378   6.147181   2.418539
    18  H    9.322068   8.696683   2.143714   3.491124   3.530380
    19  H    3.875604   2.448568   4.898574   4.858175   5.510608
    20  H    2.488938   3.335506   6.526474   7.066193   4.621948
    21  H    0.978068   2.362888   9.174105   9.288821   8.069945
    22  H    2.451537   0.971157   8.064859   7.903974   8.071462
    23  H    9.746822   8.295502   2.026951   1.098506   6.492337
    24  H    8.336002   6.844190   2.084588   1.102503   5.984825
    25  H    8.345878   6.817824   2.086087   1.102427   6.107008
                   16         17         18         19         20
    16  H    0.000000
    17  H    4.316558   0.000000
    18  H    4.466236   5.235433   0.000000
    19  H    2.295119   3.845552   6.317224   0.000000
    20  H    4.686043   2.208032   7.072153   3.085954   0.000000
    21  H    6.718797   5.664191  10.183115   4.441208   3.458340
    22  H    5.414276   5.873120   9.448645   3.209882   3.963182
    23  H    3.666926   7.129375   3.712950   5.943308   8.146257
    24  H    2.434355   6.143778   4.057953   4.557046   6.884278
    25  H    2.366394   6.232860   4.156515   4.526275   6.934442
                   21         22         23         24         25
    21  H    0.000000
    22  H    2.262917   0.000000
    23  H   10.378743   8.950491   0.000000
    24  H    8.928067   7.573383   1.786818   0.000000
    25  H    8.940562   7.387689   1.783648   1.819647   0.000000
 Stoichiometry    C10H11O4(1+)
 Framework group  C1[X(C10H11O4)]
 Deg. of freedom    69
 Full point group                 C1      NOp   1
 Largest Abelian subgroup         C1      NOp   1
 Largest concise Abelian subgroup C1      NOp   1
                         Standard orientation:                         
 ---------------------------------------------------------------------
 Center     Atomic      Atomic             Coordinates (Angstroms)
 Number     Number       Type             X           Y           Z
 ---------------------------------------------------------------------
      1          6           0       -1.491895   -2.001319    0.010520
      2          6           0       -2.516342   -1.072137   -0.011399
      3          6           0       -2.225627    0.292757   -0.035433
      4          6           0       -0.907965    0.682462   -0.023885
      5          6           0        0.148629   -0.238979   -0.003348
      6          6           0       -0.182871   -1.599304    0.012939
      7          8           0       -3.798076   -1.498791   -0.008959
      8          6           0        1.463338    0.240011    0.000057
      9          6           0        2.635575   -0.482545    0.015747
     10          6           0        3.880960    0.103566    0.019661
     11          8           0        4.930882   -0.621690    0.013724
     12          8           0        4.027292    1.456474    0.028197
     13          8           0       -3.311769    1.124345   -0.052022
     14          6           0       -3.125677    2.525191    0.070133
     15          1           0       -1.743948   -3.063851    0.027523
     16          1           0       -0.673987    1.748954   -0.035283
     17          1           0        0.576477   -2.381982    0.030872
     18          1           0       -4.390549   -0.727710   -0.011597
     19          1           0        1.582341    1.329449   -0.011346
     20          1           0        2.630827   -1.572631    0.030102
     21          1           0        5.774679   -0.132909    0.089327
     22          1           0        4.710739    1.741517   -0.600132
     23          1           0       -4.127902    2.974686    0.084706
     24          1           0       -2.615903    2.774107    1.015482
     25          1           0       -2.578154    2.929444   -0.797130
 ---------------------------------------------------------------------
 Rotational constants (GHZ):      1.5333279      0.2877832      0.2428203
 Standard basis: 6-31+G(d,p) (6D, 7F)
 There are   321 symmetry adapted cartesian basis functions of A   symmetry.
 There are   321 symmetry adapted basis functions of A   symmetry.
   321 basis functions,   525 primitive gaussians,   321 cartesian basis functions
    51 alpha electrons       51 beta electrons
       nuclear repulsion energy       842.0713074632 Hartrees.
 NAtoms=   25 NActive=   25 NUniq=   25 SFac= 1.00D+00 NAtFMM=   60 NAOKFM=F Big=F
 Integral buffers will be    131072 words long.
 Raffenetti 2 integral format.
 Two-electron integral symmetry is turned on.
 One-electron integrals computed using PRISM.
 NBasis=   321 RedAO= T EigKep=  1.21D-06  NBF=   321
 NBsUse=   320 1.00D-06 EigRej=  5.74D-07 NBFU=   320
 Initial guess from the checkpoint file:  "b3lypFAyanggd3.chk"
 B after Tr=    -0.000000    0.000000    0.000000
         Rot=    0.999998   -0.000396   -0.000061   -0.002175 Ang=  -0.25 deg.
 ExpMin= 4.38D-02 ExpMax= 5.48D+03 ExpMxC= 8.25D+02 IAcc=2 IRadAn=         4 AccDes= 0.00D+00
 Harris functional with IExCor=  402 and IRadAn=       4 diagonalized for initial guess.
 HarFok:  IExCor=  402 AccDes= 0.00D+00 IRadAn=         4 IDoV= 1 UseB2=F ITyADJ=14
 ICtDFT=  3500011 ScaDFX=  1.000000  1.000000  1.000000  1.000000
 FoFCou: FMM=F IPFlag=           0 FMFlag=      100000 FMFlg1=           0
         NFxFlg=           0 DoJE=T BraDBF=F KetDBF=T FulRan=T
         wScrn=  0.000000 ICntrl=     500 IOpCl=  0 I1Cent=   200000004 NGrid=           0
         NMat0=    1 NMatS0=      1 NMatT0=    0 NMatD0=    1 NMtDS0=    0 NMtDT0=    0
 Petite list used in FoFCou.
 Requested convergence on RMS density matrix=1.00D-08 within 128 cycles.
 Requested convergence on MAX density matrix=1.00D-06.
 Requested convergence on             energy=1.00D-06.
 No special actions if energy rises.
 SCF Done:  E(RB3LYP) =  -688.358318191     A.U. after   13 cycles
            NFock= 13  Conv=0.84D-08     -V/T= 2.0088
 Calling FoFJK, ICntrl=      2127 FMM=F ISym2X=0 I1Cent= 0 IOpClX= 0 NMat=1 NMatS=1 NMatT=0.
 ***** Axes restored to original set *****
 -------------------------------------------------------------------
 Center     Atomic                   Forces (Hartrees/Bohr)
 Number     Number              X              Y              Z
 -------------------------------------------------------------------
      1        6          -0.017433156    0.018028051   -0.000318304
      2        6          -0.028815884   -0.020583254    0.000848564
      3        6           0.018452762   -0.016892029   -0.000722333
      4        6           0.019195492   -0.023696043    0.001333376
      5        6          -0.000997584    0.003974108   -0.000206670
      6        6          -0.013360659    0.020351391   -0.001058485
      7        8           0.011052336    0.009186270   -0.000249110
      8        6           0.020720417   -0.008349996    0.001289991
      9        6          -0.017393162    0.011490797   -0.003258062
     10        6           0.022559754   -0.046111340    0.004877725
     11        8           0.006699021    0.047867325    0.000989851
     12        8          -0.015663346    0.004673453    0.000883433
     13        8          -0.011766463    0.011593015   -0.000110805
     14        6           0.010316020   -0.009793267   -0.000312866
     15        1           0.003853509   -0.003634946    0.000136801
     16        1          -0.003837023    0.002544592   -0.000190534
     17        1           0.003582586   -0.003675745    0.000057515
     18        1          -0.000192254   -0.001598211    0.000215505
     19        1          -0.004290464    0.001413439   -0.000062345
     20        1           0.003863068   -0.001619735   -0.001348683
     21        1          -0.006358281   -0.002124775   -0.001344714
     22        1           0.003205237   -0.000143539   -0.001847907
     23        1          -0.000702089    0.006011006    0.000141425
     24        1          -0.001031091    0.000461860    0.004537352
     25        1          -0.001658747    0.000627574   -0.004280721
 -------------------------------------------------------------------
 Cartesian Forces:  Max     0.047867325 RMS     0.012221794

 GradGradGradGradGradGradGradGradGradGradGradGradGradGradGradGradGradGrad
 Berny optimization.
 Using GEDIIS/GDIIS optimizer.
 FormGI is forming the generalized inverse of G from B-inverse, IUseBI=4.
 Internal  Forces:  Max     0.045652862 RMS     0.007306674
 Search for a local minimum.
 Step number   2 out of a maximum of  119
 All quantities printed in internal units (Hartrees-Bohrs-Radians)
 Mixed Optimization -- RFO/linear search
 Update second derivatives using D2CorX and points    1    2
 DE= -4.45D-02 DEPred=-4.68D-02 R= 9.49D-01
 TightC=F SS=  1.41D+00  RLast= 3.04D-01 DXNew= 5.0454D-01 9.1250D-01
 Trust test= 9.49D-01 RLast= 3.04D-01 DXMaxT set to 5.05D-01
 ITU=  1  0
 Use linear search instead of GDIIS.
     Eigenvalues ---    0.01584   0.02014   0.02175   0.02198   0.02624
     Eigenvalues ---    0.02701   0.02731   0.02755   0.02761   0.02767
     Eigenvalues ---    0.02772   0.02796   0.02804   0.02808   0.02811
     Eigenvalues ---    0.02846   0.02855   0.02873   0.02962   0.04071
     Eigenvalues ---    0.10107   0.10725   0.15916   0.16000   0.16000
     Eigenvalues ---    0.16000   0.16000   0.16000   0.16000   0.16000
     Eigenvalues ---    0.16000   0.16000   0.16232   0.21921   0.22024
     Eigenvalues ---    0.22369   0.23315   0.24601   0.24889   0.25000
     Eigenvalues ---    0.25000   0.25000   0.25000   0.25993   0.32243
     Eigenvalues ---    0.32290   0.32309   0.33118   0.33272   0.33482
     Eigenvalues ---    0.33542   0.33614   0.44121   0.48928   0.49647
     Eigenvalues ---    0.49904   0.50252   0.50907   0.52485   0.53160
     Eigenvalues ---    0.53253   0.54735   0.55198   0.55838   0.55929
     Eigenvalues ---    0.56053   0.56853   0.62423   0.91810
 RFO step:  Lambda=-5.28355398D-03 EMin= 1.58380565D-02
 Quartic linear search produced a step of  0.49435.
 Iteration  1 RMS(Cart)=  0.06816826 RMS(Int)=  0.00315805
 Iteration  2 RMS(Cart)=  0.00375597 RMS(Int)=  0.00035949
 Iteration  3 RMS(Cart)=  0.00001821 RMS(Int)=  0.00035922
 Iteration  4 RMS(Cart)=  0.00000000 RMS(Int)=  0.00035922
 Variable       Old X    -DE/DX   Delta X   Delta X   Delta X     New X
                                 (Linear)    (Quad)   (Total)
    R1        2.61394   0.02002   0.03888   0.00607   0.04492   2.65887
    R2        2.58773   0.01102   0.02757  -0.00395   0.02357   2.61130
    R3        2.06387  -0.00504  -0.01062  -0.00954  -0.02016   2.04371
    R4        2.63752   0.02262   0.04383   0.00844   0.05229   2.68982
    R5        2.55280  -0.01324  -0.01013  -0.02523  -0.03536   2.51744
    R6        2.59673   0.00747   0.02312  -0.00742   0.01575   2.61248
    R7        2.58521  -0.00879  -0.00711  -0.01762  -0.02473   2.56048
    R8        2.64957   0.02261   0.04882   0.00315   0.05200   2.70158
    R9        2.06342  -0.00457  -0.00903  -0.00925  -0.01828   2.04514
   R10        2.64605   0.02237   0.05154  -0.00165   0.04987   2.69592
   R11        2.64420   0.01509   0.04463  -0.01197   0.03267   2.67687
   R12        2.06103  -0.00410  -0.00924  -0.00687  -0.01611   2.04492
   R13        1.83760   0.00151   0.00127   0.00268   0.00396   1.84156
   R14        2.60239   0.01357   0.02914   0.00147   0.03061   2.63300
   R15        2.07110  -0.00438  -0.00826  -0.00953  -0.01780   2.05330
   R16        2.60105   0.01119   0.02906  -0.00479   0.02427   2.62532
   R17        2.06016  -0.00400  -0.01041  -0.00509  -0.01549   2.04467
   R18        2.41143   0.04565   0.05201   0.01019   0.06220   2.47364
   R19        2.57159  -0.01294  -0.00244  -0.03372  -0.03616   2.53543
   R20        1.84828  -0.00657  -0.01092  -0.00665  -0.01757   1.83071
   R21        1.83522   0.00089   0.00052   0.00186   0.00238   1.83760
   R22        2.68043   0.00728   0.00958   0.01289   0.02247   2.70290
   R23        2.07588  -0.00564  -0.01367  -0.00934  -0.02301   2.05287
   R24        2.08343  -0.00429  -0.00965  -0.00795  -0.01761   2.06582
   R25        2.08329  -0.00424  -0.00962  -0.00778  -0.01740   2.06589
    A1        2.10691  -0.00324  -0.00758  -0.01082  -0.01848   2.08843
    A2        2.07470  -0.00007  -0.00055  -0.00453  -0.00505   2.06966
    A3        2.10157   0.00331   0.00813   0.01535   0.02351   2.12509
    A4        2.09777   0.00183   0.00540   0.00461   0.01001   2.10778
    A5        2.08348  -0.00203  -0.00936  -0.00078  -0.01013   2.07335
    A6        2.10194   0.00020   0.00396  -0.00384   0.00012   2.10206
    A7        2.06795   0.00365   0.00865   0.01134   0.01998   2.08792
    A8        2.01450  -0.00779  -0.01604  -0.02628  -0.04243   1.97206
    A9        2.20065   0.00415   0.00743   0.01521   0.02251   2.22316
   A10        2.13691  -0.00652  -0.01406  -0.02483  -0.03881   2.09811
   A11        2.07417   0.00387   0.00674   0.01825   0.02495   2.09912
   A12        2.07209   0.00265   0.00732   0.00658   0.01386   2.08595
   A13        2.04904   0.00488   0.00688   0.02229   0.02918   2.07822
   A14        2.07501  -0.00208  -0.00489  -0.00730  -0.01220   2.06281
   A15        2.15913  -0.00280  -0.00199  -0.01499  -0.01698   2.14215
   A16        2.10773  -0.00060   0.00073  -0.00248  -0.00183   2.10590
   A17        2.04306   0.00348   0.00400   0.02464   0.02868   2.07174
   A18        2.13239  -0.00289  -0.00473  -0.02215  -0.02685   2.10554
   A19        1.90461   0.00105   0.00030   0.00909   0.00939   1.91399
   A20        2.23981  -0.00285   0.00574  -0.02584  -0.02009   2.21971
   A21        2.02893   0.00028  -0.00386   0.00380  -0.00006   2.02886
   A22        2.01445   0.00257  -0.00188   0.02204   0.02015   2.03461
   A23        2.14933  -0.00385  -0.00405  -0.02064  -0.02474   2.12459
   A24        2.11891   0.00312   0.00818   0.01347   0.02160   2.14051
   A25        2.01494   0.00073  -0.00413   0.00711   0.00293   2.01787
   A26        2.09719  -0.00175   0.00022  -0.01039  -0.01172   2.08547
   A27        2.11842  -0.00395  -0.03467   0.01881  -0.01740   2.10102
   A28        2.06758   0.00571   0.03463  -0.00831   0.02464   2.09221
   A29        2.01024   0.00050   0.02440  -0.02553  -0.00113   2.00911
   A30        1.94273   0.00482   0.01442   0.02580   0.04022   1.98295
   A31        2.08878  -0.00099   0.00249  -0.00880  -0.00631   2.08247
   A32        1.86039  -0.00265  -0.00957  -0.00941  -0.01896   1.84143
   A33        1.93637   0.00018   0.00537  -0.00647  -0.00111   1.93525
   A34        1.93859   0.00023   0.00565  -0.00639  -0.00075   1.93784
   A35        1.89451   0.00192   0.00266   0.01678   0.01946   1.91398
   A36        1.88969   0.00192   0.00245   0.01716   0.01964   1.90932
   A37        1.94134  -0.00153  -0.00682  -0.01028  -0.01715   1.92419
    D1        0.00334  -0.00004  -0.00012  -0.00077  -0.00066   0.00268
    D2       -3.13796  -0.00008  -0.00025  -0.00176  -0.00172  -3.13968
    D3       -3.13993  -0.00010  -0.00038  -0.00338  -0.00362   3.13964
    D4        0.00195  -0.00013  -0.00051  -0.00437  -0.00468  -0.00273
    D5        0.00280  -0.00018  -0.00079  -0.00703  -0.00781  -0.00501
    D6        3.14141  -0.00008  -0.00033  -0.00312  -0.00341   3.13800
    D7       -3.13709  -0.00013  -0.00052  -0.00436  -0.00472   3.14137
    D8        0.00153  -0.00002  -0.00006  -0.00045  -0.00033   0.00120
    D9       -0.01059   0.00020   0.00095   0.00926   0.01031  -0.00028
   D10       -3.13852  -0.00034  -0.00145  -0.01108  -0.01202   3.13265
   D11        3.13071   0.00024   0.00108   0.01026   0.01139  -3.14109
   D12        0.00278  -0.00030  -0.00132  -0.01008  -0.01094  -0.00815
   D13        3.12589   0.00018   0.00058   0.00849   0.00904   3.13493
   D14       -0.01541   0.00014   0.00045   0.00749   0.00798  -0.00744
   D15        0.01214  -0.00028  -0.00124  -0.01069  -0.01190   0.00024
   D16       -3.13398  -0.00020  -0.00092  -0.00821  -0.00922   3.13998
   D17        3.13846   0.00022   0.00117   0.01168   0.01340  -3.13133
   D18       -0.00767   0.00030   0.00149   0.01416   0.01609   0.00842
   D19        3.02205   0.00108   0.00432   0.05259   0.05675   3.07880
   D20       -0.10468   0.00050   0.00172   0.03053   0.03241  -0.07227
   D21       -0.00616   0.00007   0.00040   0.00319   0.00366  -0.00250
   D22        3.13564   0.00007   0.00033   0.00285   0.00319   3.13883
   D23        3.13996  -0.00001   0.00008   0.00068   0.00096   3.14092
   D24       -0.00143  -0.00001   0.00001   0.00034   0.00050  -0.00093
   D25       -0.00149   0.00016   0.00064   0.00583   0.00643   0.00494
   D26       -3.13995   0.00004   0.00014   0.00163   0.00185  -3.13810
   D27        3.13989   0.00016   0.00072   0.00620   0.00691  -3.13639
   D28        0.00142   0.00004   0.00021   0.00200   0.00234   0.00376
[...]
 1961,0.00093138,-0.00008431,-0.00015586,-0.00043085,0.00001567,-0.0225
 7821,0.36462063,-0.00003578,-0.00035993,0.00544232,-0.00024788,0.00008
 073,0.00890153,0.00002420,-0.00001849,-0.00123947,-0.00024807,0.000018
 11,0.00449650,0.00012116,0.00079754,0.00170097,-0.00089989,0.00515517,
 -0.03678185,0.00000091,-0.00003318,-0.00013135,0.00007426,-0.00012715,
 -0.00282491,-0.00012539,0.00006529,0.00021156,0.00004806,-0.00000137,-
 0.00029552,-0.00001824,-0.00003244,-0.00011353,-0.00000849,0.00003648,
 0.00017093,0.00001472,-0.00001370,-0.00037482,-0.00000314,0.00000315,-
 0.00013298,0.00011851,-0.00007533,-0.00485192,-0.00002924,0.00005078,0
 .00132539,0.00124373,-0.00545848,0.02386986,-0.00666426,-0.00367895,-0
 .00018389,0.00812470,-0.04197569,0.00070751,-0.00467516,-0.00927305,0.
 00001076,0.00150058,0.00143123,0.00002847,-0.00095107,-0.00069036,-0.0
 0001821,0.00208452,-0.00050362,0.00002274,-0.07465974,0.13231144,-0.00
 279031,0.00031518,0.00071953,-0.00000233,-0.00014031,-0.00025392,0.000
 00807,0.00025690,-0.00000073,-0.00000383,-0.00002039,-0.00001933,-0.00
 001125,-0.00011178,0.00007872,0.00000821,0.00274411,0.00022000,0.00008
 092,-0.00109029,0.00394477,-0.00004458,0.00004372,-0.00000445,0.000012
 56,0.00001114,-0.00001328,-0.00000726,-0.00036746,-0.00017099,0.000005
 62,0.07199709,-0.00190522,0.00442365,-0.00004957,-0.00420008,-0.033477
 18,0.00029934,0.00480992,0.00494944,0.00001996,-0.00136889,-0.00381937
 ,0.00000621,0.00304079,0.00186821,0.00003946,-0.00180836,-0.00175401,0
 .00000887,0.08446385,-0.44974414,0.00681876,-0.00191458,-0.00240158,-0
 .00001763,0.00161214,0.00189273,-0.00002160,-0.00273565,-0.00120712,-0
 .00000302,0.00054280,0.00146914,0.00018159,0.00131558,-0.00042091,-0.0
 0017245,-0.00062487,-0.00202940,-0.00000591,0.00040609,-0.00086747,0.0
 0000576,0.00004763,0.00014941,-0.00000981,0.00035046,0.00029838,0.0000
 0797,-0.00016914,-0.00003069,-0.00000871,-0.08123310,0.48083554,-0.000
 18693,-0.00005904,0.00450280,0.00024056,-0.00049279,-0.00258595,-0.000
 13516,-0.00022646,-0.00007200,0.00005691,0.00005895,-0.00067957,-0.000
 04737,-0.00002900,0.00005629,0.00001608,0.00003238,0.00161608,-0.00222
 675,0.00777035,-0.01261891,0.00003145,0.00003265,-0.00008090,-0.000031
 09,-0.00002348,-0.00006805,0.00004033,0.00001960,-0.00002674,-0.000009
 67,-0.00002227,-0.00001762,-0.00002230,0.00001313,0.00001041,0.0000873
 8,0.00000084,-0.00170902,-0.00000437,0.00007542,-0.00109265,0.00001321
 ,-0.00001087,-0.00051066,-0.00001417,0.00000112,0.00041587,0.00000741,
 -0.00000987,-0.00055090,0.00213862,-0.00711299,0.01306872,-0.00079750,
 0.00125521,-0.00005509,-0.00016547,0.00016572,0.00000344,0.00062359,-0
 .00039138,0.00000104,0.00083883,0.00165727,-0.00002946,-0.02013210,0.0
 1510850,-0.00033952,-0.00222263,-0.00404547,0.00004511,0.00022348,0.00
 001932,0.00000301,-0.25654740,0.12582069,-0.00319484,0.00588156,-0.002
 12575,0.00001507,0.00069986,-0.00072998,0.00013072,0.00006273,0.000473
 75,0.00002188,-0.00175416,-0.00189056,0.00027323,0.00002884,0.00008200
 ,0.00000439,-0.00004100,-0.00000716,-0.00000231,-0.00024425,-0.0002656
 4,-0.00000537,0.00036003,-0.00130602,0.00002669,0.00011980,0.00007561,
 0.00000393,-0.00003914,-0.00004087,0.00000018,0.27261820,-0.00068963,0
 .00043580,-0.00002250,-0.00004414,0.00032058,0.00000926,0.00010473,-0.
 00008629,0.00000896,-0.00259607,0.00095960,-0.00004648,-0.01443648,0.0
 1043456,-0.00022039,-0.00241376,-0.00227302,-0.00001457,0.00004088,-0.
 00012011,-0.00000702,0.12549038,-0.13952909,0.00196114,0.02799242,-0.0
 1593446,0.00018607,0.00361129,-0.00172566,-0.00019300,-0.00035956,0.00
 053902,0.00006193,-0.00186196,0.00060960,0.00046541,0.00008881,-0.0000
 4856,0.00000069,-0.00007791,0.00003443,-0.00000155,-0.00016451,-0.0001
 4212,-0.00000486,-0.00005691,-0.00054978,0.00000318,-0.00001320,0.0000
 4824,-0.00000174,-0.00004192,0.00001232,0.00000032,-0.13211354,0.15054
 174,-0.00002150,-0.00007034,-0.00087002,0.00001807,0.00005967,0.000485
 47,-0.00003171,0.00001773,0.00008937,0.00011374,0.00003091,-0.00356163
 ,-0.00065261,0.00012440,0.00762733,-0.00009474,0.00001734,0.00629626,-
 0.00003918,-0.00004260,-0.00012793,-0.00281965,0.00225186,-0.04729178,
 -0.00051004,-0.00047515,0.00724364,0.00044422,-0.00014443,-0.00457832,
 -0.00032033,-0.00018770,0.00004491,0.00019990,0.00083165,0.00055896,0.
 00000668,-0.00001655,0.00021323,-0.00001073,0.00000662,0.00004981,0.00
 001118,-0.00001236,-0.00071405,0.00000267,-0.00000528,0.00029823,0.000
 01223,-0.00000158,-0.00007076,-0.00000359,0.00001005,0.00007469,0.0034
 1759,-0.00204223,0.02731881,-0.00003183,-0.00001904,-0.00002334,0.0001
 9486,-0.00003916,-0.00000669,-0.00040841,0.00005182,-0.00000652,0.0001
 1247,0.00048215,0.00000775,-0.00149699,-0.00006222,-0.00008960,0.00010
 312,-0.00129543,0.00003578,-0.00015806,-0.00008861,0.00000142,0.010156
 07,-0.00108953,-0.00003459,-0.23761452,0.13825676,0.00181342,-0.020208
 10,0.02030100,0.00062426,0.00129299,0.00059852,-0.00012341,-0.00361492
 ,-0.00357387,-0.00102401,0.00002761,0.00009345,-0.00000129,0.00003240,
 -0.00001558,0.00000096,-0.00001852,-0.00001790,0.00000094,0.00002884,0
 .00008601,0.00000069,-0.00167463,-0.00156946,-0.00007691,-0.00001032,0
 .00002759,0.00000222,0.00046594,-0.00210558,0.00008726,0.25314107,-0.0
 0032319,0.00043939,-0.00001728,0.00027615,-0.00014225,-0.00000053,-0.0
 0043278,-0.00003246,0.00000137,0.00013101,0.00024625,0.00000934,-0.000
 00385,0.00129998,0.00001087,0.00054715,-0.00089767,0.00003957,-0.00006
 362,0.00007479,-0.00000011,0.02580760,-0.01418446,-0.00009449,0.145401
 48,-0.16999844,-0.00125585,-0.01164789,0.01104405,0.00020203,-0.000930
 63,-0.00053296,0.00006217,-0.00429187,-0.00139906,-0.00031413,-0.00003
 302,0.00019535,-0.00000358,0.00009192,-0.00004999,0.00000225,-0.000024
 23,-0.00002258,0.00000282,-0.00004092,0.00019414,-0.00000384,-0.001601
 65,0.00038379,-0.00006492,0.00000572,0.00000887,0.00000002,-0.00168126
 ,-0.00404111,-0.00001259,-0.15056340,0.17677115,-0.00000839,-0.0000039
 0,-0.00024018,0.00007592,0.00000875,-0.00032020,-0.00009286,0.00000890
 ,0.00001924,0.00004295,0.00011544,-0.00011866,-0.00018905,-0.00011714,
 -0.00350542,0.00010012,-0.00009986,-0.00039201,-0.00003873,-0.00002493
 ,0.00013370,0.00028944,0.00049320,0.00253464,0.00119624,-0.00179733,-0
 .03242386,0.00095775,0.00002502,-0.00009412,-0.00029470,-0.00040492,-0
 .00223896,-0.00048790,0.00079829,0.00452599,0.00001145,-0.00001375,0.0
 0003567,-0.00000513,0.00000396,0.00002024,-0.00000374,-0.00000002,0.00
 012540,-0.00000008,0.00000314,0.00009975,-0.00013628,-0.00001910,0.001
 15549,-0.00000231,0.00000950,0.00004735,-0.00021300,0.00005209,0.00687
 256,-0.00193034,0.00122736,0.02296256,0.00017848,0.00075976,-0.0000157
 9,-0.00096101,-0.00060307,-0.00001005,0.00084632,-0.00065193,0.0000351
 7,-0.00023559,-0.00076124,0.00001644,0.00177412,0.00071780,-0.00017680
 ,-0.00104030,0.00020029,-0.00002123,0.00080055,0.00072889,0.00000743,-
 0.00128994,-0.00262707,0.00003206,0.00381212,0.00309912,0.00119953,-0.
 00332075,0.00179216,-0.00194922,-0.40711106,-0.18025804,0.10281447,0.0
 0041485,0.00373009,0.00023089,-0.00020635,0.00065450,-0.00001235,0.000
 25407,-0.00018360,0.00000851,0.00000494,0.00000952,0.00000611,-0.00002
 984,0.00000722,-0.00000164,-0.00001670,-0.00002175,0.00000949,0.000009
 80,-0.00020029,0.00000411,-0.00001803,-0.00008263,0.00012009,0.0004082
 9,0.00012712,0.00011977,0.40510237,0.00014028,0.00060084,-0.00000471,-
 0.00080594,-0.00050437,-0.00000791,0.00067945,-0.00054967,-0.00000271,
 -0.00024981,-0.00058039,0.00013068,0.00150830,0.00026764,0.00023360,-0
 .00073230,0.00014446,-0.00008252,0.00068789,0.00060870,0.00000794,-0.0
 0257735,-0.00191559,-0.00093940,0.00469249,-0.00246036,-0.00023086,-0.
 04831959,-0.02451550,0.00998987,-0.13122139,-0.10397459,0.03169060,0.0
 0138451,0.00581166,-0.00103401,-0.00013845,0.00052029,-0.00002878,0.00
 017023,-0.00013921,0.00000804,0.00000545,0.00001235,-0.00000360,-0.000
 02785,-0.00002384,0.00000628,-0.00004801,-0.00000556,0.00001015,-0.000
 00924,-0.00016530,0.00000254,-0.00003732,-0.00011478,-0.00001864,-0.00
 000840,0.00023417,0.00017477,0.17177026,0.12951475,0.00006569,0.000320
 85,-0.00007240,-0.00039482,-0.00024654,0.00003947,0.00038831,-0.000244
 05,0.00002460,-0.00012647,-0.00036586,-0.00037540,0.00083040,0.0002803
 3,-0.00056493,-0.00050169,0.00008320,0.00026141,0.00031939,0.00029246,
 -0.00001680,-0.00110469,-0.00177219,0.00257513,0.00113275,-0.00006058,
 0.00295532,-0.00693677,-0.00558607,-0.00386086,0.10829421,0.04784475,-
 0.03017749,0.00045656,-0.00066061,-0.00324714,-0.00009637,0.00024549,0
 .00004561,0.00009772,-0.00007055,0.00002147,0.00000009,0.00000268,0.00
 001450,-0.00001083,0.00001027,-0.00001321,0.00000809,-0.00001625,-0.00
 003013,0.00000842,-0.00008060,0.00000911,0.00003154,0.00003698,0.00012
 225,0.00009007,-0.00003365,-0.00092662,-0.10172076,-0.04130647,0.03114
 864,0.00022648,0.00086582,-0.00005565,-0.00117625,-0.00073754,-0.00003
 786,0.00097390,-0.00082514,0.00004038,-0.00017630,-0.00085717,0.000012
 21,0.00190725,0.00076550,-0.00009845,-0.00116870,0.00025732,0.00012156
 ,0.00098339,0.00089532,0.00001671,-0.00082349,-0.00258350,-0.00026112,
 0.00219700,0.00851640,-0.00058192,-0.04097241,-0.02135039,-0.00804926,
 0.00652871,-0.00281462,0.00083283,-0.34764837,-0.16716365,-0.09870670,
 -0.00026306,0.00087967,-0.00001115,0.00034735,-0.00024732,0.00000534,0
 .00000923,0.00001400,0.00000022,-0.00003539,-0.00002065,0.00000045,-0.
 00002255,-0.00004431,0.00002603,0.00000838,-0.00024974,0.00000774,0.00
 002130,-0.00029089,0.00006629,-0.00072091,-0.00072876,0.00060598,0.000
 70844,0.00320369,-0.00079754,0.37920206,0.00000636,0.00021945,-0.00001
 954,-0.00028607,-0.00011755,0.00000239,0.00027477,-0.00014871,0.000012
 33,-0.00010339,-0.00022639,-0.00003558,0.00041739,0.00051071,0.0002869
 8,-0.00036916,-0.00002572,0.00005078,0.00023104,0.00018878,-0.00000111
 ,-0.00067022,-0.00160933,-0.00002695,0.00385376,-0.00096565,-0.0013816
 0,0.02636275,0.01205417,0.00850016,-0.00053151,-0.00045451,-0.00080174
 ,-0.21392802,-0.15469481,-0.07491452,-0.00001736,0.00010289,0.00000411
 ,0.00001300,-0.00002458,-0.00000639,-0.00000324,-0.00000190,-0.0000081
 9,-0.00001448,0.00001312,-0.00001418,-0.00000839,0.00000160,-0.0000211
 3,-0.00000687,-0.00004919,-0.00000492,-0.00000895,0.00066057,-0.000320
 16,0.00055712,0.00041037,-0.00043685,0.00176525,-0.00278296,0.00131269
 ,0.18248671,0.14693264,-0.00004203,-0.00027871,-0.00014881,0.00040110,
 0.00019037,0.00000035,-0.00037652,0.00025754,-0.00002470,0.00010672,0.
 00032974,-0.00007966,-0.00067188,-0.00039876,0.00009386,0.00046879,-0.
 00009260,0.00020460,-0.00031921,-0.00027785,-0.00000189,0.00046568,0.0
 0159470,-0.00071103,0.00022698,-0.00323580,0.00227041,0.00977980,0.002
 33799,-0.00338668,0.00048621,-0.00060718,-0.00307028,-0.11722065,-0.06
 897218,-0.03901730,0.00007726,-0.00023782,-0.00001161,-0.00008984,0.00
 006626,0.00003495,-0.00000068,-0.00000192,0.00000415,0.00000982,-0.000
 00606,0.00003893,-0.00001602,0.00002668,0.00011584,-0.00000267,0.00007
 723,0.00002461,-0.00013943,-0.00023141,-0.00003530,0.00065208,0.000243
 45,0.00173647,-0.00069377,0.00140722,0.00207242,0.10686623,0.06781979,
 0.03990188,-0.00058409,-0.00016241,-0.00001587,0.00058742,0.00193356,-
 0.00001288,-0.00478589,0.00229673,-0.00012538,-0.00115761,-0.00031833,
 -0.00002419,0.00053990,0.00020909,0.00000348,0.00010740,-0.00009975,0.
 00001106,0.00000029,-0.00031896,0.00000616,-0.00014653,0.00001734,-0.0
 0000234,0.00009641,0.00006703,-0.00000485,-0.00011582,-0.00001570,0.00
 000315,0.00001949,0.00005025,0.00000677,0.00006452,-0.00003399,-0.0000
 0627,0.00177812,0.04120143,-0.00039977,-0.07834051,-0.10042443,0.00049
 668,0.00000784,0.00014058,-0.00000086,0.00065529,-0.00013596,0.0000248
 3,0.00004422,-0.00000869,0.00000140,-0.00011925,0.00027315,-0.00000866
 ,0.00002201,0.00002675,0.00000028,-0.00000147,-0.00000688,0.00000077,-
 0.00000654,-0.00000120,-0.00000382,-0.00000624,-0.00000044,0.00000243,
 0.08766895,0.00028218,-0.00002471,0.00000653,-0.00049963,-0.00098929,0
 .00000348,0.00285276,0.00131703,0.00003984,0.00024815,0.00032566,0.000
 00691,-0.00023996,-0.00009081,-0.00000512,0.00006374,-0.00003102,0.000
 00201,0.00016374,0.00017104,-0.00000012,0.00018247,0.00016164,0.000002
 49,-0.00017114,-0.00018395,0.00000136,0.00029555,0.00012901,-0.0000006
 5,-0.00006273,-0.00015800,-0.00001855,-0.00015252,0.00004333,0.0000191
 7,0.00216807,-0.02282412,0.00029150,-0.08493428,-0.30080326,0.00085145
 ,-0.00000973,-0.00007832,0.00000058,-0.00003102,0.00004939,-0.00000618
 ,-0.00000827,-0.00000368,-0.00000044,-0.00002904,-0.00017632,0.0000031
 6,0.00000276,-0.00000030,-0.00000095,0.00000081,0.00000493,-0.00000049
 ,0.00002201,0.00001790,0.00000816,0.00002929,0.00000377,-0.00000785,0.
 08469355,0.32841087,-0.00001346,-0.00000286,-0.00002648,0.00001033,0.0
 0005328,0.00030152,-0.00013671,0.00004353,0.00053517,-0.00003031,-0.00
 000686,0.00020177,0.00001009,0.00000688,0.00015170,0.00000204,-0.00000
 198,-0.00002789,0.00000112,-0.00001024,-0.00012285,-0.00000535,-0.0000
 0039,0.00002647,0.00000455,0.00000256,0.00000220,-0.00000526,-0.000000
 80,-0.00000863,0.00000044,0.00000349,-0.00000004,0.00000256,-0.0000026
 6,0.00000199,0.00000954,0.00106451,0.00006144,0.00033669,0.00053574,-0
 .05143767,0.00000087,0.00000318,-0.00002856,0.00002203,-0.00000834,-0.
 00044846,0.00000144,-0.00000030,-0.00001618,-0.00000594,0.00000924,0.0
 0019369,0.00000058,-0.00000002,-0.00000837,-0.00000011,-0.00000029,-0.
 00000114,-0.00000028,-0.00000067,0.00000201,-0.00000049,0.00000083,0.0
 0000001,-0.00005021,-0.00118826,0.04701855,-0.00011067,-0.00026081,-0.
 00004549,-0.00102858,0.00069888,-0.00037442,0.00067630,-0.00598627,0.0
 0053269,0.00034511,0.00048827,-0.00032950,0.00031743,0.00018996,0.0000
 7954,0.00016631,0.00025372,-0.00002157,0.00005456,0.00056508,-0.000149
 56,-0.00029757,-0.00022625,0.00000102,0.00029808,0.00031433,-0.0000167
 3,-0.00050518,-0.00022883,-0.00000240,0.00010863,0.00029318,0.00003487
 ,0.00026330,-0.00007706,-0.00003743,-0.03066733,0.00795384,0.02157053,
 -0.11948902,-0.02844235,0.11016500,0.00000334,0.00003119,0.00004849,0.
 00029288,0.00006590,0.00009349,0.00001556,0.00000435,0.00000345,0.0008
 7130,-0.00021695,0.00036095,-0.00000141,-0.00000206,0.00001245,-0.0000
 0260,-0.00000740,0.00000183,-0.00003905,-0.00003275,-0.00001256,-0.000
 04981,-0.00001007,0.00001517,-0.00329159,-0.00234004,0.00819381,0.1404
 0745,0.00028441,0.00038498,0.00006709,0.00121201,-0.00029782,0.0006166
 5,0.00105573,0.00470869,-0.00199799,-0.00100642,0.00041140,-0.00001865
 ,-0.00007730,-0.00047239,0.00048009,-0.00043582,0.00011766,0.00005713,
 -0.00034110,-0.00062528,-0.00000692,0.00012971,0.00000329,-0.00001472,
 -0.00005643,-0.00003902,-0.00000225,0.00005347,-0.00000213,-0.00000680
 ,-0.00000418,-0.00002772,-0.00000243,-0.00002658,0.00002445,0.00000383
 ,0.01954383,-0.00185602,-0.01712305,-0.03228181,-0.06390526,0.04715950
 ,-0.00000265,0.00000018,-0.00005191,0.00008399,-0.00120165,-0.00120840
 ,-0.00001506,0.00000089,-0.00006313,-0.00040197,0.00011684,-0.00012010
 ,-0.00000872,-0.00001727,-0.00000561,-0.00000350,-0.00000301,0.0000000
 4,0.00000271,-0.00000106,0.00000406,-0.00000017,0.00000210,0.00000015,
 -0.01522713,-0.00237372,0.02549960,0.02450556,0.06293142,0.00000204,0.
 00015269,-0.00001418,0.00029731,-0.00046183,-0.00025158,-0.00022512,0.
 00111203,0.00070767,0.00118584,0.00002791,-0.00012912,-0.00047879,-0.0
 0002799,-0.00012514,-0.00004766,0.00001775,-0.00005110,-0.00024793,-0.
 00000119,0.00002072,0.00008780,-0.00006059,0.00003217,-0.00004106,0.00
 000116,0.00000421,0.00005470,-0.00004863,-0.00000868,-0.00000271,0.000
 01142,0.00000086,-0.00004661,0.00003789,0.00001006,-0.00013500,-0.0041
 7235,0.00782337,0.11484938,0.04379362,-0.23305218,-0.00000111,-0.00000
 935,0.00001752,-0.00051815,-0.00030491,-0.00001706,-0.00005119,0.00002
 159,0.00001104,-0.00004451,0.00005853,0.00000264,-0.00002510,-0.000041
 50,-0.00001821,0.00000201,0.00000976,-0.00000440,0.00000119,-0.0000074
 6,-0.00000056,0.00000366,-0.00000529,-0.00000662,-0.00179080,-0.000355
 70,0.00168671,-0.12706130,-0.04634662,0.24230854,-0.00011329,-0.000253
 30,0.00005783,-0.00103072,0.00069191,0.00032504,0.00067633,-0.00594173
 ,-0.00039337,0.00037442,0.00049898,0.00033825,0.00030134,0.00018584,-0
 .00006083,0.00016395,0.00025467,0.00000860,0.00004044,0.00056784,0.000
 13649,-0.00029610,-0.00022824,-0.00001760,0.00029765,0.00031607,0.0000
 2189,-0.00050452,-0.00023121,-0.00000057,0.00010943,0.00029343,0.00003
 505,0.00026146,-0.00007734,-0.00003364,-0.02975011,0.00734415,-0.02323
 202,-0.11063857,-0.02878863,-0.10468884,0.00000536,0.00002934,-0.00004
 965,0.00026653,0.00004204,-0.00007785,0.00001365,0.00000521,-0.0000024
 1,0.00088175,-0.00022226,-0.00032065,-0.00000307,-0.00000451,-0.000008
 58,-0.00000239,-0.00000681,0.00000026,-0.00003918,-0.00003296,-0.00001
 692,-0.00005002,-0.00000997,0.00001443,-0.00303631,-0.00252671,-0.0083
 4798,0.01166255,0.00301740,0.01423310,0.13040942,0.00028829,0.00038097
 ,-0.00006026,0.00123064,-0.00030746,-0.00056749,0.00096850,0.00472303,
 0.00192559,-0.00101577,0.00041196,-0.00003658,-0.00004624,-0.00048265,
 -0.00045919,-0.00043385,0.00011650,-0.00008940,-0.00033837,-0.00062378
 ,0.00000758,0.00012645,0.00000369,0.00001865,-0.00005519,-0.00003924,0
 .00000411,0.00005291,-0.00000072,0.00000935,-0.00000422,-0.00003015,-0
 .00000759,-0.00002617,0.00002604,-0.00000096,0.01883019,-0.00142443,0.
 01809194,-0.03256720,-0.06583592,-0.05195277,-0.00000491,0.00000205,0.
 00005185,0.00003771,-0.00115622,0.00122958,-0.00001694,0.00000246,0.00
 006273,-0.00040492,0.00011816,0.00010131,-0.00000820,-0.00001389,0.000
 00594,-0.00000356,-0.00000325,-0.00000216,0.00000291,0.00000040,0.0000
 0150,0.00000014,0.00000113,-0.00000298,-0.01415558,-0.00289707,-0.0259
 9918,0.00246657,0.00212043,0.00659907,0.02507680,0.06490797,-0.0000120
 5,-0.00016997,-0.00000945,-0.00035435,0.00048836,-0.00024494,0.0002066
 7,-0.00144006,0.00068089,-0.00114513,-0.00001937,-0.00017022,0.0004984
 5,0.00004298,-0.00009543,0.00006407,-0.00001091,-0.00004858,0.00025591
 ,0.00003869,0.00003551,-0.00010431,0.00005171,0.00003339,0.00005392,0.
 00001291,0.00000533,-0.00007207,0.00003703,-0.00000411,0.00000775,0.00
 000282,0.00000449,0.00005499,-0.00004297,0.00000356,-0.00177030,0.0046
 7092,0.00644191,-0.10927640,-0.04845469,-0.23988805,0.00000053,0.00001
 107,0.00001484,0.00053058,0.00032937,-0.00002960,0.00005158,-0.0000208
 0,0.00001286,0.00008880,-0.00007017,-0.00000929,0.00002573,0.00004125,
 -0.00001917,-0.00000207,-0.00000976,-0.00000351,-0.00000335,0.00000604
 ,-0.00000640,-0.00000549,0.00000809,-0.00000461,0.00188888,0.00034767,
 0.00194304,-0.01306231,-0.00691955,-0.01894669,0.12207996,0.05106934,0
 .25030423\\-0.00005652,-0.00008525,0.00000228,0.00011006,0.00004863,-0
 .00000729,-0.00008990,0.00003750,-0.00001459,0.00002158,0.00004791,0.0
 0000271,0.00000524,-0.00000233,0.00000944,0.00008628,0.00002391,-0.000
 00225,-0.00004478,-0.00001566,0.00000222,-0.00005158,-0.00004336,-0.00
 000749,0.00005146,0.00002808,-0.00001349,-0.00008330,-0.00010497,0.000
 01477,0.00003258,0.00008786,0.00002495,0.00002147,-0.00000479,0.000005
 17,0.00004325,-0.00001361,0.00002619,-0.00003358,0.00000439,-0.0000157
 6,0.00002015,0.00001136,-0.00000319,-0.00001129,-0.00000354,0.00000090
 ,-0.00001572,-0.00000655,-0.00000477,-0.00000008,0.00000556,-0.0000024
 9,-0.00000084,0.00000491,-0.00000867,0.00000254,-0.00000363,0.00001016
 ,-0.00000932,-0.00000158,-0.00002568,0.00000274,-0.00000035,0.00000366
 ,0.00001553,-0.00000409,0.00000073,-0.00000591,-0.00000192,0.00001184,
 -0.00001005,-0.00000847,-0.00000937\\\@


 EVERYTHING'S GOT A MORAL, IF ONLY YOU CAN FIND IT.

                                    -- LEWIS CARROL, ALICE IN WONDERLAND
 Job cpu time:       0 days  1 hours  9 minutes  9.9 seconds.
 File lengths (MBytes):  RWF=    264 Int=      0 D2E=      0 Chk=      9 Scr=      1
 Normal termination of Gaussian 09 at Thu Jun 20 14:17:30 2024.
