 Entering Gaussian System, Link 0=g09
 Input=B3PW91FAyang.gjf
 Output=B3PW91FAyang.log
 Initial command:
 /home/phzd/g09E/g09/l1.exe "/home/phzd/g09E/scratch/Gau-1299808.inp" -scrdir="/home/phzd/g09E/scratch/"
 Default is to use a total of  18 processors:
                               18 via shared-memory
                                1 via Linda
 Entering Link 1 = /home/phzd/g09E/g09/l1.exe PID=   1299810.
  
 Copyright (c) 1988,1990,1992,1993,1995,1998,2003,2009,2015,
            Gaussian, Inc.  All Rights Reserved.
  
 This is part of the Gaussian(R) 09 program.  It is based on
 the Gaussian(R) 03 system (copyright 2003, Gaussian, Inc.),
 the Gaussian(R) 98 system (copyright 1998, Gaussian, Inc.),
 the Gaussian(R) 94 system (copyright 1995, Gaussian, Inc.),
 the Gaussian 92(TM) system (copyright 1992, Gaussian, Inc.),
 the Gaussian 90(TM) system (copyright 1990, Gaussian, Inc.),
 the Gaussian 88(TM) system (copyright 1988, Gaussian, Inc.),
 the Gaussian 86(TM) system (copyright 1986, Carnegie Mellon
 University), and the Gaussian 82(TM) system (copyright 1983,
 Carnegie Mellon University). Gaussian is a federally registered
 trademark of Gaussian, Inc.
  
 This software contains proprietary and confidential information,
 including trade secrets, belonging to Gaussian, Inc.
  
 This software is provided under written license and may be
 used, copied, transmitted, or stored only in accord with that
 written license.
  
 The following legend is applicable only to US Government
 contracts under FAR:
  
                    RESTRICTED RIGHTS LEGEND
  
 Use, reproduction and disclosure by the US Government is
 subject to restrictions as set forth in subparagraphs (a)
 and (c) of the Commercial Computer Software - Restricted
 Rights clause in FAR 52.227-19.
  
 Gaussian, Inc.
 340 Quinnipiac St., Bldg. 40, Wallingford CT 06492
  
  
 ---------------------------------------------------------------
 Warning -- This program may not be used in any manner that
 competes with the business of Gaussian, Inc. or will provide
 assistance to any competitor of Gaussian, Inc.  The licensee
 of this program is prohibited from giving any competitor of
 Gaussian, Inc. access to this program.  By using this program,
 the user acknowledges that Gaussian, Inc. is engaged in the
 business of creating and licensing software in the field of
 computational chemistry and represents and warrants to the
 licensee that it is not a competitor of Gaussian, Inc. and that
 it will not use this program in any manner prohibited above.
 ---------------------------------------------------------------
  

 Cite this work as:
 Gaussian 09, Revision E.01,
 M. J. Frisch, G. W. Trucks, H. B. Schlegel, G. E. Scuseria, 
 M. A. Robb, J. R. Cheeseman, G. Scalmani, V. Barone, B. Mennucci, 
 G. A. Petersson, H. Nakatsuji, M. Caricato, X. Li, H. P. Hratchian, 
 A. F. Izmaylov, J. Bloino, G. Zheng, J. L. Sonnenberg, M. Hada, 
 M. Ehara, K. Toyota, R. Fukuda, J. Hasegawa, M. Ishida, T. Nakajima, 
 Y. Honda, O. Kitao, H. Nakai, T. Vreven, J. A. Montgomery, Jr., 
 J. E. Peralta, F. Ogliaro, M. Bearpark, J. J. Heyd, E. Brothers, 
 K. N. Kudin, V. N. Staroverov, T. Keith, R. Kobayashi, J. Normand, 
 K. Raghavachari, A. Rendell, J. C. Burant, S. S. Iyengar, J. Tomasi, 
 M. Cossi, N. Rega, J. M. Millam, M. Klene, J. E. Knox, J. B. Cross, 
 V. Bakken, C. Adamo, J. Jaramillo, R. Gomperts, R. E. Stratmann, 
 O. Yazyev, A. J. Austin, R. Cammi, C. Pomelli, J. W. Ochterski, 
 R. L. Martin, K. Morokuma, V. G. Zakrzewski, G. A. Voth, 
 P. Salvador, J. J. Dannenberg, S. Dapprich, A. D. Daniels, 
 O. Farkas, J. B. Foresman, J. V. Ortiz, J. Cioslowski, 
 and D. J. Fox, Gaussian, Inc., Wallingford CT, 2013.
 
 ******************************************
 Gaussian 09:  ES64L-G09RevE.01 30-Nov-2015
                15-Dec-2024 
 ******************************************
 %chk=B3PW91FAyang.chk
 -----------------------------
 # opt freq b3pw91/6-31+g(d,p)
 -----------------------------
 1/14=-1,18=20,19=15,26=3,38=1/1,3;
 2/9=110,12=2,17=6,18=5,40=1/2;
 3/5=1,6=6,7=111,11=2,16=1,25=1,30=1,71=1,74=-6/1,2,3;
 4//1;
 5/5=2,38=5/2;
 6/7=2,8=2,9=2,10=2,28=1/1;
 7//1,2,3,16;
 1/14=-1,18=20,19=15,26=3/3(2);
 2/9=110/2;
 99//99;
 2/9=110/2;
 3/5=1,6=6,7=111,11=2,16=1,25=1,30=1,71=1,74=-6/1,2,3;
 4/5=5,16=3,69=1/1;
 5/5=2,38=5/2;
 7//1,2,3,16;
 1/14=-1,18=20,19=15,26=3/3(-5);
 2/9=110/2;
 6/7=2,8=2,9=2,10=2,19=2,28=1/1;
 99/9=1/99;
 ----------
 [No Title]
 ----------
 Symbolic Z-matrix:
 Charge =  1 Multiplicity = 1
 C                     1.47619  -2.0263   -0.02345 
 C                     2.51082  -1.08163  -0.01096 
 C                     2.22387   0.31173   0.00374 
 C                     0.91642   0.73466   0.00798 
 C                    -0.14343  -0.21748  -0.00073 
 C                     0.16706  -1.59937  -0.02024 
 O                     3.76741  -1.49578  -0.0148 
 C                    -1.47283   0.26456   0.00642 
 C                    -2.63645  -0.48737   0.02181 
 C                    -3.87986   0.13209   0.00113 
 O                    -4.95225  -0.61816   0.09991 
 O                    -3.98348   1.439    -0.12361 
 O                     3.33399   1.08129   0.01249 
 C                     3.16718   2.49507   0.03211 
 H                     1.73944  -3.07773  -0.03775 
 H                     0.67908   1.79328   0.01942 
 H                    -0.62633  -2.33853  -0.03392 
 H                     4.37186  -0.73448  -0.0058 
 H                    -1.59221   1.34767  -0.0003 
 H                    -2.65138  -1.56891   0.05087 
 H                    -5.79495  -0.17686  -0.08396 
 H                    -4.85654   1.80487   0.08173 
 H                     4.17047   2.91546   0.03853 
 H                     2.63124   2.82682  -0.86298 
 H                     2.63014   2.80178   0.93541 
 

 GradGradGradGradGradGradGradGradGradGradGradGradGradGradGradGradGradGrad
 Berny optimization.
 Initialization pass.
                           ----------------------------
                           !    Initial Parameters    !
                           ! (Angstroms and Degrees)  !
 --------------------------                            --------------------------
 ! Name  Definition              Value          Derivative Info.                !
 --------------------------------------------------------------------------------
 ! R1    R(1,2)                  1.4011         estimate D2E/DX2                !
 ! R2    R(1,6)                  1.377          estimate D2E/DX2                !
 ! R3    R(1,15)                 1.084          estimate D2E/DX2                !
 ! R4    R(2,3)                  1.4227         estimate D2E/DX2                !
 ! R5    R(2,7)                  1.3231         estimate D2E/DX2                !
 ! R6    R(3,4)                  1.3742         estimate D2E/DX2                !
 ! R7    R(3,13)                 1.3508         estimate D2E/DX2                !
 ! R8    R(4,5)                  1.4248         estimate D2E/DX2                !
 ! R9    R(4,16)                 1.085          estimate D2E/DX2                !
 ! R10   R(5,6)                  1.4165         estimate D2E/DX2                !
 ! R11   R(5,8)                  1.4141         estimate D2E/DX2                !
 ! R12   R(6,17)                 1.0844         estimate D2E/DX2                !
 ! R13   R(7,18)                 0.9721         estimate D2E/DX2                !
 ! R14   R(8,9)                  1.3855         estimate D2E/DX2                !
 ! R15   R(8,19)                 1.0897         estimate D2E/DX2                !
 ! R16   R(9,10)                 1.3893         estimate D2E/DX2                !
 ! R17   R(9,20)                 1.082          estimate D2E/DX2                !
 ! R18   R(10,11)                1.3125         estimate D2E/DX2                !
 ! R19   R(10,12)                1.3169         estimate D2E/DX2                !
 ! R20   R(11,21)                0.9689         estimate D2E/DX2                !
 ! R21   R(12,22)                0.9686         estimate D2E/DX2                !
 ! R22   R(13,14)                1.4237         estimate D2E/DX2                !
 ! R23   R(14,23)                1.0878         estimate D2E/DX2                !
 ! R24   R(14,24)                1.0948         estimate D2E/DX2                !
 ! R25   R(14,25)                1.0947         estimate D2E/DX2                !
 ! A1    A(2,1,6)              119.5376         estimate D2E/DX2                !
 ! A2    A(2,1,15)             118.3447         estimate D2E/DX2                !
 ! A3    A(6,1,15)             122.1175         estimate D2E/DX2                !
 ! A4    A(1,2,3)              120.7633         estimate D2E/DX2                !
 ! A5    A(1,2,7)              119.3577         estimate D2E/DX2                !
 ! A6    A(3,2,7)              119.879          estimate D2E/DX2                !
 ! A7    A(2,3,4)              119.5627         estimate D2E/DX2                !
 ! A8    A(2,3,13)             113.0955         estimate D2E/DX2                !
 ! A9    A(4,3,13)             127.3418         estimate D2E/DX2                !
 ! A10   A(3,4,5)              120.1371         estimate D2E/DX2                !
 ! A11   A(3,4,16)             120.562          estimate D2E/DX2                !
 ! A12   A(5,4,16)             119.3009         estimate D2E/DX2                !
 ! A13   A(4,5,6)              119.2742         estimate D2E/DX2                !
 ! A14   A(4,5,8)              118.1307         estimate D2E/DX2                !
 ! A15   A(6,5,8)              122.5948         estimate D2E/DX2                !
 ! A16   A(1,6,5)              120.7242         estimate D2E/DX2                !
 ! A17   A(1,6,17)             118.9598         estimate D2E/DX2                !
 ! A18   A(5,6,17)             120.316          estimate D2E/DX2                !
 ! A19   A(2,7,18)             110.2045         estimate D2E/DX2                !
 ! A20   A(5,8,9)              127.1995         estimate D2E/DX2                !
 ! A21   A(5,8,19)             116.2171         estimate D2E/DX2                !
 ! A22   A(9,8,19)             116.5834         estimate D2E/DX2                !
 ! A23   A(8,9,10)             120.6307         estimate D2E/DX2                !
 ! A24   A(8,9,20)             123.6657         estimate D2E/DX2                !
 ! A25   A(10,9,20)            115.7036         estimate D2E/DX2                !
 ! A26   A(9,10,11)            118.3766         estimate D2E/DX2                !
 ! A27   A(9,10,12)            120.9505         estimate D2E/DX2                !
 ! A28   A(11,10,12)           120.6713         estimate D2E/DX2                !
 ! A29   A(10,11,21)           115.8501         estimate D2E/DX2                !
 ! A30   A(10,12,22)           115.1933         estimate D2E/DX2                !
 ! A31   A(3,13,14)            118.0037         estimate D2E/DX2                !
 ! A32   A(13,14,23)           106.0081         estimate D2E/DX2                !
 ! A33   A(13,14,24)           110.3047         estimate D2E/DX2                !
 ! A34   A(13,14,25)           110.3073         estimate D2E/DX2                !
 ! A35   A(23,14,24)           109.8307         estimate D2E/DX2                !
 ! A36   A(23,14,25)           109.8344         estimate D2E/DX2                !
 ! A37   A(24,14,25)           110.4618         estimate D2E/DX2                !
 ! D1    D(6,1,2,3)             -0.0583         estimate D2E/DX2                !
 ! D2    D(6,1,2,7)           -179.9647         estimate D2E/DX2                !
 ! D3    D(15,1,2,3)           179.8016         estimate D2E/DX2                !
 ! D4    D(15,1,2,7)            -0.1048         estimate D2E/DX2                !
 ! D5    D(2,1,6,5)             -0.1762         estimate D2E/DX2                !
 ! D6    D(2,1,6,17)           179.7628         estimate D2E/DX2                !
 ! D7    D(15,1,6,5)           179.9694         estimate D2E/DX2                !
 ! D8    D(15,1,6,17)           -0.0916         estimate D2E/DX2                !
 ! D9    D(1,2,3,4)              0.11           estimate D2E/DX2                !
 ! D10   D(1,2,3,13)          -179.909          estimate D2E/DX2                !
 ! D11   D(7,2,3,4)           -179.984          estimate D2E/DX2                !
 ! D12   D(7,2,3,13)            -0.003          estimate D2E/DX2                !
 ! D13   D(1,2,7,18)           179.9465         estimate D2E/DX2                !
 ! D14   D(3,2,7,18)             0.0392         estimate D2E/DX2                !
 ! D15   D(2,3,4,5)              0.0724         estimate D2E/DX2                !
 ! D16   D(2,3,4,16)           179.983          estimate D2E/DX2                !
 ! D17   D(13,3,4,5)          -179.9056         estimate D2E/DX2                !
 ! D18   D(13,3,4,16)            0.0051         estimate D2E/DX2                !
 ! D19   D(2,3,13,14)         -179.7883         estimate D2E/DX2                !
 ! D20   D(4,3,13,14)            0.1909         estimate D2E/DX2                !
 ! D21   D(3,4,5,6)             -0.3008         estimate D2E/DX2                !
 ! D22   D(3,4,5,8)            179.8921         estimate D2E/DX2                !
 ! D23   D(16,4,5,6)           179.7874         estimate D2E/DX2                !
 ! D24   D(16,4,5,8)            -0.0197         estimate D2E/DX2                !
 ! D25   D(4,5,6,1)              0.355          estimate D2E/DX2                !
 ! D26   D(4,5,6,17)          -179.5832         estimate D2E/DX2                !
 ! D27   D(8,5,6,1)           -179.8469         estimate D2E/DX2                !
 ! D28   D(8,5,6,17)             0.2149         estimate D2E/DX2                !
 ! D29   D(4,5,8,9)           -178.869          estimate D2E/DX2                !
 ! D30   D(4,5,8,19)             1.0886         estimate D2E/DX2                !
 ! D31   D(6,5,8,9)              1.3308         estimate D2E/DX2                !
 ! D32   D(6,5,8,19)          -178.7116         estimate D2E/DX2                !
 ! D33   D(5,8,9,10)          -178.7511         estimate D2E/DX2                !
 ! D34   D(5,8,9,20)             1.3055         estimate D2E/DX2                !
 ! D35   D(19,8,9,10)            1.2914         estimate D2E/DX2                !
 ! D36   D(19,8,9,20)         -178.6519         estimate D2E/DX2                !
 ! D37   D(8,9,10,11)         -175.8748         estimate D2E/DX2                !
 ! D38   D(8,9,10,12)            4.5824         estimate D2E/DX2                !
 ! D39   D(20,9,10,11)           4.0729         estimate D2E/DX2                !
 ! D40   D(20,9,10,12)        -175.47           estimate D2E/DX2                !
 ! D41   D(9,10,11,21)        -168.9477         estimate D2E/DX2                !
 ! D42   D(12,10,11,21)         10.5965         estimate D2E/DX2                !
 ! D43   D(9,10,12,22)        -166.0058         estimate D2E/DX2                !
 ! D44   D(11,10,12,22)         14.4618         estimate D2E/DX2                !
 ! D45   D(3,13,14,23)         179.875          estimate D2E/DX2                !
 ! D46   D(3,13,14,24)         -61.2785         estimate D2E/DX2                !
 ! D47   D(3,13,14,25)          61.0227         estimate D2E/DX2                !
 --------------------------------------------------------------------------------
 Trust Radius=3.00D-01 FncErr=1.00D-07 GrdErr=1.00D-06
 Number of steps in this run=    119 maximum allowed number of steps=    150.
 GradGradGradGradGradGradGradGradGradGradGradGradGradGradGradGradGradGrad

                          Input orientation:                          
 ---------------------------------------------------------------------
 Center     Atomic      Atomic             Coordinates (Angstroms)
 Number     Number       Type             X           Y           Z
 ---------------------------------------------------------------------
      1          6           0        1.476187   -2.026296   -0.023451
      2          6           0        2.510824   -1.081625   -0.010959
      3          6           0        2.223866    0.311730    0.003735
      4          6           0        0.916424    0.734659    0.007979
      5          6           0       -0.143429   -0.217482   -0.000728
      6          6           0        0.167061   -1.599366   -0.020243
      7          8           0        3.767408   -1.495782   -0.014799
      8          6           0       -1.472834    0.264563    0.006423
      9          6           0       -2.636451   -0.487367    0.021812
     10          6           0       -3.879863    0.132085    0.001132
     11          8           0       -4.952249   -0.618159    0.099909
     12          8           0       -3.983476    1.439002   -0.123605
     13          8           0        3.333988    1.081286    0.012488
     14          6           0        3.167183    2.495073    0.032105
     15          1           0        1.739440   -3.077726   -0.037746
     16          1           0        0.679084    1.793281    0.019416
     17          1           0       -0.626329   -2.338529   -0.033923
     18          1           0        4.371864   -0.734481   -0.005804
     19          1           0       -1.592205    1.347673   -0.000299
     20          1           0       -2.651378   -1.568913    0.050866
     21          1           0       -5.794951   -0.176855   -0.083964
     22          1           0       -4.856540    1.804868    0.081727
     23          1           0        4.170468    2.915455    0.038531
     24          1           0        2.631235    2.826823   -0.862983
     25          1           0        2.630142    2.801781    0.935411
 ---------------------------------------------------------------------
                    Distance matrix (angstroms):
                    1          2          3          4          5
     1  C    0.000000
     2  C    1.401083   0.000000
     3  C    2.454817   1.422673   0.000000
     4  C    2.817303   2.416890   1.374151   0.000000
     5  C    2.428061   2.791399   2.425731   1.424758   0.000000
     6  C    1.376986   2.400285   2.807723   2.451533   1.416470
     7  O    2.351853   1.323081   2.376966   3.619875   4.114474
     8  C    3.734388   4.205004   3.697002   2.435066   1.414120
     9  C    4.391371   5.181569   4.925603   3.757188   2.507689
    10  C    5.774642   6.504930   6.106373   4.833995   3.752751
    11  O    6.582010   7.478272   7.236751   6.023279   4.826533
    12  O    6.467321   6.967222   6.310155   4.952013   4.183898
    13  O    3.620743   2.314375   1.350801   2.442291   3.712062
    14  C    4.827560   3.636678   2.378579   2.857544   4.280092
    15  H    1.083979   2.140133   3.424150   3.900478   3.424553
    16  H    3.902099   3.409000   2.140465   1.084962   2.172579
    17  H    2.125599   3.379654   3.892159   3.438943   2.175577
    18  H    3.170811   1.893147   2.389256   3.754814   4.544798
    19  H    4.560618   4.768275   3.954187   2.582455   2.132759
    20  H    4.153494   5.185518   5.225614   4.247057   2.849357
    21  H    7.502902   8.355228   8.034167   6.773615   5.652281
    22  H    7.402183   7.913184   7.236553   5.871788   5.129339
    23  H    5.628845   4.328223   3.251131   3.917347   5.331655
    24  H    5.058825   4.002051   2.691253   2.841883   4.208329
    25  H    5.055824   3.998837   2.689504   2.840766   4.205354
                    6          7          8          9         10
     6  C    0.000000
     7  O    3.601841   0.000000
     8  C    2.482780   5.528056   0.000000
     9  C    3.016287   6.482874   1.385511   0.000000
    10  C    4.401815   7.818629   2.410678   1.389324   0.000000
    11  O    5.213879   8.764462   3.590859   2.320803   1.312492
    12  O    5.144834   8.288607   2.774804   2.355105   1.316939
    13  O    4.149264   2.613403   4.875716   6.173079   7.276040
    14  C    5.076210   4.036012   5.148358   6.525122   7.432734
    15  H    2.158293   2.572106   4.635898   5.085463   6.471550
    16  H    3.431296   4.511857   2.639678   4.024194   4.852206
    17  H    1.084443   4.473870   2.737569   2.733221   4.085419
    18  H    4.292855   0.972125   5.929480   7.012725   8.297107
    19  H    3.432267   6.067199   1.089689   2.111471   2.590567
    20  H    2.819500   6.419538   2.180040   1.082039   2.098819
    21  H    6.129697   9.653137   4.345540   3.175489   1.941712
    22  H    6.069248   9.234505   3.718558   3.191665   1.938710
    23  H    6.034429   4.429934   6.234991   7.610100   8.518003
    24  H    5.135515   4.549200   4.915732   6.286114   7.099486
    25  H    5.133238   4.545913   4.912729   6.276158   7.097909
                   11         12         13         14         15
    11  O    0.000000
    12  O    2.284818   0.000000
    13  O    8.459165   7.327466   0.000000
    14  C    8.696090   7.229900   1.423728   0.000000
    15  H    7.130717   7.291088   4.454491   5.753209   0.000000
    16  H    6.126454   4.678187   2.748727   2.585210   4.985412
    17  H    4.657378   5.054525   5.232724   6.144819   2.478566
    18  H    9.325438   8.634212   2.091538   3.447131   3.524411
    19  H    3.894154   2.396189   4.933407   4.895850   5.539442
    20  H    2.490049   3.294310   6.545963   7.097322   4.643668
    21  H    0.968868   2.427758   9.215734   9.352674   8.073676
    22  H    2.424985   0.968638   8.222719   8.053507   8.207372
    23  H    9.783361   8.288124   2.016074   1.087816   6.467916
    24  H    8.384765   6.799054   2.075382   1.094752   6.028268
    25  H    8.359827   6.835102   2.075401   1.094735   6.025694
                   16         17         18         19         20
    16  H    0.000000
    17  H    4.333452   0.000000
    18  H    4.475136   5.249352   0.000000
    19  H    2.314673   3.810792   6.317081   0.000000
    20  H    4.732580   2.168022   7.072865   3.103375   0.000000
    21  H    6.767958   5.602677  10.182396   4.471494   3.440648
    22  H    5.535987   5.922482   9.571802   3.297217   4.030644
    23  H    3.667343   7.114693   3.655757   5.972257   8.163779
    24  H    2.378598   6.162785   4.055543   4.557363   6.932793
    25  H    2.379653   6.161737   4.052731   4.562696   6.912296
                   21         22         23         24         25
    21  H    0.000000
    22  H    2.198930   0.000000
    23  H   10.434892   9.095171   0.000000
    24  H    8.979397   7.616012   1.786007   0.000000
    25  H    8.994086   7.600856   1.786035   1.798569   0.000000
 Stoichiometry    C10H11O4(1+)
 Framework group  C1[X(C10H11O4)]
 Deg. of freedom    69
 Full point group                 C1      NOp   1
 Largest Abelian subgroup         C1      NOp   1
 Largest concise Abelian subgroup C1      NOp   1
                         Standard orientation:                         
 ---------------------------------------------------------------------
 Center     Atomic      Atomic             Coordinates (Angstroms)
 Number     Number       Type             X           Y           Z
 ---------------------------------------------------------------------
      1          6           0        1.476187   -2.026296   -0.023451
      2          6           0        2.510824   -1.081625   -0.010959
      3          6           0        2.223866    0.311730    0.003735
      4          6           0        0.916424    0.734659    0.007979
      5          6           0       -0.143429   -0.217482   -0.000728
      6          6           0        0.167061   -1.599366   -0.020243
      7          8           0        3.767408   -1.495782   -0.014799
      8          6           0       -1.472834    0.264563    0.006423
      9          6           0       -2.636451   -0.487367    0.021812
     10          6           0       -3.879863    0.132085    0.001132
     11          8           0       -4.952249   -0.618159    0.099909
     12          8           0       -3.983476    1.439002   -0.123605
     13          8           0        3.333988    1.081286    0.012488
     14          6           0        3.167183    2.495073    0.032105
     15          1           0        1.739440   -3.077726   -0.037746
     16          1           0        0.679084    1.793281    0.019416
     17          1           0       -0.626329   -2.338529   -0.033923
     18          1           0        4.371864   -0.734481   -0.005804
     19          1           0       -1.592205    1.347673   -0.000299
     20          1           0       -2.651378   -1.568913    0.050866
     21          1           0       -5.794951   -0.176855   -0.083964
     22          1           0       -4.856540    1.804868    0.081727
     23          1           0        4.170468    2.915455    0.038531
     24          1           0        2.631235    2.826823   -0.862983
     25          1           0        2.630142    2.801781    0.935411
 ---------------------------------------------------------------------
 Rotational constants (GHZ):      1.5440121      0.2875861      0.2429193
 Standard basis: 6-31+G(d,p) (6D, 7F)
 There are   321 symmetry adapted cartesian basis functions of A   symmetry.
 There are   321 symmetry adapted basis functions of A   symmetry.
   321 basis functions,   525 primitive gaussians,   321 cartesian basis functions
    51 alpha electrons       51 beta electrons
       nuclear repulsion energy       841.7082738250 Hartrees.
 NAtoms=   25 NActive=   25 NUniq=   25 SFac= 1.00D+00 NAtFMM=   60 NAOKFM=F Big=F
 Integral buffers will be    131072 words long.
 Raffenetti 2 integral format.
 Two-electron integral symmetry is turned on.
 One-electron integrals computed using PRISM.
 NBasis=   321 RedAO= T EigKep=  1.37D-06  NBF=   321
 NBsUse=   320 1.00D-06 EigRej=  6.47D-07 NBFU=   320
 ExpMin= 4.38D-02 ExpMax= 5.48D+03 ExpMxC= 8.25D+02 IAcc=2 IRadAn=         4 AccDes= 0.00D+00
 Harris functional with IExCor=  408 and IRadAn=       4 diagonalized for initial guess.
 HarFok:  IExCor=  408 AccDes= 0.00D+00 IRadAn=         4 IDoV= 1 UseB2=F ITyADJ=14
 ICtDFT=  3500011 ScaDFX=  1.000000  1.000000  1.000000  1.000000
 FoFCou: FMM=F IPFlag=           0 FMFlag=      100000 FMFlg1=           0
         NFxFlg=           0 DoJE=T BraDBF=F KetDBF=T FulRan=T
         wScrn=  0.000000 ICntrl=     500 IOpCl=  0 I1Cent=   200000004 NGrid=           0
         NMat0=    1 NMatS0=      1 NMatT0=    0 NMatD0=    1 NMtDS0=    0 NMtDT0=    0
 Petite list used in FoFCou.
 Requested convergence on RMS density matrix=1.00D-08 within 128 cycles.
 Requested convergence on MAX density matrix=1.00D-06.
 Requested convergence on             energy=1.00D-06.
 No special actions if energy rises.
 SCF Done:  E(RB3PW91) =  -688.098525784     A.U. after   15 cycles
            NFock= 15  Conv=0.79D-08     -V/T= 2.0089

 **********************************************************************

            Population analysis using the SCF density.

 **********************************************************************

 Orbital symmetries:
       Occupied  (A) (A) (A) (A) (A) (A) (A) (A) (A) (A) (A) (A)
                 (A) (A) (A) (A) (A) (A) (A) (A) (A) (A) (A) (A)
                 (A) (A) (A) (A) (A) (A) (A) (A) (A) (A) (A) (A)
                 (A) (A) (A) (A) (A) (A) (A) (A) (A) (A) (A) (A)
                 (A) (A) (A)
       Virtual   (A) (A) (A) (A) (A) (A) (A) (A) (A) (A) (A) (A)
                 (A) (A) (A) (A) (A) (A) (A) (A) (A) (A) (A) (A)
                 (A) (A) (A) (A) (A) (A) (A) (A) (A) (A) (A) (A)
                 (A) (A) (A) (A) (A) (A) (A) (A) (A) (A) (A) (A)
                 (A) (A) (A) (A) (A) (A) (A) (A) (A) (A) (A) (A)
                 (A) (A) (A) (A) (A) (A) (A) (A) (A) (A) (A) (A)
                 (A) (A) (A) (A) (A) (A) (A) (A) (A) (A) (A) (A)
                 (A) (A) (A) (A) (A) (A) (A) (A) (A) (A) (A) (A)
                 (A) (A) (A) (A) (A) (A) (A) (A) (A) (A) (A) (A)
                 (A) (A) (A) (A) (A) (A) (A) (A) (A) (A) (A) (A)
                 (A) (A) (A) (A) (A) (A) (A) (A) (A) (A) (A) (A)
                 (A) (A) (A) (A) (A) (A) (A) (A) (A) (A) (A) (A)
                 (A) (A) (A) (A) (A) (A) (A) (A) (A) (A) (A) (A)
                 (A) (A) (A) (A) (A) (A) (A) (A) (A) (A) (A) (A)
                 (A) (A) (A) (A) (A) (A) (A) (A) (A) (A) (A) (A)
                 (A) (A) (A) (A) (A) (A) (A) (A) (A) (A) (A) (A)
                 (A) (A) (A) (A) (A) (A) (A) (A) (A) (A) (A) (A)
                 (A) (A) (A) (A) (A) (A) (A) (A) (A) (A) (A) (A)
                 (A) (A) (A) (A) (A) (A) (A) (A) (A) (A) (A) (A)
                 (A) (A) (A) (A) (A) (A) (A) (A) (A) (A) (A) (A)
                 (A) (A) (A) (A) (A) (A) (A) (A) (A) (A) (A) (A)
                 (A) (A) (A) (A) (A) (A) (A) (A) (A) (A) (A) (A)
                 (A) (A) (A) (A) (A)
 The electronic state is 1-A.
 Alpha  occ. eigenvalues --  -19.38453 -19.38300 -19.32294 -19.31985 -10.50438
 Alpha  occ. eigenvalues --  -10.39829 -10.38248 -10.37002 -10.34798 -10.34161
 Alpha  occ. eigenvalues --  -10.34038 -10.33344 -10.33220 -10.32037  -1.32632
 Alpha  occ. eigenvalues --   -1.24779  -1.23775  -1.20725  -1.01793  -0.97975
 Alpha  occ. eigenvalues --   -0.92094  -0.90713  -0.85994  -0.83670  -0.80894
 Alpha  occ. eigenvalues --   -0.78794  -0.75487  -0.72670  -0.70753  -0.67920
 Alpha  occ. eigenvalues --   -0.65731  -0.64823  -0.64228  -0.62723  -0.60826
 Alpha  occ. eigenvalues --   -0.59333  -0.58534  -0.57111  -0.56013  -0.55992
 Alpha  occ. eigenvalues --   -0.55625  -0.53804  -0.53282  -0.52382  -0.51160
 Alpha  occ. eigenvalues --   -0.48702  -0.47956  -0.47749  -0.44009  -0.39086
 Alpha  occ. eigenvalues --   -0.35670
 Alpha virt. eigenvalues --   -0.24791  -0.15295  -0.14197  -0.14100  -0.09623
 Alpha virt. eigenvalues --   -0.08956  -0.08581  -0.08404  -0.07684  -0.06513
 Alpha virt. eigenvalues --   -0.05423  -0.05127  -0.04393  -0.03857  -0.03712
 Alpha virt. eigenvalues --   -0.02457  -0.01790  -0.01454  -0.01051  -0.00310
 Alpha virt. eigenvalues --    0.00824   0.01343   0.02054   0.02345   0.03008
 Alpha virt. eigenvalues --    0.03344   0.03581   0.03777   0.04046   0.04565
 Alpha virt. eigenvalues --    0.04956   0.05075   0.05400   0.05870   0.06050
 Alpha virt. eigenvalues --    0.07790   0.08186   0.08378   0.08686   0.09358
 Alpha virt. eigenvalues --    0.09786   0.10125   0.10510   0.10700   0.11684
 Alpha virt. eigenvalues --    0.11760   0.12250   0.12805   0.13581   0.13891
 Alpha virt. eigenvalues --    0.14530   0.14992   0.15487   0.16002   0.16690
 Alpha virt. eigenvalues --    0.16867   0.17440   0.18065   0.18167   0.19013
 Alpha virt. eigenvalues --    0.19396   0.20017   0.20567   0.21187   0.21652
 Alpha virt. eigenvalues --    0.23351   0.23435   0.23982   0.24401   0.24686
 Alpha virt. eigenvalues --    0.25641   0.26133   0.27712   0.28235   0.28491
 Alpha virt. eigenvalues --    0.29896   0.30898   0.31618   0.33887   0.35465
 Alpha virt. eigenvalues --    0.36453   0.37904   0.39265   0.45842   0.49206
 Alpha virt. eigenvalues --    0.52533   0.53095   0.54031   0.54689   0.56800
 Alpha virt. eigenvalues --    0.57531   0.57893   0.58691   0.59908   0.60557
 Alpha virt. eigenvalues --    0.61219   0.61563   0.62942   0.64268   0.65095
 Alpha virt. eigenvalues --    0.65425   0.67078   0.71584   0.72485   0.73904
 Alpha virt. eigenvalues --    0.75988   0.78249   0.79054   0.79757   0.80059
 Alpha virt. eigenvalues --    0.82158   0.83770   0.84792   0.86413   0.90351
 Alpha virt. eigenvalues --    0.90815   0.93414   0.94031   0.95323   0.96375
 Alpha virt. eigenvalues --    0.97387   0.98704   0.99539   1.01452   1.02999
 Alpha virt. eigenvalues --    1.03792   1.04512   1.04676   1.06017   1.07015
 Alpha virt. eigenvalues --    1.07342   1.09083   1.09830   1.10686   1.10953
 Alpha virt. eigenvalues --    1.11845   1.12967   1.14804   1.14931   1.16050
 Alpha virt. eigenvalues --    1.16971   1.17367   1.18624   1.20653   1.22136
 Alpha virt. eigenvalues --    1.22446   1.23114   1.25754   1.26398   1.27960
 Alpha virt. eigenvalues --    1.28356   1.29998   1.32878   1.33440   1.37835
 Alpha virt. eigenvalues --    1.40880   1.42673   1.43576   1.45228   1.46079
 Alpha virt. eigenvalues --    1.49202   1.51928   1.55530   1.61079   1.63065
 Alpha virt. eigenvalues --    1.64206   1.66924   1.67752   1.69715   1.71374
 Alpha virt. eigenvalues --    1.72440   1.74055   1.76010   1.76659   1.76762
 Alpha virt. eigenvalues --    1.78080   1.79413   1.79946   1.83156   1.83238
 Alpha virt. eigenvalues --    1.84736   1.88448   1.89678   1.90756   1.92177
 Alpha virt. eigenvalues --    1.92416   1.94290   1.95702   2.00573   2.01635
 Alpha virt. eigenvalues --    2.03431   2.04339   2.07702   2.09546   2.10274
 Alpha virt. eigenvalues --    2.13925   2.14098   2.15397   2.18469   2.22671
 Alpha virt. eigenvalues --    2.23466   2.24230   2.25448   2.28284   2.32145
 Alpha virt. eigenvalues --    2.33472   2.34855   2.35300   2.36380   2.38343
 Alpha virt. eigenvalues --    2.39977   2.40746   2.42358   2.43374   2.44164
 Alpha virt. eigenvalues --    2.44860   2.48042   2.49324   2.50605   2.51832
 Alpha virt. eigenvalues --    2.52992   2.55913   2.57161   2.57732   2.59570
 Alpha virt. eigenvalues --    2.61327   2.61972   2.64173   2.69604   2.70614
 Alpha virt. eigenvalues --    2.73097   2.73258   2.74978   2.76852   2.82251
 Alpha virt. eigenvalues --    2.85074   2.88595   2.94574   2.96862   3.01661
 Alpha virt. eigenvalues --    3.04967   3.08000   3.09872   3.14444   3.20351
 Alpha virt. eigenvalues --    3.22871   3.27760   3.29858   3.32274   3.35089
 Alpha virt. eigenvalues --    3.37411   3.42069   3.42331   3.49318   3.68664
 Alpha virt. eigenvalues --    4.06411   4.12086   4.15482   4.20675   4.23411
 Alpha virt. eigenvalues --    4.26763   4.31691   4.34352   4.39098   4.41344
 Alpha virt. eigenvalues --    4.46750   4.54400   4.68156   4.97749
          Condensed to atoms (all electrons):
               1          2          3          4          5          6
     1  C   12.810944  -0.116699  -1.450111  -1.574672  -0.228398  -3.138427
     2  C   -0.116699  16.352535  -3.557035  -4.191552  -0.810871   0.070768
     3  C   -1.450111  -3.557035  13.222426   0.464923  -0.938609  -1.740225
     4  C   -1.574672  -4.191552   0.464923  15.563598   1.169729  -1.464748
     5  C   -0.228398  -0.810871  -0.938609   1.169729   8.736167  -0.436555
     6  C   -3.138427   0.070768  -1.740225  -1.464748  -0.436555  11.411666
     7  O   -0.410897   0.057478   0.329662   0.098156  -0.040239  -0.051705
     8  C    0.064588  -0.734140  -0.043487  -2.833394  -0.559361   0.641370
     9  C   -0.257819  -0.166769  -0.454316  -1.563556  -0.372107   0.815318
    10  C   -0.257709   0.026955   0.076635  -0.385773  -1.087516   0.051144
    11  O    0.000288   0.000695   0.000503   0.008811   0.025450  -0.003227
    12  O   -0.005418  -0.000936   0.001836  -0.016058  -0.003574   0.004431
    13  O    0.058357  -0.842708   0.524333   0.252155  -0.009706  -0.044562
    14  C    0.046436  -0.040977  -0.063200   0.015973  -0.054604  -0.007322
    15  H    0.112887   0.145696  -0.002030   0.019063  -0.020950   0.086227
    16  H   -0.004855  -0.001158  -0.121439   0.250423   0.038961  -0.005031
    17  H   -0.016970  -0.015591  -0.006189   0.024882   0.135240   0.159081
    18  H    0.162137   0.170873  -0.292767  -0.061144   0.002382   0.006258
    19  H    0.009575   0.005765   0.036652   0.280615   0.051380  -0.076565
    20  H    0.036714  -0.005524   0.008509   0.012880   0.077093  -0.019051
    21  H    0.000211   0.000038  -0.000041   0.001001  -0.000682   0.001626
    22  H   -0.000517  -0.000003   0.000383   0.005627   0.010759  -0.004599
    23  H    0.001621   0.047314   0.039671  -0.061372  -0.002937  -0.000447
    24  H   -0.002776  -0.028818  -0.056097   0.068434   0.008222   0.002782
    25  H   -0.000876  -0.036468  -0.057587   0.070557   0.017828   0.000720
               7          8          9         10         11         12
     1  C   -0.410897   0.064588  -0.257819  -0.257709   0.000288  -0.005418
     2  C    0.057478  -0.734140  -0.166769   0.026955   0.000695  -0.000936
     3  C    0.329662  -0.043487  -0.454316   0.076635   0.000503   0.001836
     4  C    0.098156  -2.833394  -1.563556  -0.385773   0.008811  -0.016058
     5  C   -0.040239  -0.559361  -0.372107  -1.087516   0.025450  -0.003574
     6  C   -0.051705   0.641370   0.815318   0.051144  -0.003227   0.004431
     7  O    8.262220   0.006425   0.000248   0.000275   0.000000  -0.000000
     8  C    0.006425   9.649246  -1.419574   0.739246  -0.112104   0.125334
     9  C    0.000248  -1.419574  11.967987  -2.227830   0.333563  -0.073735
    10  C    0.000275   0.739246  -2.227830   8.268179  -0.121446   0.099890
    11  O    0.000000  -0.112104   0.333563  -0.121446   8.154002  -0.092136
    12  O   -0.000000   0.125334  -0.073735   0.099890  -0.092136   8.199203
    13  O   -0.011554  -0.028633  -0.003531  -0.000035   0.000001  -0.000006
    14  C    0.002937  -0.037326  -0.004053  -0.002311  -0.000001  -0.000019
    15  H   -0.007863  -0.008409   0.000761  -0.000043   0.000000  -0.000000
    16  H   -0.000390   0.131997   0.029335   0.000046  -0.000000  -0.000117
    17  H   -0.000608   0.014472  -0.007621   0.022248   0.000147   0.000019
    18  H    0.200540   0.000006   0.000089   0.000015   0.000000   0.000000
    19  H   -0.000007   0.245073  -0.191944  -0.063521   0.000915  -0.007191
    20  H   -0.000003   0.048609   0.300354  -0.136366  -0.011187   0.007185
    21  H   -0.000000   0.053114  -0.089510   0.054300   0.213228  -0.005698
    22  H   -0.000000  -0.000799   0.023238  -0.009965  -0.006512   0.208285
    23  H   -0.000169   0.000279   0.000103   0.000005   0.000000  -0.000000
    24  H   -0.000116  -0.000306  -0.000317   0.000028   0.000000   0.000001
    25  H   -0.000086  -0.001490  -0.000312  -0.000110   0.000000  -0.000000
              13         14         15         16         17         18
     1  C    0.058357   0.046436   0.112887  -0.004855  -0.016970   0.162137
     2  C   -0.842708  -0.040977   0.145696  -0.001158  -0.015591   0.170873
     3  C    0.524333  -0.063200  -0.002030  -0.121439  -0.006189  -0.292767
     4  C    0.252155   0.015973   0.019063   0.250423   0.024882  -0.061144
     5  C   -0.009706  -0.054604  -0.020950   0.038961   0.135240   0.002382
     6  C   -0.044562  -0.007322   0.086227  -0.005031   0.159081   0.006258
     7  O   -0.011554   0.002937  -0.007863  -0.000390  -0.000608   0.200540
     8  C   -0.028633  -0.037326  -0.008409   0.131997   0.014472   0.000006
     9  C   -0.003531  -0.004053   0.000761   0.029335  -0.007621   0.000089
    10  C   -0.000035  -0.002311  -0.000043   0.000046   0.022248   0.000015
    11  O    0.000001  -0.000001   0.000000  -0.000000   0.000147   0.000000
    12  O   -0.000006  -0.000019  -0.000000  -0.000117   0.000019   0.000000
    13  O    8.558915   0.061372  -0.000526  -0.013318   0.000161   0.043119
    14  C    0.061372   5.015201   0.000022   0.000905  -0.000049   0.004643
    15  H   -0.000526   0.000022   0.478065   0.000012  -0.003904  -0.000059
    16  H   -0.013318   0.000905   0.000012   0.523150  -0.000112  -0.000021
    17  H    0.000161  -0.000049  -0.003904  -0.000112   0.526868   0.000005
    18  H    0.043119   0.004643  -0.000059  -0.000021   0.000005   0.349244
    19  H    0.000071   0.001221   0.000002   0.003182  -0.000007   0.000000
    20  H    0.000001   0.000025   0.000004  -0.000000   0.001051   0.000000
    21  H    0.000000   0.000000   0.000000   0.000000  -0.000000  -0.000000
    22  H   -0.000000   0.000006  -0.000000  -0.000000   0.000000   0.000000
    23  H   -0.066275   0.411654  -0.000000   0.000083  -0.000000  -0.000071
    24  H   -0.041248   0.407618   0.000000  -0.000733   0.000000   0.000036
    25  H   -0.041719   0.406658   0.000000  -0.000700   0.000000   0.000035
              19         20         21         22         23         24
     1  C    0.009575   0.036714   0.000211  -0.000517   0.001621  -0.002776
     2  C    0.005765  -0.005524   0.000038  -0.000003   0.047314  -0.028818
     3  C    0.036652   0.008509  -0.000041   0.000383   0.039671  -0.056097
     4  C    0.280615   0.012880   0.001001   0.005627  -0.061372   0.068434
     5  C    0.051380   0.077093  -0.000682   0.010759  -0.002937   0.008222
     6  C   -0.076565  -0.019051   0.001626  -0.004599  -0.000447   0.002782
     7  O   -0.000007  -0.000003  -0.000000  -0.000000  -0.000169  -0.000116
     8  C    0.245073   0.048609   0.053114  -0.000799   0.000279  -0.000306
     9  C   -0.191944   0.300354  -0.089510   0.023238   0.000103  -0.000317
    10  C   -0.063521  -0.136366   0.054300  -0.009965   0.000005   0.000028
    11  O    0.000915  -0.011187   0.213228  -0.006512   0.000000   0.000000
    12  O   -0.007191   0.007185  -0.005698   0.208285  -0.000000   0.000001
    13  O    0.000071   0.000001   0.000000  -0.000000  -0.066275  -0.041248
    14  C    0.001221   0.000025   0.000000   0.000006   0.411654   0.407618
    15  H    0.000002   0.000004   0.000000  -0.000000  -0.000000   0.000000
    16  H    0.003182  -0.000000   0.000000  -0.000000   0.000083  -0.000733
    17  H   -0.000007   0.001051  -0.000000   0.000000  -0.000000   0.000000
    18  H    0.000000   0.000000  -0.000000   0.000000  -0.000071   0.000036
    19  H    0.516347   0.003157   0.000008  -0.000057   0.000000  -0.000001
    20  H    0.003157   0.487710   0.000018  -0.000177  -0.000000   0.000000
    21  H    0.000008   0.000018   0.374869   0.004283   0.000000  -0.000000
    22  H   -0.000057  -0.000177   0.004283   0.372839  -0.000000   0.000000
    23  H    0.000000  -0.000000   0.000000  -0.000000   0.481731  -0.023138
    24  H   -0.000001   0.000000  -0.000000   0.000000  -0.023138   0.531072
    25  H   -0.000001   0.000000   0.000000  -0.000000  -0.023085  -0.038945
              25
     1  C   -0.000876
     2  C   -0.036468
     3  C   -0.057587
     4  C    0.070557
     5  C    0.017828
     6  C    0.000720
     7  O   -0.000086
     8  C   -0.001490
     9  C   -0.000312
    10  C   -0.000110
    11  O    0.000000
    12  O   -0.000000
    13  O   -0.041719
    14  C    0.406658
    15  H    0.000000
    16  H   -0.000700
    17  H    0.000000
    18  H    0.000035
    19  H   -0.000001
    20  H    0.000000
    21  H    0.000000
    22  H   -0.000000
    23  H   -0.023085
    24  H   -0.038945
    25  H    0.531455
 Mulliken charges:
               1
     1  C    0.162387
     2  C   -0.328867
     3  C    0.077598
     4  C   -0.154558
     5  C    0.292898
     6  C   -0.258928
     7  O   -0.434306
     8  C    0.059263
     9  C   -0.638003
    10  C    0.953659
    11  O   -0.390989
    12  O   -0.441294
    13  O   -0.394665
    14  C   -0.164811
    15  H    0.201047
    16  H    0.169780
    17  H    0.166878
    18  H    0.414680
    19  H    0.185330
    20  H    0.188998
    21  H    0.393234
    22  H    0.397211
    23  H    0.195033
    24  H    0.174301
    25  H    0.174127
 Sum of Mulliken charges =   1.00000
 Mulliken charges with hydrogens summed into heavy atoms:
               1
     1  C    0.363433
     2  C   -0.328867
     3  C    0.077598
     4  C    0.015222
     5  C    0.292898
     6  C   -0.092050
     7  O   -0.019626
     8  C    0.244593
     9  C   -0.449005
    10  C    0.953659
    11  O    0.002245
    12  O   -0.044083
    13  O   -0.394665
    14  C    0.378650
 Electronic spatial extent (au):  <R**2>=           4125.4124
 Charge=              1.0000 electrons
 Dipole moment (field-independent basis, Debye):
    X=             -7.9132    Y=              3.4986    Z=              0.0636  Tot=              8.6524
 Quadrupole moment (field-independent basis, Debye-Ang):
   XX=             10.0682   YY=            -61.0693   ZZ=            -82.4317
   XY=             -2.9117   XZ=              0.3161   YZ=              1.0264
 Traceless Quadrupole moment (field-independent basis, Debye-Ang):
   XX=             54.5458   YY=            -16.5917   ZZ=            -37.9541
   XY=             -2.9117   XZ=              0.3161   YZ=              1.0264
 Octapole moment (field-independent basis, Debye-Ang**2):
  XXX=           -332.5036  YYY=             21.1662  ZZZ=             -0.0401  XYY=              2.1463
  XXY=             96.8141  XXZ=             -2.6817  XZZ=             -3.6262  YZZ=              5.4219
  YYZ=              1.3069  XYZ=             -3.6177
 Hexadecapole moment (field-independent basis, Debye-Ang**3):
 XXXX=          -1312.1004 YYYY=           -776.4361 ZZZZ=            -90.6624 XXXY=           -256.7937
 XXXZ=             28.1851 YYYX=             23.7790 YYYZ=              3.2659 ZZZX=              0.6704
 ZZZY=             -0.1154 XXYY=           -664.3070 XXZZ=           -701.5329 YYZZ=           -173.0904
 XXYZ=             20.0641 YYXZ=             -4.8583 ZZXY=             -2.8981
 N-N= 8.417082738250D+02 E-N=-3.273495437780D+03  KE= 6.819993988247D+02
 Calling FoFJK, ICntrl=      2127 FMM=F ISym2X=0 I1Cent= 0 IOpClX= 0 NMat=1 NMatS=1 NMatT=0.
 ***** Axes restored to original set *****
 -------------------------------------------------------------------
 Center     Atomic                   Forces (Hartrees/Bohr)
 Number     Number              X              Y              Z
 -------------------------------------------------------------------
      1        6          -0.000720935   -0.000387175   -0.000028177
      2        6           0.000846818    0.000963519   -0.000005548
      3        6           0.001707538    0.000066959    0.000030314
      4        6          -0.001048064    0.000466736   -0.000019293
      5        6          -0.002266801    0.002090269   -0.000023240
      6        6           0.000848270   -0.002157228    0.000038291
      7        8           0.002205606   -0.002676596   -0.000026461
      8        6           0.002478241   -0.000321818    0.000051093
      9        6          -0.002081628    0.002086954   -0.000096563
     10        6           0.001416028   -0.001175802    0.000133623
     11        8          -0.004715603   -0.004837377    0.000648331
     12        8           0.000121472    0.005624780   -0.000692889
     13        8          -0.000370328   -0.001569808    0.000007859
     14        6          -0.000055605    0.001029105   -0.000038977
     15        1          -0.000202254   -0.000530627   -0.000017584
     16        1          -0.000283885   -0.000341160    0.000009977
     17        1           0.000252887   -0.000089105    0.000021441
     18        1          -0.000592769    0.000991243    0.000012653
     19        1           0.000210422   -0.000636739    0.000040363
     20        1           0.000202824   -0.000371890   -0.000050386
     21        1           0.000749969    0.000308526   -0.000049060
     22        1           0.000337024   -0.000702972    0.000007516
     23        1           0.000630815    0.000460012    0.000001476
     24        1           0.000169267    0.000865956   -0.000302595
     25        1           0.000160694    0.000844239    0.000347836
 -------------------------------------------------------------------
 Cartesian Forces:  Max     0.005624780 RMS     0.001365477

 GradGradGradGradGradGradGradGradGradGradGradGradGradGradGradGradGradGrad
 Berny optimization.
 FormGI is forming the generalized inverse of G from B-inverse, IUseBI=4.
 GSVD:  received Info=                   1 from GESDD.
 Internal  Forces:  Max     0.005868176 RMS     0.001302285
 Search for a local minimum.
 Step number   1 out of a maximum of  119
 All quantities printed in internal units (Hartrees-Bohrs-Radians)
 Mixed Optimization -- RFO/linear search
 Second derivative matrix not updated -- first step.
 ITU=  0
     Eigenvalues ---    0.01378   0.01829   0.01872   0.01902   0.01977
     Eigenvalues ---    0.02068   0.02092   0.02103   0.02161   0.02184
     Eigenvalues ---    0.02230   0.02249   0.02257   0.02267   0.02280
     Eigenvalues ---    0.02343   0.02528   0.02709   0.02791   0.02849
     Eigenvalues ---    0.10223   0.10708   0.16000   0.16000   0.16000
     Eigenvalues ---    0.16000   0.16000   0.16000   0.16000   0.16000
     Eigenvalues ---    0.16000   0.16000   0.16000   0.22000   0.22000
     Eigenvalues ---    0.22370   0.23479   0.24604   0.25000   0.25000
     Eigenvalues ---    0.25000   0.25000   0.25000   0.25000   0.34269
     Eigenvalues ---    0.34271   0.34849   0.35066   0.35401   0.35463
     Eigenvalues ---    0.35518   0.35749   0.39353   0.40704   0.41904
     Eigenvalues ---    0.42598   0.43358   0.44345   0.47437   0.47505
     Eigenvalues ---    0.48109   0.49946   0.52945   0.53609   0.53656
     Eigenvalues ---    0.54851   0.61170   0.62700   0.63840
 RFO step:  Lambda=-5.39709468D-04 EMin= 1.37789972D-02
 Linear search not attempted -- first point.
 Iteration  1 RMS(Cart)=  0.02312262 RMS(Int)=  0.00014088
 Iteration  2 RMS(Cart)=  0.00023252 RMS(Int)=  0.00000655
 Iteration  3 RMS(Cart)=  0.00000004 RMS(Int)=  0.00000655
 Variable       Old X    -DE/DX   Delta X   Delta X   Delta X     New X
                                 (Linear)    (Quad)   (Total)
    R1        2.64766   0.00168   0.00000   0.00363   0.00363   2.65129
    R2        2.60213   0.00056   0.00000   0.00101   0.00101   2.60313
    R3        2.04842   0.00047   0.00000   0.00131   0.00131   2.04974
    R4        2.68846   0.00175   0.00000   0.00422   0.00422   2.69268
    R5        2.50026   0.00206   0.00000   0.00336   0.00336   2.50363
    R6        2.59677   0.00303   0.00000   0.00615   0.00615   2.60292
    R7        2.55264   0.00137   0.00000   0.00249   0.00249   2.55514
    R8        2.69240   0.00154   0.00000   0.00377   0.00377   2.69617
    R9        2.05028  -0.00027   0.00000  -0.00077  -0.00077   2.04951
   R10        2.67674   0.00262   0.00000   0.00602   0.00602   2.68276
   R11        2.67230   0.00121   0.00000   0.00278   0.00278   2.67508
   R12        2.04930  -0.00012   0.00000  -0.00035  -0.00035   2.04895
   R13        1.83705   0.00040   0.00000   0.00076   0.00076   1.83781
   R14        2.61824   0.00281   0.00000   0.00583   0.00583   2.62407
   R15        2.05921  -0.00065   0.00000  -0.00188  -0.00188   2.05734
   R16        2.62544   0.00153   0.00000   0.00323   0.00323   2.62867
   R17        2.04476   0.00036   0.00000   0.00102   0.00102   2.04578
   R18        2.48025   0.00587   0.00000   0.00918   0.00918   2.48943
   R19        2.48865   0.00492   0.00000   0.00784   0.00784   2.49650
   R20        1.83090  -0.00050   0.00000  -0.00093  -0.00093   1.82996
   R21        1.83046  -0.00057   0.00000  -0.00106  -0.00106   1.82941
   R22        2.69046   0.00306   0.00000   0.00728   0.00728   2.69774
   R23        2.05567   0.00076   0.00000   0.00217   0.00217   2.05784
   R24        2.06878   0.00042   0.00000   0.00124   0.00124   2.07002
   R25        2.06875   0.00044   0.00000   0.00129   0.00129   2.07004
    A1        2.08633   0.00070   0.00000   0.00253   0.00253   2.08885
    A2        2.06551  -0.00001   0.00000   0.00084   0.00084   2.06634
    A3        2.13135  -0.00069   0.00000  -0.00336  -0.00336   2.12799
    A4        2.10772  -0.00046   0.00000  -0.00202  -0.00203   2.10569
    A5        2.08318  -0.00016   0.00000  -0.00055  -0.00055   2.08263
    A6        2.09228   0.00062   0.00000   0.00257   0.00258   2.09486
    A7        2.08676  -0.00043   0.00000  -0.00151  -0.00151   2.08525
    A8        1.97389  -0.00101   0.00000  -0.00412  -0.00412   1.96977
    A9        2.22253   0.00143   0.00000   0.00563   0.00563   2.22816
   A10        2.09679   0.00085   0.00000   0.00412   0.00413   2.10091
   A11        2.10420  -0.00007   0.00000   0.00017   0.00017   2.10438
   A12        2.08219  -0.00078   0.00000  -0.00430  -0.00430   2.07790
   A13        2.08173  -0.00124   0.00000  -0.00508  -0.00508   2.07665
   A14        2.06177   0.00009   0.00000   0.00042   0.00042   2.06219
   A15        2.13968   0.00115   0.00000   0.00465   0.00465   2.14434
   A16        2.10703   0.00057   0.00000   0.00196   0.00196   2.10900
   A17        2.07624  -0.00052   0.00000  -0.00248  -0.00248   2.07376
   A18        2.09991  -0.00004   0.00000   0.00052   0.00052   2.10043
   A19        1.92343  -0.00198   0.00000  -0.01234  -0.01234   1.91109
   A20        2.22005   0.00137   0.00000   0.00621   0.00621   2.22626
   A21        2.02837  -0.00083   0.00000  -0.00401  -0.00401   2.02436
   A22        2.03476  -0.00054   0.00000  -0.00221  -0.00221   2.03256
   A23        2.10540   0.00377   0.00000   0.01707   0.01707   2.12248
   A24        2.15837  -0.00209   0.00000  -0.00985  -0.00985   2.14853
   A25        2.01941  -0.00167   0.00000  -0.00723  -0.00723   2.01218
   A26        2.06606  -0.00120   0.00000  -0.00481  -0.00481   2.06125
   A27        2.11098   0.00000   0.00000  -0.00000  -0.00000   2.11098
   A28        2.10611   0.00120   0.00000   0.00479   0.00479   2.11090
   A29        2.02197  -0.00118   0.00000  -0.00733  -0.00733   2.01463
   A30        2.01050  -0.00097   0.00000  -0.00603  -0.00603   2.00448
   A31        2.05955   0.00503   0.00000   0.02006   0.02006   2.07961
   A32        1.85019  -0.00031   0.00000  -0.00296  -0.00296   1.84723
   A33        1.92518   0.00102   0.00000   0.00692   0.00690   1.93208
   A34        1.92522   0.00099   0.00000   0.00670   0.00668   1.93190
   A35        1.91691  -0.00069   0.00000  -0.00536  -0.00536   1.91155
   A36        1.91697  -0.00068   0.00000  -0.00531  -0.00531   1.91166
   A37        1.92792  -0.00034   0.00000  -0.00019  -0.00023   1.92769
    D1       -0.00102  -0.00000   0.00000   0.00006   0.00006  -0.00096
    D2       -3.14098  -0.00000   0.00000  -0.00008  -0.00009  -3.14106
    D3        3.13813   0.00000   0.00000   0.00015   0.00016   3.13829
    D4       -0.00183  -0.00000   0.00000   0.00001   0.00001  -0.00182
    D5       -0.00307   0.00001   0.00000   0.00076   0.00076  -0.00231
    D6        3.13745   0.00001   0.00000   0.00033   0.00033   3.13778
    D7        3.14106   0.00001   0.00000   0.00065   0.00065  -3.14147
    D8       -0.00160   0.00000   0.00000   0.00022   0.00022  -0.00138
    D9        0.00192  -0.00001   0.00000  -0.00047  -0.00047   0.00145
   D10       -3.14000   0.00001   0.00000   0.00034   0.00034  -3.13967
   D11       -3.14131  -0.00001   0.00000  -0.00034  -0.00033   3.14154
   D12       -0.00005   0.00001   0.00000   0.00048   0.00048   0.00042
   D13        3.14066   0.00000   0.00000   0.00010   0.00010   3.14076
   D14        0.00068   0.00000   0.00000  -0.00003  -0.00003   0.00065
   D15        0.00126   0.00000   0.00000   0.00007   0.00007   0.00133
   D16        3.14130   0.00001   0.00000   0.00031   0.00031  -3.14158
   D17       -3.13995  -0.00002   0.00000  -0.00087  -0.00087  -3.14082
   D18        0.00009  -0.00001   0.00000  -0.00063  -0.00063  -0.00054
   D19       -3.13790  -0.00003   0.00000  -0.00141  -0.00141  -3.13930
   D20        0.00333  -0.00001   0.00000  -0.00052  -0.00052   0.00281
   D21       -0.00525   0.00002   0.00000   0.00075   0.00075  -0.00450
   D22        3.13971   0.00001   0.00000   0.00059   0.00059   3.14030
   D23        3.13788   0.00001   0.00000   0.00051   0.00051   3.13839
   D24       -0.00034   0.00001   0.00000   0.00035   0.00035   0.00001
   D25        0.00620  -0.00003   0.00000  -0.00118  -0.00118   0.00501
   D26       -3.13432  -0.00002   0.00000  -0.00074  -0.00074  -3.13506
   D27       -3.13892  -0.00002   0.00000  -0.00102  -0.00102  -3.13995
   D28        0.00375  -0.00001   0.00000  -0.00059  -0.00058   0.00317
   D29       -3.12185  -0.00004   0.00000  -0.00201  -0.00201  -3.12386
   D30        0.01900  -0.00004   0.00000  -0.00218  -0.00218   0.01682
   D31        0.02323  -0.00004   0.00000  -0.00215  -0.00215   0.02107
   D32       -3.11911  -0.00005   0.00000  -0.00233  -0.00233  -3.12143
   D33       -3.11980  -0.00001   0.00000  -0.00052  -0.00052  -3.12032
   D34        0.02279  -0.00001   0.00000  -0.00061  -0.00061   0.02218
   D35        0.02254  -0.00001   0.00000  -0.00035  -0.00035   0.02219
   D36       -3.11806  -0.00001   0.00000  -0.00043  -0.00043  -3.11850
   D37       -3.06959   0.00001   0.00000   0.00061   0.00061  -3.06898
   D38        0.07998   0.00007   0.00000   0.00304   0.00304   0.08302
   D39        0.07109   0.00001   0.00000   0.00069   0.00069   0.07177
   D40       -3.06253   0.00007   0.00000   0.00312   0.00311  -3.05941
   D41       -2.94869   0.00006   0.00000   0.00210   0.00210  -2.94659
   D42        0.18494  -0.00001   0.00000  -0.00034  -0.00034   0.18460
   D43       -2.89735  -0.00002   0.00000  -0.00063  -0.00064  -2.89799
   D44        0.25241   0.00005   0.00000   0.00190   0.00190   0.25431
   D45        3.13941   0.00000   0.00000   0.00033   0.00033   3.13974
   D46       -1.06951  -0.00045   0.00000  -0.00410  -0.00413  -1.07364
   D47        1.06505   0.00046   0.00000   0.00481   0.00484   1.06989
         Item               Value     Threshold  Converged?
 Maximum Force            0.005868     0.000450     NO 
 RMS     Force            0.001302     0.000300     NO 
 Maximum Displacement     0.091803     0.001800     NO 
 RMS     Displacement     0.023235     0.001200     NO 
 Predicted change in Energy=-2.704427D-04
 GradGradGradGradGradGradGradGradGradGradGradGradGradGradGradGradGradGrad

                          Input orientation:                          
 ---------------------------------------------------------------------
 Center     Atomic      Atomic             Coordinates (Angstroms)
 Number     Number       Type             X           Y           Z
 ---------------------------------------------------------------------
      1          6           0        1.476570   -2.026006   -0.023160
      2          6           0        2.513478   -1.080975   -0.010906
      3          6           0        2.224502    0.314232    0.004718
      4          6           0        0.912852    0.734706    0.009500
      5          6           0       -0.149907   -0.217180    0.000552
      6          6           0        0.166244   -1.601050   -0.018910
      7          8           0        3.771149   -1.497506   -0.015704
      8          6           0       -1.480179    0.266791    0.007582
      9          6           0       -2.651868   -0.478315    0.020549
     10          6           0       -3.902804    0.129753    0.001072
     11          8           0       -4.968038   -0.639034    0.099360
     12          8           0       -4.019635    1.439664   -0.124471
     13          8           0        3.338010    1.081218    0.012636
     14          6           0        3.203479    2.502324    0.031320
     15          1           0        1.738159   -3.078559   -0.038043
     16          1           0        0.672634    1.792258    0.021333
     17          1           0       -0.623974   -2.343343   -0.032135
     18          1           0        4.367527   -0.729352   -0.006593
     19          1           0       -1.593926    1.349519    0.003054
     20          1           0       -2.664058   -1.560501    0.047012
     21          1           0       -5.813196   -0.204236   -0.086141
     22          1           0       -4.897514    1.791454    0.082288
     23          1           0        4.218428    2.896898    0.036530
     24          1           0        2.678817    2.853391   -0.863888
     25          1           0        2.678722    2.829544    0.935475
 ---------------------------------------------------------------------
                    Distance matrix (angstroms):
                    1          2          3          4          5
     1  C    0.000000
     2  C    1.403001   0.000000
     3  C    2.457009   1.424905   0.000000
     4  C    2.817867   2.420561   1.377406   0.000000
     5  C    2.432661   2.799981   2.433154   1.426753   0.000000
     6  C    1.377519   2.404173   2.811635   2.452343   1.419657
     7  O    2.354668   1.324861   2.382210   3.626743   4.124825
     8  C    3.741688   4.214986   3.704987   2.438349   1.415592
     9  C    4.409224   5.200479   4.940381   3.765471   2.515631
    10  C    5.795304   6.529524   6.130084   4.853513   3.768899
    11  O    6.593305   7.495369   7.256054   6.039876   4.837573
    12  O    6.498415   7.003433   6.346065   4.984410   4.211360
    13  O    3.622303   2.314192   1.352120   2.449790   3.721767
    14  C    4.846747   3.649372   2.397259   2.893428   4.317621
    15  H    1.084674   2.142941   3.427738   3.901843   3.428377
    16  H    3.902235   3.412509   2.143160   1.084556   2.171370
    17  H    2.124399   3.381957   3.895881   3.440633   2.178618
    18  H    3.168473   1.887103   2.383642   3.752133   4.546381
    19  H    4.563201   4.772658   3.956289   2.581080   2.130668
    20  H    4.167303   5.200017   5.235880   4.250137   2.850899
    21  H    7.514220   8.373042   8.054916   6.791942   5.663967
    22  H    7.430550   7.948732   7.274017   5.906130   5.155683
    23  H    5.635276   4.328115   3.262961   3.950018   5.364805
    24  H    5.095168   4.029163   2.721802   2.893141   4.263490
    25  H    5.093183   4.026798   2.720187   2.892070   4.261191
                    6          7          8          9         10
     6  C    0.000000
     7  O    3.606393   0.000000
     8  C    2.490029   5.539831   0.000000
     9  C    3.033784   6.503476   1.388598   0.000000
    10  C    4.421904   7.844604   2.426506   1.391031   0.000000
    11  O    5.224971   8.782004   3.604733   2.323077   1.317352
    12  O    5.174811   8.326771   2.800340   2.360183   1.321090
    13  O    4.153992   2.615001   4.886539   6.189575   7.303068
    14  C    5.105389   4.040186   5.189878   6.570343   7.491947
    15  H    2.157386   2.575515   4.642321   5.102650   6.489627
    16  H    3.431121   4.519371   2.638531   4.025893   4.868159
    17  H    1.084260   4.475804   2.747265   2.755623   4.107071
    18  H    4.290779   0.972528   5.931962   7.023935   8.314836
    19  H    3.435774   6.073709   1.088697   2.111995   2.611274
    20  H    2.831360   6.435821   2.177641   1.082578   2.096082
    21  H    6.140791   9.671462   4.359551   3.174980   1.941327
    22  H    6.095981   9.272140   3.742774   3.193524   1.938374
    23  H    6.054321   4.417417   6.276339   7.654625   8.579789
    24  H    5.183537   4.565403   4.974657   6.348125   7.175242
    25  H    5.182042   4.563058   4.972439   6.339890   7.174850
                   11         12         13         14         15
    11  O    0.000000
    12  O    2.295768   0.000000
    13  O    8.482760   7.367647   0.000000
    14  C    8.754796   7.302526   1.427582   0.000000
    15  H    7.137453   7.319426   4.457110   5.770462   0.000000
    16  H    6.142837   4.707756   2.758602   2.628587   4.986354
    17  H    4.668281   5.084307   5.237074   6.175267   2.473914
    18  H    9.336603   8.663891   2.082892   3.435139   3.526094
    19  H    3.917684   2.430730   4.939238   4.934051   5.541873
    20  H    2.481968   3.296663   6.557795   7.136861   4.657386
    21  H    0.968376   2.433257   9.241575   9.414866   8.080037
    22  H    2.431571   0.968079   8.266386   8.132283   8.231869
    23  H    9.843675   8.367505   2.018019   1.088962   6.470192
    24  H    8.461635   6.885827   2.084089   1.095406   6.062581
    25  H    8.438191   6.922661   2.083971   1.095417   6.061194
                   16         17         18         19         20
    16  H    0.000000
    17  H    4.334426   0.000000
    18  H    4.473425   5.246018   0.000000
    19  H    2.309469   3.818282   6.313535   0.000000
    20  H    4.730240   2.186561   7.080739   3.100860   0.000000
    21  H    6.787012   5.613084  10.194567   4.497149   3.431363
    22  H    5.570482   5.947502   9.602258   3.333958   4.028048
    23  H    3.713909   7.135384   3.629570   6.014896   8.199825
    24  H    2.436060   6.213396   4.052498   4.611893   6.989885
    25  H    2.436392   6.213118   4.050345   4.616861   6.971883
                   21         22         23         24         25
    21  H    0.000000
    22  H    2.202186   0.000000
    23  H   10.500741   9.182838   0.000000
    24  H    9.059153   7.708680   1.784110   0.000000
    25  H    9.075252   7.694473   1.784190   1.799520   0.000000
 Stoichiometry    C10H11O4(1+)
 Framework group  C1[X(C10H11O4)]
 Deg. of freedom    69
 Full point group                 C1      NOp   1
 Largest Abelian subgroup         C1      NOp   1
 Largest concise Abelian subgroup C1      NOp   1
                         Standard orientation:                         
 ---------------------------------------------------------------------
 Center     Atomic      Atomic             Coordinates (Angstroms)
 Number     Number       Type             X           Y           Z
 ---------------------------------------------------------------------
      1          6           0        1.475949   -2.028629   -0.023232
      2          6           0        2.514919   -1.085867   -0.010978
      3          6           0        2.228994    0.309969    0.004647
      4          6           0        0.918265    0.733308    0.009429
      5          6           0       -0.146571   -0.216254    0.000480
      6          6           0        0.166555   -1.600811   -0.018981
      7          8           0        3.771677   -1.505145   -0.015775
      8          6           0       -1.475783    0.270623    0.007510
      9          6           0       -2.649097   -0.471920    0.020477
     10          6           0       -3.898701    0.138880    0.001001
     11          8           0       -4.965613   -0.627577    0.099288
     12          8           0       -4.012669    1.449043   -0.124543
     13          8           0        3.344175    1.074520    0.012564
     14          6           0        3.212750    2.495916    0.031249
     15          1           0        1.735237   -3.081751   -0.038115
     16          1           0        0.680359    1.791383    0.021262
     17          1           0       -0.625284   -2.341375   -0.032207
     18          1           0        4.369733   -0.738296   -0.006664
     19          1           0       -1.587164    1.353598    0.002982
     20          1           0       -2.663652   -1.554077    0.046940
     21          1           0       -5.809819   -0.190934   -0.086213
     22          1           0       -4.889778    1.802751    0.082217
     23          1           0        4.228559    2.888271    0.036459
     24          1           0        2.688856    2.848129   -0.863959
     25          1           0        2.688709    2.824282    0.935403
 ---------------------------------------------------------------------
 Rotational constants (GHZ):      1.5387244      0.2850212      0.2409580
 Standard basis: 6-31+G(d,p) (6D, 7F)
 There are   321 symmetry adapted cartesian basis functions of A   symmetry.
 There are   321 symmetry adapted basis functions of A   symmetry.
   321 basis functions,   525 primitive gaussians,   321 cartesian basis functions
    51 alpha electrons       51 beta electrons
       nuclear repulsion energy       839.3548691029 Hartrees.
 NAtoms=   25 NActive=   25 NUniq=   25 SFac= 1.00D+00 NAtFMM=   60 NAOKFM=F Big=F
 Integral buffers will be    131072 words long.
 Raffenetti 2 integral format.
 Two-electron integral symmetry is turned on.
 One-electron integrals computed using PRISM.
 NBasis=   321 RedAO= T EigKep=  1.41D-06  NBF=   321
 NBsUse=   320 1.00D-06 EigRej=  6.56D-07 NBFU=   320
 Initial guess from the checkpoint file:  "B3PW91FAyang.chk"
 B after Tr=    -0.000000    0.000000    0.000000
         Rot=    1.000000   -0.000009    0.000009    0.000838 Ang=  -0.10 deg.
 ExpMin= 4.38D-02 ExpMax= 5.48D+03 ExpMxC= 8.25D+02 IAcc=2 IRadAn=         4 AccDes= 0.00D+00
 Harris functional with IExCor=  408 and IRadAn=       4 diagonalized for initial guess.
 HarFok:  IExCor=  408 AccDes= 0.00D+00 IRadAn=         4 IDoV= 1 UseB2=F ITyADJ=14
 ICtDFT=  3500011 ScaDFX=  1.000000  1.000000  1.000000  1.000000
 FoFCou: FMM=F IPFlag=           0 FMFlag=      100000 FMFlg1=           0
         NFxFlg=           0 DoJE=T BraDBF=F KetDBF=T FulRan=T
         wScrn=  0.000000 ICntrl=     500 IOpCl=  0 I1Cent=   200000004 NGrid=           0
         NMat0=    1 NMatS0=      1 NMatT0=    0 NMatD0=    1 NMtDS0=    0 NMtDT0=    0
 Petite list used in FoFCou.
 Requested convergence on RMS density matrix=1.00D-08 within 128 cycles.
 Requested convergence on MAX density matrix=1.00D-06.
 Requested convergence on             energy=1.00D-06.
 No special actions if energy rises.
 SCF Done:  E(RB3PW91) =  -688.098767310     A.U. after   12 cycles
            NFock= 12  Conv=0.59D-08     -V/T= 2.0091
 Calling FoFJK, ICntrl=      2127 FMM=F ISym2X=0 I1Cent= 0 IOpClX= 0 NMat=1 NMatS=1 NMatT=0.
 ***** Axes restored to original set *****
 -------------------------------------------------------------------
 Center     Atomic                   Forces (Hartrees/Bohr)
 Number     Number              X              Y              Z
 -------------------------------------------------------------------
      1        6          -0.000508553    0.000338068    0.000003386
      2        6          -0.000165855    0.000233555    0.000006501
      3        6           0.000183349    0.000617727   -0.000035708
      4        6           0.000612134   -0.000441348   -0.000017709
      5        6          -0.001035863    0.000492277    0.000011712
      6        6           0.000559296   -0.000488742   -0.000006500
      7        8           0.000024769   -0.000416999   -0.000003622
      8        6           0.000617488   -0.000744292    0.000045943
      9        6          -0.000872863    0.001347476   -0.000047215
     10        6           0.002063362   -0.000599095   -0.000160158
     11        8          -0.000739850   -0.000966044    0.000294742
     12        8           0.000244518    0.000535451   -0.000121362
     13        8          -0.000795227   -0.000284743    0.000032825
     14        6          -0.000411566    0.000261677   -0.000003080
     15        1          -0.000112908   -0.000011793    0.000003649
     16        1           0.000211183    0.000370210    0.000009402
     17        1          -0.000096758   -0.000063926    0.000026093
     18        1           0.000279739    0.000443588    0.000001950
     19        1          -0.000012645    0.000247894   -0.000004040
     20        1           0.000154449   -0.000272398   -0.000010573
     21        1          -0.000020095    0.000293469   -0.000126971
     22        1          -0.000217462   -0.000064784    0.000109608
     23        1           0.000122851   -0.000190209   -0.000001959
     24        1          -0.000046534   -0.000323866    0.000019429
     25        1          -0.000036958   -0.000313150   -0.000026344
 -------------------------------------------------------------------
 Cartesian Forces:  Max     0.002063362 RMS     0.000455953

 GradGradGradGradGradGradGradGradGradGradGradGradGradGradGradGradGradGrad
 Berny optimization.
 Using GEDIIS/GDIIS optimizer.
 FormGI is forming the generalized inverse of G from B-inverse, IUseBI=4.
 GSVD:  received Info=                   1 from GESDD.
 Internal  Forces:  Max     0.001536404 RMS     0.000361858
 Search for a local minimum.
 Step number   2 out of a maximum of  119
 All quantities printed in internal units (Hartrees-Bohrs-Radians)
 Mixed Optimization -- En-DIIS/RFO-DIIS
 Update second derivatives using D2CorX and points    1    2
 DE= -2.42D-04 DEPred=-2.70D-04 R= 8.93D-01
 TightC=F SS=  1.41D+00  RLast= 4.50D-02 DXNew= 5.0454D-01 1.3509D-01
 Trust test= 8.93D-01 RLast= 4.50D-02 DXMaxT set to 3.00D-01
 ITU=  1  0
 Use linear search instead of GDIIS.
     Eigenvalues ---    0.01378   0.01829   0.01872   0.01900   0.01977
     Eigenvalues ---    0.02068   0.02092   0.02103   0.02162   0.02184
     Eigenvalues ---    0.02230   0.02249   0.02257   0.02267   0.02280
     Eigenvalues ---    0.02342   0.02531   0.02709   0.02790   0.02849
     Eigenvalues ---    0.10175   0.10706   0.15236   0.16000   0.16000
     Eigenvalues ---    0.16000   0.16000   0.16000   0.16000   0.16000
     Eigenvalues ---    0.16000   0.16000   0.16356   0.21134   0.22129
     Eigenvalues ---    0.22364   0.23454   0.24507   0.24935   0.24999
     Eigenvalues ---    0.25000   0.25000   0.25000   0.27460   0.34270
     Eigenvalues ---    0.34289   0.34894   0.35034   0.35434   0.35472
     Eigenvalues ---    0.35520   0.35727   0.39321   0.40822   0.41847
     Eigenvalues ---    0.42282   0.43995   0.44256   0.47265   0.47778
     Eigenvalues ---    0.48908   0.51695   0.52973   0.53623   0.53707
     Eigenvalues ---    0.57032   0.60447   0.61564   0.63246
 RFO step:  Lambda=-3.04595193D-05 EMin= 1.37786645D-02
 Quartic linear search produced a step of -0.08558.
 Iteration  1 RMS(Cart)=  0.00490507 RMS(Int)=  0.00000644
 Iteration  2 RMS(Cart)=  0.00000996 RMS(Int)=  0.00000035
 Iteration  3 RMS(Cart)=  0.00000000 RMS(Int)=  0.00000035
 Variable       Old X    -DE/DX   Delta X   Delta X   Delta X     New X
                                 (Linear)    (Quad)   (Total)
    R1        2.65129   0.00013  -0.00031   0.00078   0.00047   2.65176
    R2        2.60313  -0.00050  -0.00009  -0.00073  -0.00082   2.60232
    R3        2.04974  -0.00001  -0.00011   0.00015   0.00003   2.04977
    R4        2.69268  -0.00028  -0.00036  -0.00007  -0.00043   2.69225
    R5        2.50363   0.00028  -0.00029   0.00089   0.00061   2.50423
    R6        2.60292  -0.00099  -0.00053  -0.00099  -0.00152   2.60140
    R7        2.55514  -0.00144  -0.00021  -0.00206  -0.00227   2.55287
    R8        2.69617  -0.00019  -0.00032   0.00010  -0.00022   2.69595
    R9        2.04951   0.00031   0.00007   0.00070   0.00077   2.05028
   R10        2.68276   0.00026  -0.00052   0.00143   0.00092   2.68368
   R11        2.67508  -0.00121  -0.00024  -0.00216  -0.00239   2.67269
   R12        2.04895   0.00012   0.00003   0.00025   0.00028   2.04923
   R13        1.83781   0.00052  -0.00007   0.00100   0.00094   1.83875
   R14        2.62407  -0.00068  -0.00050  -0.00048  -0.00098   2.62309
   R15        2.05734   0.00025   0.00016   0.00039   0.00055   2.05789
   R16        2.62867  -0.00154  -0.00028  -0.00251  -0.00278   2.62588
   R17        2.04578   0.00027  -0.00009   0.00083   0.00074   2.04651
   R18        2.48943   0.00101  -0.00079   0.00274   0.00196   2.49139
   R19        2.49650   0.00048  -0.00067   0.00180   0.00113   2.49762
   R20        1.82996   0.00018   0.00008   0.00017   0.00025   1.83022
   R21        1.82941   0.00020   0.00009   0.00019   0.00028   1.82968
   R22        2.69774  -0.00054  -0.00062  -0.00017  -0.00079   2.69695
   R23        2.05784   0.00005  -0.00019   0.00042   0.00024   2.05808
   R24        2.07002  -0.00010  -0.00011  -0.00009  -0.00020   2.06982
   R25        2.07004  -0.00010  -0.00011  -0.00009  -0.00020   2.06984
    A1        2.08885   0.00004  -0.00022   0.00065   0.00044   2.08929
    A2        2.06634   0.00010  -0.00007   0.00064   0.00057   2.06691
    A3        2.12799  -0.00014   0.00029  -0.00130  -0.00101   2.12698
    A4        2.10569  -0.00019   0.00017  -0.00103  -0.00085   2.10484
    A5        2.08263   0.00028   0.00005   0.00097   0.00102   2.08365
    A6        2.09486  -0.00009  -0.00022   0.00006  -0.00016   2.09469
    A7        2.08525   0.00031   0.00013   0.00076   0.00089   2.08615
    A8        1.96977   0.00043   0.00035   0.00110   0.00146   1.97123
    A9        2.22816  -0.00075  -0.00048  -0.00187  -0.00235   2.22581
   A10        2.10091  -0.00000  -0.00035   0.00043   0.00007   2.10099
   A11        2.10438  -0.00030  -0.00001  -0.00160  -0.00162   2.10276
   A12        2.07790   0.00030   0.00037   0.00118   0.00154   2.07944
   A13        2.07665  -0.00003   0.00043  -0.00077  -0.00034   2.07631
   A14        2.06219  -0.00001  -0.00004  -0.00002  -0.00005   2.06214
   A15        2.14434   0.00005  -0.00040   0.00079   0.00039   2.14473
   A16        2.10900  -0.00012  -0.00017  -0.00004  -0.00021   2.10879
   A17        2.07376   0.00008   0.00021  -0.00005   0.00016   2.07392
   A18        2.10043   0.00004  -0.00004   0.00009   0.00005   2.10048
   A19        1.91109  -0.00009   0.00106  -0.00220  -0.00114   1.90995
   A20        2.22626  -0.00040  -0.00053  -0.00081  -0.00134   2.22492
   A21        2.02436   0.00019   0.00034   0.00019   0.00054   2.02490
   A22        2.03256   0.00022   0.00019   0.00062   0.00080   2.03336
   A23        2.12248   0.00019  -0.00146   0.00313   0.00167   2.12415
   A24        2.14853  -0.00025   0.00084  -0.00265  -0.00181   2.14672
   A25        2.01218   0.00007   0.00062  -0.00048   0.00014   2.01232
   A26        2.06125   0.00014   0.00041  -0.00016   0.00025   2.06150
   A27        2.11098  -0.00003   0.00000  -0.00011  -0.00011   2.11087
   A28        2.11090  -0.00010  -0.00041   0.00029  -0.00012   2.11078
   A29        2.01463  -0.00049   0.00063  -0.00382  -0.00320   2.01144
   A30        2.00448  -0.00027   0.00052  -0.00236  -0.00184   2.00264
   A31        2.07961  -0.00133  -0.00172  -0.00210  -0.00382   2.07580
   A32        1.84723  -0.00017   0.00025  -0.00119  -0.00093   1.84630
   A33        1.93208  -0.00036  -0.00059  -0.00120  -0.00179   1.93029
   A34        1.93190  -0.00034  -0.00057  -0.00113  -0.00170   1.93020
   A35        1.91155   0.00031   0.00046   0.00122   0.00168   1.91323
   A36        1.91166   0.00030   0.00045   0.00118   0.00164   1.91330
   A37        1.92769   0.00025   0.00002   0.00108   0.00110   1.92879
    D1       -0.00096   0.00000  -0.00000   0.00016   0.00016  -0.00080
    D2       -3.14106   0.00000   0.00001   0.00006   0.00007  -3.14099
    D3        3.13829   0.00001  -0.00001   0.00029   0.00027   3.13856
    D4       -0.00182   0.00000  -0.00000   0.00019   0.00019  -0.00163
    D5       -0.00231  -0.00000  -0.00007   0.00004  -0.00003  -0.00234
    D6        3.13778   0.00001  -0.00003   0.00049   0.00046   3.13825
    D7       -3.14147  -0.00000  -0.00006  -0.00009  -0.00015   3.14156
    D8       -0.00138   0.00001  -0.00002   0.00036   0.00034  -0.00103
    D9        0.00145  -0.00000   0.00004  -0.00011  -0.00007   0.00138
   D10       -3.13967  -0.00001  -0.00003  -0.00040  -0.00043  -3.14009
   D11        3.14154   0.00000   0.00003  -0.00001   0.00002   3.14156
   D12        0.00042  -0.00001  -0.00004  -0.00030  -0.00034   0.00009
   D13        3.14076  -0.00000  -0.00001  -0.00007  -0.00008   3.14068
   D14        0.00065  -0.00000   0.00000  -0.00017  -0.00017   0.00048
   D15        0.00133  -0.00000  -0.00001  -0.00015  -0.00015   0.00118
   D16       -3.14158  -0.00000  -0.00003  -0.00016  -0.00018   3.14142
   D17       -3.14082   0.00001   0.00007   0.00019   0.00027  -3.14055
   D18       -0.00054   0.00001   0.00005   0.00018   0.00023  -0.00031
   D19       -3.13930  -0.00000   0.00012  -0.00029  -0.00017  -3.13948
   D20        0.00281  -0.00001   0.00004  -0.00061  -0.00057   0.00225
   D21       -0.00450   0.00001  -0.00006   0.00034   0.00028  -0.00422
   D22        3.14030   0.00000  -0.00005   0.00030   0.00025   3.14056
   D23        3.13839   0.00001  -0.00004   0.00036   0.00031   3.13870
   D24        0.00001   0.00001  -0.00003   0.00032   0.00029   0.00030
   D25        0.00501  -0.00000   0.00010  -0.00029  -0.00019   0.00483
   D26       -3.13506  -0.00002   0.00006  -0.00075  -0.00069  -3.13574
   D27       -3.13995  -0.00000   0.00009  -0.00025  -0.00016  -3.14011
   D28        0.00317  -0.00001   0.00005  -0.00071  -0.00066   0.00250
   D29       -3.12386  -0.00004   0.00017  -0.00228  -0.00211  -3.12597
   D30        0.01682  -0.00003   0.00019  -0.00158  -0.00139   0.01543
[...]
 ,-0.00001356,-0.00007095,0.00023749,0.00000904,-0.00000095,-0.00011233
 ,0.00000117,-0.00006236,0.00075226,0.00008408,-0.00114517,-0.00074996,
 -0.00002203,0.15384543,0.20150135,0.00013872,0.00007515,0.00542681,0.0
 0003040,-0.00012402,0.00896235,-0.00000341,0.00001649,-0.00129435,0.00
 008664,-0.00009611,0.00460051,-0.00040520,-0.00017763,0.00159793,-0.00
 221083,-0.00238990,-0.03648460,0.00001666,0.00000870,-0.00013883,0.000
 08264,0.00009570,-0.00286550,0.00002000,-0.00012853,0.00021041,-0.0000
 3374,0.00002988,-0.00029395,0.00003719,0.00000428,-0.00011372,-0.00001
 844,-0.00002743,0.00016421,0.00000307,0.00001207,-0.00037885,-0.000000
 02,-0.00000348,-0.00014969,0.00000193,0.00007168,-0.00486921,-0.000010
 51,-0.00002843,0.00131823,0.00219714,0.00263262,0.02360885,-0.00265987
 ,0.00517780,0.00007483,-0.04050074,-0.03432174,-0.00036761,-0.00108350
 ,-0.00191223,-0.00000579,-0.00175757,-0.00123754,-0.00001062,0.0019318
 8,-0.00076284,-0.00000456,-0.00141770,-0.00096260,-0.00002093,-0.19789
 600,-0.18560551,-0.00193139,-0.00195445,0.00013842,0.00001109,0.001792
 46,-0.00009716,0.00001809,-0.00199142,0.00098375,-0.00001487,0.0011627
 7,0.00038590,-0.00012741,0.00037499,-0.00094233,0.00013692,-0.00049227
 ,-0.00166813,-0.00001908,0.00114950,0.00139728,0.00001549,0.00011809,0
 .00003911,0.00000161,0.00036381,-0.00008520,-0.00000082,-0.00033018,0.
 00020148,0.00000150,0.24338173,0.00704181,0.00040747,-0.00004745,0.003
 25360,0.01419790,0.00017070,0.01260975,0.00135616,0.00001142,-0.004180
 76,-0.00063525,0.00000813,0.00305724,-0.00104023,-0.00001562,-0.002351
 44,0.00176285,0.00000185,-0.23293308,-0.33187757,-0.00337387,-0.002590
 78,-0.00015579,0.00000543,0.00182395,-0.00001738,0.00002307,-0.0018178
 1,0.00106264,-0.00002121,0.00097436,0.00030715,-0.00011627,0.00031285,
 -0.00094254,0.00012380,-0.00295949,0.00163504,0.00004201,-0.00233866,-
 0.00327396,-0.00002835,0.00006589,0.00005298,0.00000904,0.00030611,-0.
 00004182,-0.00000463,0.00020663,-0.00007293,0.00000483,0.22009097,0.31
 551026,0.00006404,-0.00004917,0.00459447,0.00009712,0.00020690,-0.0025
 2674,0.00011780,0.00001626,-0.00014470,-0.00003863,0.00000393,-0.00070
 073,0.00002173,-0.00000769,0.00006075,-0.00001590,-0.00001019,0.001604
 10,-0.00245976,-0.00340614,-0.01281920,-0.00002009,0.00000536,-0.00009
 036,0.00002168,-0.00001074,-0.00006453,-0.00002445,0.00000944,-0.00002
 799,0.00001508,0.00000358,-0.00001697,0.00000050,-0.00001675,0.0000098
 1,-0.00002511,0.00003607,-0.00166304,-0.00002522,-0.00002266,-0.001171
 30,0.00000108,0.00000983,-0.00050262,0.00000476,-0.00000696,0.00043719
 ,0.00000127,0.00000679,-0.00055868,0.00227367,0.00320378,0.01322688,0.
 00023661,0.00152850,0.00003518,0.00020821,0.00033667,-0.00001247,0.000
 01455,-0.00059489,-0.00000517,0.00055252,0.00240882,0.00004309,-0.0009
 5287,0.02926669,-0.00000872,-0.00542483,-0.00004719,-0.00004424,0.0000
 4763,-0.00019704,0.00000660,-0.06144580,0.02847691,0.00005988,0.004926
 71,-0.02839644,0.00019296,0.00066194,-0.00387194,0.00015044,0.00045427
 ,0.00068515,-0.00007809,-0.00209244,0.00158835,-0.00060197,0.00006683,
 -0.00006099,-0.00000326,-0.00003484,0.00008679,0.00000172,-0.00040038,
 0.00005044,0.00000789,-0.00083289,-0.00103127,-0.00001330,0.00009615,-
 0.00000043,-0.00000116,-0.00005201,0.00003787,-0.00000109,0.06801228,-
 0.00042566,-0.00060690,-0.00003334,0.00012074,-0.00005088,0.00000150,-
 0.00010537,0.00046521,-0.00000871,-0.00184894,0.00148874,-0.00005558,-
 0.00042298,-0.00852999,0.00006799,0.00157997,0.00086665,0.00011155,-0.
 00015997,0.00005778,0.00000464,0.02812010,-0.33570579,-0.00009570,0.00
 187701,-0.01480330,0.00017375,0.00059514,-0.00166482,0.00015965,-0.000
 18437,0.00016483,-0.00001535,0.00138163,0.00104111,-0.00003897,-0.0000
 5642,-0.00007825,0.00000635,0.00001266,0.00002551,-0.00000055,0.000153
 16,0.00000291,-0.00000941,0.00047883,0.00053928,0.00001374,-0.00008545
 ,0.00006312,0.00000262,0.00003305,0.00002125,0.00000058,-0.02921428,0.
 35574801,0.00008238,0.00003135,-0.00088442,-0.00006501,-0.00001617,0.0
 0048226,0.00000745,-0.00004581,0.00006922,-0.00006185,0.00001538,-0.00
 357129,0.00029559,-0.00030631,0.00757932,-0.00001118,-0.00001562,0.006
 24732,0.00006419,-0.00000716,-0.00012348,-0.00042359,-0.00001207,-0.04
 679704,0.00067289,0.00009988,0.00715570,-0.00015804,0.00038694,-0.0047
 3060,0.00034597,-0.00011637,0.00006738,-0.00078658,-0.00035132,0.00061
 981,0.00000934,0.00001974,0.00022716,0.00000134,-0.00001241,0.00004783
 ,0.00000152,0.00000820,-0.00071736,-0.00000604,-0.00000079,0.00033839,
 -0.00000491,0.00000891,-0.00006512,-0.00000684,-0.00000917,0.00007371,
 -0.00005113,-0.00016696,0.02698667,0.00009912,0.00045558,0.00001947,0.
 00011905,-0.00036630,0.00001158,-0.00038191,0.00048997,-0.00000433,0.0
 0051327,0.00019480,-0.00001346,0.00016498,0.00138065,0.00003391,-0.000
 86613,-0.00150312,-0.00003835,-0.00009799,0.00012670,-0.00000256,0.007
 31377,-0.02788078,0.00045307,-0.05747193,-0.00421914,-0.00012510,0.003
 60929,0.02988676,-0.00086773,-0.00003314,-0.00018213,0.00005752,-0.006
 18852,0.00243985,0.00076763,0.00016469,0.00014098,0.00000262,0.0000202
 8,-0.00010515,-0.00000119,-0.00004390,0.00000542,-0.00000319,0.0001672
 1,0.00013723,0.00000116,-0.00192861,0.00150982,0.00008167,0.00001968,0
 .00001831,-0.00000165,-0.00416091,-0.00197832,-0.00004509,0.05874095,0
 .00010239,0.00027748,-0.00001889,-0.00004561,-0.00001353,-0.00000524,0
 .00000312,-0.00011243,-0.00000914,-0.00022158,-0.00015481,-0.00000003,
 0.00148603,-0.00042864,-0.00010681,0.00050750,0.00034705,0.00001309,0.
 00015858,-0.00000391,0.00000339,-0.00099604,-0.01094001,0.00018687,0.0
 0345143,-0.35239303,0.00609752,-0.00245664,-0.01208996,0.00046080,-0.0
 0151595,0.00070437,-0.00014559,0.00167709,0.00099123,-0.00051920,0.000
 01036,0.00006443,0.00000155,0.00000418,-0.00003610,0.00000009,0.000003
 33,0.00000139,0.00000054,0.00001382,0.00006892,0.00000343,0.00110503,0
 .00059675,-0.00001322,-0.00000819,-0.00002127,0.00000240,-0.00154481,0
 .00055804,0.00015014,-0.00159790,0.37249514,0.00000717,-0.00000918,-0.
 00023112,-0.00005402,0.00005114,-0.00032864,0.00005066,-0.00007766,0.0
 0001608,-0.00011446,-0.00003920,-0.00013240,0.00020288,-0.00011450,-0.
 00357031,0.00000727,0.00013088,-0.00045059,0.00004380,-0.00001367,0.00
 013837,-0.00054594,0.00001930,0.00255287,0.00058377,0.00596823,-0.0320
 9052,-0.00057205,0.00091028,-0.00028125,0.00048742,-0.00001968,-0.0021
 4429,-0.00033889,-0.00076367,0.00439740,0.00000461,0.00001856,0.000040
 44,-0.00000021,-0.00000639,0.00002170,0.00000202,-0.00000131,0.0001314
 2,-0.00000299,-0.00000150,0.00009758,0.00008561,-0.00008466,0.00122002
 ,-0.00000655,-0.00000737,0.00004818,0.00007843,-0.00011970,0.00694693,
 0.00029946,-0.00652791,0.02279050,0.00089217,0.00042220,0.00001323,-0.
 00138635,0.00048485,0.00000256,-0.00000843,-0.00136792,-0.00000042,-0.
 00094525,-0.00031670,-0.00011209,0.00194154,-0.00141374,-0.00005013,-0
 .00058043,0.00112211,0.00005263,0.00139744,-0.00023085,-0.00000480,-0.
 00426025,0.00027881,0.00065696,0.00371482,-0.00479167,-0.00039532,-0.0
 3932183,0.02050468,-0.00640817,-0.38022692,0.16429799,-0.08427659,0.00
 636539,0.00330137,0.00055072,0.00050183,0.00070040,0.00002202,0.000009
 12,-0.00036689,-0.00000697,0.00001795,0.00000630,-0.00000067,-0.000038
 36,0.00002263,-0.00000404,-0.00004524,0.00003051,-0.00001355,-0.000203
 72,-0.00016299,-0.00000316,-0.00014911,-0.00005320,-0.00005851,0.00034
 518,-0.00004963,-0.00018717,0.41106759,-0.00020342,-0.00009693,-0.0000
 0543,0.00027721,-0.00009604,-0.00000353,-0.00001414,0.00028910,0.00002
 699,0.00020010,0.00012453,-0.00006651,-0.00058141,0.00010339,-0.000282
 77,0.00017004,-0.00032079,0.00003661,-0.00027254,0.00003441,-0.0000003
 5,0.00030317,0.00100554,0.00058651,-0.00310364,-0.00238950,0.00107966,
 -0.03033978,0.01111880,-0.00718588,0.21396972,-0.14257324,0.05831121,0
 .00072621,-0.00000797,0.00076980,-0.00010130,-0.00017470,0.00001027,-0
 .00001274,0.00010661,-0.00000024,-0.00000019,0.00000017,0.00000676,-0.
 00001289,-0.00001724,-0.00000518,-0.00000155,0.00002101,0.00000031,0.0
 0003385,0.00004485,0.00000126,-0.00001584,0.00000681,0.00010028,-0.000
 18732,0.00027142,-0.00003170,-0.17935622,0.13570851,-0.00026447,-0.000
 13494,-0.00005701,0.00039708,-0.00013996,0.00003516,-0.00004694,0.0004
 1432,0.00002885,0.00033332,0.00011167,-0.00040161,-0.00066502,0.000436
 94,-0.00058790,0.00022234,-0.00040342,0.00025820,-0.00038787,0.0000600
 7,-0.00002031,0.00190368,0.00022354,0.00262300,-0.00058215,0.00095150,
 0.00310740,0.00848088,-0.00202926,-0.00395591,-0.09970686,0.05314489,-
 0.02732352,0.00019733,0.00072303,-0.00344223,-0.00011887,-0.00020439,0
 .00005220,-0.00000484,0.00010605,0.00001874,-0.00000219,-0.00000192,0.
 00001524,-0.00000139,-0.00001324,-0.00001403,0.00000530,0.00001465,-0.
 00003212,0.00005236,0.00005253,0.00000837,-0.00004592,0.00000386,0.000
 13610,-0.00004075,0.00005674,-0.00094474,0.09078627,-0.05204593,0.0282
 7572,0.00065243,0.00033131,0.00005343,-0.00103091,0.00040151,0.0000056
 6,0.00000975,-0.00103668,-0.00001107,-0.00066818,-0.00029326,0.0000118
 8,0.00161178,-0.00065218,-0.00015213,-0.00052481,0.00088709,-0.0001274
 6,0.00105184,-0.00017852,-0.00000401,-0.00287259,-0.00093771,0.0001717
 6,0.00617514,-0.00062258,0.00139717,-0.00576318,0.00097812,-0.00154374
 ,0.00063792,-0.00434611,0.00020308,-0.42759029,0.16745010,0.11008019,0
 .00038501,0.00052818,-0.00000142,0.00000644,-0.00028146,0.00000363,0.0
 0000847,0.00000339,0.00000608,-0.00002394,0.00002404,0.00000998,-0.000
 03404,0.00000231,-0.00000006,-0.00015328,-0.00012338,0.00000013,0.0002
 7989,0.00019265,0.00020018,-0.00008657,-0.00008549,-0.00003110,0.00095
 628,-0.00148404,-0.00052013,0.42700641,-0.00055130,-0.00020856,-0.0000
 2779,0.00088589,-0.00027485,-0.00003024,0.00007154,0.00083293,0.000015
 66,0.00046916,0.00028295,0.00001887,-0.00100884,0.00081508,-0.00023141
 ,0.00026273,-0.00069425,0.00006435,-0.00087658,0.00012820,0.00001087,0
 .00097268,0.00047835,-0.00018999,-0.00538252,-0.00508517,0.00048772,0.
 04957319,-0.02348840,-0.01033866,-0.00181665,0.00556290,0.00097114,0.1
 1981760,-0.09021218,-0.02842609,-0.00038183,-0.00055527,-0.00000617,-0
 .00002648,0.00032110,0.00000549,-0.00001665,-0.00000122,0.00000499,0.0
 0003363,0.00000140,0.00000923,0.00003417,0.00001157,0.00003298,0.00012
 731,0.00011691,0.00000808,0.00055336,0.00039422,0.00023614,0.00122221,
 -0.00019141,0.00071592,-0.00316031,-0.00313421,-0.00129664,-0.16083315
 ,0.11496386,0.00024225,0.00013681,-0.00015892,-0.00039319,0.00018675,-
 0.00000701,0.00003208,-0.00044280,-0.00001683,-0.00031525,-0.00012204,
 -0.00008081,0.00070906,-0.00027835,0.00011522,-0.00021395,0.00041488,0
 .00021391,0.00040914,-0.00007344,0.00000120,-0.00146221,-0.00060888,-0
 .00079902,0.00238187,0.00217344,0.00239541,-0.00814325,0.00623228,-0.0
 0367522,0.00024434,0.00062289,-0.00325551,0.11705434,-0.04533722,-0.03
 237018,0.00013512,0.00020426,-0.00001347,0.00000406,-0.00010827,0.0000
 3558,0.00000242,0.00000103,0.00000458,-0.00000131,0.00001133,0.0000399
 1,-0.00000733,-0.00002616,0.00012167,-0.00005779,-0.00005017,0.0000260
 9,0.00029037,-0.00000248,-0.00004281,-0.00058487,0.00036956,0.00178139
 ,-0.00056466,-0.00130185,0.00222417,-0.10975017,0.03796845,0.03347120,
 -0.00018751,0.00003663,0.00000314,0.00032377,0.00029728,0.00000371,0.0
 0142589,0.00217717,0.00002002,-0.00031252,0.00041282,0.00000661,0.0001
 3503,-0.00007944,0.00000381,0.00000104,-0.00015159,-0.00000715,0.00003
 503,-0.00015063,-0.00000168,0.00014649,0.00003857,-0.00000370,-0.00013
 726,-0.00000602,0.00000217,0.00017944,-0.00007422,0.00000047,-0.000100
 55,-0.00002893,0.00001054,-0.00004173,0.00007582,-0.00001322,0.0078804
 9,0.00301675,0.00002311,-0.30662918,-0.09728152,-0.00072831,0.00001957
 ,0.00001857,0.00000008,0.00021842,-0.00034108,-0.00000442,0.00000678,-
 0.00002322,-0.00000023,-0.00002951,0.00010285,0.00000130,0.00002449,-0
 .00000162,0.00000070,-0.00000001,-0.00000016,-0.00000005,0.00001949,-0
 .00000237,-0.00000384,0.00001479,-0.00001455,0.00000523,0.31892533,0.0
 0048038,-0.00043935,-0.00000965,-0.00215092,-0.00070839,-0.00000685,0.
 00257767,-0.00508660,-0.00006778,0.00103509,-0.00050384,-0.00000926,-0
 .00052169,0.00031024,0.00000317,0.00002471,0.00007755,0.00000633,0.000
 34797,0.00014837,0.00000285,0.00020160,-0.00012372,-0.00000254,-0.0002
 3644,0.00003733,-0.00000521,0.00023044,-0.00015219,0.00000554,-0.00013
 471,-0.00004068,0.00001502,-0.00004511,0.00014142,-0.00001740,-0.03656
 103,-0.02863991,-0.00027384,-0.08162374,-0.07526149,-0.00016023,-0.000
 13423,-0.00009075,-0.00000063,-0.00024426,0.00047000,0.00001128,-0.000
 02167,0.00003495,0.00000067,-0.00021751,-0.00027411,-0.00000466,-0.000
 02828,-0.00000104,0.00000068,0.00000756,0.00000386,0.00000094,0.000019
 99,-0.00000678,-0.00000693,0.00001558,-0.00001574,0.00000653,0.1001796
 0,0.09973758,0.00000580,-0.00000442,-0.00003541,-0.00002446,-0.0000140
 3,0.00033095,0.00002658,-0.00006628,0.00051840,0.00001223,-0.00000814,
 0.00021969,-0.00000616,0.00000141,0.00014098,0.00000002,0.00000187,-0.
 00002136,0.00000344,0.00000417,-0.00013179,0.00000151,-0.00000195,0.00
 002563,-0.00000233,0.00000133,0.00000226,0.00000151,-0.00000209,-0.000
 00875,-0.00000150,-0.00000124,-0.00000009,0.00000075,0.00000196,0.0000
 0182,-0.00042567,-0.00033293,-0.00007185,-0.00054914,-0.00013313,-0.05
 065879,-0.00000148,-0.00000062,-0.00002996,-0.00000249,0.00001121,-0.0
 0046240,-0.00000038,0.00000067,-0.00001589,-0.00000198,-0.00000519,0.0
 0020479,0.,0.00000035,-0.00000845,0.00000021,0.00000002,-0.00000099,0.
 00000044,0.00000025,0.00000233,-0.00000044,-0.00000058,0.00000021,0.00
 073782,0.00045603,0.04662452,0.00021848,-0.00003684,-0.00001717,0.0003
 6276,-0.00013531,-0.00026989,0.00076351,-0.00100751,0.00131848,0.00023
 466,0.00083326,0.00010865,-0.00014078,-0.00027418,-0.00044777,0.000054
 02,0.00035925,-0.00003663,-0.00026865,0.00010905,0.00010415,-0.0001652
 5,-0.00002127,0.00002525,0.00022628,-0.00000812,0.00000948,-0.00029306
 ,0.00012927,0.00000464,0.00017289,0.00005065,-0.00001961,0.00006825,-0
 .00013529,0.00002125,0.00015982,0.00514537,-0.00016382,-0.11420302,0.0
 3502422,-0.10662367,0.00001490,0.00001244,0.00001002,-0.00057302,-0.00
 064743,0.00097607,0.00000083,0.00000651,0.00005136,0.00011365,-0.00022
 074,-0.00013484,-0.00001847,-0.00000491,-0.00000208,-0.00000899,-0.000
 00038,-0.00000127,-0.00003181,0.00000424,0.00000392,-0.00002390,0.0000
 2300,-0.00000950,-0.01099456,0.00868380,-0.02502292,0.11615770,0.00052
 633,0.00007419,-0.00008107,0.00043052,-0.00170585,-0.00067869,0.006163
 76,0.00468538,0.00163502,-0.00066760,0.00068311,-0.00027274,-0.0005239
 0,-0.00006641,-0.00025485,-0.00035696,0.00025428,-0.00005656,-0.000837
 73,-0.00033911,-0.00010785,0.00032492,-0.00013005,0.00001898,-0.000367
 63,0.00003965,-0.00001470,0.00039043,-0.00021663,0.00000594,-0.0002405
 0,-0.00008291,0.00002571,-0.00007457,0.00021268,-0.00003208,0.01670347
 ,-0.03265191,0.02829938,0.03140417,-0.06716593,0.05610854,-0.00002040,
 -0.00001085,0.00007367,-0.00077821,-0.00034519,0.00086685,-0.00001628,
 0.00001608,0.00004387,-0.00039393,0.00093678,0.00035672,-0.00000975,-0
 .00000169,0.00001279,0.00000240,0.00000256,0.00000143,0.00003880,-0.00
 000900,-0.00001065,0.00003034,-0.00002373,0.00001086,-0.00413812,0.005
 31552,-0.00960391,-0.04247418,0.08547866,-0.00012776,-0.00009788,-0.00
 001554,0.00018757,0.00054910,-0.00023339,-0.00087030,-0.00095895,0.000
 72030,-0.00070079,0.00088634,-0.00016447,0.00031648,-0.00036582,-0.000
 15353,0.00002395,-0.00005227,-0.00004513,0.00016060,-0.00019893,0.0000
 2396,-0.00001308,0.00010963,0.00002766,0.00003103,-0.00003434,0.000006
 86,-0.00000166,0.00007801,-0.00000888,-0.00000419,-0.00000821,0.000000
 51,0.00000018,-0.00006458,0.00001064,0.00331274,0.00281451,0.00743604,
 -0.10712717,0.06186304,-0.23650047,0.00000825,0.00000484,0.00001550,0.
 00066287,-0.00006617,-0.00003170,0.00001455,-0.00005484,0.00001428,-0.
 00001360,-0.00007503,-0.00000052,0.00005178,0.00000711,-0.00001815,-0.
 00000936,-0.00000509,-0.00000444,0.00000454,0.00000583,-0.00000040,0.0
 0000181,0.00000661,-0.00000646,0.00187817,-0.00109924,0.00159946,0.116
 26270,-0.07006937,0.24582203,0.00022059,-0.00003718,0.00000685,0.00036
 210,-0.00014495,0.00026817,0.00076020,-0.00096091,-0.00133573,0.000242
 17,0.00082776,-0.00008541,-0.00014142,-0.00028594,0.00042828,0.0000532
 5,0.00036073,0.00006048,-0.00026973,0.00011261,-0.00010016,-0.00016655
 ,-0.00002042,-0.00001925,0.00022716,-0.00000875,-0.00001277,-0.0002934
 5,0.00012950,-0.00000994,0.00017194,0.00004938,-0.00001441,0.00006917,
 -0.00013420,0.00002344,0.00013857,0.00512280,0.00030069,-0.11352940,0.
 03241077,0.10700919,0.00001497,0.00001276,-0.00000942,-0.00058411,-0.0
 0061454,-0.00098774,0.00000084,0.00000833,-0.00005174,0.00011368,-0.00
 022305,0.00012975,-0.00001753,-0.00000344,-0.00000069,-0.00000887,-0.0
 0000049,0.00000159,-0.00003110,0.00000486,0.00000874,-0.00002448,0.000
 02238,-0.00000681,-0.01092319,0.00811522,0.02524864,0.00817377,-0.0051
 1538,-0.01404933,0.11544142,0.00052571,0.00007089,0.00008666,0.0004353
 4,-0.00171273,0.00064365,0.00613701,0.00470831,-0.00154336,-0.00067720
 ,0.00068710,0.00029609,-0.00051554,-0.00008193,0.00025285,-0.00035781,
 0.00025402,0.00005958,-0.00083410,-0.00034247,0.00010168,0.00032446,-0
 .00012932,-0.00002901,-0.00036826,0.00003881,0.00001464,0.00039137,-0.
 00021555,-0.00000197,-0.00024172,-0.00008305,0.00002995,-0.00007232,0.
 00021316,-0.00002626,0.01666998,-0.03196479,-0.02925226,0.02880386,-0.
 06455218,-0.05227692,-0.00001978,-0.00000843,-0.00007400,-0.00075071,-
 0.00032048,-0.00086290,-0.00001592,0.00001614,-0.00004312,-0.00039399,
 0.00094061,-0.00033602,-0.00000640,-0.00000083,-0.00001026,0.00000192,
 0.00000244,0.00000140,0.00003949,-0.00000875,-0.00001252,0.00002994,-0
 .00002451,0.00001257,-0.00406260,0.00506777,0.00969525,-0.00541490,0.0
 0505035,0.00682569,-0.03962784,0.08239539,0.00013883,0.00010018,-0.000
 01497,-0.00017929,-0.00058321,-0.00022704,0.00101078,0.00106037,0.0007
 0758,0.00068317,-0.00086983,-0.00018426,-0.00032847,0.00036842,-0.0001
 3668,-0.00003261,0.00005647,-0.00004333,-0.00017913,0.00018983,0.00003
 082,0.00002152,-0.00011312,0.00002897,-0.00004022,0.00003491,0.0000071
 6,0.00001074,-0.00007926,-0.00000199,-0.00000353,0.00000545,0.00000363
 ,0.00000014,0.00006863,0.00000272,-0.00290768,-0.00373847,0.00671129,0
 .10743512,-0.05802093,-0.23971809,-0.00000874,-0.00000561,0.00001421,-
 0.00067748,0.00006460,-0.00004482,-0.00001507,0.00005463,0.00001523,0.
 00000427,0.00009773,-0.00000695,-0.00005181,-0.00000695,-0.00001905,0.
 00000931,0.00000498,-0.00000361,-0.00000312,-0.00000636,-0.00000572,-0
 .00000324,-0.00000894,-0.00000430,-0.00193428,0.00115518,0.00177470,0.
 01385319,-0.00627731,-0.01849415,-0.11680242,0.06644860,0.24960865\\-0
 .00000111,-0.00000197,-0.00000170,-0.00000542,0.00000180,0.00000081,-0
 .00000939,-0.00001149,-0.00000478,0.00000222,0.00000467,0.00000011,0.0
 0000983,-0.00000368,-0.00000017,-0.00000717,0.00000308,-0.00000006,0.0
 0000619,-0.00001101,-0.00000190,-0.00001492,-0.00000522,0.00000263,0.0
 0002729,0.00000792,-0.00000482,-0.00002659,0.00000943,0.00000038,0.000
 00898,0.00001088,0.00000681,0.00000652,-0.00000043,0.00000564,0.000003
 84,0.00000671,0.00000402,0.00000331,-0.00001255,-0.00000187,-0.0000033
 6,-0.00000249,-0.00000092,0.00000134,-0.00000014,0.00000075,-0.0000030
 3,0.00000027,0.00000047,-0.00000280,-0.00000240,-0.00000134,0.00000249
 ,0.00000188,0.00000088,-0.00000634,0.00000090,-0.00000170,-0.00000140,
 0.00000518,-0.00000239,-0.00000003,0.00000496,-0.00000124,0.00000527,-
 0.00000169,-0.00000051,0.00000153,-0.00000220,-0.00000010,0.00000275,-
 0.00000241,0.00000098\\\@


 ON A TOMBSTONE, "HERE LIES LESTER MOORE,
 FOUR SLUGS FROM A 44, NO LES, NO MORE".
 Job cpu time:       0 days  1 hours 11 minutes 48.9 seconds.
 File lengths (MBytes):  RWF=    264 Int=      0 D2E=      0 Chk=      9 Scr=      1
 Normal termination of Gaussian 09 at Sun Dec 15 13:04:09 2024.
