 Entering Gaussian System, Link 0=g09
 Input=B3PW91FA.gjf
 Output=B3PW91FA.log
 Initial command:
 /home/c612/g09E/g09/l1.exe "/mnt/ja_sm883/scratch/Gau-3899527.inp" -scrdir="/mnt/ja_sm883/scratch/"
 Default is to use a total of  18 processors:
                               18 via shared-memory
                                1 via Linda
 Entering Link 1 = /home/c612/g09E/g09/l1.exe PID=   3899529.
  
 Copyright (c) 1988,1990,1992,1993,1995,1998,2003,2009,2015,
            Gaussian, Inc.  All Rights Reserved.
  
 This is part of the Gaussian(R) 09 program.  It is based on
 the Gaussian(R) 03 system (copyright 2003, Gaussian, Inc.),
 the Gaussian(R) 98 system (copyright 1998, Gaussian, Inc.),
 the Gaussian(R) 94 system (copyright 1995, Gaussian, Inc.),
 the Gaussian 92(TM) system (copyright 1992, Gaussian, Inc.),
 the Gaussian 90(TM) system (copyright 1990, Gaussian, Inc.),
 the Gaussian 88(TM) system (copyright 1988, Gaussian, Inc.),
 the Gaussian 86(TM) system (copyright 1986, Carnegie Mellon
 University), and the Gaussian 82(TM) system (copyright 1983,
 Carnegie Mellon University). Gaussian is a federally registered
 trademark of Gaussian, Inc.
  
 This software contains proprietary and confidential information,
 including trade secrets, belonging to Gaussian, Inc.
  
 This software is provided under written license and may be
 used, copied, transmitted, or stored only in accord with that
 written license.
  
 The following legend is applicable only to US Government
 contracts under FAR:
  
                    RESTRICTED RIGHTS LEGEND
  
 Use, reproduction and disclosure by the US Government is
 subject to restrictions as set forth in subparagraphs (a)
 and (c) of the Commercial Computer Software - Restricted
 Rights clause in FAR 52.227-19.
  
 Gaussian, Inc.
 340 Quinnipiac St., Bldg. 40, Wallingford CT 06492
  
  
 ---------------------------------------------------------------
 Warning -- This program may not be used in any manner that
 competes with the business of Gaussian, Inc. or will provide
 assistance to any competitor of Gaussian, Inc.  The licensee
 of this program is prohibited from giving any competitor of
 Gaussian, Inc. access to this program.  By using this program,
 the user acknowledges that Gaussian, Inc. is engaged in the
 business of creating and licensing software in the field of
 computational chemistry and represents and warrants to the
 licensee that it is not a competitor of Gaussian, Inc. and that
 it will not use this program in any manner prohibited above.
 ---------------------------------------------------------------
  

 Cite this work as:
 Gaussian 09, Revision E.01,
 M. J. Frisch, G. W. Trucks, H. B. Schlegel, G. E. Scuseria, 
 M. A. Robb, J. R. Cheeseman, G. Scalmani, V. Barone, B. Mennucci, 
 G. A. Petersson, H. Nakatsuji, M. Caricato, X. Li, H. P. Hratchian, 
 A. F. Izmaylov, J. Bloino, G. Zheng, J. L. Sonnenberg, M. Hada, 
 M. Ehara, K. Toyota, R. Fukuda, J. Hasegawa, M. Ishida, T. Nakajima, 
 Y. Honda, O. Kitao, H. Nakai, T. Vreven, J. A. Montgomery, Jr., 
 J. E. Peralta, F. Ogliaro, M. Bearpark, J. J. Heyd, E. Brothers, 
 K. N. Kudin, V. N. Staroverov, T. Keith, R. Kobayashi, J. Normand, 
 K. Raghavachari, A. Rendell, J. C. Burant, S. S. Iyengar, J. Tomasi, 
 M. Cossi, N. Rega, J. M. Millam, M. Klene, J. E. Knox, J. B. Cross, 
 V. Bakken, C. Adamo, J. Jaramillo, R. Gomperts, R. E. Stratmann, 
 O. Yazyev, A. J. Austin, R. Cammi, C. Pomelli, J. W. Ochterski, 
 R. L. Martin, K. Morokuma, V. G. Zakrzewski, G. A. Voth, 
 P. Salvador, J. J. Dannenberg, S. Dapprich, A. D. Daniels, 
 O. Farkas, J. B. Foresman, J. V. Ortiz, J. Cioslowski, 
 and D. J. Fox, Gaussian, Inc., Wallingford CT, 2013.
 
 ******************************************
 Gaussian 09:  ES64L-G09RevE.01 30-Nov-2015
                14-Dec-2024 
 ******************************************
 %chk=B3PW91FA.chk
 -----------------------------
 # opt freq b3pw91/6-31+g(d,p)
 -----------------------------
 1/14=-1,18=20,19=15,26=3,38=1/1,3;
 2/9=110,12=2,17=6,18=5,40=1/2;
 3/5=1,6=6,7=111,11=2,16=1,25=1,30=1,71=1,74=-6/1,2,3;
 4//1;
 5/5=2,38=5/2;
 6/7=2,8=2,9=2,10=2,28=1/1;
 7//1,2,3,16;
 1/14=-1,18=20,19=15,26=3/3(2);
 2/9=110/2;
 99//99;
 2/9=110/2;
 3/5=1,6=6,7=111,11=2,16=1,25=1,30=1,71=1,74=-6/1,2,3;
 4/5=5,16=3,69=1/1;
 5/5=2,38=5/2;
 7//1,2,3,16;
 1/14=-1,18=20,19=15,26=3/3(-5);
 2/9=110/2;
 6/7=2,8=2,9=2,10=2,19=2,28=1/1;
 99/9=1/99;
 ----------
 [No Title]
 ----------
 Symbolic Z-matrix:
 Charge =  0 Multiplicity = 1
 C                     1.46157  -2.01015  -0.00017 
 C                     2.4911   -1.07773  -0.00013 
 C                     2.18754   0.29535  -0.00007 
 C                     0.86673   0.71466  -0.00006 
 C                    -0.18024  -0.22587  -0.00009 
 C                     0.13649  -1.58813  -0.00015 
 O                     3.77788  -1.48993  -0.00015 
 C                    -1.55872   0.27505  -0.00006 
 C                    -2.68476  -0.45321   0.00001 
 O                     3.28766   1.10359  -0.00004 
 C                     3.07629   2.50305   0.0003 
 C                    -4.0737    0.07529   0.00007 
 O                    -5.02987  -0.65728   0.001 
 O                    -4.26082   1.4159   -0.00048 
 H                     1.71907  -3.06369  -0.00021 
 H                     0.62958   1.77367  -0.00001 
 H                    -0.65135  -2.33348  -0.00017 
 H                     4.35301  -0.71114  -0.00009 
 H                    -1.61849   1.36541  -0.00004 
 H                    -2.66192  -1.53762   0.00015 
 H                     4.06524   2.95924   0.00041 
 H                     2.52795   2.8135   -0.89624 
 H                     2.52794   2.81307   0.89697 
 H                    -3.42362   1.89291  -0.00141 
 

 GradGradGradGradGradGradGradGradGradGradGradGradGradGradGradGradGradGrad
 Berny optimization.
 Initialization pass.
                           ----------------------------
                           !    Initial Parameters    !
                           ! (Angstroms and Degrees)  !
 --------------------------                            --------------------------
 ! Name  Definition              Value          Derivative Info.                !
 --------------------------------------------------------------------------------
 ! R1    R(1,2)                  1.389          estimate D2E/DX2                !
 ! R2    R(1,6)                  1.3907         estimate D2E/DX2                !
 ! R3    R(1,15)                 1.0846         estimate D2E/DX2                !
 ! R4    R(2,3)                  1.4062         estimate D2E/DX2                !
 ! R5    R(2,7)                  1.3512         estimate D2E/DX2                !
 ! R6    R(3,4)                  1.3858         estimate D2E/DX2                !
 ! R7    R(3,10)                 1.3651         estimate D2E/DX2                !
 ! R8    R(4,5)                  1.4074         estimate D2E/DX2                !
 ! R9    R(4,16)                 1.0852         estimate D2E/DX2                !
 ! R10   R(5,6)                  1.3986         estimate D2E/DX2                !
 ! R11   R(5,8)                  1.4667         estimate D2E/DX2                !
 ! R12   R(6,17)                 1.0845         estimate D2E/DX2                !
 ! R13   R(7,18)                 0.9681         estimate D2E/DX2                !
 ! R14   R(8,9)                  1.341          estimate D2E/DX2                !
 ! R15   R(8,19)                 1.092          estimate D2E/DX2                !
 ! R16   R(9,12)                 1.4861         estimate D2E/DX2                !
 ! R17   R(9,20)                 1.0847         estimate D2E/DX2                !
 ! R18   R(10,11)                1.4153         estimate D2E/DX2                !
 ! R19   R(11,21)                1.0891         estimate D2E/DX2                !
 ! R20   R(11,22)                1.0958         estimate D2E/DX2                !
 ! R21   R(11,23)                1.0958         estimate D2E/DX2                !
 ! R22   R(12,13)                1.2045         estimate D2E/DX2                !
 ! R23   R(12,14)                1.3536         estimate D2E/DX2                !
 ! R24   R(14,24)                0.9636         estimate D2E/DX2                !
 ! A1    A(2,1,6)              120.1676         estimate D2E/DX2                !
 ! A2    A(2,1,15)             118.4318         estimate D2E/DX2                !
 ! A3    A(6,1,15)             121.4006         estimate D2E/DX2                !
 ! A4    A(1,2,3)              119.7004         estimate D2E/DX2                !
 ! A5    A(1,2,7)              120.0712         estimate D2E/DX2                !
 ! A6    A(3,2,7)              120.2284         estimate D2E/DX2                !
 ! A7    A(2,3,4)              120.0788         estimate D2E/DX2                !
 ! A8    A(2,3,10)             113.8379         estimate D2E/DX2                !
 ! A9    A(4,3,10)             126.0833         estimate D2E/DX2                !
 ! A10   A(3,4,5)              120.4527         estimate D2E/DX2                !
 ! A11   A(3,4,16)             120.235          estimate D2E/DX2                !
 ! A12   A(5,4,16)             119.3123         estimate D2E/DX2                !
 ! A13   A(4,5,6)              118.8458         estimate D2E/DX2                !
 ! A14   A(4,5,8)              118.0953         estimate D2E/DX2                !
 ! A15   A(6,5,8)              123.0588         estimate D2E/DX2                !
 ! A16   A(1,6,5)              120.7546         estimate D2E/DX2                !
 ! A17   A(1,6,17)             118.9212         estimate D2E/DX2                !
 ! A18   A(5,6,17)             120.3242         estimate D2E/DX2                !
 ! A19   A(2,7,18)             108.6833         estimate D2E/DX2                !
 ! A20   A(5,8,9)              127.1375         estimate D2E/DX2                !
 ! A21   A(5,8,19)             113.1081         estimate D2E/DX2                !
 ! A22   A(9,8,19)             119.7544         estimate D2E/DX2                !
 ! A23   A(8,9,12)             126.2755         estimate D2E/DX2                !
 ! A24   A(8,9,20)             121.6859         estimate D2E/DX2                !
 ! A25   A(12,9,20)            112.0386         estimate D2E/DX2                !
 ! A26   A(3,10,11)            117.715          estimate D2E/DX2                !
 ! A27   A(10,11,21)           106.1742         estimate D2E/DX2                !
 ! A28   A(10,11,22)           110.7728         estimate D2E/DX2                !
 ! A29   A(10,11,23)           110.7728         estimate D2E/DX2                !
 ! A30   A(21,11,22)           109.6209         estimate D2E/DX2                !
 ! A31   A(21,11,23)           109.6212         estimate D2E/DX2                !
 ! A32   A(22,11,23)           109.8105         estimate D2E/DX2                !
 ! A33   A(9,12,13)            121.7103         estimate D2E/DX2                !
 ! A34   A(9,12,14)            118.778          estimate D2E/DX2                !
 ! A35   A(13,12,14)           119.5116         estimate D2E/DX2                !
 ! A36   A(12,14,24)           111.7274         estimate D2E/DX2                !
 ! D1    D(6,1,2,3)             -0.0002         estimate D2E/DX2                !
 ! D2    D(6,1,2,7)            179.9998         estimate D2E/DX2                !
 ! D3    D(15,1,2,3)          -179.9998         estimate D2E/DX2                !
 ! D4    D(15,1,2,7)             0.0002         estimate D2E/DX2                !
 ! D5    D(2,1,6,5)              0.0003         estimate D2E/DX2                !
 ! D6    D(2,1,6,17)          -179.9998         estimate D2E/DX2                !
 ! D7    D(15,1,6,5)           179.9999         estimate D2E/DX2                !
 ! D8    D(15,1,6,17)           -0.0002         estimate D2E/DX2                !
 ! D9    D(1,2,3,4)             -0.0001         estimate D2E/DX2                !
 ! D10   D(1,2,3,10)          -179.9998         estimate D2E/DX2                !
 ! D11   D(7,2,3,4)            179.9999         estimate D2E/DX2                !
 ! D12   D(7,2,3,10)             0.0002         estimate D2E/DX2                !
 ! D13   D(1,2,7,18)          -179.9985         estimate D2E/DX2                !
 ! D14   D(3,2,7,18)             0.0016         estimate D2E/DX2                !
 ! D15   D(2,3,4,5)              0.0004         estimate D2E/DX2                !
 ! D16   D(2,3,4,16)           179.9999         estimate D2E/DX2                !
 ! D17   D(10,3,4,5)          -180.0            estimate D2E/DX2                !
 ! D18   D(10,3,4,16)           -0.0004         estimate D2E/DX2                !
 ! D19   D(2,3,10,11)         -179.9873         estimate D2E/DX2                !
 ! D20   D(4,3,10,11)            0.013          estimate D2E/DX2                !
 ! D21   D(3,4,5,6)             -0.0003         estimate D2E/DX2                !
 ! D22   D(3,4,5,8)            179.9996         estimate D2E/DX2                !
 ! D23   D(16,4,5,6)          -179.9998         estimate D2E/DX2                !
 ! D24   D(16,4,5,8)             0.0            estimate D2E/DX2                !
 ! D25   D(4,5,6,1)             -0.0001         estimate D2E/DX2                !
 ! D26   D(4,5,6,17)          -180.0            estimate D2E/DX2                !
 ! D27   D(8,5,6,1)           -179.9999         estimate D2E/DX2                !
 ! D28   D(8,5,6,17)             0.0002         estimate D2E/DX2                !
 ! D29   D(4,5,8,9)           -179.9949         estimate D2E/DX2                !
 ! D30   D(4,5,8,19)             0.0014         estimate D2E/DX2                !
 ! D31   D(6,5,8,9)              0.0049         estimate D2E/DX2                !
 ! D32   D(6,5,8,19)          -179.9988         estimate D2E/DX2                !
 ! D33   D(5,8,9,12)           179.9983         estimate D2E/DX2                !
 ! D34   D(5,8,9,20)             0.006          estimate D2E/DX2                !
 ! D35   D(19,8,9,12)            0.0023         estimate D2E/DX2                !
 ! D36   D(19,8,9,20)         -179.9901         estimate D2E/DX2                !
 ! D37   D(8,9,12,13)         -179.9515         estimate D2E/DX2                !
 ! D38   D(8,9,12,14)            0.026          estimate D2E/DX2                !
 ! D39   D(20,9,12,13)           0.0415         estimate D2E/DX2                !
 ! D40   D(20,9,12,14)        -179.981          estimate D2E/DX2                !
 ! D41   D(3,10,11,21)         179.992          estimate D2E/DX2                !
 ! D42   D(3,10,11,22)         -61.0637         estimate D2E/DX2                !
 ! D43   D(3,10,11,23)          61.0472         estimate D2E/DX2                !
 ! D44   D(9,12,14,24)           0.0345         estimate D2E/DX2                !
 ! D45   D(13,12,14,24)       -179.9875         estimate D2E/DX2                !
 --------------------------------------------------------------------------------
 Trust Radius=3.00D-01 FncErr=1.00D-07 GrdErr=1.00D-06
 Number of steps in this run=    115 maximum allowed number of steps=    144.
 GradGradGradGradGradGradGradGradGradGradGradGradGradGradGradGradGradGrad

                          Input orientation:                          
 ---------------------------------------------------------------------
 Center     Atomic      Atomic             Coordinates (Angstroms)
 Number     Number       Type             X           Y           Z
 ---------------------------------------------------------------------
      1          6           0        1.461569   -2.010146   -0.000168
      2          6           0        2.491095   -1.077726   -0.000128
      3          6           0        2.187544    0.295350   -0.000070
      4          6           0        0.866729    0.714661   -0.000055
      5          6           0       -0.180238   -0.225867   -0.000090
      6          6           0        0.136485   -1.588125   -0.000146
      7          8           0        3.777878   -1.489933   -0.000145
      8          6           0       -1.558715    0.275045   -0.000062
      9          6           0       -2.684758   -0.453210    0.000008
     10          8           0        3.287663    1.103585   -0.000039
     11          6           0        3.076289    2.503047    0.000297
     12          6           0       -4.073701    0.075293    0.000071
     13          8           0       -5.029872   -0.657276    0.001000
     14          8           0       -4.260819    1.415901   -0.000480
     15          1           0        1.719071   -3.063690   -0.000209
     16          1           0        0.629582    1.773669   -0.000008
     17          1           0       -0.651351   -2.333479   -0.000174
     18          1           0        4.353009   -0.711143   -0.000087
     19          1           0       -1.618491    1.365414   -0.000039
     20          1           0       -2.661922   -1.537624    0.000148
     21          1           0        4.065242    2.959237    0.000412
     22          1           0        2.527951    2.813499   -0.896240
     23          1           0        2.527935    2.813066    0.896974
     24          1           0       -3.423623    1.892910   -0.001407
 ---------------------------------------------------------------------
                    Distance matrix (angstroms):
                    1          2          3          4          5
     1  C    0.000000
     2  C    1.389004   0.000000
     3  C    2.417096   1.406229   0.000000
     4  C    2.788980   2.418929   1.385776   0.000000
     5  C    2.424702   2.803869   2.424471   1.407385   0.000000
     6  C    1.390665   2.409294   2.784658   2.415798   1.398592
     7  O    2.374007   1.351194   2.390899   3.651715   4.155063
     8  C    3.787376   4.269772   3.746314   2.464963   1.466667
     9  C    4.429004   5.213394   4.929469   3.738580   2.514817
    10  O    3.609701   2.322205   1.365103   2.451975   3.713998
    11  C    4.793353   3.628276   2.379873   2.842619   4.248757
    12  C    5.915088   6.665283   6.265111   4.981630   3.905093
    13  O    6.630917   7.532710   7.280013   6.054099   4.868785
    14  O    6.669597   7.197675   6.545000   5.175276   4.398471
    15  H    1.084556   2.130745   3.391551   3.873296   3.414764
    16  H    3.874204   3.405244   2.147713   1.085236   2.157302
    17  H    2.137516   3.384063   3.869117   3.405250   2.159624
    18  H    3.169832   1.897658   2.387942   3.766572   4.559147
    19  H    4.569592   4.780965   3.953598   2.569007   2.144935
    20  H    4.150476   5.173499   5.184314   4.186187   2.807038
    21  H    5.610159   4.333014   3.259148   3.907507   5.307446
    22  H    5.020724   3.993245   2.694452   2.822752   4.168347
    23  H    5.020495   3.993045   2.694336   2.822688   4.168218
    24  H    6.252915   6.618804   5.834158   4.449201   3.874115
                    6          7          8          9         10
     6  C    0.000000
     7  O    3.642717   0.000000
     8  C    2.518949   5.620887   0.000000
     9  C    3.040961   6.545262   1.341018   0.000000
    10  O    4.144300   2.639441   4.916692   6.171987   0.000000
    11  C    5.037870   4.054148   5.142689   6.475270   1.415335
    12  C    4.526878   8.006074   2.522906   1.486095   7.432837
    13  O    5.249545   8.847021   3.594183   2.353976   8.501883
    14  O    5.325453   8.547779   2.933073   2.444902   7.554940
    15  H    2.163763   2.591408   4.678785   5.119406   4.452714
    16  H    3.397764   4.534630   2.652267   3.992974   2.741242
    17  H    1.084545   4.508840   2.761830   2.769505   5.227738
    18  H    4.306759   0.968137   5.993417   7.042492   2.104329
    19  H    3.435598   6.105228   1.092006   2.108155   4.913136
    20  H    2.798863   6.439977   2.121988   1.084654   6.509497
    21  H    6.009462   4.458441   6.231675   7.563550   2.011983
    22  H    5.088849   4.569992   4.893641   6.216670   2.074643
    23  H    5.088648   4.569790   4.893560   6.216532   2.074643
    24  H    4.979154   7.956459   2.468880   2.459716   6.757544
                   11         12         13         14         15
    11  C    0.000000
    12  C    7.550917   0.000000
    13  O    8.700430   1.204542   0.000000
    14  O    7.417212   1.353604   2.211223   0.000000
    15  H    5.729799   6.588583   7.165128   7.471668   0.000000
    16  H    2.553109   5.000535   6.159457   4.903470   4.958531
    17  H    6.106331   4.185052   4.688401   5.204432   2.480344
    18  H    3.458472   8.463328   9.383036   8.872562   3.531587
    19  H    4.830649   2.773530   3.965955   2.642810   5.545835
    20  H    7.018126   2.143507   2.526302   3.358539   4.639179
    21  H    1.089099   8.634786   9.787761   8.467891   6.463758
    22  H    1.095826   7.202982   8.364927   6.988781   5.999876
    23  H    1.095826   7.202877   8.364597   6.988897   5.999622
    24  H    6.528486   1.930372   3.013883   0.963554   7.142492
                   16         17         18         19         20
    16  H    0.000000
    17  H    4.302262   0.000000
    18  H    4.476405   5.260760   0.000000
    19  H    2.284842   3.823241   6.322254   0.000000
    20  H    4.668904   2.162355   7.063450   3.084863   0.000000
    21  H    3.634464   7.089365   3.681644   5.902973   8.091755
    22  H    2.342708   6.115740   4.069033   4.482534   6.831586
    23  H    2.342790   6.115526   4.068865   4.482541   6.831355
    24  H    4.054959   5.054489   8.201043   1.880626   3.514079
                   21         22         23         24
    21  H    0.000000
    22  H    1.785634   0.000000
    23  H    1.785638   1.793214   0.000000
    24  H    7.564401   6.088468   6.088909   0.000000
 Stoichiometry    C10H10O4
 Framework group  C1[X(C10H10O4)]
 Deg. of freedom    66
 Full point group                 C1      NOp   1
 Largest Abelian subgroup         C1      NOp   1
 Largest concise Abelian subgroup C1      NOp   1
                         Standard orientation:                         
 ---------------------------------------------------------------------
 Center     Atomic      Atomic             Coordinates (Angstroms)
 Number     Number       Type             X           Y           Z
 ---------------------------------------------------------------------
      1          6           0        1.461569   -2.010146   -0.000168
      2          6           0        2.491095   -1.077726   -0.000128
      3          6           0        2.187544    0.295350   -0.000070
      4          6           0        0.866729    0.714661   -0.000055
      5          6           0       -0.180238   -0.225867   -0.000090
      6          6           0        0.136485   -1.588125   -0.000146
      7          8           0        3.777878   -1.489933   -0.000145
      8          6           0       -1.558715    0.275045   -0.000062
      9          6           0       -2.684758   -0.453210    0.000008
     10          8           0        3.287663    1.103585   -0.000039
     11          6           0        3.076289    2.503047    0.000297
     12          6           0       -4.073701    0.075293    0.000071
     13          8           0       -5.029872   -0.657276    0.001000
     14          8           0       -4.260819    1.415901   -0.000480
     15          1           0        1.719071   -3.063690   -0.000209
     16          1           0        0.629582    1.773669   -0.000008
     17          1           0       -0.651351   -2.333479   -0.000174
     18          1           0        4.353009   -0.711143   -0.000087
     19          1           0       -1.618491    1.365414   -0.000039
     20          1           0       -2.661922   -1.537624    0.000148
     21          1           0        4.065242    2.959237    0.000412
     22          1           0        2.527951    2.813499   -0.896240
     23          1           0        2.527935    2.813066    0.896974
     24          1           0       -3.423623    1.892910   -0.001407
 ---------------------------------------------------------------------
 Rotational constants (GHZ):      1.5521113      0.2859657      0.2418500
 Standard basis: 6-31+G(d,p) (6D, 7F)
 There are   316 symmetry adapted cartesian basis functions of A   symmetry.
 There are   316 symmetry adapted basis functions of A   symmetry.
   316 basis functions,   518 primitive gaussians,   316 cartesian basis functions
    51 alpha electrons       51 beta electrons
       nuclear repulsion energy       824.5401335380 Hartrees.
 NAtoms=   24 NActive=   24 NUniq=   24 SFac= 1.00D+00 NAtFMM=   60 NAOKFM=F Big=F
 Integral buffers will be    131072 words long.
 Raffenetti 2 integral format.
 Two-electron integral symmetry is turned on.
 One-electron integrals computed using PRISM.
 NBasis=   316 RedAO= T EigKep=  1.45D-06  NBF=   316
 NBsUse=   315 1.00D-06 EigRej=  6.82D-07 NBFU=   315
 ExpMin= 4.38D-02 ExpMax= 5.48D+03 ExpMxC= 8.25D+02 IAcc=2 IRadAn=         4 AccDes= 0.00D+00
 Harris functional with IExCor=  408 and IRadAn=       4 diagonalized for initial guess.
 HarFok:  IExCor=  408 AccDes= 0.00D+00 IRadAn=         4 IDoV= 1 UseB2=F ITyADJ=14
 ICtDFT=  3500011 ScaDFX=  1.000000  1.000000  1.000000  1.000000
 FoFCou: FMM=F IPFlag=           0 FMFlag=      100000 FMFlg1=           0
         NFxFlg=           0 DoJE=T BraDBF=F KetDBF=T FulRan=T
         wScrn=  0.000000 ICntrl=     500 IOpCl=  0 I1Cent=   200000004 NGrid=           0
         NMat0=    1 NMatS0=      1 NMatT0=    0 NMatD0=    1 NMtDS0=    0 NMtDT0=    0
 Petite list used in FoFCou.
 Requested convergence on RMS density matrix=1.00D-08 within 128 cycles.
 Requested convergence on MAX density matrix=1.00D-06.
 Requested convergence on             energy=1.00D-06.
 No special actions if energy rises.
 SCF Done:  E(RB3PW91) =  -687.738067728     A.U. after   16 cycles
            NFock= 16  Conv=0.29D-08     -V/T= 2.0090

 **********************************************************************

            Population analysis using the SCF density.

 **********************************************************************

 Orbital symmetries:
       Occupied  (A) (A) (A) (A) (A) (A) (A) (A) (A) (A) (A) (A)
                 (A) (A) (A) (A) (A) (A) (A) (A) (A) (A) (A) (A)
                 (A) (A) (A) (A) (A) (A) (A) (A) (A) (A) (A) (A)
                 (A) (A) (A) (A) (A) (A) (A) (A) (A) (A) (A) (A)
                 (A) (A) (A)
       Virtual   (A) (A) (A) (A) (A) (A) (A) (A) (A) (A) (A) (A)
                 (A) (A) (A) (A) (A) (A) (A) (A) (A) (A) (A) (A)
                 (A) (A) (A) (A) (A) (A) (A) (A) (A) (A) (A) (A)
                 (A) (A) (A) (A) (A) (A) (A) (A) (A) (A) (A) (A)
                 (A) (A) (A) (A) (A) (A) (A) (A) (A) (A) (A) (A)
                 (A) (A) (A) (A) (A) (A) (A) (A) (A) (A) (A) (A)
                 (A) (A) (A) (A) (A) (A) (A) (A) (A) (A) (A) (A)
                 (A) (A) (A) (A) (A) (A) (A) (A) (A) (A) (A) (A)
                 (A) (A) (A) (A) (A) (A) (A) (A) (A) (A) (A) (A)
                 (A) (A) (A) (A) (A) (A) (A) (A) (A) (A) (A) (A)
                 (A) (A) (A) (A) (A) (A) (A) (A) (A) (A) (A) (A)
                 (A) (A) (A) (A) (A) (A) (A) (A) (A) (A) (A) (A)
                 (A) (A) (A) (A) (A) (A) (A) (A) (A) (A) (A) (A)
                 (A) (A) (A) (A) (A) (A) (A) (A) (A) (A) (A) (A)
                 (A) (A) (A) (A) (A) (A) (A) (A) (A) (A) (A) (A)
                 (A) (A) (A) (A) (A) (A) (A) (A) (A) (A) (A) (A)
                 (A) (A) (A) (A) (A) (A) (A) (A) (A) (A) (A) (A)
                 (A) (A) (A) (A) (A) (A) (A) (A) (A) (A) (A) (A)
                 (A) (A) (A) (A) (A) (A) (A) (A) (A) (A) (A) (A)
                 (A) (A) (A) (A) (A) (A) (A) (A) (A) (A) (A) (A)
                 (A) (A) (A) (A) (A) (A) (A) (A) (A) (A) (A) (A)
                 (A) (A) (A) (A) (A) (A) (A) (A) (A) (A) (A) (A)
 The electronic state is 1-A.
 Alpha  occ. eigenvalues --  -19.21413 -19.19750 -19.19452 -19.12903 -10.31028
 Alpha  occ. eigenvalues --  -10.26414 -10.26337 -10.25676 -10.22618 -10.21465
 Alpha  occ. eigenvalues --  -10.21063 -10.20427 -10.20297 -10.20029  -1.11901
 Alpha  occ. eigenvalues --   -1.11307  -1.08700  -1.02851  -0.89164  -0.82986
 Alpha  occ. eigenvalues --   -0.78848  -0.77264  -0.73189  -0.67824  -0.64096
 Alpha  occ. eigenvalues --   -0.63124  -0.60628  -0.58819  -0.55779  -0.53418
 Alpha  occ. eigenvalues --   -0.51904  -0.50611  -0.48688  -0.47351  -0.45680
 Alpha  occ. eigenvalues --   -0.45342  -0.45044  -0.44178  -0.43385  -0.41081
 Alpha  occ. eigenvalues --   -0.40513  -0.38530  -0.38426  -0.37678  -0.36769
 Alpha  occ. eigenvalues --   -0.36596  -0.32743  -0.30685  -0.28059  -0.26933
 Alpha  occ. eigenvalues --   -0.23122
 Alpha virt. eigenvalues --   -0.08016  -0.02732  -0.01155  -0.00018   0.00635
 Alpha virt. eigenvalues --    0.00957   0.02062   0.03845   0.04161   0.04446
 Alpha virt. eigenvalues --    0.05775   0.05919   0.06446   0.06790   0.07759
 Alpha virt. eigenvalues --    0.07990   0.08395   0.09811   0.09853   0.10209
 Alpha virt. eigenvalues --    0.11029   0.11296   0.11479   0.13342   0.13559
 Alpha virt. eigenvalues --    0.13644   0.14035   0.14137   0.14616   0.15512
 Alpha virt. eigenvalues --    0.15714   0.16112   0.16751   0.17479   0.18517
 Alpha virt. eigenvalues --    0.18530   0.18785   0.19614   0.20110   0.20338
 Alpha virt. eigenvalues --    0.20927   0.21478   0.21616   0.22067   0.22300
 Alpha virt. eigenvalues --    0.23043   0.23440   0.24432   0.25611   0.25616
 Alpha virt. eigenvalues --    0.25817   0.26871   0.28004   0.28061   0.28232
 Alpha virt. eigenvalues --    0.28613   0.29567   0.30358   0.30994   0.31508
 Alpha virt. eigenvalues --    0.31609   0.32141   0.33256   0.33436   0.33778
 Alpha virt. eigenvalues --    0.34084   0.34483   0.35148   0.36249   0.36872
 Alpha virt. eigenvalues --    0.38395   0.38522   0.38832   0.39693   0.41421
 Alpha virt. eigenvalues --    0.42847   0.43320   0.45916   0.47301   0.48065
 Alpha virt. eigenvalues --    0.49177   0.52557   0.57825   0.61822   0.64473
 Alpha virt. eigenvalues --    0.64855   0.66811   0.67255   0.67529   0.68346
 Alpha virt. eigenvalues --    0.70590   0.71503   0.71988   0.72252   0.72868
 Alpha virt. eigenvalues --    0.74398   0.75356   0.77576   0.77689   0.78773
 Alpha virt. eigenvalues --    0.82860   0.83195   0.84021   0.85521   0.86205
 Alpha virt. eigenvalues --    0.88942   0.90505   0.92483   0.94573   0.97123
 Alpha virt. eigenvalues --    0.99781   1.00834   1.02438   1.04327   1.04454
 Alpha virt. eigenvalues --    1.05351   1.08173   1.08944   1.10502   1.11758
 Alpha virt. eigenvalues --    1.13315   1.14888   1.15366   1.16117   1.16150
 Alpha virt. eigenvalues --    1.18161   1.19513   1.20223   1.21335   1.21421
 Alpha virt. eigenvalues --    1.22232   1.24304   1.24869   1.25440   1.26021
 Alpha virt. eigenvalues --    1.27555   1.28334   1.30146   1.30859   1.33312
 Alpha virt. eigenvalues --    1.34415   1.34435   1.36029   1.36988   1.37755
 Alpha virt. eigenvalues --    1.38202   1.40656   1.41048   1.42627   1.43291
 Alpha virt. eigenvalues --    1.43910   1.43928   1.51174   1.54274   1.55750
 Alpha virt. eigenvalues --    1.56720   1.57616   1.60678   1.65903   1.69634
 Alpha virt. eigenvalues --    1.73124   1.76459   1.76538   1.77442   1.80107
 Alpha virt. eigenvalues --    1.81041   1.82228   1.84088   1.84570   1.85371
 Alpha virt. eigenvalues --    1.87339   1.88330   1.89457   1.91108   1.94196
 Alpha virt. eigenvalues --    1.94422   1.94477   1.95624   1.98654   1.99220
 Alpha virt. eigenvalues --    2.01322   2.02942   2.03342   2.03606   2.04966
 Alpha virt. eigenvalues --    2.07878   2.08219   2.11719   2.14230   2.16772
 Alpha virt. eigenvalues --    2.19701   2.21173   2.22189   2.26155   2.26810
 Alpha virt. eigenvalues --    2.29650   2.35056   2.35405   2.37442   2.41318
 Alpha virt. eigenvalues --    2.43412   2.45273   2.45793   2.45940   2.48396
 Alpha virt. eigenvalues --    2.50010   2.50439   2.51042   2.53084   2.53363
 Alpha virt. eigenvalues --    2.54515   2.56953   2.60195   2.60879   2.61838
 Alpha virt. eigenvalues --    2.64034   2.65171   2.67354   2.68877   2.70770
 Alpha virt. eigenvalues --    2.71059   2.72851   2.73044   2.76209   2.79567
 Alpha virt. eigenvalues --    2.82125   2.83114   2.83888   2.87888   2.93101
 Alpha virt. eigenvalues --    2.94260   3.01284   3.07047   3.08984   3.12191
 Alpha virt. eigenvalues --    3.14991   3.16954   3.20629   3.23224   3.24147
 Alpha virt. eigenvalues --    3.32651   3.34838   3.39052   3.44607   3.47826
 Alpha virt. eigenvalues --    3.49429   3.53024   3.56550   3.59753   3.80813
 Alpha virt. eigenvalues --    4.20016   4.23958   4.27584   4.31566   4.35625
 Alpha virt. eigenvalues --    4.40175   4.43249   4.47348   4.51767   4.54509
 Alpha virt. eigenvalues --    4.59633   4.66912   4.78261   5.08169
          Condensed to atoms (all electrons):
               1          2          3          4          5          6
     1  C   11.800307  -1.151292  -1.741052  -1.862597  -0.078712  -1.697353
     2  C   -1.151292  17.357392  -4.406800  -4.400226  -0.720288   1.129874
     3  C   -1.741052  -4.406800  14.923568  -0.077781  -1.138715  -1.693243
     4  C   -1.862597  -4.400226  -0.077781  15.526631   2.137779  -1.061646
     5  C   -0.078712  -0.720288  -1.138715   2.137779   8.387276  -0.517207
     6  C   -1.697353   1.129874  -1.693243  -1.061646  -0.517207   9.173943
     7  O   -0.530036   0.071119   0.361149   0.116117  -0.054731  -0.022278
     8  C    0.620242  -0.906908   0.274323  -3.427469  -1.004246   0.145507
     9  C    0.029570  -0.002382  -0.584807  -1.612782  -1.546420   0.972011
    10  O    0.085422  -0.875394   0.538435   0.242899  -0.014936  -0.053785
    11  C    0.045928  -0.053080  -0.035530  -0.023598  -0.016840  -0.010003
    12  C   -0.105052   0.056427  -0.005639   0.115650  -0.274736  -0.069650
    13  O   -0.002674   0.000152   0.000607   0.015461   0.059919  -0.011593
    14  O    0.000525  -0.001747   0.005115  -0.009988   0.015628  -0.001352
    15  H    0.124422   0.141768   0.023478   0.006432  -0.019919   0.053043
    16  H   -0.008052  -0.009367  -0.171375   0.290190   0.035343  -0.011806
    17  H   -0.025540  -0.026223   0.001176   0.033312   0.152972   0.160234
    18  H    0.207336   0.179034  -0.337868  -0.062546   0.005939  -0.001409
    19  H    0.008840   0.002338   0.068136   0.298005   0.089536  -0.121447
    20  H    0.043491  -0.006333   0.007857   0.008820   0.093264  -0.038485
    21  H    0.002053   0.065521   0.040357  -0.075631  -0.002323  -0.000435
    22  H   -0.001509  -0.040499  -0.051789   0.071932   0.008798   0.001992
    23  H   -0.001516  -0.040504  -0.051803   0.071939   0.008823   0.001997
    24  H   -0.001245   0.001253  -0.002464   0.060106   0.075798  -0.010516
               7          8          9         10         11         12
     1  C   -0.530036   0.620242   0.029570   0.085422   0.045928  -0.105052
     2  C    0.071119  -0.906908  -0.002382  -0.875394  -0.053080   0.056427
     3  C    0.361149   0.274323  -0.584807   0.538435  -0.035530  -0.005639
     4  C    0.116117  -3.427469  -1.612782   0.242899  -0.023598   0.115650
     5  C   -0.054731  -1.004246  -1.546420  -0.014936  -0.016840  -0.274736
     6  C   -0.022278   0.145507   0.972011  -0.053785  -0.010003  -0.069650
     7  O    8.377360   0.004316   0.000021  -0.008469   0.002834   0.000141
     8  C    0.004316  10.452613  -0.864058  -0.033283  -0.052501   0.316257
     9  C    0.000021  -0.864058  11.731486  -0.003297  -0.006588  -1.732034
    10  O   -0.008469  -0.033283  -0.003297   8.602363   0.060246   0.000164
    11  C    0.002834  -0.052501  -0.006588   0.060246   5.018821  -0.000901
    12  C    0.000141   0.316257  -1.732034   0.000164  -0.000901   6.880206
    13  O    0.000000   0.077764  -0.371665   0.000000   0.000009   0.540055
    14  O    0.000000   0.113731  -0.033906  -0.000006  -0.000042  -0.069420
    15  H   -0.007607  -0.003469   0.000991  -0.000712   0.000051   0.000026
    16  H   -0.000399   0.154492   0.031067  -0.014950   0.000302   0.000143
    17  H   -0.000596   0.010235  -0.018465   0.000163  -0.000005   0.018329
    18  H    0.193306   0.000706   0.000101   0.039625   0.004540   0.000008
    19  H   -0.000008   0.209738  -0.256310   0.000101   0.001304  -0.033289
    20  H   -0.000002  -0.011743   0.328651   0.000002   0.000027  -0.106586
    21  H   -0.000233   0.000730   0.000156  -0.072419   0.407876   0.000006
    22  H   -0.000095  -0.002755  -0.000561  -0.044452   0.415041  -0.000046
    23  H   -0.000095  -0.002742  -0.000559  -0.044454   0.415024  -0.000046
    24  H   -0.000000   0.080494  -0.311766   0.000003   0.000132   0.144420
              13         14         15         16         17         18
     1  C   -0.002674   0.000525   0.124422  -0.008052  -0.025540   0.207336
     2  C    0.000152  -0.001747   0.141768  -0.009367  -0.026223   0.179034
     3  C    0.000607   0.005115   0.023478  -0.171375   0.001176  -0.337868
     4  C    0.015461  -0.009988   0.006432   0.290190   0.033312  -0.062546
     5  C    0.059919   0.015628  -0.019919   0.035343   0.152972   0.005939
     6  C   -0.011593  -0.001352   0.053043  -0.011806   0.160234  -0.001409
     7  O    0.000000   0.000000  -0.007607  -0.000399  -0.000596   0.193306
     8  C    0.077764   0.113731  -0.003469   0.154492   0.010235   0.000706
     9  C   -0.371665  -0.033906   0.000991   0.031067  -0.018465   0.000101
    10  O    0.000000  -0.000006  -0.000712  -0.014950   0.000163   0.039625
    11  C    0.000009  -0.000042   0.000051   0.000302  -0.000005   0.004540
    12  C    0.540055  -0.069420   0.000026   0.000143   0.018329   0.000008
    13  O    8.251396  -0.125019   0.000000  -0.000001   0.000151   0.000000
    14  O   -0.125019   8.354263  -0.000000   0.000014  -0.000015  -0.000000
    15  H    0.000000  -0.000000   0.515462   0.000014  -0.004300  -0.000083
    16  H   -0.000001   0.000014   0.000014   0.561177  -0.000143  -0.000025
    17  H    0.000151  -0.000015  -0.004300  -0.000143   0.547012   0.000005
    18  H    0.000000  -0.000000  -0.000083  -0.000025   0.000005   0.376925
    19  H   -0.000075  -0.011540   0.000002   0.004087   0.000035   0.000000
    20  H   -0.014232   0.006599   0.000004   0.000001   0.001585  -0.000000
    21  H   -0.000000   0.000000  -0.000000   0.000141  -0.000000  -0.000060
    22  H   -0.000000  -0.000000   0.000000  -0.001046   0.000000   0.000026
    23  H   -0.000000  -0.000000   0.000000  -0.001045   0.000000   0.000026
    24  H    0.014710   0.166425   0.000000   0.000012   0.000004  -0.000000
              19         20         21         22         23         24
     1  C    0.008840   0.043491   0.002053  -0.001509  -0.001516  -0.001245
     2  C    0.002338  -0.006333   0.065521  -0.040499  -0.040504   0.001253
     3  C    0.068136   0.007857   0.040357  -0.051789  -0.051803  -0.002464
     4  C    0.298005   0.008820  -0.075631   0.071932   0.071939   0.060106
     5  C    0.089536   0.093264  -0.002323   0.008798   0.008823   0.075798
     6  C   -0.121447  -0.038485  -0.000435   0.001992   0.001997  -0.010516
     7  O   -0.000008  -0.000002  -0.000233  -0.000095  -0.000095  -0.000000
     8  C    0.209738  -0.011743   0.000730  -0.002755  -0.002742   0.080494
     9  C   -0.256310   0.328651   0.000156  -0.000561  -0.000559  -0.311766
    10  O    0.000101   0.000002  -0.072419  -0.044452  -0.044454   0.000003
    11  C    0.001304   0.000027   0.407876   0.415041   0.415024   0.000132
    12  C   -0.033289  -0.106586   0.000006  -0.000046  -0.000046   0.144420
    13  O   -0.000075  -0.014232  -0.000000  -0.000000  -0.000000   0.014710
    14  O   -0.011540   0.006599   0.000000  -0.000000  -0.000000   0.166425
    15  H    0.000002   0.000004  -0.000000   0.000000   0.000000   0.000000
    16  H    0.004087   0.000001   0.000141  -0.001046  -0.001045   0.000012
    17  H    0.000035   0.001585  -0.000000   0.000000   0.000000   0.000004
    18  H    0.000000  -0.000000  -0.000060   0.000026   0.000026  -0.000000
    19  H    0.624462   0.004184   0.000000  -0.000002  -0.000002   0.014028
    20  H    0.004184   0.521213  -0.000000   0.000000   0.000000   0.000195
    21  H    0.000000  -0.000000   0.515639  -0.026207  -0.026203  -0.000000
    22  H   -0.000002   0.000000  -0.026207   0.549303  -0.041704   0.000000
    23  H   -0.000002   0.000000  -0.026203  -0.041704   0.549288   0.000000
    24  H    0.014028   0.000195  -0.000000   0.000000   0.000000   0.434769
 Mulliken charges:
               1
     1  C    0.238493
     2  C   -0.363836
     3  C    0.054666
     4  C   -0.381009
     5  C    0.317998
     6  C   -0.316394
     7  O   -0.501811
     8  C   -0.151974
     9  C    0.251544
    10  O   -0.403268
    11  C   -0.173046
    12  C    0.325567
    13  O   -0.434965
    14  O   -0.409265
    15  H    0.170396
    16  H    0.141224
    17  H    0.150075
    18  H    0.394414
    19  H    0.097879
    20  H    0.161488
    21  H    0.171033
    22  H    0.163571
    23  H    0.163578
    24  H    0.333642
 Sum of Mulliken charges =  -0.00000
 Mulliken charges with hydrogens summed into heavy atoms:
               1
     1  C    0.408889
     2  C   -0.363836
     3  C    0.054666
     4  C   -0.239786
     5  C    0.317998
     6  C   -0.166319
     7  O   -0.107397
     8  C   -0.054095
     9  C    0.413032
    10  O   -0.403268
    11  C    0.325136
    12  C    0.325567
    13  O   -0.434965
    14  O   -0.075623
 Electronic spatial extent (au):  <R**2>=           4158.3297
 Charge=             -0.0000 electrons
 Dipole moment (field-independent basis, Debye):
    X=              6.7026    Y=              3.7896    Z=             -0.0024  Tot=              7.6997
 Quadrupole moment (field-independent basis, Debye-Ang):
   XX=           -113.9335   YY=            -70.2208   ZZ=            -84.4417
   XY=              5.4187   XZ=              0.0147   YZ=             -0.0007
 Traceless Quadrupole moment (field-independent basis, Debye-Ang):
   XX=            -24.4016   YY=             19.3112   ZZ=              5.0903
   XY=              5.4187   XZ=              0.0147   YZ=             -0.0007
 Octapole moment (field-independent basis, Debye-Ang**2):
  XXX=            262.6343  YYY=             22.9949  ZZZ=              0.0031  XYY=             11.3140
  XXY=             49.3967  XXZ=             -0.0506  XZZ=             -2.0966  YZZ=              5.2172
  YYZ=             -0.0071  XYZ=              0.0046
 Hexadecapole moment (field-independent basis, Debye-Ang**3):
 XXXX=          -5275.1939 YYYY=           -841.1712 ZZZZ=            -95.9751 XXXY=             59.8911
 XXXZ=              0.3364 YYYX=             46.6031 YYYZ=             -0.0151 ZZZX=              0.0478
 ZZZY=             -0.0052 XXYY=           -867.9871 XXZZ=           -722.1016 YYZZ=           -180.5278
 XXYZ=              0.0236 YYXZ=              0.0559 ZZXY=              1.5387
 N-N= 8.245401335380D+02 E-N=-3.252961815105D+03  KE= 6.816266478377D+02
 Calling FoFJK, ICntrl=      2127 FMM=F ISym2X=0 I1Cent= 0 IOpClX= 0 NMat=1 NMatS=1 NMatT=0.
 ***** Axes restored to original set *****
 -------------------------------------------------------------------
 Center     Atomic                   Forces (Hartrees/Bohr)
 Number     Number              X              Y              Z
 -------------------------------------------------------------------
      1        6          -0.001734839   -0.001128477    0.000000124
      2        6           0.002423584    0.000515527   -0.000000158
      3        6           0.000237090    0.000820639   -0.000001069
      4        6           0.000908043    0.000870240    0.000001350
      5        6          -0.006924897    0.003606394    0.000002430
      6        6           0.001561038   -0.002898504   -0.000000821
      7        8           0.000850600   -0.002060008   -0.000000107
      8        6           0.009778058   -0.000341720   -0.000001224
      9        6          -0.009307362    0.000318558   -0.000015632
     10        8           0.000529269   -0.000704417    0.000001461
     11        6           0.000071010    0.000373426   -0.000001023
     12        6           0.012556131    0.000309273    0.000045152
     13        8          -0.008897710   -0.005993990   -0.000011509
     14        8          -0.003013569    0.003673449   -0.000012275
     15        1          -0.000251123   -0.000568082   -0.000000058
     16        1          -0.000136077   -0.000064260    0.000000058
     17        1           0.000093232   -0.000217457   -0.000000213
     18        1          -0.000536326    0.000937995   -0.000000030
     19        1          -0.000247132    0.000334552   -0.000000747
     20        1           0.000022033   -0.000172213   -0.000000953
     21        1           0.000609128    0.000540061   -0.000000128
     22        1          -0.000018841    0.000883231   -0.000416182
     23        1          -0.000018736    0.000882579    0.000416641
     24        1           0.001447395    0.000083206   -0.000005086
 -------------------------------------------------------------------
 Cartesian Forces:  Max     0.012556131 RMS     0.002825504

 GradGradGradGradGradGradGradGradGradGradGradGradGradGradGradGradGradGrad
 Berny optimization.
 FormGI is forming the generalized inverse of G from B-inverse, IUseBI=4.
 GSVD:  received Info=                   1 from GESDD.
 Internal  Forces:  Max     0.010706083 RMS     0.001663010
 Search for a local minimum.
 Step number   1 out of a maximum of  115
 All quantities printed in internal units (Hartrees-Bohrs-Radians)
 Mixed Optimization -- RFO/linear search
 Second derivative matrix not updated -- first step.
 ITU=  0
     Eigenvalues ---    0.00950   0.01207   0.01388   0.01489   0.01796
     Eigenvalues ---    0.01991   0.02050   0.02086   0.02099   0.02146
     Eigenvalues ---    0.02153   0.02155   0.02159   0.02183   0.02217
     Eigenvalues ---    0.02223   0.02306   0.02337   0.02869   0.10192
     Eigenvalues ---    0.10693   0.16000   0.16000   0.16000   0.16000
     Eigenvalues ---    0.16000   0.16000   0.16000   0.16000   0.16000
     Eigenvalues ---    0.16000   0.22000   0.22000   0.22373   0.23484
     Eigenvalues ---    0.24605   0.25000   0.25000   0.25000   0.25000
     Eigenvalues ---    0.25000   0.25000   0.33881   0.34148   0.34148
     Eigenvalues ---    0.34582   0.34917   0.35369   0.35438   0.35449
     Eigenvalues ---    0.35451   0.36142   0.41581   0.42233   0.43171
     Eigenvalues ---    0.45183   0.45727   0.47113   0.47748   0.51929
     Eigenvalues ---    0.53759   0.54262   0.54716   0.54768   0.56978
     Eigenvalues ---    1.02574
 RFO step:  Lambda=-5.87131194D-04 EMin= 9.49885119D-03
 Linear search not attempted -- first point.
 Iteration  1 RMS(Cart)=  0.01642111 RMS(Int)=  0.00008511
 Iteration  2 RMS(Cart)=  0.00012068 RMS(Int)=  0.00000523
 Iteration  3 RMS(Cart)=  0.00000001 RMS(Int)=  0.00000523
 Variable       Old X    -DE/DX   Delta X   Delta X   Delta X     New X
                                 (Linear)    (Quad)   (Total)
    R1        2.62484   0.00265   0.00000   0.00549   0.00549   2.63033
    R2        2.62798  -0.00002   0.00000  -0.00014  -0.00014   2.62784
    R3        2.04951   0.00049   0.00000   0.00139   0.00139   2.05090
    R4        2.65739   0.00247   0.00000   0.00556   0.00556   2.66294
    R5        2.55339   0.00064   0.00000   0.00117   0.00117   2.55456
    R6        2.61874   0.00194   0.00000   0.00413   0.00413   2.62286
    R7        2.57967   0.00211   0.00000   0.00407   0.00407   2.58374
    R8        2.65957   0.00300   0.00000   0.00683   0.00683   2.66641
    R9        2.05080  -0.00003   0.00000  -0.00009  -0.00009   2.05070
   R10        2.64296   0.00335   0.00000   0.00729   0.00729   2.65024
   R11        2.77160  -0.00280   0.00000  -0.00774  -0.00774   2.76386
   R12        2.04949   0.00008   0.00000   0.00023   0.00023   2.04973
   R13        1.82951   0.00043   0.00000   0.00080   0.00080   1.83032
   R14        2.53416   0.00700   0.00000   0.01227   0.01227   2.54642
   R15        2.06359   0.00035   0.00000   0.00101   0.00101   2.06460
   R16        2.80831  -0.00264   0.00000  -0.00777  -0.00777   2.80054
   R17        2.04970   0.00017   0.00000   0.00048   0.00048   2.05018
   R18        2.67460   0.00254   0.00000   0.00588   0.00588   2.68048
   R19        2.05810   0.00078   0.00000   0.00223   0.00223   2.06033
   R20        2.07081   0.00060   0.00000   0.00175   0.00175   2.07256
   R21        2.07081   0.00060   0.00000   0.00175   0.00175   2.07256
   R22        2.27625   0.01071   0.00000   0.01043   0.01043   2.28669
   R23        2.55794   0.00394   0.00000   0.00726   0.00726   2.56520
   R24        1.82085   0.00130   0.00000   0.00238   0.00238   1.82323
    A1        2.09732   0.00047   0.00000   0.00160   0.00160   2.09892
    A2        2.06702   0.00015   0.00000   0.00164   0.00164   2.06866
    A3        2.11884  -0.00063   0.00000  -0.00324  -0.00324   2.11560
    A4        2.08917  -0.00008   0.00000  -0.00058  -0.00058   2.08858
    A5        2.09564  -0.00031   0.00000  -0.00110  -0.00110   2.09454
    A6        2.09838   0.00039   0.00000   0.00168   0.00168   2.10006
    A7        2.09577  -0.00054   0.00000  -0.00208  -0.00208   2.09369
    A8        1.98685  -0.00065   0.00000  -0.00265  -0.00265   1.98420
    A9        2.20057   0.00119   0.00000   0.00472   0.00472   2.20529
   A10        2.10230   0.00078   0.00000   0.00374   0.00374   2.10604
   A11        2.09850  -0.00024   0.00000  -0.00094  -0.00094   2.09756
   A12        2.08239  -0.00054   0.00000  -0.00280  -0.00280   2.07959
   A13        2.07425  -0.00113   0.00000  -0.00453  -0.00453   2.06972
   A14        2.06115   0.00037   0.00000   0.00151   0.00151   2.06266
   A15        2.14778   0.00075   0.00000   0.00302   0.00302   2.15081
   A16        2.10757   0.00050   0.00000   0.00184   0.00184   2.10941
   A17        2.07557  -0.00047   0.00000  -0.00233  -0.00233   2.07324
   A18        2.10005  -0.00002   0.00000   0.00048   0.00048   2.10053
   A19        1.89688  -0.00181   0.00000  -0.01125  -0.01125   1.88564
   A20        2.21897   0.00200   0.00000   0.00905   0.00905   2.22802
   A21        1.97411  -0.00076   0.00000  -0.00307  -0.00307   1.97104
   A22        2.09011  -0.00123   0.00000  -0.00599  -0.00599   2.08412
   A23        2.20392   0.00194   0.00000   0.00879   0.00879   2.21271
   A24        2.12382  -0.00099   0.00000  -0.00450  -0.00450   2.11932
   A25        1.95544  -0.00095   0.00000  -0.00429  -0.00429   1.95116
   A26        2.05451   0.00412   0.00000   0.01645   0.01645   2.07096
   A27        1.85309  -0.00017   0.00000  -0.00194  -0.00194   1.85115
   A28        1.93335   0.00094   0.00000   0.00632   0.00630   1.93965
   A29        1.93335   0.00094   0.00000   0.00631   0.00630   1.93965
   A30        1.91325  -0.00065   0.00000  -0.00495  -0.00495   1.90830
   A31        1.91325  -0.00065   0.00000  -0.00494  -0.00495   1.90831
   A32        1.91655  -0.00042   0.00000  -0.00106  -0.00109   1.91547
   A33        2.12425   0.00051   0.00000   0.00204   0.00204   2.12628
   A34        2.07307   0.00047   0.00000   0.00190   0.00190   2.07496
   A35        2.08587  -0.00099   0.00000  -0.00393  -0.00393   2.08194
   A36        1.95001  -0.00117   0.00000  -0.00728  -0.00728   1.94273
    D1       -0.00000   0.00000   0.00000   0.00000   0.00000  -0.00000
    D2        3.14159   0.00000   0.00000   0.00001   0.00001  -3.14159
    D3       -3.14159  -0.00000   0.00000  -0.00000  -0.00000   3.14159
    D4        0.00000   0.00000   0.00000   0.00000   0.00000   0.00000
    D5        0.00001  -0.00000   0.00000  -0.00001  -0.00001  -0.00000
    D6       -3.14159  -0.00000   0.00000  -0.00001  -0.00001   3.14159
    D7        3.14159   0.00000   0.00000   0.00000   0.00000   3.14159
    D8       -0.00000  -0.00000   0.00000  -0.00000  -0.00000  -0.00001
    D9       -0.00000   0.00000   0.00000   0.00001   0.00001   0.00000
   D10       -3.14159   0.00000   0.00000   0.00001   0.00001  -3.14158
   D11        3.14159   0.00000   0.00000   0.00000   0.00000   3.14159
   D12        0.00000   0.00000   0.00000   0.00001   0.00001   0.00001
   D13       -3.14157  -0.00000   0.00000  -0.00001  -0.00001  -3.14157
   D14        0.00003  -0.00000   0.00000  -0.00000  -0.00000   0.00003
   D15        0.00001  -0.00000   0.00000  -0.00001  -0.00001  -0.00000
   D16        3.14159  -0.00000   0.00000   0.00000   0.00000   3.14159
   D17       -3.14159  -0.00000   0.00000  -0.00002  -0.00002   3.14158
   D18       -0.00001  -0.00000   0.00000  -0.00001  -0.00001  -0.00001
   D19       -3.14137  -0.00000   0.00000  -0.00004  -0.00004  -3.14142
   D20        0.00023  -0.00000   0.00000  -0.00004  -0.00004   0.00019
   D21       -0.00000   0.00000   0.00000   0.00001   0.00001   0.00000
   D22        3.14158   0.00000   0.00000   0.00002   0.00002  -3.14159
   D23       -3.14159  -0.00000   0.00000  -0.00000  -0.00000   3.14159
   D24        0.00000   0.00000   0.00000   0.00000   0.00000   0.00000
   D25       -0.00000   0.00000   0.00000   0.00000   0.00000   0.00000
   D26       -3.14159   0.00000   0.00000   0.00001   0.00001  -3.14159
   D27       -3.14159  -0.00000   0.00000  -0.00001  -0.00001   3.14159
   D28        0.00000  -0.00000   0.00000  -0.00000  -0.00000  -0.00000
   D29       -3.14150   0.00000   0.00000   0.00006   0.00006  -3.14144
   D30        0.00002   0.00000   0.00000   0.00002   0.00002   0.00005
   D31        0.00009   0.00000   0.00000   0.00007   0.00007   0.00016
   D32       -3.14157   0.00000   0.00000   0.00003   0.00003  -3.14154
   D33        3.14156  -0.00000   0.00000  -0.00009  -0.00009   3.14147
   D34        0.00010  -0.00000   0.00000  -0.00003  -0.00003   0.00008
   D35        0.00004  -0.00000   0.00000  -0.00004  -0.00004  -0.00000
   D36       -3.14142   0.00000   0.00000   0.00002   0.00002  -3.14140
   D37       -3.14075  -0.00001   0.00000  -0.00073  -0.00073  -3.14148
   D38        0.00045   0.00001   0.00000   0.00100   0.00100   0.00146
   D39        0.00072  -0.00001   0.00000  -0.00079  -0.00079  -0.00006
   D40       -3.14126   0.00001   0.00000   0.00094   0.00094  -3.14032
   D41        3.14145   0.00000   0.00000   0.00001   0.00001   3.14147
   D42       -1.06576  -0.00038   0.00000  -0.00365  -0.00367  -1.06943
   D43        1.06547   0.00038   0.00000   0.00367   0.00370   1.06917
   D44        0.00060  -0.00001   0.00000  -0.00071  -0.00071  -0.00010
   D45       -3.14138   0.00002   0.00000   0.00099   0.00098  -3.14039
         Item               Value     Threshold  Converged?
 Maximum Force            0.010706     0.000450     NO 
 RMS     Force            0.001663     0.000300     NO 
 Maximum Displacement     0.065062     0.001800     NO 
 RMS     Displacement     0.016460     0.001200     NO 
 Predicted change in Energy=-2.940848D-04
 GradGradGradGradGradGradGradGradGradGradGradGradGradGradGradGradGradGrad

                          Input orientation:                          
 ---------------------------------------------------------------------
 Center     Atomic      Atomic             Coordinates (Angstroms)
 Number     Number       Type             X           Y           Z
 ---------------------------------------------------------------------
      1          6           0        1.462054   -2.012478   -0.000256
      2          6           0        2.492618   -1.076878   -0.000214
      3          6           0        2.185992    0.298528   -0.000051
      4          6           0        0.861488    0.713402    0.000072
      5          6           0       -0.188065   -0.229659    0.000030
      6          6           0        0.135866   -1.594185   -0.000137
      7          8           0        3.780030   -1.489152   -0.000335
      8          6           0       -1.563501    0.267631    0.000155
      9          6           0       -2.700404   -0.455715    0.000305
     10          8           0        3.288552    1.107074   -0.000044
     11          6           0        3.101035    2.513071    0.000334
     12          6           0       -4.086216    0.069454    0.000572
     13          8           0       -5.047274   -0.665812    0.000811
     14          8           0       -4.278229    1.413250   -0.001044
     15          1           0        1.719263   -3.066849   -0.000383
     16          1           0        0.621271    1.771667    0.000200
     17          1           0       -0.648232   -2.343649   -0.000179
     18          1           0        4.346541   -0.703545   -0.000263
     19          1           0       -1.621725    1.358619    0.000226
     20          1           0       -2.680746   -1.540444    0.000417
     21          1           0        4.099671    2.950604    0.000401
     22          1           0        2.561251    2.840253   -0.896576
     23          1           0        2.561331    2.839777    0.897466
     24          1           0       -3.438021    1.887496   -0.002143
 ---------------------------------------------------------------------
                    Distance matrix (angstroms):
                    1          2          3          4          5
     1  C    0.000000
     2  C    1.391909   0.000000
     3  C    2.421742   1.409170   0.000000
     4  C    2.791255   2.421919   1.387960   0.000000
     5  C    2.429266   2.811378   2.432104   1.411002   0.000000
     6  C    1.390591   2.412859   2.790229   2.418984   1.402449
     7  O    2.376317   1.351813   2.395153   3.656383   4.163184
     8  C    3.788519   4.273150   3.749620   2.465620   1.462573
     9  C    4.444049   5.230041   4.944264   3.748854   2.522489
    10  O    3.614927   2.324469   1.367255   2.458784   3.724745
    11  C    4.813195   3.641140   2.396144   2.873044   4.282610
    12  C    5.926022   6.677959   6.276389   4.989433   3.909609
    13  O    6.647170   7.551090   7.297266   6.067594   4.878744
    14  O    6.684793   7.214230   6.559631   5.187145   4.407788
    15  H    1.085291   2.134963   3.397587   3.876349   3.418705
    16  H    3.876425   3.408247   2.149068   1.085186   2.158780
    17  H    2.136113   3.386687   3.874780   3.409518   2.163494
    18  H    3.167581   1.891139   2.381622   3.762092   4.559301
    19  H    4.568806   4.781157   3.952531   2.565667   2.139628
    20  H    4.169605   5.194092   5.202591   4.198481   2.816312
    21  H    5.620428   4.336269   3.270425   3.935849   5.338423
    22  H    5.055752   4.018966   2.721203   2.866473   4.217464
    23  H    5.055560   4.018797   2.721096   2.866400   4.217346
    24  H    6.262630   6.630233   5.844172   4.456935   3.878732
                    6          7          8          9         10
     6  C    0.000000
     7  O    3.645677   0.000000
     8  C    2.520756   5.624910   0.000000
     9  C    3.056231   6.562318   1.347509   0.000000
    10  O    4.151653   2.642336   4.924133   6.189500   0.000000
    11  C    5.065745   4.059412   5.176862   6.516931   1.418447
    12  C    4.538025   8.019169   2.530487   1.481983   7.447406
    13  O    5.265627   8.865618   3.606660   2.356256   8.522273
    14  O    5.341246   8.565015   2.946556   2.445928   7.572973
    15  H    2.162379   2.595360   4.679241   5.133369   4.459182
    16  H    3.400673   4.539901   2.652424   3.999344   2.748831
    17  H    1.084669   4.509952   2.767038   2.788495   5.235051
    18  H    4.303838   0.968562   5.989305   7.051302   2.097065
    19  H    3.436303   6.106452   1.092540   2.110771   4.916716
    20  H    2.817125   6.460980   2.125412   1.084908   6.530075
    21  H    6.030494   4.451248   6.266567   7.605527   2.014080
    22  H    5.133258   4.586112   4.943287   6.273183   2.082462
    23  H    5.133087   4.585946   4.943211   6.273039   2.082459
    24  H    4.989466   7.968815   2.477457   2.456567   6.771694
                   11         12         13         14         15
    11  C    0.000000
    12  C    7.591300   0.000000
    13  O    8.746442   1.210062   0.000000
    14  O    7.460774   1.357446   2.216739   0.000000
    15  H    5.748461   6.598483   7.179903   7.486067   0.000000
    16  H    2.588225   5.005793   6.170390   4.912593   4.961535
    17  H    6.135530   4.200333   4.708154   5.224095   2.475490
    18  H    3.449334   8.468112   9.393891   8.880737   3.533808
    19  H    4.861813   2.781305   3.979034   2.657066   5.544995
    20  H    7.061160   2.137081   2.522982   3.358015   4.657251
    21  H    1.090280   8.678121   9.835908   8.517786   6.471174
    22  H    1.096751   7.257480   8.425406   7.043920   6.033736
    23  H    1.096751   7.257340   8.425201   7.044280   6.033527
    24  H    6.568912   1.930140   3.018127   0.964811   7.151441
                   16         17         18         19         20
    16  H    0.000000
    17  H    4.306676   0.000000
    18  H    4.472618   5.257157   0.000000
    19  H    2.280711   3.828116   6.314485   0.000000
    20  H    4.676901   2.185464   7.076946   3.086437   0.000000
    21  H    3.672760   7.111378   3.662479   5.938754   8.132870
    22  H    2.389478   6.162560   4.068064   4.527338   6.890112
    23  H    2.389514   6.162382   4.067926   4.527342   6.889877
    24  H    4.060945   5.068087   8.204444   1.891731   3.510591
                   21         22         23         24
    21  H    0.000000
    22  H    1.784231   0.000000
    23  H    1.784237   1.794042   0.000000
    24  H    7.612293   6.139953   6.140713   0.000000
 Stoichiometry    C10H10O4
 Framework group  C1[X(C10H10O4)]
 Deg. of freedom    66
 Full point group                 C1      NOp   1
 Largest Abelian subgroup         C1      NOp   1
 Largest concise Abelian subgroup C1      NOp   1
                         Standard orientation:                         
 ---------------------------------------------------------------------
 Center     Atomic      Atomic             Coordinates (Angstroms)
 Number     Number       Type             X           Y           Z
 ---------------------------------------------------------------------
      1          6           0        1.460613   -2.014656   -0.000247
      2          6           0        2.493346   -1.081449   -0.000205
      3          6           0        2.189913    0.294664   -0.000042
      4          6           0        0.866375    0.712611    0.000081
      5          6           0       -0.185364   -0.228012    0.000038
      6          6           0        0.135400   -1.593286   -0.000129
      7          8           0        3.779798   -1.496711   -0.000327
      8          6           0       -1.559642    0.272469    0.000163
      9          6           0       -2.698221   -0.448237    0.000313
     10          8           0        3.294346    1.100649   -0.000035
     11          6           0        3.110093    2.507077    0.000343
     12          6           0       -4.082810    0.080146    0.000581
     13          8           0       -5.045572   -0.652887    0.000819
     14          8           0       -4.271704    1.424384   -0.001035
     15          1           0        1.715374   -3.069621   -0.000374
     16          1           0        0.628615    1.771430    0.000208
     17          1           0       -0.650435   -2.340928   -0.000171
     18          1           0        4.348130   -0.712421   -0.000254
     19          1           0       -1.615334    1.363588    0.000235
     20          1           0       -2.681080   -1.533009    0.000425
     21          1           0        4.109742    2.942292    0.000409
     22          1           0        2.571070    2.835512   -0.896568
     23          1           0        2.571148    2.835035    0.897474
     24          1           0       -3.430397    1.896680   -0.002135
 ---------------------------------------------------------------------
 Rotational constants (GHZ):      1.5455611      0.2842946      0.2404960
 Standard basis: 6-31+G(d,p) (6D, 7F)
 There are   316 symmetry adapted cartesian basis functions of A   symmetry.
 There are   316 symmetry adapted basis functions of A   symmetry.
   316 basis functions,   518 primitive gaussians,   316 cartesian basis functions
    51 alpha electrons       51 beta electrons
       nuclear repulsion energy       822.7146314165 Hartrees.
 NAtoms=   24 NActive=   24 NUniq=   24 SFac= 1.00D+00 NAtFMM=   60 NAOKFM=F Big=F
 Integral buffers will be    131072 words long.
 Raffenetti 2 integral format.
 Two-electron integral symmetry is turned on.
 One-electron integrals computed using PRISM.
 NBasis=   316 RedAO= T EigKep=  1.48D-06  NBF=   316
 NBsUse=   315 1.00D-06 EigRej=  6.89D-07 NBFU=   315
 Initial guess from the checkpoint file:  "B3PW91FA.chk"
 B after Tr=     0.000000   -0.000000   -0.000000
         Rot=    1.000000    0.000002    0.000001    0.000862 Ang=   0.10 deg.
 ExpMin= 4.38D-02 ExpMax= 5.48D+03 ExpMxC= 8.25D+02 IAcc=2 IRadAn=         4 AccDes= 0.00D+00
 Harris functional with IExCor=  408 and IRadAn=       4 diagonalized for initial guess.
 HarFok:  IExCor=  408 AccDes= 0.00D+00 IRadAn=         4 IDoV= 1 UseB2=F ITyADJ=14
 ICtDFT=  3500011 ScaDFX=  1.000000  1.000000  1.000000  1.000000
 FoFCou: FMM=F IPFlag=           0 FMFlag=      100000 FMFlg1=           0
         NFxFlg=           0 DoJE=T BraDBF=F KetDBF=T FulRan=T
         wScrn=  0.000000 ICntrl=     500 IOpCl=  0 I1Cent=   200000004 NGrid=           0
         NMat0=    1 NMatS0=      1 NMatT0=    0 NMatD0=    1 NMtDS0=    0 NMtDT0=    0
 Petite list used in FoFCou.
 Requested convergence on RMS density matrix=1.00D-08 within 128 cycles.
 Requested convergence on MAX density matrix=1.00D-06.
 Requested convergence on             energy=1.00D-06.
 No special actions if energy rises.
 SCF Done:  E(RB3PW91) =  -687.738363493     A.U. after   12 cycles
            NFock= 12  Conv=0.68D-08     -V/T= 2.0091
 Calling FoFJK, ICntrl=      2127 FMM=F ISym2X=0 I1Cent= 0 IOpClX= 0 NMat=1 NMatS=1 NMatT=0.
 ***** Axes restored to original set *****
 -------------------------------------------------------------------
 Center     Atomic                   Forces (Hartrees/Bohr)
 Number     Number              X              Y              Z
 -------------------------------------------------------------------
      1        6          -0.000720373    0.000214242   -0.000000079
      2        6           0.000369067    0.000190468   -0.000000267
      3        6          -0.000493632    0.000429731   -0.000000384
      4        6           0.001004570   -0.000478355   -0.000001333
      5        6          -0.002226327    0.001108243   -0.000006387
      6        6           0.001045452   -0.000623907    0.000000315
      7        8          -0.000282952   -0.000204430    0.000000234
      8        6           0.002347003   -0.000853301    0.000006784
      9        6          -0.002358281    0.000819245    0.000050196
     10        8          -0.000333399   -0.000091308    0.000001684
     11        6          -0.000428802   -0.000193314   -0.000000542
     12        6           0.003763214   -0.000635647   -0.000182055
     13        8          -0.001312658   -0.000821469    0.000072821
     14        8          -0.000874573    0.001015785    0.000046078
     15        1          -0.000057245    0.000031574   -0.000000002
     16        1           0.000140603    0.000351489   -0.000000026
     17        1          -0.000115902    0.000017739   -0.000000139
     18        1           0.000340640    0.000370107   -0.000000065
     19        1          -0.000412022    0.000171730    0.000005062
     20        1           0.000283210   -0.000170864    0.000002293
     21        1           0.000086406   -0.000128328   -0.000000052
     22        1          -0.000049835   -0.000234865   -0.000001064
     23        1          -0.000049376   -0.000234540    0.000001042
     24        1           0.000335213   -0.000050023    0.000005885
 -------------------------------------------------------------------
 Cartesian Forces:  Max     0.003763214 RMS     0.000770849

 GradGradGradGradGradGradGradGradGradGradGradGradGradGradGradGradGradGrad
 Berny optimization.
 Using GEDIIS/GDIIS optimizer.
 FormGI is forming the generalized inverse of G from B-inverse, IUseBI=4.
 GSVD:  received Info=                   1 from GESDD.
 Internal  Forces:  Max     0.001956858 RMS     0.000438063
 Search for a local minimum.
 Step number   2 out of a maximum of  115
 All quantities printed in internal units (Hartrees-Bohrs-Radians)
 Mixed Optimization -- En-DIIS/RFO-DIIS
 Update second derivatives using D2CorX and points    1    2
 DE= -2.96D-04 DEPred=-2.94D-04 R= 1.01D+00
 TightC=F SS=  1.41D+00  RLast= 4.10D-02 DXNew= 5.0454D-01 1.2303D-01
 Trust test= 1.01D+00 RLast= 4.10D-02 DXMaxT set to 3.00D-01
 ITU=  1  0
 Use linear search instead of GDIIS.
     Eigenvalues ---    0.00950   0.01207   0.01387   0.01489   0.01795
     Eigenvalues ---    0.01990   0.02050   0.02084   0.02099   0.02146
     Eigenvalues ---    0.02153   0.02155   0.02159   0.02183   0.02217
     Eigenvalues ---    0.02223   0.02306   0.02337   0.02869   0.10152
     Eigenvalues ---    0.10686   0.15410   0.16000   0.16000   0.16000
     Eigenvalues ---    0.16000   0.16000   0.16000   0.16000   0.16000
     Eigenvalues ---    0.16402   0.21506   0.22001   0.22381   0.23255
     Eigenvalues ---    0.24404   0.24880   0.25000   0.25000   0.25000
     Eigenvalues ---    0.25000   0.27732   0.31346   0.34148   0.34207
     Eigenvalues ---    0.34572   0.34925   0.35284   0.35403   0.35448
     Eigenvalues ---    0.35466   0.35493   0.41493   0.42440   0.43692
     Eigenvalues ---    0.45286   0.45761   0.46723   0.48858   0.52417
     Eigenvalues ---    0.53419   0.54046   0.54703   0.54786   0.59276
     Eigenvalues ---    0.98510
 RFO step:  Lambda=-6.03051041D-05 EMin= 9.49880099D-03
 Quartic linear search produced a step of  0.01976.
 Iteration  1 RMS(Cart)=  0.00555407 RMS(Int)=  0.00000833
 Iteration  2 RMS(Cart)=  0.00001262 RMS(Int)=  0.00000104
 Iteration  3 RMS(Cart)=  0.00000000 RMS(Int)=  0.00000104
 Variable       Old X    -DE/DX   Delta X   Delta X   Delta X     New X
                                 (Linear)    (Quad)   (Total)
    R1        2.63033   0.00014   0.00011   0.00077   0.00088   2.63120
    R2        2.62784  -0.00054  -0.00000  -0.00113  -0.00113   2.62671
    R3        2.05090  -0.00004   0.00003  -0.00001   0.00002   2.05092
    R4        2.66294  -0.00038   0.00011  -0.00047  -0.00036   2.66259
    R5        2.55456   0.00000   0.00002   0.00011   0.00013   2.55469
    R6        2.62286  -0.00104   0.00008  -0.00191  -0.00183   2.62103
    R7        2.58374  -0.00115   0.00008  -0.00191  -0.00183   2.58191
    R8        2.66641  -0.00008   0.00014   0.00039   0.00052   2.66693
    R9        2.05070   0.00031  -0.00000   0.00089   0.00089   2.05159
   R10        2.65024   0.00052   0.00014   0.00183   0.00198   2.65222
   R11        2.76386  -0.00184  -0.00015  -0.00583  -0.00598   2.75789
   R12        2.04973   0.00007   0.00000   0.00023   0.00023   2.04996
   R13        1.83032   0.00050   0.00002   0.00101   0.00102   1.83134
   R14        2.54642   0.00004   0.00024   0.00110   0.00134   2.54776
   R15        2.06460   0.00020   0.00002   0.00066   0.00068   2.06528
   R16        2.80054  -0.00196  -0.00015  -0.00654  -0.00669   2.79385
   R17        2.05018   0.00017   0.00001   0.00054   0.00055   2.05073
   R18        2.68048  -0.00074   0.00012  -0.00125  -0.00113   2.67934
   R19        2.06033   0.00003   0.00004   0.00027   0.00031   2.06064
   R20        2.07256  -0.00005   0.00003   0.00001   0.00004   2.07260
   R21        2.07256  -0.00005   0.00003   0.00001   0.00004   2.07260
   R22        2.28669   0.00154   0.00021   0.00240   0.00260   2.28929
   R23        2.56520   0.00104   0.00014   0.00256   0.00270   2.56790
   R24        1.82323   0.00027   0.00005   0.00070   0.00075   1.82398
    A1        2.09892   0.00001   0.00003   0.00030   0.00033   2.09925
    A2        2.06866   0.00005   0.00003   0.00039   0.00043   2.06909
    A3        2.11560  -0.00006  -0.00006  -0.00069  -0.00076   2.11485
    A4        2.08858  -0.00033  -0.00001  -0.00154  -0.00155   2.08704
    A5        2.09454   0.00032  -0.00002   0.00130   0.00127   2.09581
    A6        2.10006   0.00001   0.00003   0.00024   0.00027   2.10033
    A7        2.09369   0.00053  -0.00004   0.00173   0.00169   2.09538
    A8        1.98420   0.00021  -0.00005   0.00076   0.00071   1.98491
    A9        2.20529  -0.00074   0.00009  -0.00249  -0.00240   2.20289
   A10        2.10604   0.00005   0.00007   0.00039   0.00046   2.10650
   A11        2.09756  -0.00025  -0.00002  -0.00153  -0.00155   2.09601
   A12        2.07959   0.00020  -0.00006   0.00114   0.00109   2.08068
   A13        2.06972  -0.00036  -0.00009  -0.00177  -0.00186   2.06786
   A14        2.06266   0.00021   0.00003   0.00092   0.00095   2.06361
   A15        2.15081   0.00016   0.00006   0.00085   0.00091   2.15171
   A16        2.10941   0.00011   0.00004   0.00090   0.00093   2.11034
   A17        2.07324   0.00004  -0.00005   0.00006   0.00001   2.07325
   A18        2.10053  -0.00015   0.00001  -0.00095  -0.00094   2.09959
   A19        1.88564   0.00011  -0.00022  -0.00023  -0.00046   1.88518
   A20        2.22802  -0.00000   0.00018   0.00074   0.00092   2.22894
   A21        1.97104   0.00042  -0.00006   0.00239   0.00233   1.97337
   A22        2.08412  -0.00041  -0.00012  -0.00313  -0.00325   2.08087
   A23        2.21271  -0.00005   0.00017   0.00049   0.00066   2.21337
   A24        2.11932  -0.00026  -0.00009  -0.00207  -0.00216   2.11716
   A25        1.95116   0.00031  -0.00008   0.00158   0.00150   1.95265
   A26        2.07096  -0.00165   0.00032  -0.00535  -0.00502   2.06594
   A27        1.85115  -0.00009  -0.00004  -0.00057  -0.00061   1.85054
   A28        1.93965  -0.00027   0.00012  -0.00129  -0.00116   1.93849
   A29        1.93965  -0.00027   0.00012  -0.00128  -0.00116   1.93849
   A30        1.90830   0.00023  -0.00010   0.00124   0.00114   1.90944
   A31        1.90831   0.00023  -0.00010   0.00124   0.00114   1.90945
   A32        1.91547   0.00018  -0.00002   0.00070   0.00068   1.91615
   A33        2.12628   0.00002   0.00004   0.00024   0.00028   2.12656
   A34        2.07496   0.00031   0.00004   0.00142   0.00145   2.07641
   A35        2.08194  -0.00033  -0.00008  -0.00165  -0.00174   2.08020
   A36        1.94273  -0.00038  -0.00014  -0.00301  -0.00315   1.93958
    D1       -0.00000  -0.00000   0.00000  -0.00001  -0.00001  -0.00001
    D2       -3.14159  -0.00000   0.00000  -0.00001  -0.00001   3.14158
    D3        3.14159  -0.00000  -0.00000  -0.00000  -0.00000   3.14159
    D4        0.00000  -0.00000   0.00000  -0.00000  -0.00000   0.00000
    D5       -0.00000   0.00000  -0.00000   0.00001   0.00001   0.00000
    D6        3.14159   0.00000  -0.00000   0.00001   0.00001  -3.14159
    D7        3.14159  -0.00000   0.00000  -0.00000  -0.00000   3.14159
    D8       -0.00001   0.00000  -0.00000   0.00000   0.00000  -0.00001
    D9        0.00000  -0.00000   0.00000  -0.00000  -0.00000   0.00000
   D10       -3.14158  -0.00000   0.00000  -0.00001  -0.00001  -3.14159
   D11        3.14159   0.00000   0.00000   0.00000   0.00000   3.14159
   D12        0.00001  -0.00000   0.00000  -0.00001  -0.00001   0.00000
   D13       -3.14157  -0.00000  -0.00000  -0.00000  -0.00000  -3.14157
   D14        0.00003  -0.00000  -0.00000  -0.00001  -0.00001   0.00002
   D15       -0.00000   0.00000  -0.00000   0.00002   0.00002   0.00001
   D16        3.14159  -0.00000   0.00000  -0.00001  -0.00001   3.14158
   D17        3.14158   0.00000  -0.00000   0.00003   0.00003  -3.14158
   D18       -0.00001   0.00000  -0.00000   0.00000   0.00000  -0.00001
   D19       -3.14142  -0.00000  -0.00000  -0.00002  -0.00003  -3.14144
   D20        0.00019  -0.00000  -0.00000  -0.00003  -0.00003   0.00016
   D21        0.00000  -0.00000   0.00000  -0.00002  -0.00002  -0.00002
   D22       -3.14159  -0.00000   0.00000  -0.00004  -0.00004   3.14156
   D23        3.14159   0.00000  -0.00000   0.00000   0.00000  -3.14159
   D24        0.00000  -0.00000   0.00000  -0.00001  -0.00001  -0.00001
   D25        0.00000   0.00000   0.00000   0.00001   0.00001   0.00001
   D26       -3.14159   0.00000   0.00000   0.00001   0.00001  -3.14158
   D27        3.14159   0.00000  -0.00000   0.00002   0.00002  -3.14157
   D28       -0.00000   0.00000  -0.00000   0.00002   0.00002   0.00002
   D29       -3.14144  -0.00000   0.00000  -0.00004  -0.00004  -3.14147
   D30        0.00005   0.00000   0.00000   0.00002   0.00002   0.00007
   D31        0.00016  -0.00000   0.00000  -0.00005  -0.00005   0.00011
   D32       -3.14154   0.00000   0.00000   0.00001   0.00001  -3.14153
   D33        3.14147   0.00001  -0.00000   0.00023   0.00023  -3.14148
   D34        0.00008   0.00001  -0.00000   0.00022   0.00022   0.00029
   D35       -0.00000   0.00001  -0.00000   0.00017   0.00017   0.00017
   D36       -3.14140   0.00000   0.00000   0.00015   0.00016  -3.14125
   D37       -3.14148   0.00005  -0.00001   0.00350   0.00348  -3.13799
   D38        0.00146  -0.00004   0.00002  -0.00276  -0.00274  -0.00129
   D39       -0.00006   0.00005  -0.00002   0.00351   0.00350   0.00343
   D40       -3.14032  -0.00004   0.00002  -0.00275  -0.00273   3.14014
   D41        3.14147   0.00000   0.00000   0.00002   0.00002   3.14149
   D42       -1.06943   0.00008  -0.00007   0.00048   0.00040  -1.06903
   D43        1.06917  -0.00008   0.00007  -0.00043  -0.00036   1.06882
   D44       -0.00010   0.00004  -0.00001   0.00284   0.00282   0.00272
   D45       -3.14039  -0.00005   0.00002  -0.00326  -0.00324   3.13955
         Item               Value     Threshold  Converged?
 Maximum Force            0.001957     0.000450     NO 
 RMS     Force            0.000438     0.000300     NO 
 Maximum Displacement     0.023197     0.001800     NO 
 RMS     Displacement     0.005554     0.001200     NO 
 Predicted change in Energy=-3.024778D-05
 GradGradGradGradGradGradGradGradGradGradGradGradGradGradGradGradGradGrad

                          Input orientation:                          
 ---------------------------------------------------------------------
 Center     Atomic      Atomic             Coordinates (Angstroms)
 Number     Number       Type             X           Y           Z
 ---------------------------------------------------------------------
      1          6           0        1.462355   -2.012973   -0.000158
      2          6           0        2.494206   -1.078101    0.000019
      3          6           0        2.186881    0.296954   -0.000014
      4          6           0        0.863778    0.713058   -0.000220
      5          6           0       -0.187497   -0.228499   -0.000380
      6          6           0        0.137021   -1.593960   -0.000353
      7          8           0        3.781792   -1.490055    0.000218
      8          6           0       -1.559632    0.268614   -0.000557
      9          6           0       -2.698271   -0.453323   -0.000599
     10          8           0        3.287648    1.106305    0.000167
     11          6           0        3.091398    2.510503    0.000341
     12          6           0       -4.080293    0.071847   -0.000911
     13          8           0       -5.043318   -0.663107    0.002781
     14          8           0       -4.273237    1.416956    0.000336
     15          1           0        1.718053   -3.067722   -0.000131
     16          1           0        0.626311    1.772424   -0.000238
[...]
 -0.00524101,-0.00053657,0.00000027,0.00017056,0.03094889,0.00000498,-0
 .07200182,0.06207622,0.00001006,0.00851463,-0.02110728,-0.00000384,-0.
 00339898,-0.00316686,-0.00000169,-0.00092705,0.00184519,0.00000008,0.0
 0113709,-0.00264601,-0.00000050,0.00011452,0.00037900,0.00000129,0.001
 93363,-0.00193281,-0.00000016,-0.00153821,0.00076932,-0.00000035,-0.00
 032644,-0.00009655,0.,0.00023348,0.00011118,-0.00000004,0.00009955,0.0
 0001399,0.00000001,0.00006961,0.00003745,0.00000017,0.07302936,-0.0002
 8127,0.00061679,-0.00000616,0.00103037,0.00160836,-0.00000189,0.000325
 52,-0.00638134,-0.00000269,0.06292766,-0.32691198,-0.00004826,0.006582
 70,-0.01678282,0.00000024,-0.00410375,-0.00095392,0.00000888,0.0002836
 6,-0.00050072,0.00000070,0.00289655,0.00060508,0.00000560,-0.00065315,
 0.00044618,-0.00000985,-0.00027971,-0.00057043,-0.00000268,-0.00155097
 ,-0.00063043,0.00000405,0.00014643,-0.00024684,0.00000176,-0.00006351,
 0.00001486,-0.00000187,-0.00001172,0.00016342,0.00000166,0.00006883,-0
 .00007566,-0.00000129,-0.06460510,0.34988505,-0.00000100,0.00000032,-0
 .00104828,0.00000180,-0.00000186,0.00629504,0.00000061,-0.00000102,0.0
 0419116,0.00001000,-0.00004469,-0.03098420,0.00000079,-0.00000764,0.00
 194334,-0.00000139,-0.00000029,0.00480368,-0.00000079,0.00000067,-0.00
 062017,-0.00000048,-0.00000168,-0.00404833,-0.00000158,0.00000045,0.00
 019104,-0.00000051,0.00000010,-0.00325104,-0.00000085,-0.00000063,-0.0
 0018115,0.00000107,-0.00000256,0.00031379,0.00000053,0.00000131,-0.000
 11559,-0.00000079,0.00000033,-0.00008820,0.,-0.00000024,-0.00034082,-0
 .00000992,0.00005200,0.02200584,-0.01742563,-0.02197593,-0.00001415,-0
 .00320125,0.00340661,-0.00000117,-0.00028046,0.00087268,-0.00000199,0.
 00045312,0.00192212,-0.00000342,0.00955181,0.00455531,0.00000640,-0.20
 770116,-0.14284404,-0.00000838,-0.00128786,-0.00140535,0.00000089,-0.0
 0086222,-0.00053829,0.00000892,-0.00026106,0.00158224,-0.00001757,0.00
 005541,-0.00026986,-0.00000538,-0.00001382,0.00011098,0.00000774,-0.00
 034497,-0.00004520,0.00000383,0.00019115,0.00005271,-0.00000400,0.0001
 5172,-0.00016335,0.00000291,0.00109019,0.00010526,-0.00000245,0.000302
 54,0.00044646,0.00000214,0.22153433,0.00925747,0.00982425,-0.00001021,
 0.00245966,0.00000834,-0.00000302,0.00092004,-0.00038499,-0.00000159,0
 .00294044,-0.00469296,-0.00000642,-0.02352302,-0.01498204,0.00000244,-
 0.14432290,-0.19598434,-0.00000948,0.00040749,0.00052567,0.00000113,-0
 .00179468,0.00091944,0.00000968,0.00027797,-0.00060516,-0.00001713,-0.
 00012605,0.00020981,-0.00000525,-0.00000024,-0.00008202,0.00000741,0.0
 0039613,0.00035362,0.00000336,-0.00009634,0.00004126,-0.00000336,-0.00
 031580,0.00035344,0.00000231,-0.00021337,0.00078059,-0.00000152,-0.001
 17623,-0.00092297,0.00000195,0.15330251,0.20397075,0.00000187,0.000000
 90,0.00330478,-0.00000018,-0.00000100,0.00743861,-0.00000024,-0.000000
 01,-0.00098217,0.00000074,-0.00000176,0.00581354,-0.00000441,-0.000000
 53,0.00234489,-0.00002470,-0.00002751,-0.03486279,0.00000034,-0.000000
 07,0.00017110,0.00000142,0.00000137,-0.00355633,0.00000113,-0.00000231
 ,-0.00000020,0.00000018,0.00000017,-0.00044184,0.00000012,0.00000024,-
 0.00021575,-0.00000109,0.00000068,-0.00016755,-0.00000007,-0.00000003,
 -0.00013613,-0.00000009,0.00000056,0.00014833,-0.00000001,0.00000087,-
 0.00433871,-0.00000006,-0.00000067,0.00083544,0.00002421,0.00002977,0.
 02363363,-0.00473245,0.00494633,0.00000017,-0.03667313,-0.03625274,-0.
 00000621,-0.00166697,-0.00152631,-0.00000043,-0.00118364,-0.00117075,0
 .00000009,0.00089194,0.00007296,0.00000043,-0.00045122,-0.00182603,0.0
 0000033,-0.19024598,-0.18689240,-0.00003205,-0.00073368,0.00024755,0.0
 0000069,0.00072856,-0.00007541,-0.00000095,-0.00015977,-0.00133677,-0.
 00000075,0.00113242,0.00144972,0.00000112,-0.00084914,0.00034667,0.000
 00042,0.00046427,0.00008959,-0.00000062,0.00016759,-0.00027923,0.00000
 035,0.00014754,0.00010091,-0.00000015,0.00033941,-0.00014756,0.0000000
 1,-0.00035990,0.00022304,0.00000001,0.23306780,0.00543737,0.00017799,-
 0.00000109,0.00473977,0.01158067,0.00000212,0.01064551,0.00238870,-0.0
 0000013,-0.00230680,-0.00061625,0.00000037,0.00145072,-0.00082191,0.00
 000049,-0.00126461,0.00090205,0.00000067,-0.23723425,-0.35453468,-0.00
 005829,-0.00113789,0.00012713,0.00000078,0.00079476,-0.00000312,-0.000
 00130,-0.00216458,0.00082403,0.00000068,-0.00208068,-0.00288155,-0.000
 00026,-0.00072246,0.00044462,0.00000035,0.00032901,0.00002509,-0.00000
 052,0.00012192,-0.00033626,0.00000034,0.00009406,0.00009392,-0.0000001
 0,0.00032227,-0.00008212,0.00000001,0.00021587,-0.00003419,0.,0.223053
 62,0.34117193,0.00000004,0.00000031,0.00217347,0.00000209,0.00000155,-
 0.00279859,0.00000367,0.00000005,0.00148807,-0.00000084,0.00000157,-0.
 00072809,0.00000051,-0.00000590,0.00003196,-0.00000116,0.00000056,0.00
 167599,-0.00004156,-0.00005787,-0.00758825,-0.00000109,-0.00000098,-0.
 00008665,-0.00000236,0.00000015,-0.00004298,-0.00000164,0.00000017,-0.
 00141591,-0.00000060,-0.00000090,-0.00118681,0.00000064,-0.00000268,-0
 .00001315,0.00000068,0.00000131,-0.00001458,-0.00000025,-0.00000006,-0
 .00000543,-0.00000002,-0.00000040,-0.00057625,-0.00000009,0.00000126,0
 .00020481,0.00000253,0.00000238,-0.00017971,0.00003852,0.00005627,0.00
 883408,0.00053568,0.00158618,0.00000062,0.00022046,-0.00016612,-0.0000
 0036,-0.00014314,-0.00012064,0.00000034,0.00080199,0.00265225,-0.00000
 036,-0.00178348,0.02991189,-0.00000040,-0.00581308,-0.00001444,-0.0000
 0030,-0.00011325,-0.00012130,0.00000006,-0.05776303,0.01263557,-0.0000
 0314,0.00609330,-0.02768855,0.00000465,-0.00006641,-0.00024971,-0.0000
 0007,-0.00006230,0.00017921,0.,0.00059921,-0.00086435,-0.00000103,0.00
 063446,0.00068334,-0.00000173,-0.00226688,0.00022426,0.00000491,-0.000
 42788,0.00010046,0.00000008,-0.00062334,-0.00117637,-0.00000013,0.0001
 5667,0.00000630,-0.00000011,-0.00002753,0.00004208,-0.00000003,0.06661
 616,-0.00028908,-0.00071431,-0.00000503,-0.00055187,0.00040022,-0.0000
 0080,0.00003431,-0.00025817,-0.00000114,-0.00244255,0.00111198,-0.0000
 0194,-0.00087868,-0.01325123,0.00000192,0.00240396,0.00124189,0.000007
 59,0.00053044,-0.00003259,0.00000056,0.01685878,-0.31695632,-0.0000017
 7,0.00135435,-0.01777101,-0.00000571,0.00034740,0.00052655,-0.00000214
 ,0.00008385,-0.00033650,0.00000309,0.00235567,-0.00536596,0.00000733,-
 0.00027792,0.00177312,-0.00000326,0.00260312,0.00428057,-0.00000049,0.
 00026124,-0.00004659,-0.00000101,0.00061609,0.00070508,0.00000142,-0.0
 0017728,0.00008258,-0.00000016,-0.00003957,-0.00006447,0.00000099,-0.0
 1756113,0.34306589,0.00000096,0.00000044,-0.00014871,-0.00000017,-0.00
 000060,0.00024523,-0.00000056,0.00000011,-0.00009781,-0.00000009,0.000
 00008,-0.00131914,0.00000375,0.00000146,0.00443664,-0.00000141,0.00000
 013,0.00283082,0.00000032,0.00000013,-0.00004553,-0.00001257,-0.000023
 35,-0.04075970,0.00001235,0.00000222,0.00553567,0.00000008,-0.00000014
 ,0.00001020,0.00000002,0.00000015,0.00006172,-0.00000623,0.00000173,-0
 .00753038,0.00000602,0.00000297,0.00119160,-0.00000561,-0.00000227,-0.
 00031801,-0.00000011,0.00000018,-0.00034390,-0.00000003,-0.00000009,0.
 00034956,-0.00000029,-0.00000005,-0.00005380,-0.00000009,-0.00000014,0
 .00002885,0.00000873,0.00000748,0.02350602,0.00003315,0.00040282,-0.00
 000044,0.00001548,-0.00004851,-0.00000009,-0.00017450,0.00014953,0.000
 00010,0.00024422,0.00012176,-0.00000036,0.00042984,0.00085946,-0.00000
 091,-0.00110021,-0.00126251,0.00000050,0.00001050,0.00007889,0.0000000
 6,0.00615692,-0.02775192,0.00000652,-0.05409628,0.00505675,0.00000664,
 0.00021972,0.00024337,-0.00000023,0.00003216,-0.00014365,0.00000038,0.
 00129828,0.03175545,-0.00001217,0.00117942,-0.00204768,-0.00000265,-0.
 00604932,0.00340179,-0.00000043,-0.00003562,-0.00000474,-0.00000012,0.
 00015694,0.00016757,0.00000011,-0.00169641,0.00141017,0.00000108,0.000
 00661,0.00000648,0.00000013,-0.00388874,-0.00264688,0.00000122,0.05790
 764,0.00007767,0.00042366,-0.00000556,-0.00005918,0.00005272,-0.000001
 02,0.00000189,-0.00022280,-0.00000089,-0.00027518,-0.00012892,-0.00000
 222,0.00150542,-0.00055998,-0.00000014,0.00058066,0.00025599,0.0000075
 8,0.00019186,0.00000486,0.00000062,0.00031088,-0.01263580,0.00000841,0
 .00915423,-0.34527324,0.00007584,0.00007655,0.00018465,-0.00000237,0.0
 0002222,-0.00009891,0.00000337,-0.00362318,-0.01238495,0.00001084,-0.0
 0064817,0.00249597,-0.00000315,0.00240015,-0.00035607,0.00000181,-0.00
 001699,-0.00000981,-0.00000106,0.00002794,0.00010625,0.00000104,0.0008
 6160,0.00066420,-0.00000002,-0.00000603,-0.00002170,0.00000113,-0.0016
 6480,0.00018553,0.00000460,-0.00885125,0.36665849,-0.00000046,0.000000
 14,-0.00028829,0.00000009,0.00000027,-0.00045832,0.00000176,-0.0000015
 0,0.00009232,-0.00000210,0.00000062,-0.00017875,0.00000321,-0.00000649
 ,-0.00560492,-0.00000028,0.00000283,-0.00025857,0.00000064,-0.00000003
 ,0.00019990,-0.00000937,0.00000207,0.00433781,0.00000925,0.00009749,-0
 .03625005,-0.00000043,0.00000025,0.00004392,-0.00000035,-0.00000078,0.
 00002585,-0.00000759,-0.00000278,0.00180424,0.00000295,0.00000080,-0.0
 0136988,0.00000076,0.00000413,0.00272879,0.00000006,-0.00000034,0.0001
 1223,-0.00000027,0.00000097,0.00013417,0.00000287,0.00000041,0.0012337
 0,-0.00000008,-0.00000006,0.00004832,0.00000229,-0.00000131,0.01034520
 ,-0.00000106,-0.00009538,0.02342129,-0.00013628,0.00002158,-0.00000292
 ,0.00021671,0.00025604,-0.00000044,0.00134885,0.00228424,-0.00000058,-
 0.00046468,0.00045462,-0.00000014,0.00024684,-0.00011143,0.00000151,-0
 .00005523,-0.00014775,0.00000411,0.00012299,-0.00018983,0.00000040,0.0
 0010848,0.00000147,0.00000230,-0.00013630,0.00000706,-0.00000513,0.008
 78218,0.00322354,-0.00000035,-0.29322403,-0.10334438,-0.00002525,0.000
 20781,-0.00008306,0.00000127,-0.00011879,-0.00001552,-0.00000113,-0.00
 004810,0.00006683,0.00000072,0.00001721,0.00000791,-0.00000073,0.00025
 913,-0.00048598,0.00000041,0.00001286,-0.00003283,-0.00000015,-0.00009
 054,0.00012767,0.00000083,0.00002774,0.00000771,-0.00000019,0.00000060
 ,0.00000451,0.00000049,0.30618079,0.00059057,-0.00040281,-0.00000219,-
 0.00237221,-0.00068795,-0.00000061,0.00347912,-0.00445021,-0.00000233,
 0.00113462,-0.00052983,-0.00000084,-0.00049289,0.00013962,0.00000105,-
 0.00007875,0.00014403,0.00000331,0.00043684,0.00009974,0.00000026,0.00
 013729,-0.00012434,0.00000168,-0.00017409,0.00003647,-0.00000353,-0.03
 566220,-0.03080560,-0.00000815,-0.08929193,-0.08209353,-0.00000751,0.0
 0015796,-0.00010027,0.00000072,-0.00008117,-0.00000345,-0.00000068,-0.
 00003412,0.00007896,0.00000053,-0.00014005,-0.00011520,-0.00000048,-0.
 00018210,0.00059771,0.00000061,-0.00002450,0.00003281,-0.00000011,-0.0
 0020886,-0.00020538,0.00000040,-0.00003167,0.00002941,-0.00000006,0.00
 001299,0.00000891,0.00000038,0.10763476,0.10802008,0.00000032,-0.00000
 017,-0.00001454,-0.00000073,-0.00000021,0.00030886,0.00000065,-0.00000
 096,0.00060934,0.00000034,-0.00000032,0.00027495,-0.00000019,0.0000008
 3,0.00013601,0.00000011,-0.00000003,-0.00002973,0.00000021,0.00000002,
 -0.00012309,0.00000019,0.00000016,0.00003888,0.00000033,-0.00000003,0.
 00001443,-0.00000862,-0.00000778,0.00010842,-0.00002420,-0.00000890,-0
 .05078944,-0.00000011,0.00000038,-0.00001104,-0.00000011,-0.00000020,0
 .00000179,0.00000006,0.00000002,0.00000706,-0.00000003,0.00000005,-0.0
 0003850,0.00000005,0.00000006,-0.00048622,-0.00000038,-0.00000035,-0.0
 0002237,-0.00000007,-0.00000010,0.00017595,0.,-0.00000015,-0.00001244,
 -0.00000002,-0.00000016,-0.00000285,0.00002903,0.00001606,0.04650272,0
 .00027314,-0.00002974,-0.00003011,0.00035192,-0.00028918,-0.00017136,0
 .00039473,-0.00088217,0.00119983,0.00017574,0.00064004,0.00023696,-0.0
 0015343,-0.00032521,-0.00041544,0.00004643,0.00039963,-0.00006638,-0.0
 0030546,0.00015922,0.00009771,-0.00009843,0.00004132,0.00002331,0.0001
 5958,-0.00001515,-0.00000265,-0.00057351,0.00713472,-0.00172822,-0.115
 00242,0.03178143,-0.10666922,-0.00022767,0.00010507,0.00000069,0.00012
 804,0.00001197,0.00000119,0.00005829,-0.00009068,-0.00000203,0.0000167
 0,0.00002683,0.00000395,-0.00054990,-0.00072134,0.00097398,0.00000189,
 0.00001214,0.00007580,0.00014097,-0.00023473,-0.00013714,-0.00000940,-
 0.00002123,0.00001013,-0.00001050,-0.00000690,0.00000007,-0.01164144,0
 .00760022,-0.02463012,0.11846286,0.00076208,0.00022505,-0.00011272,0.0
 0017073,-0.00179768,-0.00059654,0.00589767,0.00493327,0.00139226,-0.00
 051729,0.00075537,-0.00031019,-0.00053128,-0.00054322,-0.00027558,-0.0
 0060094,0.00045134,-0.00006756,-0.00064442,-0.00030677,-0.00009782,0.0
 0020548,-0.00010443,0.00002284,-0.00021622,0.00002110,-0.00001992,0.01
 851056,-0.03176294,0.02898304,0.02834965,-0.06381108,0.05019862,0.0001
 9039,-0.00009788,0.00000908,-0.00009873,-0.00001381,-0.00000378,-0.000
 03794,0.00008140,-0.00001026,-0.00001538,-0.00001744,0.00007503,-0.000
 82470,-0.00034725,0.00091492,-0.00002061,0.00001773,0.00005967,-0.0004
 2618,0.00089281,0.00035399,-0.00001930,0.00003129,0.00001451,0.0000111
 0,0.00000761,0.00000058,-0.00483109,0.00518077,-0.01053143,-0.04038893
 ,0.08156432,-0.00011585,-0.00014114,-0.00002490,0.00031307,0.00038499,
 -0.00021842,-0.00124444,-0.00105762,0.00056660,-0.00080147,0.00087832,
 -0.00003944,0.00039552,-0.00028061,-0.00009965,0.00008144,-0.00003327,
 -0.00005541,0.00009436,-0.00013264,0.00004939,-0.00006469,0.00011285,0
 .00003078,0.00006616,-0.00002900,0.00000856,0.00251449,0.00507956,0.00
 725054,-0.10667341,0.05495469,-0.23279860,-0.00000743,0.00008918,-0.00
 000923,-0.00001659,-0.00003104,0.00000544,0.00000543,-0.00006527,0.000
 01551,0.00001452,0.00001110,0.00001544,0.00065298,-0.00021567,-0.00011
 295,0.00001406,-0.00006179,0.00002591,0.00003835,-0.00012244,-0.000020
 95,0.00005594,-0.00002920,-0.00001745,-0.00001622,-0.00001268,-0.00000
 567,0.00188542,-0.00114724,0.00167675,0.11701088,-0.06409608,0.2433106
 7,0.00027352,-0.00002976,0.00003007,0.00035137,-0.00028896,0.00017122,
 0.00039509,-0.00088170,-0.00120053,0.00017587,0.00063948,-0.00023665,-
 0.00015369,-0.00032373,0.00041516,0.00004671,0.00039945,0.00006665,-0.
 00030529,0.00015902,-0.00009774,-0.00009803,0.00004192,-0.00002347,0.0
 0016024,-0.00001518,0.00000303,-0.00057410,0.00713296,0.00173256,-0.11
 500552,0.03172937,0.10668803,-0.00022800,0.00010581,-0.00000092,0.0001
 2780,0.00001156,-0.00000118,0.00005852,-0.00009072,0.00000221,0.000016
 70,0.00002692,-0.00000386,-0.00054968,-0.00072116,-0.00097416,0.000001
 22,0.00001143,-0.00007578,0.00014095,-0.00023473,0.00013699,-0.0000094
 1,-0.00002153,-0.00001007,-0.00001052,-0.00000723,-0.00000010,-0.01164
 142,0.00758761,0.02463330,0.00838828,-0.00493065,-0.01421812,0.1184659
 1,0.00076148,0.00022530,0.00011096,0.00017221,-0.00179851,0.00059578,0
 .00589787,0.00493465,-0.00139074,-0.00051761,0.00075682,0.00030969,-0.
 00053089,-0.00054776,0.00027633,-0.00060175,0.00045196,0.00007046,-0.0
 0064490,-0.00030633,0.00009791,0.00020461,-0.00010554,-0.00002156,-0.0
 0021788,0.00002117,0.00001705,0.01851120,-0.03174660,-0.02900304,0.028
 29620,-0.06375794,-0.05011048,0.00019109,-0.00009965,-0.00000857,-0.00
 009821,-0.00001288,0.00000335,-0.00003832,0.00008143,0.00001061,-0.000
 01536,-0.00001767,-0.00007542,-0.00082448,-0.00034584,-0.00091461,-0.0
 0001890,0.00001946,-0.00005977,-0.00042601,0.00089275,-0.00035339,-0.0
 0001923,0.00003200,-0.00001453,0.00001117,0.00000840,-0.00000022,-0.00
 482975,0.00517509,0.01053324,-0.00493801,0.00466078,0.00592109,-0.0403
 3080,0.08149912,0.00011703,0.00014048,-0.00002683,-0.00031404,-0.00038
 536,-0.00021852,0.00124422,0.00105983,0.00056604,0.00080178,-0.0008795
 0,-0.00004006,-0.00039611,0.00028687,-0.00009844,-0.00008063,0.0000327
 1,-0.00005244,-0.00009349,0.00013232,0.00004967,0.00006588,-0.00011191
 ,0.00003229,-0.00006340,0.00002862,0.00000546,-0.00250326,-0.00509804,
 0.00723178,0.10669146,-0.05486763,-0.23284878,0.00000660,-0.00008611,-
 0.00000846,0.00001591,0.00002960,0.00000468,-0.00000521,0.00006540,0.0
 0001607,-0.00001448,-0.00001050,0.00001497,-0.00065321,0.00021411,-0.0
 0011318,-0.00001695,0.00005916,0.00002578,-0.00003883,0.00012251,-0.00
 002060,-0.00005591,0.00002808,-0.00001754,0.00001606,0.00001147,-0.000
 00536,-0.00188937,0.00114873,0.00168345,0.01421604,-0.00590911,-0.0195
 3354,-0.11703440,0.06401223,0.24337314,-0.00005536,-0.00026674,-0.0000
 0125,-0.00022348,0.00012322,-0.00000041,-0.00027036,-0.00018594,0.0000
 0041,0.00006160,0.00008096,-0.00000148,-0.00125805,-0.00152607,0.00000
 234,0.00056443,0.00006112,0.00000187,0.00027467,-0.00007614,0.00000002
 ,0.00113853,0.00849472,0.00000019,-0.00238266,0.00110414,-0.00000513,0
 .00028256,0.00023602,-0.00000048,0.00000898,-0.00012474,0.00000043,0.0
 0480195,-0.00146668,-0.00001182,0.00391037,0.00404628,-0.00000146,-0.4
 1130186,-0.21853938,0.00088396,0.00007737,-0.00001847,-0.00000014,-0.0
 0015322,-0.00007416,0.00000016,-0.00006817,-0.00002334,-0.00000002,-0.
 00005412,-0.00000035,0.00000013,-0.00268779,-0.00254919,-0.00000618,-0
 .00062938,-0.00005666,-0.00000234,0.00002460,0.00000252,-0.00000001,-0
 .00002642,0.00000602,0.00001561,-0.00002651,0.00000624,-0.00001567,0.4
 0799233,-0.00021342,-0.00008586,-0.00000044,0.00058061,-0.00023726,0.0
 0000004,0.00018768,0.00057147,-0.00000009,0.00005802,0.00035199,0.0000
 0016,0.00021396,0.00049959,-0.00000411,-0.00033838,-0.00009282,0.00000
 133,-0.00073258,0.00011716,0.,0.00044461,0.00002271,0.00000489,0.00060
 935,-0.00048727,-0.00000415,-0.00040570,-0.00058888,-0.00000037,-0.000
 06616,0.00036868,0.00000029,-0.04502143,-0.01765893,0.00007506,0.00237
 173,-0.01018003,0.00001813,-0.16936458,-0.14783615,0.00044315,-0.00004
 652,0.00002797,-0.00000010,0.00006486,0.00000355,0.00000008,0.00004895
 ,-0.00011527,-0.00000027,0.00008344,0.00007997,0.00000007,0.00167606,0
 .00133105,0.00000504,-0.00093214,0.00063497,-0.00000205,-0.00002631,-0
 .00002503,-0.00000002,0.00003069,-0.00002032,0.00002390,0.00003063,-0.
 00002020,-0.00002394,0.21074663,0.17333891,0.00000022,-0.00000096,0.00
 004901,-0.00000050,0.00000007,0.00006222,-0.00000144,-0.00000038,-0.00
 007366,0.00000024,-0.00000008,0.00004173,-0.00000201,-0.00000494,-0.00
 075744,0.00000211,0.00000020,0.00000291,0.00000124,-0.00000008,-0.0000
 2708,0.00000694,0.00001251,-0.00012395,-0.00000562,-0.00000470,-0.0003
 5702,0.00000120,0.00000064,-0.00003564,0.,-0.00000034,0.00008590,0.000
 05071,-0.00000445,-0.00723063,-0.00000293,0.00001657,0.00682030,0.0008
 2178,0.00052901,-0.00543788,0.00000026,0.00000002,0.00000557,-0.000000
 48,-0.00000016,0.00012227,-0.00000035,0.00000017,-0.00001836,-0.000000
 28,-0.00000016,0.00001647,-0.00001407,-0.00000436,0.00212289,0.0000019
 1,-0.00000206,-0.00010508,-0.00000013,-0.00000002,-0.00000840,0.000002
 13,0.00000645,-0.00001937,-0.00000223,-0.00000636,-0.00001958,-0.00085
 873,-0.00053660,0.00488482\\-0.00003249,0.00002866,-0.00000016,-0.0000
 8664,0.00003015,-0.00000012,-0.00000456,-0.00001814,0.00000076,0.00001
 190,-0.00001601,-0.00000097,-0.00013990,0.00004525,-0.00000194,0.00003
 342,-0.00001909,0.00000061,0.00004677,-0.00003662,0.00000008,0.0001189
 6,-0.00008253,0.00000024,-0.00007465,0.00004622,0.00001503,-0.00003061
 ,-0.00001002,-0.00000069,0.00003050,0.00000418,0.00000038,0.00025139,0
 .00012509,-0.00004940,-0.00013151,-0.00010619,0.00001898,-0.00008420,0
 .00000517,0.00000901,-0.00000885,-0.00000164,0.00000006,0.00000873,-0.
 00001304,-0.00000016,-0.00000476,0.00000171,0.00000027,0.00004509,0.00
 003358,0.00000002,-0.00001070,0.00002237,0.00000023,0.00000231,-0.0000
 1473,0.00000106,0.00000951,0.00001102,0.00000006,0.00000483,-0.0000125
 7,-0.00000196,0.00000465,-0.00001261,0.00000185,0.00004081,-0.00001021
 ,0.00000675\\\@


 IN SO FAR AS QUANTUM MECHANICS IS CORRECT, CHEMICAL 
 QUESTIONS ARE PROBLEMS IN APPLIED MATHEMATICS.

                    -- EYRING, WALTER, & KIMBALL, 1944
 Job cpu time:       0 days  0 hours 37 minutes 30.9 seconds.
 File lengths (MBytes):  RWF=    250 Int=      0 D2E=      0 Chk=      9 Scr=      1
 Normal termination of Gaussian 09 at Sat Dec 14 23:35:47 2024.
