 Entering Gaussian System, Link 0=g09
 Input=camb3lypFAgd3.gjf
 Output=camb3lypFAgd3.log
 Initial command:
 /home/phzd/g09E/g09/l1.exe "/home/phzd/g09E/scratch/Gau-71735.inp" -scrdir="/home/phzd/g09E/scratch/"
 Default is to use a total of  18 processors:
                               18 via shared-memory
                                1 via Linda
 Entering Link 1 = /home/phzd/g09E/g09/l1.exe PID=     71737.
  
 Copyright (c) 1988,1990,1992,1993,1995,1998,2003,2009,2015,
            Gaussian, Inc.  All Rights Reserved.
  
 This is part of the Gaussian(R) 09 program.  It is based on
 the Gaussian(R) 03 system (copyright 2003, Gaussian, Inc.),
 the Gaussian(R) 98 system (copyright 1998, Gaussian, Inc.),
 the Gaussian(R) 94 system (copyright 1995, Gaussian, Inc.),
 the Gaussian 92(TM) system (copyright 1992, Gaussian, Inc.),
 the Gaussian 90(TM) system (copyright 1990, Gaussian, Inc.),
 the Gaussian 88(TM) system (copyright 1988, Gaussian, Inc.),
 the Gaussian 86(TM) system (copyright 1986, Carnegie Mellon
 University), and the Gaussian 82(TM) system (copyright 1983,
 Carnegie Mellon University). Gaussian is a federally registered
 trademark of Gaussian, Inc.
  
 This software contains proprietary and confidential information,
 including trade secrets, belonging to Gaussian, Inc.
  
 This software is provided under written license and may be
 used, copied, transmitted, or stored only in accord with that
 written license.
  
 The following legend is applicable only to US Government
 contracts under FAR:
  
                    RESTRICTED RIGHTS LEGEND
  
 Use, reproduction and disclosure by the US Government is
 subject to restrictions as set forth in subparagraphs (a)
 and (c) of the Commercial Computer Software - Restricted
 Rights clause in FAR 52.227-19.
  
 Gaussian, Inc.
 340 Quinnipiac St., Bldg. 40, Wallingford CT 06492
  
  
 ---------------------------------------------------------------
 Warning -- This program may not be used in any manner that
 competes with the business of Gaussian, Inc. or will provide
 assistance to any competitor of Gaussian, Inc.  The licensee
 of this program is prohibited from giving any competitor of
 Gaussian, Inc. access to this program.  By using this program,
 the user acknowledges that Gaussian, Inc. is engaged in the
 business of creating and licensing software in the field of
 computational chemistry and represents and warrants to the
 licensee that it is not a competitor of Gaussian, Inc. and that
 it will not use this program in any manner prohibited above.
 ---------------------------------------------------------------
  

 Cite this work as:
 Gaussian 09, Revision E.01,
 M. J. Frisch, G. W. Trucks, H. B. Schlegel, G. E. Scuseria, 
 M. A. Robb, J. R. Cheeseman, G. Scalmani, V. Barone, B. Mennucci, 
 G. A. Petersson, H. Nakatsuji, M. Caricato, X. Li, H. P. Hratchian, 
 A. F. Izmaylov, J. Bloino, G. Zheng, J. L. Sonnenberg, M. Hada, 
 M. Ehara, K. Toyota, R. Fukuda, J. Hasegawa, M. Ishida, T. Nakajima, 
 Y. Honda, O. Kitao, H. Nakai, T. Vreven, J. A. Montgomery, Jr., 
 J. E. Peralta, F. Ogliaro, M. Bearpark, J. J. Heyd, E. Brothers, 
 K. N. Kudin, V. N. Staroverov, T. Keith, R. Kobayashi, J. Normand, 
 K. Raghavachari, A. Rendell, J. C. Burant, S. S. Iyengar, J. Tomasi, 
 M. Cossi, N. Rega, J. M. Millam, M. Klene, J. E. Knox, J. B. Cross, 
 V. Bakken, C. Adamo, J. Jaramillo, R. Gomperts, R. E. Stratmann, 
 O. Yazyev, A. J. Austin, R. Cammi, C. Pomelli, J. W. Ochterski, 
 R. L. Martin, K. Morokuma, V. G. Zakrzewski, G. A. Voth, 
 P. Salvador, J. J. Dannenberg, S. Dapprich, A. D. Daniels, 
 O. Farkas, J. B. Foresman, J. V. Ortiz, J. Cioslowski, 
 and D. J. Fox, Gaussian, Inc., Wallingford CT, 2013.
 
 ******************************************
 Gaussian 09:  ES64L-G09RevE.01 30-Nov-2015
                20-Jun-2024 
 ******************************************
 %chk=camb3lypFAgd3.chk
 --------------------------------
 # opt freq cam-b3lyp/6-31+g(d,p)
 --------------------------------
 1/14=-1,18=20,19=15,26=3,38=1/1,3;
 2/9=110,12=2,17=6,18=5,40=1/2;
 3/5=1,6=6,7=111,11=2,16=1,25=1,30=1,71=1,74=-40/1,2,3;
 4//1;
 5/5=2,38=5/2;
 6/7=2,8=2,9=2,10=2,28=1/1;
 7//1,2,3,16;
 1/14=-1,18=20,19=15,26=3/3(2);
 2/9=110/2;
 99//99;
 2/9=110/2;
 3/5=1,6=6,7=111,11=2,16=1,25=1,30=1,71=1,74=-40/1,2,3;
 4/5=5,16=3,69=1/1;
 5/5=2,38=5/2;
 7//1,2,3,16;
 1/14=-1,18=20,19=15,26=3/3(-5);
 2/9=110/2;
 6/7=2,8=2,9=2,10=2,19=2,28=1/1;
 99/9=1/99;
 ----------
 [No Title]
 ----------
 Symbolic Z-matrix:
 Charge =  0 Multiplicity = 1
 C                     1.49003  -2.02015  -0.0003 
 C                     2.51031  -1.06948  -0.00034 
 C                     2.18567   0.30283  -0.0002 
 C                     0.8551    0.70235  -0.00001 
 C                    -0.18649  -0.25378   0.00002 
 C                     0.15746  -1.61776  -0.00012 
 O                     3.8088   -1.46963  -0.00052 
 C                    -1.5644    0.23008   0.00021 
 C                    -2.69608  -0.50795   0.00012 
 C                    -4.04533   0.06652   0.00033 
 O                    -5.07249  -0.59205   0.00022 
 O                    -4.07796   1.43228   0.00067 
 O                     3.28079   1.1319   -0.00026 
 C                     3.06911   2.54138   0.00004 
 H                     1.76066  -3.07084  -0.00041 
 H                     0.59988   1.75633   0.0001 
 H                    -0.61856  -2.37536  -0.00007 
 H                     4.37138  -0.67887  -0.00051 
 H                    -1.6788    1.31211   0.00045 
 H                    -2.68989  -1.59235  -0.00014 
 H                    -5.01699   1.67928   0.00077 
 H                     4.06151   2.9927    0.00002 
 H                     2.52257   2.85656  -0.89664 
 H                     2.52277   2.85621   0.89697 
 

 GradGradGradGradGradGradGradGradGradGradGradGradGradGradGradGradGradGrad
 Berny optimization.
 Initialization pass.
                           ----------------------------
                           !    Initial Parameters    !
                           ! (Angstroms and Degrees)  !
 --------------------------                            --------------------------
 ! Name  Definition              Value          Derivative Info.                !
 --------------------------------------------------------------------------------
 ! R1    R(1,2)                  1.3945         estimate D2E/DX2                !
 ! R2    R(1,6)                  1.392          estimate D2E/DX2                !
 ! R3    R(1,15)                 1.085          estimate D2E/DX2                !
 ! R4    R(2,3)                  1.4102         estimate D2E/DX2                !
 ! R5    R(2,7)                  1.3588         estimate D2E/DX2                !
 ! R6    R(3,4)                  1.3893         estimate D2E/DX2                !
 ! R7    R(3,13)                 1.3736         estimate D2E/DX2                !
 ! R8    R(4,5)                  1.4139         estimate D2E/DX2                !
 ! R9    R(4,16)                 1.0844         estimate D2E/DX2                !
 ! R10   R(5,6)                  1.4067         estimate D2E/DX2                !
 ! R11   R(5,8)                  1.4604         estimate D2E/DX2                !
 ! R12   R(6,17)                 1.0845         estimate D2E/DX2                !
 ! R13   R(7,18)                 0.9705         estimate D2E/DX2                !
 ! R14   R(8,9)                  1.3511         estimate D2E/DX2                !
 ! R15   R(8,19)                 1.0881         estimate D2E/DX2                !
 ! R16   R(9,10)                 1.4665         estimate D2E/DX2                !
 ! R17   R(9,20)                 1.0844         estimate D2E/DX2                !
 ! R18   R(10,11)                1.2201         estimate D2E/DX2                !
 ! R19   R(10,12)                1.3661         estimate D2E/DX2                !
 ! R20   R(12,21)                0.971          estimate D2E/DX2                !
 ! R21   R(13,14)                1.4253         estimate D2E/DX2                !
 ! R22   R(14,22)                1.0902         estimate D2E/DX2                !
 ! R23   R(14,23)                1.0964         estimate D2E/DX2                !
 ! R24   R(14,24)                1.0964         estimate D2E/DX2                !
 ! A1    A(2,1,6)              120.2205         estimate D2E/DX2                !
 ! A2    A(2,1,15)             118.5329         estimate D2E/DX2                !
 ! A3    A(6,1,15)             121.2466         estimate D2E/DX2                !
 ! A4    A(1,2,3)              119.6676         estimate D2E/DX2                !
 ! A5    A(1,2,7)              119.8951         estimate D2E/DX2                !
 ! A6    A(3,2,7)              120.4372         estimate D2E/DX2                !
 ! A7    A(2,3,4)              120.0228         estimate D2E/DX2                !
 ! A8    A(2,3,13)             113.8182         estimate D2E/DX2                !
 ! A9    A(4,3,13)             126.159          estimate D2E/DX2                !
 ! A10   A(3,4,5)              120.7363         estimate D2E/DX2                !
 ! A11   A(3,4,16)             120.3253         estimate D2E/DX2                !
 ! A12   A(5,4,16)             118.9384         estimate D2E/DX2                !
 ! A13   A(4,5,6)              118.3976         estimate D2E/DX2                !
 ! A14   A(4,5,8)              118.1004         estimate D2E/DX2                !
 ! A15   A(6,5,8)              123.502          estimate D2E/DX2                !
 ! A16   A(1,6,5)              120.9552         estimate D2E/DX2                !
 ! A17   A(1,6,17)             118.8858         estimate D2E/DX2                !
 ! A18   A(5,6,17)             120.159          estimate D2E/DX2                !
 ! A19   A(2,7,18)             108.3019         estimate D2E/DX2                !
 ! A20   A(5,8,9)              127.5404         estimate D2E/DX2                !
 ! A21   A(5,8,19)             115.3844         estimate D2E/DX2                !
 ! A22   A(9,8,19)             117.0753         estimate D2E/DX2                !
 ! A23   A(8,9,10)             123.8265         estimate D2E/DX2                !
 ! A24   A(8,9,20)             122.7832         estimate D2E/DX2                !
 ! A25   A(10,9,20)            113.3903         estimate D2E/DX2                !
 ! A26   A(9,10,11)            124.2708         estimate D2E/DX2                !
 ! A27   A(9,10,12)            114.4315         estimate D2E/DX2                !
 ! A28   A(11,10,12)           121.2977         estimate D2E/DX2                !
 ! A29   A(10,12,21)           106.1056         estimate D2E/DX2                !
 ! A30   A(3,13,14)            118.5869         estimate D2E/DX2                !
 ! A31   A(13,14,22)           105.9139         estimate D2E/DX2                !
 ! A32   A(13,14,23)           110.9862         estimate D2E/DX2                !
 ! A33   A(13,14,24)           110.9861         estimate D2E/DX2                !
 ! A34   A(22,14,23)           109.5572         estimate D2E/DX2                !
 ! A35   A(22,14,24)           109.5574         estimate D2E/DX2                !
 ! A36   A(23,14,24)           109.7613         estimate D2E/DX2                !
 ! D1    D(6,1,2,3)              0.0001         estimate D2E/DX2                !
 ! D2    D(6,1,2,7)            179.9998         estimate D2E/DX2                !
 ! D3    D(15,1,2,3)          -179.9993         estimate D2E/DX2                !
 ! D4    D(15,1,2,7)             0.0004         estimate D2E/DX2                !
 ! D5    D(2,1,6,5)              0.0003         estimate D2E/DX2                !
 ! D6    D(2,1,6,17)          -179.9991         estimate D2E/DX2                !
 ! D7    D(15,1,6,5)           179.9997         estimate D2E/DX2                !
 ! D8    D(15,1,6,17)            0.0003         estimate D2E/DX2                !
 ! D9    D(1,2,3,4)             -0.0001         estimate D2E/DX2                !
 ! D10   D(1,2,3,13)          -179.9999         estimate D2E/DX2                !
 ! D11   D(7,2,3,4)           -179.9998         estimate D2E/DX2                !
 ! D12   D(7,2,3,13)             0.0004         estimate D2E/DX2                !
 ! D13   D(1,2,7,18)          -179.9992         estimate D2E/DX2                !
 ! D14   D(3,2,7,18)             0.0005         estimate D2E/DX2                !
 ! D15   D(2,3,4,5)             -0.0003         estimate D2E/DX2                !
 ! D16   D(2,3,4,16)          -179.9999         estimate D2E/DX2                !
 ! D17   D(13,3,4,5)           179.9995         estimate D2E/DX2                !
 ! D18   D(13,3,4,16)           -0.0002         estimate D2E/DX2                !
 ! D19   D(2,3,13,14)         -179.9926         estimate D2E/DX2                !
 ! D20   D(4,3,13,14)            0.0076         estimate D2E/DX2                !
 ! D21   D(3,4,5,6)              0.0006         estimate D2E/DX2                !
 ! D22   D(3,4,5,8)           -179.9998         estimate D2E/DX2                !
 ! D23   D(16,4,5,6)          -179.9997         estimate D2E/DX2                !
 ! D24   D(16,4,5,8)            -0.0001         estimate D2E/DX2                !
 ! D25   D(4,5,6,1)             -0.0007         estimate D2E/DX2                !
 ! D26   D(4,5,6,17)           179.9987         estimate D2E/DX2                !
 ! D27   D(8,5,6,1)            179.9998         estimate D2E/DX2                !
 ! D28   D(8,5,6,17)            -0.0009         estimate D2E/DX2                !
 ! D29   D(4,5,8,9)            179.9915         estimate D2E/DX2                !
 ! D30   D(4,5,8,19)            -0.008          estimate D2E/DX2                !
 ! D31   D(6,5,8,9)             -0.009          estimate D2E/DX2                !
 ! D32   D(6,5,8,19)           179.9916         estimate D2E/DX2                !
 ! D33   D(5,8,9,10)           179.9997         estimate D2E/DX2                !
 ! D34   D(5,8,9,20)            -0.0007         estimate D2E/DX2                !
 ! D35   D(19,8,9,10)           -0.0008         estimate D2E/DX2                !
 ! D36   D(19,8,9,20)          179.9988         estimate D2E/DX2                !
 ! D37   D(8,9,10,11)          179.9987         estimate D2E/DX2                !
 ! D38   D(8,9,10,12)           -0.0013         estimate D2E/DX2                !
 ! D39   D(20,9,10,11)          -0.0009         estimate D2E/DX2                !
 ! D40   D(20,9,10,12)         179.9991         estimate D2E/DX2                !
 ! D41   D(9,10,12,21)         179.9994         estimate D2E/DX2                !
 ! D42   D(11,10,12,21)         -0.0005         estimate D2E/DX2                !
 ! D43   D(3,13,14,22)         179.9952         estimate D2E/DX2                !
 ! D44   D(3,13,14,23)         -61.1765         estimate D2E/DX2                !
 ! D45   D(3,13,14,24)          61.1666         estimate D2E/DX2                !
 --------------------------------------------------------------------------------
 Trust Radius=3.00D-01 FncErr=1.00D-07 GrdErr=1.00D-06
 Number of steps in this run=    115 maximum allowed number of steps=    144.
 GradGradGradGradGradGradGradGradGradGradGradGradGradGradGradGradGradGrad

                          Input orientation:                          
 ---------------------------------------------------------------------
 Center     Atomic      Atomic             Coordinates (Angstroms)
 Number     Number       Type             X           Y           Z
 ---------------------------------------------------------------------
      1          6           0        1.490026   -2.020146   -0.000302
      2          6           0        2.510307   -1.069476   -0.000343
      3          6           0        2.185666    0.302825   -0.000195
      4          6           0        0.855102    0.702348   -0.000012
      5          6           0       -0.186487   -0.253783    0.000023
      6          6           0        0.157461   -1.617763   -0.000118
      7          8           0        3.808804   -1.469631   -0.000519
      8          6           0       -1.564401    0.230082    0.000213
      9          6           0       -2.696082   -0.507948    0.000116
     10          6           0       -4.045328    0.066523    0.000330
     11          8           0       -5.072485   -0.592045    0.000222
     12          8           0       -4.077956    1.432277    0.000669
     13          8           0        3.280789    1.131895   -0.000257
     14          6           0        3.069111    2.541382    0.000042
     15          1           0        1.760664   -3.070838   -0.000406
     16          1           0        0.599882    1.756325    0.000101
     17          1           0       -0.618557   -2.375362   -0.000074
     18          1           0        4.371384   -0.678867   -0.000509
     19          1           0       -1.678800    1.312110    0.000452
     20          1           0       -2.689887   -1.592350   -0.000137
     21          1           0       -5.016995    1.679278    0.000771
     22          1           0        4.061509    2.992699    0.000019
     23          1           0        2.522569    2.856562   -0.896638
     24          1           0        2.522766    2.856209    0.896966
 ---------------------------------------------------------------------
                    Distance matrix (angstroms):
                    1          2          3          4          5
     1  C    0.000000
     2  C    1.394542   0.000000
     3  C    2.424894   1.410178   0.000000
     4  C    2.795550   2.424678   1.389251   0.000000
     5  C    2.435310   2.817455   2.436580   1.413893   0.000000
     6  C    1.391992   2.415886   2.793255   2.422729   1.406678
     7  O    2.383233   1.358756   2.403368   3.666313   4.176199
     8  C    3.793817   4.276926   3.750772   2.465163   1.460401
     9  C    4.450870   5.236583   4.948618   3.751763   2.522433
    10  C    5.915601   6.653333   6.235473   4.941507   3.872112
    11  O    6.716102   7.597807   7.313108   6.067268   4.897693
    12  O    6.551462   7.047267   6.364638   4.986768   4.241029
    13  O    3.625216   2.332311   1.373554   2.463426   3.733913
    14  C    4.827116   3.653841   2.406577   2.878173   4.290905
    15  H    1.084988   2.137151   3.400328   3.880332   3.424499
    16  H    3.879960   3.410993   2.151133   1.084438   2.158451
    17  H    2.138294   3.390447   3.877674   3.412326   2.165129
    18  H    3.178247   1.901626   2.396056   3.777829   4.577651
    19  H    4.598412   4.818773   3.994090   2.606237   2.163104
    20  H    4.201748   5.226415   5.230937   4.222865   2.838798
    21  H    7.485123   8.013484   7.333004   5.952807   5.202935
    22  H    5.633928   4.348275   3.279361   3.940400   5.346505
    23  H    5.064765   4.027067   2.727396   2.867930   4.221046
    24  H    5.064630   4.026949   2.727325   2.867889   4.220972
                    6          7          8          9         10
     6  C    0.000000
     7  O    3.654347   0.000000
     8  C    2.525736   5.635633   0.000000
     9  C    3.061764   6.575589   1.351070   0.000000
    10  C    4.527721   8.002947   2.486313   1.466452   0.000000
    11  O    5.329581   8.924542   3.603130   2.377891   1.220149
    12  O    5.219339   8.403693   2.786258   2.382026   1.366144
    13  O    4.161225   2.654569   4.928401   6.197747   7.403176
    14  C    5.077026   4.078648   5.177986   6.521952   7.532607
    15  H    2.163721   2.599758   4.685310   5.141108   6.599438
    16  H    3.402970   4.550162   2.648309   3.998789   4.943016
    17  H    1.084509   4.519057   2.771815   2.793447   4.207798
    18  H    4.317253   0.970466   6.004976   7.069532   8.449654
    19  H    3.457746   6.152388   1.088059   2.085060   2.674311
    20  H    2.847461   6.499850   2.141956   1.084420   2.142214
    21  H    6.135591   9.370718   3.744406   3.189137   1.882848
    22  H    6.041353   4.469480   6.267608   7.610490   8.618777
    23  H    5.139754   4.601454   4.940249   6.273628   7.192089
    24  H    5.139635   4.601333   4.940207   6.273617   7.192090
                   11         12         13         14         15
    11  O    0.000000
    12  O    2.255431   0.000000
    13  O    8.529312   7.364873   0.000000
    14  C    8.723758   7.232612   1.425293   0.000000
    15  H    7.268861   7.373434   4.469200   5.762729   0.000000
    16  H    6.139266   4.689048   2.752667   2.591024   4.964768
    17  H    4.797676   5.144469   5.244593   6.145996   2.478786
    18  H    9.444268   8.709092   2.113825   3.473603   3.540817
    19  H    3.891388   2.402164   4.962862   4.904464   5.571368
    20  H    2.584063   3.327928   6.562811   7.088991   4.689705
    21  H    2.272001   0.970981   8.315819   8.131933   8.276489
    22  H    9.812249   8.287690   2.017948   1.090202   6.485397
    23  H    8.389404   6.811804   2.086354   1.096395   6.042996
    24  H    8.389424   6.811788   2.086352   1.096395   6.042844
                   16         17         18         19         20
    16  H    0.000000
    17  H    4.307602   0.000000
    18  H    4.489364   5.270447   0.000000
    19  H    2.321577   3.836869   6.369358   0.000000
    20  H    4.694274   2.214388   7.120112   3.075416   0.000000
    21  H    5.617405   5.982170   9.680006   3.358327   4.014845
    22  H    3.675797   7.121734   3.684619   5.981265   8.161129
    23  H    2.389851   6.167944   4.089061   4.565261   6.911312
    24  H    2.389894   6.167814   4.088962   4.565209   6.911311
                   21         22         23         24
    21  H    0.000000
    22  H    9.173021   0.000000
    23  H    7.683513   1.786299   0.000000
    24  H    7.683510   1.786302   1.793604   0.000000
 Stoichiometry    C10H10O4
 Framework group  C1[X(C10H10O4)]
 Deg. of freedom    66
 Full point group                 C1      NOp   1
 Largest Abelian subgroup         C1      NOp   1
 Largest concise Abelian subgroup C1      NOp   1
                         Standard orientation:                         
 ---------------------------------------------------------------------
 Center     Atomic      Atomic             Coordinates (Angstroms)
 Number     Number       Type             X           Y           Z
 ---------------------------------------------------------------------
      1          6           0        1.490026   -2.020146   -0.000302
      2          6           0        2.510307   -1.069476   -0.000343
      3          6           0        2.185666    0.302825   -0.000195
      4          6           0        0.855102    0.702348   -0.000012
      5          6           0       -0.186487   -0.253783    0.000023
      6          6           0        0.157461   -1.617763   -0.000118
      7          8           0        3.808804   -1.469631   -0.000519
      8          6           0       -1.564401    0.230082    0.000213
      9          6           0       -2.696082   -0.507948    0.000116
     10          6           0       -4.045328    0.066523    0.000330
     11          8           0       -5.072485   -0.592045    0.000222
     12          8           0       -4.077956    1.432277    0.000669
     13          8           0        3.280789    1.131895   -0.000257
     14          6           0        3.069111    2.541382    0.000042
     15          1           0        1.760664   -3.070838   -0.000406
     16          1           0        0.599882    1.756325    0.000101
     17          1           0       -0.618557   -2.375362   -0.000074
     18          1           0        4.371384   -0.678867   -0.000509
     19          1           0       -1.678800    1.312110    0.000452
     20          1           0       -2.689887   -1.592350   -0.000137
     21          1           0       -5.016995    1.679278    0.000771
     22          1           0        4.061509    2.992699    0.000019
     23          1           0        2.522569    2.856562   -0.896638
     24          1           0        2.522766    2.856209    0.896966
 ---------------------------------------------------------------------
 Rotational constants (GHZ):      1.5346188      0.2860907      0.2415104
 Standard basis: 6-31+G(d,p) (6D, 7F)
 There are   316 symmetry adapted cartesian basis functions of A   symmetry.
 There are   316 symmetry adapted basis functions of A   symmetry.
   316 basis functions,   518 primitive gaussians,   316 cartesian basis functions
    51 alpha electrons       51 beta electrons
       nuclear repulsion energy       821.7166551790 Hartrees.
 NAtoms=   24 NActive=   24 NUniq=   24 SFac= 1.00D+00 NAtFMM=   60 NAOKFM=F Big=F
 Integral buffers will be    131072 words long.
 Raffenetti 2 integral format.
 Two-electron integral symmetry is turned on.
 One-electron integrals computed using PRISM.
 NBasis=   316 RedAO= T EigKep=  1.45D-06  NBF=   316
 NBsUse=   315 1.00D-06 EigRej=  7.06D-07 NBFU=   315
 ExpMin= 4.38D-02 ExpMax= 5.48D+03 ExpMxC= 8.25D+02 IAcc=2 IRadAn=         4 AccDes= 0.00D+00
 Harris functional with IExCor=20419 and IRadAn=       4 diagonalized for initial guess.
 HarFok:  IExCor=20419 AccDes= 0.00D+00 IRadAn=         4 IDoV= 1 UseB2=F ITyADJ=14
 ICtDFT=  3500011 ScaDFX=  1.000000  1.000000  1.000000  1.000000
 FoFCou: FMM=F IPFlag=           0 FMFlag=      100000 FMFlg1=           0
         NFxFlg=           0 DoJE=T BraDBF=F KetDBF=T FulRan=T
         wScrn=  0.000000 ICntrl=     500 IOpCl=  0 I1Cent=   200000004 NGrid=           0
         NMat0=    1 NMatS0=      1 NMatT0=    0 NMatD0=    1 NMtDS0=    0 NMtDT0=    0
 Petite list used in FoFCou.
 Requested convergence on RMS density matrix=1.00D-08 within 128 cycles.
 Requested convergence on MAX density matrix=1.00D-06.
 Requested convergence on             energy=1.00D-06.
 No special actions if energy rises.
 SCF Done:  E(RCAM-B3LYP) =  -687.701207734     A.U. after   17 cycles
            NFock= 17  Conv=0.22D-08     -V/T= 2.0092

 **********************************************************************

            Population analysis using the SCF density.

 **********************************************************************

 Orbital symmetries:
       Occupied  (A) (A) (A) (A) (A) (A) (A) (A) (A) (A) (A) (A)
                 (A) (A) (A) (A) (A) (A) (A) (A) (A) (A) (A) (A)
                 (A) (A) (A) (A) (A) (A) (A) (A) (A) (A) (A) (A)
                 (A) (A) (A) (A) (A) (A) (A) (A) (A) (A) (A) (A)
                 (A) (A) (A)
       Virtual   (A) (A) (A) (A) (A) (A) (A) (A) (A) (A) (A) (A)
                 (A) (A) (A) (A) (A) (A) (A) (A) (A) (A) (A) (A)
                 (A) (A) (A) (A) (A) (A) (A) (A) (A) (A) (A) (A)
                 (A) (A) (A) (A) (A) (A) (A) (A) (A) (A) (A) (A)
                 (A) (A) (A) (A) (A) (A) (A) (A) (A) (A) (A) (A)
                 (A) (A) (A) (A) (A) (A) (A) (A) (A) (A) (A) (A)
                 (A) (A) (A) (A) (A) (A) (A) (A) (A) (A) (A) (A)
                 (A) (A) (A) (A) (A) (A) (A) (A) (A) (A) (A) (A)
                 (A) (A) (A) (A) (A) (A) (A) (A) (A) (A) (A) (A)
                 (A) (A) (A) (A) (A) (A) (A) (A) (A) (A) (A) (A)
                 (A) (A) (A) (A) (A) (A) (A) (A) (A) (A) (A) (A)
                 (A) (A) (A) (A) (A) (A) (A) (A) (A) (A) (A) (A)
                 (A) (A) (A) (A) (A) (A) (A) (A) (A) (A) (A) (A)
                 (A) (A) (A) (A) (A) (A) (A) (A) (A) (A) (A) (A)
                 (A) (A) (A) (A) (A) (A) (A) (A) (A) (A) (A) (A)
                 (A) (A) (A) (A) (A) (A) (A) (A) (A) (A) (A) (A)
                 (A) (A) (A) (A) (A) (A) (A) (A) (A) (A) (A) (A)
                 (A) (A) (A) (A) (A) (A) (A) (A) (A) (A) (A) (A)
                 (A) (A) (A) (A) (A) (A) (A) (A) (A) (A) (A) (A)
                 (A) (A) (A) (A) (A) (A) (A) (A) (A) (A) (A) (A)
                 (A) (A) (A) (A) (A) (A) (A) (A) (A) (A) (A) (A)
                 (A) (A) (A) (A) (A) (A) (A) (A) (A) (A) (A) (A)
 The electronic state is 1-A.
 Alpha  occ. eigenvalues --  -19.28672 -19.27768 -19.27253 -19.21998 -10.40488
 Alpha  occ. eigenvalues --  -10.34632 -10.34577 -10.33916 -10.30100 -10.29262
 Alpha  occ. eigenvalues --  -10.29114 -10.28429 -10.28144 -10.28111  -1.19081
 Alpha  occ. eigenvalues --   -1.18311  -1.15178  -1.09680  -0.96186  -0.90015
 Alpha  occ. eigenvalues --   -0.85743  -0.84406  -0.80108  -0.75004  -0.70710
 Alpha  occ. eigenvalues --   -0.69005  -0.66227  -0.64546  -0.61031  -0.58429
 Alpha  occ. eigenvalues --   -0.57024  -0.56675  -0.55127  -0.53981  -0.53285
 Alpha  occ. eigenvalues --   -0.52266  -0.51129  -0.50223  -0.49149  -0.47477
 Alpha  occ. eigenvalues --   -0.46511  -0.45155  -0.44082  -0.43136  -0.42332
 Alpha  occ. eigenvalues --   -0.42175  -0.39204  -0.35617  -0.34950  -0.31428
 Alpha  occ. eigenvalues --   -0.27188
 Alpha virt. eigenvalues --   -0.03326   0.02140   0.02350   0.02684   0.03522
 Alpha virt. eigenvalues --    0.04298   0.05268   0.05347   0.06751   0.06784
 Alpha virt. eigenvalues --    0.07798   0.08090   0.08695   0.09114   0.09991
 Alpha virt. eigenvalues --    0.10006   0.10853   0.11688   0.11901   0.12821
 Alpha virt. eigenvalues --    0.12897   0.13746   0.15089   0.15910   0.16513
 Alpha virt. eigenvalues --    0.16595   0.17078   0.17112   0.17568   0.18023
 Alpha virt. eigenvalues --    0.19306   0.20152   0.20644   0.21215   0.21346
 Alpha virt. eigenvalues --    0.21852   0.22019   0.22384   0.23629   0.24037
 Alpha virt. eigenvalues --    0.24356   0.25052   0.25613   0.26316   0.26454
 Alpha virt. eigenvalues --    0.26731   0.26828   0.28277   0.28337   0.28726
 Alpha virt. eigenvalues --    0.29774   0.30053   0.30454   0.31407   0.31651
 Alpha virt. eigenvalues --    0.32004   0.32782   0.33130   0.33861   0.34438
 Alpha virt. eigenvalues --    0.34735   0.35216   0.36099   0.36215   0.37347
 Alpha virt. eigenvalues --    0.37836   0.38532   0.39868   0.40395   0.40910
 Alpha virt. eigenvalues --    0.41691   0.42519   0.43399   0.44570   0.46518
 Alpha virt. eigenvalues --    0.47306   0.49802   0.50297   0.52061   0.52898
 Alpha virt. eigenvalues --    0.54295   0.60273   0.63675   0.68099   0.70558
 Alpha virt. eigenvalues --    0.70967   0.72539   0.72909   0.73454   0.73938
 Alpha virt. eigenvalues --    0.76148   0.77007   0.77869   0.78602   0.78799
 Alpha virt. eigenvalues --    0.80407   0.82195   0.83358   0.84425   0.84978
 Alpha virt. eigenvalues --    0.86064   0.89041   0.89199   0.91833   0.92307
 Alpha virt. eigenvalues --    0.94989   0.96680   0.97547   1.00899   1.02297
 Alpha virt. eigenvalues --    1.04438   1.05104   1.07026   1.09561   1.10711
 Alpha virt. eigenvalues --    1.12641   1.13666   1.14905   1.16755   1.18450
 Alpha virt. eigenvalues --    1.20267   1.21540   1.21544   1.22395   1.22470
 Alpha virt. eigenvalues --    1.25242   1.26344   1.27372   1.27807   1.28368
 Alpha virt. eigenvalues --    1.29533   1.30611   1.31271   1.32852   1.33124
 Alpha virt. eigenvalues --    1.35057   1.35770   1.36667   1.38505   1.39590
 Alpha virt. eigenvalues --    1.39978   1.42348   1.42732   1.44274   1.44464
 Alpha virt. eigenvalues --    1.46249   1.46856   1.47411   1.50069   1.50704
 Alpha virt. eigenvalues --    1.51485   1.52197   1.58303   1.61115   1.64538
 Alpha virt. eigenvalues --    1.64944   1.65188   1.68796   1.73553   1.79511
 Alpha virt. eigenvalues --    1.79767   1.82643   1.84284   1.84972   1.87307
 Alpha virt. eigenvalues --    1.88194   1.88923   1.90648   1.92241   1.92355
 Alpha virt. eigenvalues --    1.94785   1.96567   1.96831   1.98796   2.00944
 Alpha virt. eigenvalues --    2.02391   2.02515   2.03628   2.06455   2.07430
 Alpha virt. eigenvalues --    2.08393   2.10349   2.11258   2.11759   2.13232
 Alpha virt. eigenvalues --    2.15765   2.16775   2.19682   2.21674   2.25388
 Alpha virt. eigenvalues --    2.28408   2.29393   2.30229   2.33964   2.35586
 Alpha virt. eigenvalues --    2.38241   2.41650   2.44049   2.47091   2.47309
 Alpha virt. eigenvalues --    2.52354   2.52926   2.54068   2.55778   2.57769
 Alpha virt. eigenvalues --    2.58039   2.58826   2.59097   2.61063   2.61515
 Alpha virt. eigenvalues --    2.62500   2.65709   2.67767   2.69158   2.69723
 Alpha virt. eigenvalues --    2.70132   2.70477   2.75123   2.77113   2.79113
 Alpha virt. eigenvalues --    2.79292   2.80929   2.81896   2.83076   2.87269
 Alpha virt. eigenvalues --    2.90437   2.91276   2.92567   2.94836   3.00429
 Alpha virt. eigenvalues --    3.03345   3.08743   3.13458   3.15237   3.19034
 Alpha virt. eigenvalues --    3.22718   3.24196   3.27283   3.29052   3.31297
 Alpha virt. eigenvalues --    3.40367   3.42115   3.46826   3.51974   3.53623
 Alpha virt. eigenvalues --    3.56023   3.60875   3.62335   3.66405   3.87697
 Alpha virt. eigenvalues --    4.24621   4.30867   4.34183   4.38319   4.42526
 Alpha virt. eigenvalues --    4.47047   4.49307   4.53843   4.57490   4.60526
 Alpha virt. eigenvalues --    4.65910   4.74146   4.85077   5.12973
          Condensed to atoms (all electrons):
               1          2          3          4          5          6
     1  C   10.566346  -0.080648  -2.100732  -0.820758   0.181022  -1.873631
     2  C   -0.080648  13.906447  -2.767781  -3.379216  -0.726021   0.472893
     3  C   -2.100732  -2.767781  13.534831  -0.830881  -1.124065  -0.715210
     4  C   -0.820758  -3.379216  -0.830881  13.069498   1.383699  -1.317800
     5  C    0.181022  -0.726021  -1.124065   1.383699   7.203605  -0.175890
     6  C   -1.873631   0.472893  -0.715210  -1.317800  -0.175890   9.029406
     7  O   -0.534570   0.136175   0.278265   0.067811  -0.034499   0.015457
     8  C    0.060509  -0.702888  -0.071080  -1.652911  -0.381783   0.305976
     9  C   -0.002227  -0.121004  -0.372706  -0.849153  -0.396617   0.538678
    10  C   -0.120981   0.001425   0.073685  -0.109648  -0.417486  -0.052414
    11  O    0.000177   0.000264   0.000320   0.008259   0.021979  -0.000852
    12  O   -0.002511   0.000151  -0.002084   0.008542   0.047220   0.002494
    13  O    0.054429  -0.773603   0.459813   0.216865   0.028365  -0.053592
    14  C    0.024853   0.030131  -0.180150   0.001967  -0.013211   0.004350
    15  H    0.307505   0.037358   0.058391   0.010546  -0.010531  -0.069235
    16  H   -0.024751   0.032078  -0.213660   0.355611   0.038912   0.016795
    17  H   -0.032571  -0.045637   0.010677   0.061366   0.121888   0.227420
    18  H    0.184757   0.137773  -0.292555  -0.038231   0.005761  -0.008077
    19  H    0.019547   0.003279   0.013397   0.117111   0.000522  -0.004865
    20  H    0.025434  -0.000968  -0.000289   0.020544   0.085812  -0.019626
    21  H   -0.000008  -0.000030   0.000276   0.000878  -0.000676  -0.000118
    22  H    0.004829   0.076125   0.089235  -0.139166  -0.014037   0.000114
    23  H   -0.003514  -0.035475  -0.109640   0.111407   0.017010   0.002959
    24  H   -0.003525  -0.035434  -0.109524   0.111286   0.017009   0.002968
               7          8          9         10         11         12
     1  C   -0.534570   0.060509  -0.002227  -0.120981   0.000177  -0.002511
     2  C    0.136175  -0.702888  -0.121004   0.001425   0.000264   0.000151
     3  C    0.278265  -0.071080  -0.372706   0.073685   0.000320  -0.002084
     4  C    0.067811  -1.652911  -0.849153  -0.109648   0.008259   0.008542
     5  C   -0.034499  -0.381783  -0.396617  -0.417486   0.021979   0.047220
     6  C    0.015457   0.305976   0.538678  -0.052414  -0.000852   0.002494
     7  O    8.422324   0.005731   0.000380   0.000275   0.000000   0.000000
     8  C    0.005731   8.357533  -1.028347   0.651379   0.068358   0.155708
     9  C    0.000380  -1.028347  10.008970  -1.329614  -0.252255  -0.338070
    10  C    0.000275   0.651379  -1.329614   6.255698   0.433828   0.147908
    11  O    0.000000   0.068358  -0.252255   0.433828   8.370672  -0.145870
    12  O    0.000000   0.155708  -0.338070   0.147908  -0.145870   8.443543
    13  O   -0.012455  -0.016454  -0.002761  -0.000200   0.000000  -0.000002
    14  C    0.000308  -0.015774   0.004690  -0.001409  -0.000002   0.000001
    15  H   -0.005720  -0.006476  -0.002526  -0.000272   0.000000  -0.000000
    16  H   -0.000529   0.083588   0.023635   0.000471   0.000000  -0.000118
    17  H   -0.000525  -0.029850  -0.015133   0.008669   0.000088   0.000046
    18  H    0.200386   0.000692   0.000123   0.000004   0.000000  -0.000000
    19  H   -0.000006   0.271144  -0.042543  -0.083832   0.000091  -0.004716
    20  H   -0.000003  -0.122514   0.403368  -0.079944  -0.013239   0.008518
    21  H    0.000000   0.001581   0.080388  -0.050237   0.005625   0.202437
    22  H   -0.000146  -0.002488  -0.000054   0.000003   0.000000  -0.000000
    23  H   -0.000144   0.003537   0.000402  -0.000028  -0.000000   0.000000
    24  H   -0.000144   0.003525   0.000401  -0.000027  -0.000000   0.000000
              13         14         15         16         17         18
     1  C    0.054429   0.024853   0.307505  -0.024751  -0.032571   0.184757
     2  C   -0.773603   0.030131   0.037358   0.032078  -0.045637   0.137773
     3  C    0.459813  -0.180150   0.058391  -0.213660   0.010677  -0.292555
     4  C    0.216865   0.001967   0.010546   0.355611   0.061366  -0.038231
     5  C    0.028365  -0.013211  -0.010531   0.038912   0.121888   0.005761
     6  C   -0.053592   0.004350  -0.069235   0.016795   0.227420  -0.008077
     7  O   -0.012455   0.000308  -0.005720  -0.000529  -0.000525   0.200386
     8  C   -0.016454  -0.015774  -0.006476   0.083588  -0.029850   0.000692
     9  C   -0.002761   0.004690  -0.002526   0.023635  -0.015133   0.000123
    10  C   -0.000200  -0.001409  -0.000272   0.000471   0.008669   0.000004
    11  O    0.000000  -0.000002   0.000000   0.000000   0.000088   0.000000
    12  O   -0.000002   0.000001  -0.000000  -0.000118   0.000046  -0.000000
    13  O    8.650091   0.055805  -0.000603  -0.012078   0.000103   0.034401
    14  C    0.055805   4.970641   0.000208  -0.002207   0.000199   0.004140
    15  H   -0.000603   0.000208   0.533939   0.000013  -0.004712  -0.000049
    16  H   -0.012078  -0.002207   0.000013   0.571847  -0.000138  -0.000019
    17  H    0.000103   0.000199  -0.004712  -0.000138   0.567694   0.000004
    18  H    0.034401   0.004140  -0.000049  -0.000019   0.000004   0.375704
    19  H    0.000074   0.000746   0.000001   0.003333  -0.000042   0.000000
    20  H    0.000003   0.000046   0.000006   0.000001   0.000392   0.000000
    21  H   -0.000000   0.000000  -0.000000  -0.000000   0.000000   0.000000
    22  H   -0.066059   0.418055  -0.000000   0.000118  -0.000000  -0.000046
    23  H   -0.044702   0.416316   0.000000  -0.001034   0.000000   0.000021
    24  H   -0.044710   0.416302   0.000000  -0.001034   0.000000   0.000021
              19         20         21         22         23         24
     1  C    0.019547   0.025434  -0.000008   0.004829  -0.003514  -0.003525
     2  C    0.003279  -0.000968  -0.000030   0.076125  -0.035475  -0.035434
     3  C    0.013397  -0.000289   0.000276   0.089235  -0.109640  -0.109524
     4  C    0.117111   0.020544   0.000878  -0.139166   0.111407   0.111286
     5  C    0.000522   0.085812  -0.000676  -0.014037   0.017010   0.017009
     6  C   -0.004865  -0.019626  -0.000118   0.000114   0.002959   0.002968
     7  O   -0.000006  -0.000003   0.000000  -0.000146  -0.000144  -0.000144
     8  C    0.271144  -0.122514   0.001581  -0.002488   0.003537   0.003525
     9  C   -0.042543   0.403368   0.080388  -0.000054   0.000402   0.000401
    10  C   -0.083832  -0.079944  -0.050237   0.000003  -0.000028  -0.000027
    11  O    0.000091  -0.013239   0.005625   0.000000  -0.000000  -0.000000
    12  O   -0.004716   0.008518   0.202437  -0.000000   0.000000   0.000000
    13  O    0.000074   0.000003  -0.000000  -0.066059  -0.044702  -0.044710
    14  C    0.000746   0.000046   0.000000   0.418055   0.416316   0.416302
    15  H    0.000001   0.000006  -0.000000  -0.000000   0.000000   0.000000
    16  H    0.003333   0.000001  -0.000000   0.000118  -0.001034  -0.001034
    17  H   -0.000042   0.000392   0.000000  -0.000000   0.000000   0.000000
    18  H    0.000000   0.000000   0.000000  -0.000046   0.000021   0.000021
    19  H    0.550564   0.004059  -0.000069   0.000000  -0.000002  -0.000002
    20  H    0.004059   0.548275  -0.000206  -0.000000   0.000000   0.000000
    21  H   -0.000069  -0.000206   0.370167  -0.000000   0.000000   0.000000
    22  H    0.000000  -0.000000  -0.000000   0.528897  -0.026830  -0.026829
    23  H   -0.000002   0.000000   0.000000  -0.026830   0.556247  -0.042055
    24  H   -0.000002   0.000000   0.000000  -0.026829  -0.042055   0.556246
 Mulliken charges:
               1
     1  C    0.171021
     2  C   -0.165393
     3  C    0.371467
     4  C   -0.407625
     5  C    0.142012
     6  C   -0.328199
     7  O   -0.538369
     8  C    0.061304
     9  C   -0.308025
    10  C    0.672746
    11  O   -0.497441
    12  O   -0.523199
    13  O   -0.472729
    14  C   -0.136003
    15  H    0.152156
    16  H    0.129166
    17  H    0.130062
    18  H    0.395188
    19  H    0.152206
    20  H    0.140332
    21  H    0.389991
    22  H    0.158279
    23  H    0.155526
    24  H    0.155526
 Sum of Mulliken charges =  -0.00000
 Mulliken charges with hydrogens summed into heavy atoms:
               1
     1  C    0.323177
     2  C   -0.165393
     3  C    0.371467
     4  C   -0.278459
     5  C    0.142012
     6  C   -0.198137
     7  O   -0.143181
     8  C    0.213510
     9  C   -0.167693
    10  C    0.672746
    11  O   -0.497441
    12  O   -0.133207
    13  O   -0.472729
    14  C    0.333327
 Electronic spatial extent (au):  <R**2>=           4175.5787
 Charge=             -0.0000 electrons
 Dipole moment (field-independent basis, Debye):
    X=              3.4770    Y=              3.8512    Z=              0.0005  Tot=              5.1886
 Quadrupole moment (field-independent basis, Debye-Ang):
   XX=            -93.6394   YY=            -72.5679   ZZ=            -85.4104
   XY=              0.7514   XZ=             -0.0003   YZ=              0.0013
 Traceless Quadrupole moment (field-independent basis, Debye-Ang):
   XX=             -9.7669   YY=             11.3047   ZZ=             -1.5378
   XY=              0.7514   XZ=             -0.0003   YZ=              0.0013
 Octapole moment (field-independent basis, Debye-Ang**2):
  XXX=            102.4484  YYY=             21.3447  ZZZ=              0.0020  XYY=              4.0614
  XXY=            100.2846  XXZ=              0.0122  XZZ=             -2.5124  YZZ=              5.7887
  YYZ=              0.0017  XYZ=             -0.0061
 Hexadecapole moment (field-independent basis, Debye-Ang**3):
 XXXX=          -4517.0914 YYYY=           -876.0871 ZZZZ=           -100.7695 XXXY=           -257.2926
 XXXZ=              0.1184 YYYX=             43.9897 YYYZ=             -0.0439 ZZZX=              0.1837
 ZZZY=             -0.0533 XXYY=           -811.3950 XXZZ=           -736.0972 YYZZ=           -186.2961
 XXYZ=              0.0140 YYXZ=              0.0597 ZZXY=              0.0186
 N-N= 8.217166551790D+02 E-N=-3.247430234429D+03  KE= 6.814220336572D+02
 Calling FoFJK, ICntrl=      2127 FMM=F ISym2X=0 I1Cent= 0 IOpClX= 0 NMat=1 NMatS=1 NMatT=0.
 ***** Axes restored to original set *****
 -------------------------------------------------------------------
 Center     Atomic                   Forces (Hartrees/Bohr)
 Number     Number              X              Y              Z
 -------------------------------------------------------------------
      1        6           0.001095518    0.005260210    0.000000434
      2        6          -0.002535679    0.000078000    0.000000159
      3        6          -0.000034456   -0.001973549   -0.000000547
      4        6           0.000342603   -0.004898834   -0.000000328
      5        6           0.007465488   -0.003458059   -0.000000847
      6        6           0.001427854    0.005694388    0.000000021
      7        8          -0.003815989    0.003412642    0.000000747
      8        6          -0.009185301   -0.003549541   -0.000000083
      9        6           0.007746144    0.003670877    0.000000458
     10        6          -0.007352868    0.001866654    0.000000958
     11        8           0.009674967    0.006780555    0.000001214
     12        8          -0.001380098   -0.008160742   -0.000002230
     13        8          -0.004309678    0.001410763    0.000002030
     14        6           0.000036887   -0.003926291   -0.000001225
     15        1          -0.000038824    0.000614283    0.000000012
     16        1           0.000239318   -0.000315854   -0.000000042
     17        1           0.000284664    0.000394658   -0.000000083
     18        1          -0.000908227   -0.001090534   -0.000000025
     19        1          -0.000302700   -0.000412102   -0.000000288
     20        1           0.000071921    0.000525177    0.000000058
     21        1           0.001335521   -0.000318645   -0.000000086
     22        1          -0.000739242   -0.000403795   -0.000000048
     23        1           0.000441053   -0.000600284    0.000645605
     24        1           0.000441124   -0.000599976   -0.000645864
 -------------------------------------------------------------------
 Cartesian Forces:  Max     0.009674967 RMS     0.003054163

 GradGradGradGradGradGradGradGradGradGradGradGradGradGradGradGradGradGrad
 Berny optimization.
 FormGI is forming the generalized inverse of G from B-inverse, IUseBI=4.
 GSVD:  received Info=                   1 from GESDD.
 Internal  Forces:  Max     0.011805272 RMS     0.002622692
 Search for a local minimum.
 Step number   1 out of a maximum of  115
 All quantities printed in internal units (Hartrees-Bohrs-Radians)
 Mixed Optimization -- RFO/linear search
 Second derivative matrix not updated -- first step.
 ITU=  0
     Eigenvalues ---    0.01210   0.01290   0.01357   0.01506   0.01756
     Eigenvalues ---    0.01968   0.02023   0.02036   0.02040   0.02042
     Eigenvalues ---    0.02078   0.02088   0.02096   0.02128   0.02140
     Eigenvalues ---    0.02162   0.02179   0.02237   0.02736   0.10098
     Eigenvalues ---    0.10658   0.16000   0.16000   0.16000   0.16000
     Eigenvalues ---    0.16000   0.16000   0.16000   0.16000   0.16000
     Eigenvalues ---    0.16000   0.22000   0.22000   0.22372   0.23481
     Eigenvalues ---    0.24605   0.25000   0.25000   0.25000   0.25000
     Eigenvalues ---    0.25000   0.25000   0.34084   0.34084   0.34789
     Eigenvalues ---    0.35038   0.35398   0.35455   0.35463   0.35466
     Eigenvalues ---    0.36168   0.36914   0.40817   0.41587   0.41673
     Eigenvalues ---    0.44255   0.44892   0.46344   0.47242   0.50300
     Eigenvalues ---    0.51725   0.53177   0.53200   0.53282   0.54794
     Eigenvalues ---    0.95317
 RFO step:  Lambda=-1.40796077D-03 EMin= 1.20972192D-02
 Linear search not attempted -- first point.
 Iteration  1 RMS(Cart)=  0.01927473 RMS(Int)=  0.00002405
 Iteration  2 RMS(Cart)=  0.00003701 RMS(Int)=  0.00000105
 Iteration  3 RMS(Cart)=  0.00000000 RMS(Int)=  0.00000105
 Variable       Old X    -DE/DX   Delta X   Delta X   Delta X     New X
                                 (Linear)    (Quad)   (Total)
    R1        2.63530  -0.00710   0.00000  -0.01520  -0.01520   2.62010
    R2        2.63048  -0.00430   0.00000  -0.00903  -0.00903   2.62146
    R3        2.05033  -0.00060   0.00000  -0.00170  -0.00170   2.04863
    R4        2.66485  -0.00748   0.00000  -0.01706  -0.01705   2.64780
    R5        2.56768  -0.00520   0.00000  -0.00975  -0.00975   2.55793
    R6        2.62530  -0.00626   0.00000  -0.01324  -0.01324   2.61207
    R7        2.59564  -0.00578   0.00000  -0.01146  -0.01146   2.58418
    R8        2.67187  -0.00691   0.00000  -0.01589  -0.01589   2.65598
    R9        2.04929  -0.00036   0.00000  -0.00102  -0.00102   2.04827
   R10        2.65824  -0.00754   0.00000  -0.01678  -0.01678   2.64146
   R11        2.75976  -0.00044   0.00000  -0.00118  -0.00118   2.75858
   R12        2.04943  -0.00048   0.00000  -0.00135  -0.00135   2.04808
   R13        1.83391  -0.00142   0.00000  -0.00265  -0.00265   1.83126
   R14        2.55315  -0.01085   0.00000  -0.01974  -0.01974   2.53341
   R15        2.05613  -0.00038   0.00000  -0.00107  -0.00107   2.05506
   R16        2.77119  -0.00203   0.00000  -0.00558  -0.00558   2.76561
   R17        2.04926  -0.00053   0.00000  -0.00148  -0.00148   2.04778
   R18        2.30575  -0.01181   0.00000  -0.01237  -0.01237   2.29338
   R19        2.58164  -0.00847   0.00000  -0.01634  -0.01634   2.56530
   R20        1.83489  -0.00137   0.00000  -0.00257  -0.00257   1.83231
   R21        2.69341  -0.00550   0.00000  -0.01315  -0.01315   2.68026
   R22        2.06018  -0.00084   0.00000  -0.00240  -0.00240   2.05778
   R23        2.07189  -0.00092   0.00000  -0.00269  -0.00269   2.06919
   R24        2.07189  -0.00092   0.00000  -0.00269  -0.00269   2.06919
    A1        2.09824  -0.00061   0.00000  -0.00238  -0.00238   2.09586
    A2        2.06879   0.00019   0.00000   0.00046   0.00046   2.06925
    A3        2.11615   0.00042   0.00000   0.00191   0.00192   2.11807
    A4        2.08859   0.00031   0.00000   0.00122   0.00122   2.08981
    A5        2.09257   0.00100   0.00000   0.00399   0.00399   2.09656
    A6        2.10203  -0.00131   0.00000  -0.00521  -0.00521   2.09681
    A7        2.09479   0.00058   0.00000   0.00211   0.00211   2.09690
    A8        1.98650  -0.00017   0.00000  -0.00058  -0.00059   1.98592
    A9        2.20189  -0.00041   0.00000  -0.00152  -0.00152   2.20037
   A10        2.10725  -0.00071   0.00000  -0.00328  -0.00327   2.10397
   A11        2.10007   0.00019   0.00000   0.00063   0.00063   2.10070
   A12        2.07587   0.00052   0.00000   0.00265   0.00265   2.07851
   A13        2.06643   0.00072   0.00000   0.00314   0.00314   2.06957
   A14        2.06124  -0.00012   0.00000  -0.00061  -0.00061   2.06063
   A15        2.15552  -0.00060   0.00000  -0.00253  -0.00253   2.15298
   A16        2.11107  -0.00030   0.00000  -0.00081  -0.00082   2.11025
   A17        2.07495   0.00024   0.00000   0.00094   0.00094   2.07589
   A18        2.09717   0.00006   0.00000  -0.00013  -0.00013   2.09704
   A19        1.89022  -0.00020   0.00000  -0.00122  -0.00122   1.88901
   A20        2.22600  -0.00117   0.00000  -0.00530  -0.00530   2.22070
   A21        2.01384   0.00094   0.00000   0.00484   0.00484   2.01868
   A22        2.04335   0.00023   0.00000   0.00046   0.00046   2.04381
   A23        2.16118  -0.00226   0.00000  -0.01022  -0.01022   2.15096
   A24        2.14297   0.00106   0.00000   0.00464   0.00464   2.14761
   A25        1.97903   0.00121   0.00000   0.00558   0.00558   1.98462
   A26        2.16894   0.00056   0.00000   0.00222   0.00222   2.17116
   A27        1.99721   0.00001   0.00000   0.00003   0.00003   1.99723
   A28        2.11704  -0.00057   0.00000  -0.00225  -0.00225   2.11479
   A29        1.85189   0.00006   0.00000   0.00038   0.00038   1.85227
   A30        2.06973  -0.00231   0.00000  -0.00918  -0.00918   2.06055
   A31        1.84855   0.00010   0.00000   0.00080   0.00080   1.84935
   A32        1.93707  -0.00044   0.00000  -0.00286  -0.00287   1.93421
   A33        1.93707  -0.00044   0.00000  -0.00286  -0.00287   1.93421
   A34        1.91213   0.00023   0.00000   0.00162   0.00162   1.91376
   A35        1.91214   0.00023   0.00000   0.00162   0.00162   1.91376
   A36        1.91570   0.00034   0.00000   0.00174   0.00173   1.91743
    D1        0.00000  -0.00000   0.00000  -0.00000  -0.00000   0.00000
    D2        3.14159   0.00000   0.00000   0.00000   0.00000   3.14159
    D3       -3.14158  -0.00000   0.00000  -0.00000  -0.00000  -3.14158
    D4        0.00001  -0.00000   0.00000  -0.00000  -0.00000   0.00001
    D5        0.00001  -0.00000   0.00000  -0.00000  -0.00000   0.00000
    D6       -3.14158  -0.00000   0.00000  -0.00000  -0.00000  -3.14158
    D7        3.14159   0.00000   0.00000   0.00000   0.00000   3.14159
    D8        0.00001  -0.00000   0.00000  -0.00000  -0.00000   0.00001
    D9       -0.00000   0.00000   0.00000   0.00000   0.00000  -0.00000
   D10       -3.14159  -0.00000   0.00000  -0.00000  -0.00000  -3.14159
   D11       -3.14159  -0.00000   0.00000  -0.00000  -0.00000  -3.14159
   D12        0.00001  -0.00000   0.00000  -0.00000  -0.00000   0.00001
   D13       -3.14158  -0.00000   0.00000  -0.00000  -0.00000  -3.14158
   D14        0.00001  -0.00000   0.00000  -0.00000  -0.00000   0.00001
   D15       -0.00000   0.00000   0.00000   0.00000   0.00000  -0.00000
   D16       -3.14159  -0.00000   0.00000  -0.00000  -0.00000  -3.14159
   D17        3.14158   0.00000   0.00000   0.00000   0.00000   3.14159
   D18       -0.00000   0.00000   0.00000   0.00000   0.00000  -0.00000
   D19       -3.14146  -0.00000   0.00000  -0.00002  -0.00002  -3.14148
   D20        0.00013  -0.00000   0.00000  -0.00002  -0.00002   0.00011
   D21        0.00001  -0.00000   0.00000  -0.00000  -0.00000   0.00001
   D22       -3.14159  -0.00000   0.00000  -0.00000  -0.00000  -3.14159
   D23       -3.14159  -0.00000   0.00000  -0.00000  -0.00000  -3.14159
   D24       -0.00000   0.00000   0.00000   0.00000   0.00000   0.00000
   D25       -0.00001   0.00000   0.00000   0.00000   0.00000  -0.00001
   D26        3.14157   0.00000   0.00000   0.00000   0.00000   3.14157
   D27        3.14159  -0.00000   0.00000  -0.00000  -0.00000   3.14159
   D28       -0.00002   0.00000   0.00000   0.00000   0.00000  -0.00002
   D29        3.14144   0.00000   0.00000   0.00001   0.00001   3.14146
   D30       -0.00014   0.00000   0.00000   0.00001   0.00001  -0.00013
   D31       -0.00016   0.00000   0.00000   0.00002   0.00002  -0.00014
   D32        3.14145   0.00000   0.00000   0.00002   0.00002   3.14146
   D33        3.14159   0.00000   0.00000   0.00000   0.00000   3.14159
   D34       -0.00001   0.00000   0.00000   0.00000   0.00000  -0.00001
   D35       -0.00001   0.00000   0.00000   0.00000   0.00000  -0.00001
   D36        3.14157   0.00000   0.00000   0.00000   0.00000   3.14157
   D37        3.14157   0.00000   0.00000   0.00001   0.00001   3.14158
   D38       -0.00002   0.00000   0.00000   0.00001   0.00001  -0.00001
   D39       -0.00002   0.00000   0.00000   0.00001   0.00001  -0.00001
   D40        3.14158   0.00000   0.00000   0.00001   0.00001   3.14159
   D41        3.14158   0.00000   0.00000  -0.00000  -0.00000   3.14158
   D42       -0.00001   0.00000   0.00000   0.00001   0.00001  -0.00000
   D43        3.14151   0.00000   0.00000   0.00001   0.00001   3.14152
   D44       -1.06773   0.00009   0.00000   0.00090   0.00089  -1.06684
   D45        1.06756  -0.00009   0.00000  -0.00087  -0.00087   1.06669
         Item               Value     Threshold  Converged?
 Maximum Force            0.011805     0.000450     NO 
 RMS     Force            0.002623     0.000300     NO 
 Maximum Displacement     0.064353     0.001800     NO 
 RMS     Displacement     0.019262     0.001200     NO 
 Predicted change in Energy=-7.061114D-04
 GradGradGradGradGradGradGradGradGradGradGradGradGradGradGradGradGradGrad

                          Input orientation:                          
 ---------------------------------------------------------------------
 Center     Atomic      Atomic             Coordinates (Angstroms)
 Number     Number       Type             X           Y           Z
 ---------------------------------------------------------------------
      1          6           0        1.486330   -2.011024   -0.000310
      2          6           0        2.499739   -1.064782   -0.000342
      3          6           0        2.177419    0.298793   -0.000188
      4          6           0        0.854476    0.699328   -0.000006
      5          6           0       -0.179978   -0.252138    0.000023
      6          6           0        0.158876   -1.608244   -0.000126
      7          8           0        3.795298   -1.456901   -0.000518
      8          6           0       -1.557485    0.231002    0.000213
      9          6           0       -2.676239   -0.507686    0.000125
     10          6           0       -4.020147    0.071741    0.000337
     11          8           0       -5.046204   -0.576366    0.000249
     12          8           0       -4.046439    1.428986    0.000642
     13          8           0        3.268338    1.123371   -0.000242
     14          6           0        3.045892    2.524150    0.000043
     15          1           0        1.757349   -3.060688   -0.000422
     16          1           0        0.601130    1.753202    0.000114
     17          1           0       -0.618360   -2.363572   -0.000090
     18          1           0        4.352116   -0.663783   -0.000503
     19          1           0       -1.677466    1.311854    0.000442
     20          1           0       -2.668923   -1.591300   -0.000115
     21          1           0       -4.982941    1.680231    0.000746
     22          1           0        4.032933    2.984064    0.000020
     23          1           0        2.496577    2.831202   -0.896022
     24          1           0        2.496772    2.830866    0.896342
 ---------------------------------------------------------------------
                    Distance matrix (angstroms):
                    1          2          3          4          5
     1  C    0.000000
     2  C    1.386496   0.000000
     3  C    2.410987   1.401153   0.000000
     4  C    2.783029   2.412256   1.382246   0.000000
     5  C    2.422862   2.800227   2.420918   1.405483   0.000000
     6  C    1.387215   2.403121   2.776924   2.410135   1.397800
     7  O    2.374529   1.353599   2.387467   3.646609   4.153826
     8  C    3.780409   4.259123   3.735519   2.457008   1.459778
     9  C    4.425721   5.205872   4.920204   3.731332   2.509308
    10  C    5.887206   6.618202   6.201723   4.914857   3.853803
    11  O    6.688217   7.561734   7.276444   6.037005   4.877016
    12  O    6.514998   7.005093   6.325641   4.954934   4.216124
    13  O    3.605549   2.319215   1.367491   2.450825   3.712534
    14  C    4.795836   3.630251   2.388820   2.851715   4.256056
    15  H    1.084088   2.129503   3.385643   3.866899   3.411919
    16  H    3.866908   3.397904   2.144759   1.083897   2.152096
    17  H    2.134012   3.377780   3.860643   3.398618   2.156463
    18  H    3.166669   1.895284   2.378206   3.753873   4.550750
    19  H    4.588150   4.805980   3.985778   2.604980   2.165304
    20  H    4.176397   5.195411   5.201873   4.202538   2.826341
    21  H    7.448276   7.970295   7.292401   5.919257   5.177113
    22  H    5.606790   4.329416   3.263987   3.914409   5.312402
    23  H    5.026933   3.997618   2.705083   2.836235   4.180171
    24  H    5.026816   3.997516   2.705022   2.836200   4.180107
                    6          7          8          9         10
     6  C    0.000000
     7  O    3.639570   0.000000
     8  C    2.515695   5.612603   0.000000
     9  C    3.041234   6.540780   1.340623   0.000000
    10  C    4.504062   7.963537   2.467806   1.463497   0.000000
    11  O    5.306377   8.885241   3.580922   2.370960   1.213605
    12  O    5.187430   8.355907   2.762255   2.372371   1.357500
    13  O    4.138897   2.633532   4.907636   6.164280   7.363962
    14  C    5.040987   4.050973   5.142919   6.475710   7.479520
    15  H    2.159795   2.593332   4.671547   5.116104   6.572029
    16  H    3.390413   4.528517   2.641347   3.981553   4.917673
    17  H    1.083797   4.505822   2.759306   2.771133   4.183647
    18  H    4.298287   0.969063   5.976959   7.030089   8.404510
    19  H    3.449511   6.133282   1.087491   2.075639   2.650667
    20  H    2.827850   6.465618   2.134497   1.083638   2.142781
    21  H    6.103470   9.321967   3.719410   3.179285   1.874623
    22  H    6.008128   4.447318   6.231543   7.563419   8.563511
    23  H    5.096681   4.569073   4.898949   6.221679   7.133427
    24  H    5.096578   4.568969   4.898912   6.221670   7.133430
                   11         12         13         14         15
    11  O    0.000000
    12  O    2.240751   0.000000
    13  O    8.486502   7.321159   0.000000
    14  C    8.665751   7.176388   1.418332   0.000000
    15  H    7.242941   7.337651   4.448532   5.731559   0.000000
    16  H    6.108950   4.658864   2.740563   2.563440   4.950796
    17  H    4.774925   5.112261   5.221608   6.108729   2.475877
    18  H    9.398727   8.655369   2.090094   3.445162   3.532417
    19  H    3.861836   2.371867   4.949394   4.876451   5.560313
    20  H    2.584871   3.319589   6.528438   7.042446   4.663795
    21  H    2.257483   0.969618   8.270048   8.073064   8.240620
    22  H    9.752302   8.227668   2.011662   1.088930   6.458894
    23  H    8.325165   6.751391   2.077192   1.094970   6.005242
    24  H    8.325185   6.751382   2.077190   1.094970   6.005110
                   16         17         18         19         20
    16  H    0.000000
    17  H    4.293598   0.000000
    18  H    4.462254   5.253086   0.000000
    19  H    2.320945   3.824979   6.344999   0.000000
    20  H    4.677493   2.191167   7.082039   3.067783   0.000000
    21  H    5.584548   5.949950   9.624848   3.325938   4.007192
    22  H    3.645859   7.087435   3.661785   5.950205   8.114729
    23  H    2.357512   6.123006   4.057081   4.531523   6.858831
    24  H    2.357551   6.122894   4.056995   4.531478   6.858833
                   21         22         23         24
    21  H    0.000000
    22  H    9.109663   0.000000
    23  H    7.620506   1.785118   0.000000
    24  H    7.620509   1.785120   1.792364   0.000000
 Stoichiometry    C10H10O4
 Framework group  C1[X(C10H10O4)]
 Deg. of freedom    66
 Full point group                 C1      NOp   1
 Largest Abelian subgroup         C1      NOp   1
 Largest concise Abelian subgroup C1      NOp   1
                         Standard orientation:                         
 ---------------------------------------------------------------------
 Center     Atomic      Atomic             Coordinates (Angstroms)
 Number     Number       Type             X           Y           Z
 ---------------------------------------------------------------------
      1          6           0        1.486366   -2.010382   -0.000311
      2          6           0        2.498418   -1.062689   -0.000344
      3          6           0        2.174143    0.300424   -0.000189
      4          6           0        0.850628    0.699062   -0.000007
      5          6           0       -0.182461   -0.253886    0.000022
      6          6           0        0.158336   -1.609505   -0.000128
      7          8           0        3.794537   -1.452950   -0.000520
      8          6           0       -1.560660    0.227279    0.000212
      9          6           0       -2.678354   -0.513013    0.000124
     10          6           0       -4.023091    0.064487    0.000335
     11          8           0       -5.048218   -0.585089    0.000247
     12          8           0       -4.051328    1.421693    0.000640
     13          8           0        3.263879    1.126564   -0.000243
     14          6           0        3.039426    2.527023    0.000041
     15          1           0        1.758889   -3.059657   -0.000423
     16          1           0        0.595771    1.752571    0.000112
     17          1           0       -0.617817   -2.365946   -0.000092
     18          1           0        4.350218   -0.659035   -0.000505
     19          1           0       -1.682190    1.307958    0.000440
     20          1           0       -2.669485   -1.596615   -0.000117
     21          1           0       -4.988189    1.671596    0.000744
     22          1           0        4.025806    2.988351    0.000018
     23          1           0        2.489671    2.833287   -0.896024
     24          1           0        2.489866    2.832952    0.896340
 ---------------------------------------------------------------------
 Rotational constants (GHZ):      1.5531124      0.2892467      0.2442170
 Standard basis: 6-31+G(d,p) (6D, 7F)
 There are   316 symmetry adapted cartesian basis functions of A   symmetry.
 There are   316 symmetry adapted basis functions of A   symmetry.
   316 basis functions,   518 primitive gaussians,   316 cartesian basis functions
    51 alpha electrons       51 beta electrons
       nuclear repulsion energy       825.9958514270 Hartrees.
 NAtoms=   24 NActive=   24 NUniq=   24 SFac= 1.00D+00 NAtFMM=   60 NAOKFM=F Big=F
 Integral buffers will be    131072 words long.
 Raffenetti 2 integral format.
 Two-electron integral symmetry is turned on.
 One-electron integrals computed using PRISM.
 NBasis=   316 RedAO= T EigKep=  1.37D-06  NBF=   316
 NBsUse=   315 1.00D-06 EigRej=  6.76D-07 NBFU=   315
 Initial guess from the checkpoint file:  "camb3lypFAgd3.chk"
 B after Tr=    -0.000000    0.000000   -0.000000
         Rot=    1.000000    0.000000   -0.000000   -0.000445 Ang=   0.05 deg.
 ExpMin= 4.38D-02 ExpMax= 5.48D+03 ExpMxC= 8.25D+02 IAcc=2 IRadAn=         4 AccDes= 0.00D+00
 Harris functional with IExCor=20419 and IRadAn=       4 diagonalized for initial guess.
 HarFok:  IExCor=20419 AccDes= 0.00D+00 IRadAn=         4 IDoV= 1 UseB2=F ITyADJ=14
 ICtDFT=  3500011 ScaDFX=  1.000000  1.000000  1.000000  1.000000
 FoFCou: FMM=F IPFlag=           0 FMFlag=      100000 FMFlg1=           0
         NFxFlg=           0 DoJE=T BraDBF=F KetDBF=T FulRan=T
         wScrn=  0.000000 ICntrl=     500 IOpCl=  0 I1Cent=   200000004 NGrid=           0
         NMat0=    1 NMatS0=      1 NMatT0=    0 NMatD0=    1 NMtDS0=    0 NMtDT0=    0
 Petite list used in FoFCou.
 Requested convergence on RMS density matrix=1.00D-08 within 128 cycles.
 Requested convergence on MAX density matrix=1.00D-06.
 Requested convergence on             energy=1.00D-06.
 No special actions if energy rises.
 SCF Done:  E(RCAM-B3LYP) =  -687.701834615     A.U. after   12 cycles
            NFock= 12  Conv=0.87D-08     -V/T= 2.0088
 Calling FoFJK, ICntrl=      2127 FMM=F ISym2X=0 I1Cent= 0 IOpClX= 0 NMat=1 NMatS=1 NMatT=0.
 ***** Axes restored to original set *****
 -------------------------------------------------------------------
 Center     Atomic                   Forces (Hartrees/Bohr)
 Number     Number              X              Y              Z
 -------------------------------------------------------------------
      1        6           0.000491682   -0.000612732   -0.000000031
      2        6           0.000500377   -0.001518403   -0.000000348
      3        6           0.000921726    0.000489682   -0.000000570
      4        6          -0.000674766    0.000780986    0.000000417
      5        6           0.001230190   -0.000476493   -0.000000096
      6        6          -0.001179232    0.000156194    0.000000072
      7        8           0.000173845    0.000373931    0.000000063
      8        6          -0.000908054    0.000745202    0.000000233
      9        6           0.000752134   -0.001115468   -0.000000030
     10        6          -0.001555396    0.001909931   -0.000000054
     11        8          -0.000069105   -0.000406626    0.000000186
     12        8          -0.000248722   -0.001129796   -0.000000208
     13        8          -0.000638628    0.001233499    0.000001111
     14        6           0.000953382   -0.001209371   -0.000000798
     15        1          -0.000008393   -0.000112455   -0.000000021
     16        1          -0.000125656   -0.000163513   -0.000000011
     17        1           0.000027053   -0.000099894   -0.000000053
     18        1           0.000258358   -0.000273055   -0.000000070
     19        1           0.000231046   -0.000071157   -0.000000155
     20        1          -0.000174513    0.000048712    0.000000037
     21        1           0.000111030    0.000273674    0.000000105
     22        1          -0.000079812    0.000459310    0.000000028
     23        1           0.000005643    0.000358894   -0.000028990
     24        1           0.000005814    0.000358947    0.000029183
 -------------------------------------------------------------------
 Cartesian Forces:  Max     0.001909931 RMS     0.000584308

 GradGradGradGradGradGradGradGradGradGradGradGradGradGradGradGradGradGrad
 Berny optimization.
 Using GEDIIS/GDIIS optimizer.
 FormGI is forming the generalized inverse of G from B-inverse, IUseBI=4.
 Internal  Forces:  Max     0.002166755 RMS     0.000500186
 Search for a local minimum.
 Step number   2 out of a maximum of  115
 All quantities printed in internal units (Hartrees-Bohrs-Radians)
 Mixed Optimization -- En-DIIS/RFO-DIIS
 Update second derivatives using D2CorX and points    1    2
 DE= -6.27D-04 DEPred=-7.06D-04 R= 8.88D-01
 TightC=F SS=  1.41D+00  RLast= 5.50D-02 DXNew= 5.0454D-01 1.6505D-01
 Trust test= 8.88D-01 RLast= 5.50D-02 DXMaxT set to 3.00D-01
 ITU=  1  0
 Use linear search instead of GDIIS.
     Eigenvalues ---    0.01210   0.01290   0.01357   0.01505   0.01757
     Eigenvalues ---    0.01968   0.02022   0.02036   0.02040   0.02042
     Eigenvalues ---    0.02078   0.02089   0.02096   0.02128   0.02140
     Eigenvalues ---    0.02162   0.02179   0.02237   0.02736   0.10131
     Eigenvalues ---    0.10664   0.15955   0.16000   0.16000   0.16000
     Eigenvalues ---    0.16000   0.16000   0.16000   0.16000   0.16000
     Eigenvalues ---    0.16089   0.21993   0.22113   0.22393   0.23484
     Eigenvalues ---    0.24593   0.24904   0.25000   0.25000   0.25000
     Eigenvalues ---    0.25000   0.25557   0.34083   0.34084   0.34786
     Eigenvalues ---    0.35025   0.35390   0.35428   0.35458   0.35465
     Eigenvalues ---    0.36146   0.36608   0.40508   0.41356   0.41870
     Eigenvalues ---    0.44670   0.45553   0.46200   0.49041   0.50524
     Eigenvalues ---    0.51386   0.53170   0.53272   0.53385   0.57710
     Eigenvalues ---    0.94889
 RFO step:  Lambda=-4.71504716D-05 EMin= 1.20972192D-02
 Quartic linear search produced a step of -0.10398.
 Iteration  1 RMS(Cart)=  0.00625353 RMS(Int)=  0.00000972
 Iteration  2 RMS(Cart)=  0.00001406 RMS(Int)=  0.00000054
 Iteration  3 RMS(Cart)=  0.00000000 RMS(Int)=  0.00000054
 Variable       Old X    -DE/DX   Delta X   Delta X   Delta X     New X
                                 (Linear)    (Quad)   (Total)
    R1        2.62010   0.00074   0.00158  -0.00068   0.00090   2.62100
    R2        2.62146   0.00115   0.00094   0.00087   0.00181   2.62326
    R3        2.04863   0.00011   0.00018   0.00003   0.00021   2.04884
    R4        2.64780   0.00186   0.00177   0.00148   0.00326   2.65105
    R5        2.55793   0.00038   0.00101  -0.00072   0.00030   2.55823
    R6        2.61207   0.00146   0.00138   0.00095   0.00233   2.61439
    R7        2.58418   0.00092   0.00119   0.00003   0.00122   2.58541
    R8        2.65598   0.00081   0.00165  -0.00059   0.00106   2.65704
    R9        2.04827  -0.00013   0.00011  -0.00047  -0.00037   2.04790
   R10        2.64146   0.00024   0.00174  -0.00198  -0.00024   2.64122
   R11        2.75858   0.00184   0.00012   0.00431   0.00443   2.76301
   R12        2.04808   0.00005   0.00014  -0.00006   0.00008   2.04816
   R13        1.83126  -0.00008   0.00028  -0.00050  -0.00022   1.83104
   R14        2.53341   0.00121   0.00205  -0.00078   0.00127   2.53468
   R15        2.05506  -0.00010   0.00011  -0.00040  -0.00028   2.05478
   R16        2.76561   0.00188   0.00058   0.00386   0.00444   2.77005
   R17        2.04778  -0.00005   0.00015  -0.00034  -0.00018   2.04760
   R18        2.29338   0.00027   0.00129  -0.00146  -0.00017   2.29321
   R19        2.56530  -0.00085   0.00170  -0.00376  -0.00206   2.56324
   R20        1.83231  -0.00004   0.00027  -0.00042  -0.00015   1.83216
   R21        2.68026  -0.00018   0.00137  -0.00223  -0.00086   2.67940
   R22        2.05778   0.00012   0.00025  -0.00003   0.00022   2.05800
   R23        2.06919   0.00012   0.00028  -0.00006   0.00022   2.06941
   R24        2.06919   0.00012   0.00028  -0.00006   0.00022   2.06941
    A1        2.09586   0.00016   0.00025   0.00023   0.00048   2.09634
    A2        2.06925  -0.00004  -0.00005  -0.00000  -0.00005   2.06920
    A3        2.11807  -0.00012  -0.00020  -0.00022  -0.00042   2.11765
    A4        2.08981  -0.00012  -0.00013  -0.00005  -0.00018   2.08964
    A5        2.09656   0.00000  -0.00042   0.00047   0.00006   2.09662
    A6        2.09681   0.00012   0.00054  -0.00043   0.00012   2.09693
    A7        2.09690  -0.00042  -0.00022  -0.00092  -0.00114   2.09576
    A8        1.98592   0.00016   0.00006   0.00036   0.00042   1.98634
    A9        2.20037   0.00025   0.00016   0.00056   0.00072   2.20108
   A10        2.10397   0.00016   0.00034   0.00020   0.00054   2.10451
   A11        2.10070   0.00009  -0.00007   0.00067   0.00060   2.10131
   A12        2.07851  -0.00024  -0.00028  -0.00087  -0.00114   2.07737
   A13        2.06957   0.00014  -0.00033   0.00067   0.00034   2.06992
   A14        2.06063   0.00004   0.00006   0.00020   0.00027   2.06089
   A15        2.15298  -0.00018   0.00026  -0.00087  -0.00061   2.15237
   A16        2.11025   0.00009   0.00008  -0.00013  -0.00004   2.11021
   A17        2.07589  -0.00013  -0.00010  -0.00037  -0.00047   2.07542
   A18        2.09704   0.00005   0.00001   0.00050   0.00051   2.09755
   A19        1.88901   0.00068   0.00013   0.00360   0.00373   1.89274
   A20        2.22070   0.00037   0.00055   0.00075   0.00130   2.22200
   A21        2.01868  -0.00041  -0.00050  -0.00133  -0.00184   2.01684
   A22        2.04381   0.00004  -0.00005   0.00059   0.00054   2.04435
   A23        2.15096   0.00043   0.00106   0.00026   0.00133   2.15228
   A24        2.14761  -0.00003  -0.00048   0.00080   0.00032   2.14793
   A25        1.98462  -0.00039  -0.00058  -0.00107  -0.00165   1.98297
   A26        2.17116  -0.00042  -0.00023  -0.00118  -0.00141   2.16975
   A27        1.99723   0.00013  -0.00000   0.00049   0.00048   1.99772
   A28        2.11479   0.00028   0.00023   0.00069   0.00092   2.11572
   A29        1.85227   0.00054  -0.00004   0.00308   0.00304   1.85532
   A30        2.06055   0.00217   0.00095   0.00645   0.00741   2.06795
   A31        1.84935   0.00051  -0.00008   0.00290   0.00281   1.85216
   A32        1.93421   0.00033   0.00030   0.00145   0.00174   1.93595
   A33        1.93421   0.00033   0.00030   0.00145   0.00174   1.93595
   A34        1.91376  -0.00042  -0.00017  -0.00217  -0.00234   1.91141
   A35        1.91376  -0.00042  -0.00017  -0.00217  -0.00234   1.91142
   A36        1.91743  -0.00031  -0.00018  -0.00139  -0.00157   1.91585
    D1        0.00000   0.00000   0.00000   0.00000   0.00000   0.00000
    D2        3.14159   0.00000  -0.00000   0.00000   0.00000   3.14159
    D3       -3.14158  -0.00000   0.00000  -0.00000  -0.00000  -3.14158
    D4        0.00001  -0.00000   0.00000  -0.00000  -0.00000   0.00001
    D5        0.00000  -0.00000   0.00000  -0.00000  -0.00000   0.00000
    D6       -3.14158  -0.00000   0.00000  -0.00000  -0.00000  -3.14158
    D7        3.14159   0.00000  -0.00000   0.00000   0.00000   3.14159
    D8        0.00001  -0.00000   0.00000  -0.00000  -0.00000   0.00000
    D9       -0.00000  -0.00000  -0.00000  -0.00000  -0.00000  -0.00000
   D10       -3.14159  -0.00000   0.00000  -0.00000  -0.00000  -3.14159
   D11       -3.14159  -0.00000   0.00000  -0.00000  -0.00000  -3.14159
   D12        0.00001  -0.00000   0.00000  -0.00000  -0.00000   0.00001
   D13       -3.14158  -0.00000   0.00000  -0.00000  -0.00000  -3.14158
   D14        0.00001  -0.00000   0.00000  -0.00000  -0.00000   0.00001
   D15       -0.00000   0.00000  -0.00000   0.00000   0.00000  -0.00000
   D16       -3.14159  -0.00000   0.00000  -0.00000  -0.00000  -3.14159
   D17        3.14159   0.00000  -0.00000   0.00000   0.00000   3.14159
   D18       -0.00000   0.00000  -0.00000   0.00000   0.00000  -0.00000
   D19       -3.14148  -0.00000   0.00000  -0.00002  -0.00002  -3.14150
   D20        0.00011  -0.00000   0.00000  -0.00002  -0.00002   0.00010
   D21        0.00001  -0.00000   0.00000  -0.00000  -0.00000   0.00001
   D22       -3.14159  -0.00000   0.00000  -0.00000  -0.00000  -3.14159
   D23       -3.14159   0.00000   0.00000  -0.00000  -0.00000  -3.14159
   D24        0.00000   0.00000  -0.00000   0.00000   0.00000   0.00000
   D25       -0.00001   0.00000  -0.00000   0.00000   0.00000  -0.00001
   D26        3.14157   0.00000  -0.00000   0.00000   0.00000   3.14158
   D27        3.14159   0.00000   0.00000   0.00000   0.00000   3.14159
   D28       -0.00002   0.00000  -0.00000   0.00000   0.00000  -0.00001
   D29        3.14146   0.00000  -0.00000   0.00002   0.00001   3.14147
   D30       -0.00013   0.00000  -0.00000   0.00001   0.00001  -0.00011
   D31       -0.00014   0.00000  -0.00000   0.00002   0.00001  -0.00012
   D32        3.14146   0.00000  -0.00000   0.00002   0.00001   3.14148
   D33        3.14159  -0.00000  -0.00000  -0.00000  -0.00000   3.14159
   D34       -0.00001   0.00000  -0.00000   0.00000   0.00000  -0.00001
   D35       -0.00001   0.00000  -0.00000   0.00000   0.00000  -0.00001
   D36        3.14157   0.00000  -0.00000   0.00000   0.00000   3.14158
   D37        3.14158   0.00000  -0.00000   0.00002   0.00002  -3.14159
   D38       -0.00001  -0.00000  -0.00000   0.00000  -0.00000  -0.00001
   D39       -0.00001   0.00000  -0.00000   0.00002   0.00001   0.00001
   D40        3.14159  -0.00000  -0.00000  -0.00000  -0.00000   3.14159
   D41        3.14158   0.00000   0.00000   0.00001   0.00001  -3.14159
   D42       -0.00000  -0.00000  -0.00000  -0.00001  -0.00001  -0.00001
   D43        3.14152   0.00000  -0.00000   0.00001   0.00001   3.14153
   D44       -1.06684  -0.00003  -0.00009  -0.00010  -0.00019  -1.06703
   D45        1.06669   0.00003   0.00009   0.00012   0.00021   1.06690
         Item               Value     Threshold  Converged?
 Maximum Force            0.002167     0.000450     NO 
 RMS     Force            0.000500     0.000300     NO 
 Maximum Displacement     0.023699     0.001800     NO 
 RMS     Displacement     0.006253     0.001200     NO 
 Predicted change in Energy=-3.245785D-05
 GradGradGradGradGradGradGradGradGradGradGradGradGradGradGradGradGradGrad

                          Input orientation:                          
 ---------------------------------------------------------------------
 Center     Atomic      Atomic             Coordinates (Angstroms)
 Number     Number       Type             X           Y           Z
 ---------------------------------------------------------------------
      1          6           0        1.486635   -2.011567   -0.000316
      2          6           0        2.500513   -1.065126   -0.000341
      3          6           0        2.177728    0.300110   -0.000180
      4          6           0        0.853130    0.699425   -0.000001
      5          6           0       -0.181116   -0.253096    0.000020
      6          6           0        0.158125   -1.608976   -0.000135
      7          8           0        3.796196   -1.457376   -0.000514
      8          6           0       -1.561281    0.229553    0.000208
      9          6           0       -2.680878   -0.509082    0.000128
     10          6           0       -4.027492    0.070002    0.000337
     11          8           0       -5.051944   -0.580468    0.000273
     12          8           0       -4.055701    1.426116    0.000631
     13          8           0        3.268774    1.125595   -0.000226
     14          6           0        3.056112    2.527432    0.000043
     15          1           0        1.757606   -3.061358   -0.000433
     16          1           0        0.597938    1.752654    0.000122
[...]
 0009487,-0.00122398,-0.00000018,-0.00030643,0.00021090,0.00000012,-0.0
 7320651,0.35052418,0.00000995,-0.00003293,-0.03656980,0.00000023,0.000
 00006,0.00567362,0.00000058,-0.00000042,0.00604579,0.00000002,0.000000
 17,-0.00075506,0.00000138,-0.00000063,0.00690872,0.00000034,-0.0000032
 9,0.00279859,-0.00000039,0.00000035,-0.00377393,-0.00000011,-0.0000002
 0,0.00042562,0.00000004,0.,0.00001465,-0.00000007,0.00000004,-0.000070
 51,0.00000004,0.,-0.00000218,0.00000001,-0.00000001,0.00000370,-0.0000
 0002,0.00000004,-0.00002524,-0.00000003,0.00000008,-0.00032183,-0.0000
 1133,0.00003615,0.02519670,-0.00121934,-0.00020399,0.00000001,-0.00512
 257,-0.00027762,0.00000105,0.00002742,0.03113318,0.00000343,-0.0766161
 9,0.06696132,0.00001056,0.00939376,-0.02119448,-0.00000271,-0.00319435
 ,-0.00333247,0.00000051,-0.00090938,0.00170621,0.00000021,0.00106873,-
 0.00231345,-0.00000091,0.00012988,0.00033592,0.00000011,-0.00036987,-0
 .00008123,0.00000004,0.00026297,0.00009537,-0.00000003,0.00012739,-0.0
 0000608,-0.00000002,0.00203659,-0.00190486,-0.00000079,-0.00164013,0.0
 0055960,0.00000018,0.00006514,0.00003514,-0.00000004,0.07688803,-0.000
 25649,0.00063180,0.00000018,0.00079990,0.00143647,-0.00000056,0.000754
 75,-0.00526539,-0.00000092,0.06748028,-0.32959750,-0.00003493,0.006808
 98,-0.01706693,-0.00000256,-0.00398403,-0.00107101,-0.00000020,0.00031
 854,-0.00040630,-0.00000002,0.00272162,0.00053140,0.00000023,-0.000457
 02,0.00045437,0.00000005,-0.00000284,-0.00019069,-0.00000006,0.0000027
 5,0.00003405,0.00000002,0.00001995,0.00009512,0.00000004,-0.00012555,-
 0.00061984,0.00000025,-0.00194352,-0.00101964,0.00000002,0.00006116,-0
 .00006314,0.00000002,-0.06950442,0.35237272,0.00000005,0.00000020,-0.0
 0095600,0.00000122,-0.00000052,0.00640983,0.00000041,-0.00000401,0.004
 76188,0.00001086,-0.00003477,-0.03382637,0.,0.00000016,0.00263236,0.00
 000037,-0.00000017,0.00510861,0.00000008,-0.00000015,-0.00060121,-0.00
 000034,0.00000075,-0.00417208,-0.00000007,-0.00000006,0.00024859,0.000
 00002,-0.00000003,0.00031322,-0.00000005,0.,-0.00010670,-0.00000001,0.
 ,-0.00008876,-0.00000060,0.00000040,-0.00345257,-0.00000014,-0.0000000
 5,-0.00025267,-0.00000003,0.00000002,-0.00034310,-0.00001173,0.0000382
 1,0.02367423,-0.01711297,-0.02258684,0.00000002,-0.00338434,0.00315065
 ,0.00000135,-0.00041478,0.00099105,0.00000004,0.00050665,0.00204332,0.
 00000077,0.01029330,0.00462444,-0.00000029,-0.20714559,-0.14314784,0.0
 0000502,-0.00126966,-0.00134736,0.,-0.00078747,-0.00069128,-0.00000046
 ,-0.00054231,0.00120090,0.00000011,-0.00026067,0.00003873,0.00000006,0
 .00020746,0.00001865,-0.00000004,0.00010588,-0.00014200,-0.00000005,0.
 00008853,-0.00025023,-0.00000008,-0.00001080,0.00010263,0.,0.00114560,
 0.00019341,-0.00000054,0.00031562,0.00040410,0.00000006,0.22035129,0.0
 0885870,0.01030178,-0.00000029,0.00248984,0.00010733,-0.00000087,0.000
 90888,-0.00035325,0.,0.00291966,-0.00470509,-0.00000126,-0.02374385,-0
 .01540876,0.00000073,-0.14418858,-0.20111537,0.00000029,0.00030657,0.0
 0050971,0.00000002,-0.00173946,0.00091457,0.00000050,0.00027289,-0.000
 62352,-0.00000013,0.00041343,0.00029770,-0.00000007,-0.00010932,0.0000
 5522,0.00000005,-0.00032815,0.00030865,0.00000011,-0.00009891,0.000192
 53,0.00000005,-0.00000473,-0.00007255,0.00000002,-0.00032592,0.0007680
 1,0.00000048,-0.00113216,-0.00087807,-0.00000005,0.15415611,0.20883937
 ,0.00000271,0.00000275,0.00377938,0.00000128,-0.00000091,0.00746763,0.
 00000003,-0.00000009,-0.00092071,0.00000075,-0.00000129,0.00622545,-0.
 00000228,-0.00000249,0.00293175,0.00000492,0.00000064,-0.03711999,0.00
 000012,0.00000017,0.00008729,-0.00000084,0.00000043,-0.00377608,0.0000
 0009,0.00000018,0.00004651,0.00000007,-0.00000001,-0.00022608,-0.00000
 007,0.00000001,-0.00011459,0.,0.00000001,0.00001819,-0.00000003,0.0000
 0012,-0.00045437,-0.00000001,0.00000002,-0.00018790,-0.00000056,0.0000
 0044,-0.00441271,-0.00000010,-0.00000018,0.00066764,-0.00000619,0.0000
 0037,0.02486219,-0.00496706,0.00464585,0.00000106,-0.03549545,-0.03682
 315,-0.00000062,-0.00177564,-0.00142144,0.00000026,-0.00118118,-0.0012
 0725,-0.00000008,0.00089043,0.00027738,-0.00000008,-0.00028131,-0.0018
 6787,0.00000004,-0.18860753,-0.18668216,-0.00000183,-0.00074159,0.0001
 9999,0.00000008,0.00075105,-0.00005106,-0.00000008,-0.00087337,0.00037
 246,0.00000012,0.00048160,0.00004593,-0.00000004,0.00018012,-0.0002784
 2,-0.00000007,-0.00012845,-0.00184299,-0.00000050,0.00118847,0.0015378
 2,0.00000012,0.00012895,0.00007624,-0.00000007,0.00030291,-0.00012353,
 -0.00000002,-0.00033190,0.00019349,0.00000004,0.23032894,0.00540271,0.
 00018932,-0.00000074,0.00366976,0.01186043,0.00000109,0.01056611,0.002
 45455,-0.00000096,-0.00206791,-0.00057799,0.00000025,0.00148523,-0.000
 85333,-0.00000023,-0.00128522,0.00085052,0.00000004,-0.23740526,-0.362
 10796,-0.00001332,-0.00114328,0.00013327,0.00000012,0.00081344,0.00000
 063,-0.00000005,-0.00073183,0.00047436,0.00000013,0.00033614,-0.000011
 93,-0.00000003,0.00012168,-0.00033465,-0.00000008,-0.00221289,-0.00007
 441,0.00000068,-0.00181859,-0.00280900,-0.00000034,0.00006775,0.000074
 42,0.00000005,0.00031783,-0.00008492,-0.00000005,0.00020709,-0.0000351
 2,0.,0.22399682,0.34942550,0.00000124,-0.00000062,0.00197067,0.0000035
 2,0.00000481,-0.00277645,0.00000136,0.00000020,0.00181075,-0.00000017,
 0.00000010,-0.00073817,0.00000005,-0.00000011,0.00002204,0.00000006,0.
 00000013,0.00166524,-0.00000688,-0.00001802,-0.00716686,-0.00000005,-0
 .00000002,-0.00007258,-0.00000002,0.00000003,-0.00005109,0.00000004,0.
 00000001,-0.00000364,-0.00000003,0.,-0.00001527,0.,0.,-0.00001223,-0.0
 0000058,0.00000037,-0.00164045,-0.00000031,-0.00000025,-0.00110909,-0.
 00000006,0.00000005,-0.00060496,0.00000002,0.,0.00017814,0.00000004,0.
 ,-0.00014336,0.00000178,0.00001318,0.00846010,0.00046814,0.00142195,-0
 .00000002,0.00016662,-0.00022224,0.00000002,-0.00019369,-0.00001167,0.
 00000002,0.00132561,0.00204194,-0.00000010,-0.00203763,0.02872156,0.00
 000513,-0.00552536,-0.00008189,0.00000086,-0.00010154,-0.00010095,-0.0
 0000002,-0.06148275,0.03133131,0.00000667,0.00601869,-0.02924482,-0.00
 000507,0.00057999,-0.00380336,-0.00000143,0.00056955,0.00127714,0.0000
 0026,-0.00235267,0.00180370,0.00000077,0.00004394,-0.00015761,-0.00000
 002,-0.00005011,0.00011347,0.00000002,-0.00036527,0.00008160,0.,-0.000
 75021,-0.00094696,0.00000007,0.00012655,0.00003461,0.00000001,-0.00002
 815,0.00004437,0.00000001,0.06753166,-0.00025239,-0.00033854,0.0000000
 6,-0.00027317,0.00028384,0.00000004,0.00021148,-0.00004799,0.00000009,
 -0.00210074,0.00110566,0.00000060,-0.00042517,-0.00809158,-0.00000201,
 0.00129658,0.00093165,-0.00000057,0.00024602,0.00000369,-0.00000004,0.
 02861284,-0.33673699,-0.00005287,0.00221823,-0.01701626,-0.00000458,0.
 00012659,-0.00169893,0.00000097,0.00018464,0.00067336,-0.00000009,0.00
 245959,0.00056913,-0.00000018,0.00009422,0.00017211,0.,0.00003025,-0.0
 0010800,-0.00000003,0.00013257,-0.00001529,0.00000003,0.00039051,0.000
 75288,-0.00000008,-0.00011051,0.00007492,0.,-0.00000843,-0.00003684,0.
 ,-0.03066681,0.35882664,-0.00000041,-0.00000023,-0.00022364,0.00000014
 ,0.00000015,0.00021448,0.00000002,0.00000008,-0.00000955,-0.00000046,0
 .00000010,-0.00134476,-0.00000029,-0.00000358,0.00521351,0.00000101,-0
 .00000028,0.00257316,-0.00000010,0.00000003,-0.00005046,0.00000654,-0.
 00005323,-0.04595892,0.00000043,-0.00000274,0.00767989,-0.00000076,0.0
 0000149,-0.00821114,0.00000012,-0.00000020,0.00126207,0.00000076,-0.00
 000029,0.00061380,0.00000002,0.00000002,-0.00001379,0.00000001,-0.0000
 0002,0.00006952,0.00000002,0.00000002,-0.00029765,0.00000032,0.0000000
 9,0.00028739,-0.00000002,-0.00000001,0.00000416,0.00000002,0.,0.000030
 15,-0.00000771,0.00006014,0.02808098,0.00003626,0.00035107,0.,-0.00000
 367,-0.00001074,0.,-0.00014439,0.00008976,0.00000001,0.00019915,0.0000
 8860,0.00000002,0.00057618,0.00105050,-0.00000013,-0.00092648,-0.00100
 361,-0.00000002,0.00002482,0.00006640,0.00000001,0.00728745,-0.0280818
 2,-0.00000539,-0.05774290,0.00076498,0.00000101,0.00256207,0.03046572,
 0.00000544,0.00157896,-0.00214518,-0.00000055,-0.00629130,0.00254778,0
 .00000128,0.00021699,0.00026027,0.,0.00003243,-0.00014301,-0.00000002,
 -0.00003566,-0.00000311,0.,0.00014148,0.00015574,0.,-0.00187800,0.0011
 2336,0.00000004,-0.00000026,0.00000205,0.,-0.00407885,-0.00224641,0.00
 000036,0.05839921,0.00008446,0.00045443,0.00000014,-0.00004009,0.00001
 688,0.00000005,-0.00002076,-0.00019133,0.,-0.00024226,-0.00008437,0.00
 000003,0.00141180,-0.00045879,0.00000093,0.00039245,-0.00007194,0.0000
 0007,0.00017703,0.00001839,-0.00000005,0.00023154,-0.01255060,-0.00000
 330,0.00591371,-0.34903452,-0.00005859,-0.00491092,-0.01166004,-0.0000
 0220,-0.00002220,0.00229176,0.00000064,0.00270580,-0.00008779,-0.00000
 050,0.00007439,0.00017877,0.,0.00002189,-0.00009470,-0.00000002,-0.000
 02031,-0.00000745,0.,0.00004403,0.00009899,-0.00000003,0.00118590,0.00
 072739,-0.00000018,-0.00000683,-0.00002324,-0.00000001,-0.00200348,0.0
 0012285,-0.00000168,-0.00488156,0.37084012,0.00000022,0.00000019,-0.00
 032826,-0.00000006,-0.00000021,-0.00034653,-0.00000015,0.00000018,0.00
 007242,0.00000027,0.00000004,-0.00008264,-0.00000067,0.00000107,-0.006
 03317,-0.00000022,-0.00000012,-0.00017973,0.00000002,0.00000002,0.0001
 6483,0.00000063,-0.00000140,0.00537842,0.00000170,-0.00005875,-0.03730
 021,-0.00000056,-0.00000400,0.00182346,-0.00000055,0.00000068,-0.00154
 730,0.00000103,-0.00000063,0.00164936,0.,0.,0.00002609,0.,-0.00000001,
 0.00002425,0.,0.,0.00010553,0.00000004,0.00000002,0.00011199,0.0000002
 0,0.00000007,0.00116395,0.00000001,0.,0.00004463,0.00000050,-0.0000017
 0,0.01042993,-0.00000253,0.00006495,0.02409449,0.00009618,0.00005977,-
 0.00000006,-0.00023115,0.00010452,0.00000004,-0.00002042,-0.00022929,-
 0.00000002,-0.00010635,-0.00006402,0.00000002,0.00027952,-0.00009203,-
 0.00000007,-0.00004303,0.00011136,0.00000011,0.00028118,-0.00005888,-0
 .00000003,-0.00027416,-0.00030354,-0.00000012,0.00236106,-0.00044321,0
 .00000032,-0.00310133,0.01111817,0.00000267,-0.00365596,-0.00641311,-0
 .00000135,-0.47850194,0.12907705,0.00008110,0.00010093,0.00011825,0.,-
 0.00000386,-0.00005481,0.,0.00000564,-0.00000821,0.,-0.00002176,-0.000
 00206,0.,-0.00001268,0.00000437,0.00000002,-0.00003735,-0.00001902,0.,
 0.00013545,0.00008955,-0.00000004,0.00006486,-0.00008587,0.00000011,0.
 48269379,-0.00013388,-0.00002647,0.,0.00034282,-0.00013753,-0.00000001
 ,0.00008576,0.00035650,-0.00000001,0.00011157,0.00012249,0.00000005,-0
 .00014170,0.00044835,0.00000001,-0.00009666,-0.00018360,0.00000002,-0.
 00041472,0.00007305,0.00000004,-0.00078286,-0.00005023,0.00000022,-0.0
 0291985,-0.00708145,-0.00000234,0.06000420,-0.02112116,-0.00001246,-0.
 00579659,0.00788909,0.00000388,0.08082743,-0.07169824,-0.00002384,-0.0
 0019064,-0.00029157,-0.00000001,-0.00002768,0.00016541,0.00000002,-0.0
 0001772,0.00001303,0.,0.00004487,0.00001584,0.,0.00001903,0.00002910,-
 0.00000003,0.00005082,0.00004288,0.,0.00042558,0.00052808,0.00000011,0
 .00151436,-0.00050849,-0.00000037,-0.13292271,0.09143940,-0.00000005,0
 .,-0.00010838,0.00000011,-0.00000006,-0.00005614,0.,0.00000012,0.00010
 154,0.00000006,0.00000005,-0.00013098,-0.00000009,0.00000011,0.0000966
 3,-0.00000002,-0.00000009,0.00013632,-0.00000015,0.00000003,0.00000172
 ,-0.00000022,0.00000014,-0.00038845,-0.00000110,-0.00000225,0.00361526
 ,0.00001657,-0.00000810,0.00417582,-0.00000186,0.00000374,-0.00593103,
 0.00006898,-0.00002834,-0.01367800,-0.00000005,-0.00000007,-0.00001460
 ,0.,0.00000004,0.00003014,0.,0.,0.00000655,0.00000001,0.,0.00002450,0.
 00000001,0.00000001,0.00008263,0.00000002,0.00000001,0.00001383,0.0000
 0003,0.00000020,-0.00030174,0.00000044,-0.00000026,0.00074168,-0.00008
 270,0.00003472,0.01159679,-0.00015713,0.00000182,0.,0.00024709,0.00026
 642,0.00000002,0.00113358,0.00212633,0.00000015,-0.00047173,0.00045424
 ,0.00000014,0.00024470,-0.00007747,-0.00000005,-0.00002524,-0.00015788
 ,0.,0.00011290,-0.00017024,-0.00000003,0.00012882,0.00001664,-0.000000
 03,-0.00014366,-0.00000318,0.00000002,0.00022191,-0.00008399,-0.000000
 03,-0.00012772,-0.00000956,0.00000001,-0.00005562,0.00007048,0.0000000
 2,0.00972165,0.00410364,-0.00000017,-0.29289162,-0.10754747,0.00000685
 ,0.00001616,0.00001022,0.,0.00025461,-0.00048214,-0.00000008,0.0000043
 7,-0.00003661,0.,-0.00009529,0.00010938,0.00000004,0.00003038,-0.00000
 490,0.,-0.00000082,0.00000094,0.,0.00001109,-0.00001712,0.,0.30517875,
 0.00061417,-0.00033829,-0.00000003,-0.00231803,-0.00077338,0.00000007,
 0.00360531,-0.00423681,-0.00000144,0.00114295,-0.00050419,-0.00000014,
 -0.00046982,0.00007593,0.00000006,-0.00014333,0.00017015,0.,0.00045851
 ,0.00010820,-0.00000003,0.00012603,-0.00010952,-0.00000003,-0.00015990
 ,0.00002708,0.00000003,0.00014907,-0.00010001,-0.00000003,-0.00007519,
 0.00000639,0.,-0.00003364,0.00007676,0.00000002,-0.03541237,-0.0315731
 2,-0.00000092,-0.09310885,-0.08662481,0.00000357,-0.00012321,-0.000108
 08,0.,-0.00015514,0.00062380,0.00000013,-0.00002278,0.00002996,0.,-0.0
 0020618,-0.00019370,-0.00000003,-0.00002520,0.00001314,0.,0.00001323,0
 .00000894,0.,0.00000390,-0.00000904,0.,0.11140856,0.11250928,0.0000001
 4,-0.00000004,-0.00001309,-0.00000033,-0.00000023,0.00026996,0.0000005
 3,-0.00000077,0.00063162,0.00000024,-0.00000009,0.00027006,-0.00000009
 ,-0.00000004,0.00014899,-0.00000004,0.00000007,-0.00004031,0.00000002,
 0.00000005,-0.00011981,0.00000001,-0.00000003,0.00003680,-0.00000001,0
 .,0.00000782,0.,0.,-0.00000712,0.,0.,0.00000075,0.,0.,0.00000514,-0.00
 000623,-0.00000529,0.00027188,0.00000900,0.00000505,-0.05265216,-0.000
 00002,-0.00000001,-0.00003331,-0.00000005,0.00000020,-0.00045617,0.,0.
 ,-0.00002117,0.,-0.00000005,0.00017350,0.,0.,-0.00001256,0.,0.,-0.0000
 0235,0.,0.,-0.00000040,-0.00000785,-0.00000091,0.04728690,0.00029574,-
 0.00000942,-0.00002583,0.00032857,-0.00033519,-0.00014493,0.00032061,-
 0.00073160,0.00108475,0.00010518,0.00063133,0.00033675,-0.00014107,-0.
 00035158,-0.00035657,0.00000590,0.00040833,-0.00006835,-0.00029635,0.0
 0016029,0.00009963,-0.00010131,0.00001336,0.00001020,0.00015405,-0.000
 00250,0.00000112,-0.00022385,0.00009925,-0.00000008,0.00012841,0.00000
 282,0.00000225,0.00005958,-0.00008404,-0.00000310,-0.00075252,0.007602
 58,-0.00220711,-0.11862041,0.03148651,-0.10864609,0.00001756,0.0000262
 7,0.00000256,-0.00058531,-0.00084982,0.00094289,0.00000298,0.00001287,
 0.00006373,0.00014602,-0.00022819,-0.00014213,-0.00001516,-0.00000227,
 0.00001073,-0.00000877,-0.00000484,0.00000030,-0.00000985,0.00001785,-
 0.00000095,-0.01167094,0.00736958,-0.02459448,0.12171377,0.00082392,0.
 00025508,-0.00009361,0.00014697,-0.00182152,-0.00058080,0.00557707,0.0
 0493025,0.00137580,-0.00041554,0.00076272,-0.00031827,-0.00051355,-0.0
 0066494,-0.00027079,-0.00066434,0.00051132,-0.00007111,-0.00059724,-0.
 00029986,-0.00009427,0.00017210,-0.00008345,0.00002196,-0.00018227,0.0
 0001415,-0.00001148,0.00016014,-0.00009000,0.00000508,-0.00008309,-0.0
 0000107,-0.00000289,-0.00003272,0.00006923,-0.00000702,0.01949601,-0.0
 3121918,0.02952729,0.02756159,-0.06451917,0.04863976,-0.00001364,-0.00
 001591,0.00006853,-0.00075900,-0.00039212,0.00088346,-0.00001858,0.000
 01775,0.00005510,-0.00043875,0.00081864,0.00033332,-0.00001613,0.00001
 623,0.00001327,0.00001082,0.00000737,0.00000147,0.00000491,-0.00000772
 ,0.00000073,-0.00499040,0.00546262,-0.01116822,-0.04021427,0.08157645,
 -0.00010860,-0.00015041,-0.00002368,0.00027897,0.00034403,-0.00023958,
 -0.00107746,-0.00090194,0.00048936,-0.00092142,0.00086945,-0.00002820,
 0.00037451,-0.00027178,-0.00006251,0.00008120,-0.00004183,-0.00005692,
 0.00010153,-0.00010760,0.00005195,-0.00002289,0.00008862,0.00003154,0.
 00001734,-0.00002347,0.00000642,0.00003685,0.00006817,-0.00000926,-0.0
 0004054,-0.00003311,0.00000445,-0.00000690,-0.00005232,0.00001421,0.00
 229677,0.00509410,0.00755531,-0.10835767,0.05395500,-0.23565000,0.0000
 1243,0.00001042,0.00001543,0.00054948,-0.00036319,-0.00008137,0.000015
 36,-0.00005797,0.00002009,0.00003430,-0.00013252,-0.00001741,0.0000485
 6,-0.00001004,-0.00001743,-0.00001509,-0.00001112,-0.00000542,0.000006
 21,0.00000317,-0.00000683,0.00147241,-0.00135980,0.00212775,0.11943326
 ,-0.06261586,0.24567627,0.00029580,-0.00000939,0.00002583,0.00032861,-
 0.00033534,0.00014464,0.00032082,-0.00073114,-0.00108503,0.00010540,0.
 00063122,-0.00033661,-0.00014115,-0.00035163,0.00035645,0.00000589,0.0
 0040836,0.00006838,-0.00029643,0.00016032,-0.00009955,-0.00010129,0.00
 001333,-0.00001012,0.00015403,-0.00000249,-0.00000113,-0.00022385,0.00
 009923,0.00000015,0.00012841,0.00000282,-0.00000228,0.00005958,-0.0000
 8403,0.00000305,-0.00075292,0.00760051,0.00221145,-0.11857839,0.031442
 73,0.10863335,0.00001756,0.00002627,-0.00000255,-0.00058544,-0.0008493
 9,-0.00094295,0.00000296,0.00001290,-0.00006372,0.00014604,-0.00022817
 ,0.00014206,-0.00001518,-0.00000227,-0.00001073,-0.00000876,-0.0000048
 4,-0.00000030,-0.00000985,0.00001785,0.00000096,-0.01166623,0.00736233
 ,0.02459918,0.00914717,-0.00501400,-0.01420857,0.12166722,0.00082399,0
 .00025510,0.00009347,0.00014721,-0.00182159,0.00058051,0.00557648,0.00
 493096,-0.00137583,-0.00041560,0.00076282,0.00031854,-0.00051342,-0.00
 066520,0.00027078,-0.00066438,0.00051136,0.00007138,-0.00059714,-0.000
 29983,0.00009433,0.00017208,-0.00008340,-0.00002202,-0.00018225,0.0000
 1414,0.00001149,0.00016014,-0.00008998,-0.00000514,-0.00008310,-0.0000
 0108,0.00000290,-0.00003272,0.00006921,0.00000706,0.01949074,-0.031208
 93,-0.02954279,0.02751866,-0.06448735,-0.04859186,-0.00001364,-0.00001
 589,-0.00006853,-0.00075907,-0.00039189,-0.00088337,-0.00001859,0.0000
 1774,-0.00005509,-0.00043875,0.00081858,-0.00033311,-0.00001612,0.0000
 1623,-0.00001326,0.00001082,0.00000737,-0.00000147,0.00000491,-0.00000
 771,-0.00000074,-0.00498772,0.00545870,0.01117028,-0.00501732,0.004673
 13,0.00569997,-0.04016519,0.08153753,0.00010883,0.00015052,-0.00002364
 ,-0.00027911,-0.00034455,-0.00023948,0.00107910,0.00090345,0.00048932,
 0.00092118,-0.00086924,-0.00002836,-0.00037461,0.00027158,-0.00006232,
 -0.00008147,0.00004192,-0.00005691,-0.00010163,0.00010747,0.00005203,0
 .00002297,-0.00008866,0.00003152,-0.00001741,0.00002347,0.00000643,-0.
 00003676,-0.00006821,-0.00000929,0.00004050,0.00003311,0.00000445,0.00
 000688,0.00005236,0.00001424,-0.00228886,-0.00510728,0.00754435,0.1083
 4380,-0.05390811,-0.23572390,-0.00001244,-0.00001044,0.00001541,-0.000
 54960,0.00036332,-0.00008136,-0.00001536,0.00005796,0.00002009,-0.0000
 3445,0.00013282,-0.00001749,-0.00004856,0.00001005,-0.00001742,0.00001
 510,0.00001112,-0.00000541,-0.00000620,-0.00000317,-0.00000683,-0.0014
 7139,0.00135947,0.00212729,0.01420146,-0.00569147,-0.01979415,-0.11942
 196,0.06257251,0.24576143\\-0.00001026,-0.00000535,-0.00000009,0.00002
 561,-0.00000317,0.00000005,0.00003689,0.00001090,0.00000030,-0.0000225
 5,0.00000203,-0.00000028,0.00002896,0.00000173,-0.00000083,-0.00002476
 ,0.00000118,0.00000015,-0.00001265,0.00002839,-0.00000002,-0.00002290,
 -0.00000282,0.00000089,0.00002125,-0.00000778,0.00000605,-0.00005708,-
 0.00003828,-0.00002127,0.00002569,0.00001534,0.00000798,0.00000683,0.0
 0003444,0.00000651,-0.00001522,-0.00002139,-0.00000041,-0.00000437,0.0
 0000122,0.00000024,0.00000438,0.00000048,0.,-0.00000210,-0.00000275,-0
 .00000002,-0.00000626,-0.00000133,0.00000005,0.00000448,-0.00001404,0.
 ,0.00000656,0.00000277,0.00000032,0.00000490,-0.00000261,0.00000029,-0
 .00000023,0.00000539,0.00000006,0.00000474,-0.00000207,0.00000003,0.00
 000409,-0.00000113,-0.00000126,0.00000400,-0.00000118,0.00000123\\\@


 "THE TIME HAS COME", THE WALRUS SAID,
 "TO TALK OF MANY THINGS,
 OF SHOES AND SHIPS AND SEALING WAX,
 OF CABBAGES AND KINGS,
 AND WHY THE SEA IS BOILING HOT,
 AND WHETHER PIGS HAVE WINGS."
 Job cpu time:       0 days  1 hours 34 minutes  2.7 seconds.
 File lengths (MBytes):  RWF=    250 Int=      0 D2E=      0 Chk=      9 Scr=      1
 Normal termination of Gaussian 09 at Thu Jun 20 11:51:12 2024.
