 Entering Gaussian System, Link 0=g09
 Input=m062xFAyang.gjf
 Output=m062xFAyang.log
 Initial command:
 /home/phzd/g09E/g09/l1.exe "/home/phzd/g09E/scratch/Gau-578530.inp" -scrdir="/home/phzd/g09E/scratch/"
 Default is to use a total of  18 processors:
                               18 via shared-memory
                                1 via Linda
 Entering Link 1 = /home/phzd/g09E/g09/l1.exe PID=    578532.
  
 Copyright (c) 1988,1990,1992,1993,1995,1998,2003,2009,2015,
            Gaussian, Inc.  All Rights Reserved.
  
 This is part of the Gaussian(R) 09 program.  It is based on
 the Gaussian(R) 03 system (copyright 2003, Gaussian, Inc.),
 the Gaussian(R) 98 system (copyright 1998, Gaussian, Inc.),
 the Gaussian(R) 94 system (copyright 1995, Gaussian, Inc.),
 the Gaussian 92(TM) system (copyright 1992, Gaussian, Inc.),
 the Gaussian 90(TM) system (copyright 1990, Gaussian, Inc.),
 the Gaussian 88(TM) system (copyright 1988, Gaussian, Inc.),
 the Gaussian 86(TM) system (copyright 1986, Carnegie Mellon
 University), and the Gaussian 82(TM) system (copyright 1983,
 Carnegie Mellon University). Gaussian is a federally registered
 trademark of Gaussian, Inc.
  
 This software contains proprietary and confidential information,
 including trade secrets, belonging to Gaussian, Inc.
  
 This software is provided under written license and may be
 used, copied, transmitted, or stored only in accord with that
 written license.
  
 The following legend is applicable only to US Government
 contracts under FAR:
  
                    RESTRICTED RIGHTS LEGEND
  
 Use, reproduction and disclosure by the US Government is
 subject to restrictions as set forth in subparagraphs (a)
 and (c) of the Commercial Computer Software - Restricted
 Rights clause in FAR 52.227-19.
  
 Gaussian, Inc.
 340 Quinnipiac St., Bldg. 40, Wallingford CT 06492
  
  
 ---------------------------------------------------------------
 Warning -- This program may not be used in any manner that
 competes with the business of Gaussian, Inc. or will provide
 assistance to any competitor of Gaussian, Inc.  The licensee
 of this program is prohibited from giving any competitor of
 Gaussian, Inc. access to this program.  By using this program,
 the user acknowledges that Gaussian, Inc. is engaged in the
 business of creating and licensing software in the field of
 computational chemistry and represents and warrants to the
 licensee that it is not a competitor of Gaussian, Inc. and that
 it will not use this program in any manner prohibited above.
 ---------------------------------------------------------------
  

 Cite this work as:
 Gaussian 09, Revision E.01,
 M. J. Frisch, G. W. Trucks, H. B. Schlegel, G. E. Scuseria, 
 M. A. Robb, J. R. Cheeseman, G. Scalmani, V. Barone, B. Mennucci, 
 G. A. Petersson, H. Nakatsuji, M. Caricato, X. Li, H. P. Hratchian, 
 A. F. Izmaylov, J. Bloino, G. Zheng, J. L. Sonnenberg, M. Hada, 
 M. Ehara, K. Toyota, R. Fukuda, J. Hasegawa, M. Ishida, T. Nakajima, 
 Y. Honda, O. Kitao, H. Nakai, T. Vreven, J. A. Montgomery, Jr., 
 J. E. Peralta, F. Ogliaro, M. Bearpark, J. J. Heyd, E. Brothers, 
 K. N. Kudin, V. N. Staroverov, T. Keith, R. Kobayashi, J. Normand, 
 K. Raghavachari, A. Rendell, J. C. Burant, S. S. Iyengar, J. Tomasi, 
 M. Cossi, N. Rega, J. M. Millam, M. Klene, J. E. Knox, J. B. Cross, 
 V. Bakken, C. Adamo, J. Jaramillo, R. Gomperts, R. E. Stratmann, 
 O. Yazyev, A. J. Austin, R. Cammi, C. Pomelli, J. W. Ochterski, 
 R. L. Martin, K. Morokuma, V. G. Zakrzewski, G. A. Voth, 
 P. Salvador, J. J. Dannenberg, S. Dapprich, A. D. Daniels, 
 O. Farkas, J. B. Foresman, J. V. Ortiz, J. Cioslowski, 
 and D. J. Fox, Gaussian, Inc., Wallingford CT, 2013.
 
 ******************************************
 Gaussian 09:  ES64L-G09RevE.01 30-Nov-2015
                28-May-2024 
 ******************************************
 %chk=m062xFAyang.chk
 ----------------------------
 # opt freq m062x/6-31+g(d,p)
 ----------------------------
 1/14=-1,18=20,19=15,26=3,38=1/1,3;
 2/9=110,12=2,17=6,18=5,40=1/2;
 3/5=1,6=6,7=111,11=2,16=1,25=1,30=1,71=1,74=-55/1,2,3;
 4//1;
 5/5=2,38=5/2;
 6/7=2,8=2,9=2,10=2,28=1/1;
 7//1,2,3,16;
 1/14=-1,18=20,19=15,26=3/3(2);
 2/9=110/2;
 99//99;
 2/9=110/2;
 3/5=1,6=6,7=111,11=2,16=1,25=1,30=1,71=1,74=-55/1,2,3;
 4/5=5,16=3,69=1/1;
 5/5=2,38=5/2;
 7//1,2,3,16;
 1/14=-1,18=20,19=15,26=3/3(-5);
 2/9=110/2;
 6/7=2,8=2,9=2,10=2,19=2,28=1/1;
 99/9=1/99;
 ----------
 [No Title]
 ----------
 Symbolic Z-matrix:
 Charge =  1 Multiplicity = 1
 C                    -1.47     -2.03014   0.02367 
 C                    -2.51323  -1.08952   0.01183 
 C                    -2.23182   0.30784  -0.00512 
 C                    -0.92297   0.73727  -0.01182 
 C                     0.14691  -0.20925  -0.00255 
 C                    -0.16138  -1.59778   0.01818 
 O                    -3.77305  -1.51471   0.01798 
 C                     1.473     0.27977  -0.01087 
 C                     2.64514  -0.46845  -0.01751 
 C                     3.89469   0.13472   0.00009 
 O                     4.96722  -0.63418  -0.10651 
 O                     4.01808   1.45002   0.13179 
 O                    -3.34939   1.07443  -0.01323 
 C                    -3.20854   2.50158  -0.0298 
 H                    -1.72486  -3.08349   0.03897 
 H                    -0.69016   1.79541  -0.0251 
 H                     0.63377  -2.33344   0.03022 
 H                    -4.37754  -0.75037   0.00912 
 H                     1.58586   1.36181  -0.01166 
 H                     2.64973  -1.55036  -0.03728 
 H                     5.80557  -0.20339   0.12542 
 H                     4.88566   1.80074  -0.12496 
 H                    -4.22227   2.89775  -0.03239 
 H                    -2.67794   2.84267   0.86502 
 H                    -2.68149   2.82203  -0.93432 
 

 GradGradGradGradGradGradGradGradGradGradGradGradGradGradGradGradGradGrad
 Berny optimization.
 Initialization pass.
                           ----------------------------
                           !    Initial Parameters    !
                           ! (Angstroms and Degrees)  !
 --------------------------                            --------------------------
 ! Name  Definition              Value          Derivative Info.                !
 --------------------------------------------------------------------------------
 ! R1    R(1,2)                  1.4047         estimate D2E/DX2                !
 ! R2    R(1,6)                  1.3782         estimate D2E/DX2                !
 ! R3    R(1,15)                 1.0838         estimate D2E/DX2                !
 ! R4    R(2,3)                  1.4255         estimate D2E/DX2                !
 ! R5    R(2,7)                  1.3297         estimate D2E/DX2                !
 ! R6    R(3,4)                  1.3775         estimate D2E/DX2                !
 ! R7    R(3,13)                 1.3552         estimate D2E/DX2                !
 ! R8    R(4,5)                  1.4285         estimate D2E/DX2                !
 ! R9    R(4,16)                 1.0835         estimate D2E/DX2                !
 ! R10   R(5,6)                  1.4225         estimate D2E/DX2                !
 ! R11   R(5,8)                  1.4134         estimate D2E/DX2                !
 ! R12   R(6,17)                 1.0833         estimate D2E/DX2                !
 ! R13   R(7,18)                 0.9745         estimate D2E/DX2                !
 ! R14   R(8,9)                  1.3906         estimate D2E/DX2                !
 ! R15   R(8,19)                 1.0879         estimate D2E/DX2                !
 ! R16   R(9,10)                 1.3876         estimate D2E/DX2                !
 ! R17   R(9,20)                 1.0821         estimate D2E/DX2                !
 ! R18   R(10,11)                1.324          estimate D2E/DX2                !
 ! R19   R(10,12)                1.3276         estimate D2E/DX2                !
 ! R20   R(11,21)                0.9707         estimate D2E/DX2                !
 ! R21   R(12,22)                0.9704         estimate D2E/DX2                !
 ! R22   R(13,14)                1.4342         estimate D2E/DX2                !
 ! R23   R(14,23)                1.0884         estimate D2E/DX2                !
 ! R24   R(14,24)                1.0948         estimate D2E/DX2                !
 ! R25   R(14,25)                1.0948         estimate D2E/DX2                !
 ! A1    A(2,1,6)              119.674          estimate D2E/DX2                !
 ! A2    A(2,1,15)             118.4411         estimate D2E/DX2                !
 ! A3    A(6,1,15)             121.8848         estimate D2E/DX2                !
 ! A4    A(1,2,3)              120.6559         estimate D2E/DX2                !
 ! A5    A(1,2,7)              119.3074         estimate D2E/DX2                !
 ! A6    A(3,2,7)              120.0367         estimate D2E/DX2                !
 ! A7    A(2,3,4)              119.5521         estimate D2E/DX2                !
 ! A8    A(2,3,13)             113.0643         estimate D2E/DX2                !
 ! A9    A(4,3,13)             127.3836         estimate D2E/DX2                !
 ! A10   A(3,4,5)              120.3327         estimate D2E/DX2                !
 ! A11   A(3,4,16)             120.5738         estimate D2E/DX2                !
 ! A12   A(5,4,16)             119.0935         estimate D2E/DX2                !
 ! A13   A(4,5,6)              118.9832         estimate D2E/DX2                !
 ! A14   A(4,5,8)              118.2542         estimate D2E/DX2                !
 ! A15   A(6,5,8)              122.7623         estimate D2E/DX2                !
 ! A16   A(1,6,5)              120.8015         estimate D2E/DX2                !
 ! A17   A(1,6,17)             118.9375         estimate D2E/DX2                !
 ! A18   A(5,6,17)             120.261          estimate D2E/DX2                !
 ! A19   A(2,7,18)             109.6862         estimate D2E/DX2                !
 ! A20   A(5,8,9)              127.2063         estimate D2E/DX2                !
 ! A21   A(5,8,19)             116.1971         estimate D2E/DX2                !
 ! A22   A(9,8,19)             116.5966         estimate D2E/DX2                !
 ! A23   A(8,9,10)             121.6741         estimate D2E/DX2                !
 ! A24   A(8,9,20)             122.7943         estimate D2E/DX2                !
 ! A25   A(10,9,20)            115.5316         estimate D2E/DX2                !
 ! A26   A(9,10,11)            118.426          estimate D2E/DX2                !
 ! A27   A(9,10,12)            121.0369         estimate D2E/DX2                !
 ! A28   A(11,10,12)           120.5347         estimate D2E/DX2                !
 ! A29   A(10,11,21)           115.0035         estimate D2E/DX2                !
 ! A30   A(10,12,22)           114.5143         estimate D2E/DX2                !
 ! A31   A(3,13,14)            118.8136         estimate D2E/DX2                !
 ! A32   A(13,14,23)           105.7098         estimate D2E/DX2                !
 ! A33   A(13,14,24)           110.3762         estimate D2E/DX2                !
 ! A34   A(13,14,25)           110.3705         estimate D2E/DX2                !
 ! A35   A(23,14,24)           109.8735         estimate D2E/DX2                !
 ! A36   A(23,14,25)           109.8691         estimate D2E/DX2                !
 ! A37   A(24,14,25)           110.5342         estimate D2E/DX2                !
 ! D1    D(6,1,2,3)             -0.0323         estimate D2E/DX2                !
 ! D2    D(6,1,2,7)           -179.963          estimate D2E/DX2                !
 ! D3    D(15,1,2,3)           179.8476         estimate D2E/DX2                !
 ! D4    D(15,1,2,7)            -0.0831         estimate D2E/DX2                !
 ! D5    D(2,1,6,5)             -0.1498         estimate D2E/DX2                !
 ! D6    D(2,1,6,17)           179.8323         estimate D2E/DX2                !
 ! D7    D(15,1,6,5)           179.9745         estimate D2E/DX2                !
 ! D8    D(15,1,6,17)           -0.0434         estimate D2E/DX2                !
 ! D9    D(1,2,3,4)              0.0918         estimate D2E/DX2                !
 ! D10   D(1,2,3,13)          -179.9251         estimate D2E/DX2                !
 ! D11   D(7,2,3,4)           -179.978          estimate D2E/DX2                !
 ! D12   D(7,2,3,13)             0.0051         estimate D2E/DX2                !
 ! D13   D(1,2,7,18)           179.9459         estimate D2E/DX2                !
 ! D14   D(3,2,7,18)             0.0147         estimate D2E/DX2                !
 ! D15   D(2,3,4,5)              0.0311         estimate D2E/DX2                !
 ! D16   D(2,3,4,16)           179.9744         estimate D2E/DX2                !
 ! D17   D(13,3,4,5)          -179.9494         estimate D2E/DX2                !
 ! D18   D(13,3,4,16)           -0.0061         estimate D2E/DX2                !
 ! D19   D(2,3,13,14)          179.9724         estimate D2E/DX2                !
 ! D20   D(4,3,13,14)           -0.046          estimate D2E/DX2                !
 ! D21   D(3,4,5,6)             -0.2078         estimate D2E/DX2                !
 ! D22   D(3,4,5,8)            179.9575         estimate D2E/DX2                !
 ! D23   D(16,4,5,6)           179.8481         estimate D2E/DX2                !
 ! D24   D(16,4,5,8)             0.0134         estimate D2E/DX2                !
 ! D25   D(4,5,6,1)              0.2691         estimate D2E/DX2                !
 ! D26   D(4,5,6,17)          -179.7127         estimate D2E/DX2                !
 ! D27   D(8,5,6,1)           -179.9041         estimate D2E/DX2                !
 ! D28   D(8,5,6,17)             0.1141         estimate D2E/DX2                !
 ! D29   D(4,5,8,9)           -179.3093         estimate D2E/DX2                !
 ! D30   D(4,5,8,19)             0.7238         estimate D2E/DX2                !
 ! D31   D(6,5,8,9)              0.8627         estimate D2E/DX2                !
 ! D32   D(6,5,8,19)          -179.1042         estimate D2E/DX2                !
 ! D33   D(5,8,9,10)          -178.761          estimate D2E/DX2                !
 ! D34   D(5,8,9,20)             1.2854         estimate D2E/DX2                !
 ! D35   D(19,8,9,10)            1.2059         estimate D2E/DX2                !
 ! D36   D(19,8,9,20)         -178.7478         estimate D2E/DX2                !
 ! D37   D(8,9,10,11)         -175.121          estimate D2E/DX2                !
 ! D38   D(8,9,10,12)            5.4388         estimate D2E/DX2                !
 ! D39   D(20,9,10,11)           4.8358         estimate D2E/DX2                !
 ! D40   D(20,9,10,12)        -174.6044         estimate D2E/DX2                !
 ! D41   D(9,10,11,21)        -165.7477         estimate D2E/DX2                !
 ! D42   D(12,10,11,21)         13.6955         estimate D2E/DX2                !
 ! D43   D(9,10,12,22)        -162.8481         estimate D2E/DX2                !
 ! D44   D(11,10,12,22)         17.7235         estimate D2E/DX2                !
 ! D45   D(3,13,14,23)        -179.9282         estimate D2E/DX2                !
 ! D46   D(3,13,14,24)         -61.1657         estimate D2E/DX2                !
 ! D47   D(3,13,14,25)          61.3177         estimate D2E/DX2                !
 --------------------------------------------------------------------------------
 Trust Radius=3.00D-01 FncErr=1.00D-07 GrdErr=1.00D-06
 Number of steps in this run=    119 maximum allowed number of steps=    150.
 GradGradGradGradGradGradGradGradGradGradGradGradGradGradGradGradGradGrad

                          Input orientation:                          
 ---------------------------------------------------------------------
 Center     Atomic      Atomic             Coordinates (Angstroms)
 Number     Number       Type             X           Y           Z
 ---------------------------------------------------------------------
      1          6           0       -1.469995   -2.030139    0.023674
      2          6           0       -2.513225   -1.089521    0.011833
      3          6           0       -2.231818    0.307835   -0.005118
      4          6           0       -0.922965    0.737272   -0.011820
      5          6           0        0.146913   -0.209254   -0.002547
      6          6           0       -0.161381   -1.597781    0.018180
      7          8           0       -3.773054   -1.514712    0.017983
      8          6           0        1.472998    0.279774   -0.010873
      9          6           0        2.645135   -0.468448   -0.017510
     10          6           0        3.894687    0.134717    0.000094
     11          8           0        4.967218   -0.634181   -0.106509
     12          8           0        4.018076    1.450018    0.131794
     13          8           0       -3.349387    1.074433   -0.013231
     14          6           0       -3.208537    2.501577   -0.029802
     15          1           0       -1.724857   -3.083486    0.038972
     16          1           0       -0.690164    1.795406   -0.025097
     17          1           0        0.633773   -2.333436    0.030217
     18          1           0       -4.377544   -0.750374    0.009116
     19          1           0        1.585857    1.361810   -0.011655
     20          1           0        2.649727   -1.550362   -0.037282
     21          1           0        5.805565   -0.203389    0.125423
     22          1           0        4.885657    1.800738   -0.124958
     23          1           0       -4.222270    2.897747   -0.032393
     24          1           0       -2.677939    2.842670    0.865024
     25          1           0       -2.681489    2.822028   -0.934317
 ---------------------------------------------------------------------
                    Distance matrix (angstroms):
                    1          2          3          4          5
     1  C    0.000000
     2  C    1.404718   0.000000
     3  C    2.459131   1.425511   0.000000
     4  C    2.821182   2.422119   1.377519   0.000000
     5  C    2.435303   2.802037   2.434286   1.428508   0.000000
     6  C    1.378200   2.406146   2.814005   2.456295   1.422491
     7  O    2.360038   1.329659   2.386969   3.632537   4.131680
     8  C    3.741403   4.214909   3.704927   2.439251   1.413407
     9  C    4.401689   5.195697   4.938364   3.766315   2.511676
    10  C    5.785064   6.523820   6.128953   4.855202   3.763527
    11  O    6.588122   7.495223   7.261115   6.048480   4.840115
    12  O    6.499393   7.008676   6.354880   4.994248   4.213921
    13  O    3.629303   2.320020   1.355249   2.449735   3.724524
    14  C    4.854054   3.658029   2.401477   2.887375   4.313745
    15  H    1.083849   2.144331   3.429287   3.904331   3.430227
    16  H    3.904524   3.412875   2.142420   1.083522   2.172526
    17  H    2.125529   3.383971   3.897329   3.443029   2.179508
    18  H    3.176767   1.894918   2.392519   3.761336   4.556716
    19  H    4.565610   4.776196   3.960499   2.585389   2.130466
    20  H    4.148013   5.183711   5.223353   4.242410   2.839693
    21  H    7.502076   8.366624   8.054683   6.795351   5.660102
    22  H    7.422400   7.944543   7.273347   5.906255   5.148859
    23  H    5.644663   4.338329   3.266541   3.943791   5.361353
    24  H    5.090311   4.027057   2.716903   2.877758   4.248142
    25  H    5.092052   4.027869   2.717863   2.879169   4.249320
                    6          7          8          9         10
     6  C    0.000000
     7  O    3.612628   0.000000
     8  C    2.489428   5.544554   0.000000
     9  C    3.025425   6.503005   1.390606   0.000000
    10  C    4.410619   7.843162   2.426054   1.387623   0.000000
    11  O    5.219828   8.785396   3.613037   2.329690   1.323968
    12  O    5.173959   8.336923   2.804861   2.363847   1.327624
    13  O    4.159939   2.623764   4.887421   6.189895   7.304783
    14  C    5.108052   4.056050   5.182040   6.564044   7.487237
    15  H    2.156898   2.580039   4.641151   5.092980   6.475926
    16  H    3.434414   4.523599   2.641328   4.031044   4.876411
    17  H    1.083330   4.482252   2.744969   2.743362   4.089773
    18  H    4.300490   0.974525   5.940576   7.028386   8.319451
    19  H    3.436991   6.082202   1.087906   2.114698   2.614688
    20  H    2.812055   6.423118   2.175956   1.082104   2.095427
    21  H    6.128644   9.668560   4.361555   3.174745   1.944602
    22  H    6.086297   9.272859   3.737993   3.190719   1.942495
    23  H    6.058312   4.435553   6.268199   7.648055   8.574403
    24  H    5.173762   4.572038   4.956401   6.330678   7.161042
    25  H    5.176186   4.572276   4.957375   6.327771   7.165253
                   11         12         13         14         15
    11  O    0.000000
    12  O    2.302508   0.000000
    13  O    8.490817   7.378456   0.000000
    14  C    8.756816   7.304507   1.434173   0.000000
    15  H    7.127701   7.317278   4.464316   5.779184   0.000000
    16  H    6.157556   4.723498   2.755251   2.615512   4.987813
    17  H    4.656706   5.077238   5.242234   6.176107   2.475033
    18  H    9.346200   8.680047   2.094642   3.455905   3.532853
    19  H    3.927668   2.438042   4.943604   4.928043   5.542928
    20  H    2.492979   3.302006   6.548244   7.123028   4.636083
    21  H    0.970670   2.434936   9.244739   9.412490   8.062859
    22  H    2.436354   0.970373   8.267766   8.125036   8.220791
    23  H    9.845136   8.368165   2.021575   1.088399   6.482076
    24  H    8.454632   6.878497   2.085386   1.094802   6.058882
    25  H    8.434060   6.921212   2.085324   1.094813   6.061149
                   16         17         18         19         20
    16  H    0.000000
    17  H    4.336266   0.000000
    18  H    4.480953   5.255457   0.000000
    19  H    2.316993   3.816158   6.326445   0.000000
    20  H    4.727492   2.163754   7.072812   3.100520   0.000000
    21  H    6.797965   5.594068  10.198452   4.502730   3.435131
    22  H    5.576718   5.932452   9.609008   3.330792   4.029509
    23  H    3.700133   7.137951   3.651660   6.007818   8.185966
    24  H    2.416677   6.201323   4.065858   4.597985   6.963972
    25  H    2.417852   6.204845   4.065553   4.603671   6.953009
                   21         22         23         24         25
    21  H    0.000000
    22  H    2.219335   0.000000
    23  H   10.497591   9.174221   0.000000
    24  H    9.044077   7.698940   1.786994   0.000000
    25  H    9.072281   7.678528   1.786954   1.799463   0.000000
 Stoichiometry    C10H11O4(1+)
 Framework group  C1[X(C10H11O4)]
 Deg. of freedom    69
 Full point group                 C1      NOp   1
 Largest Abelian subgroup         C1      NOp   1
 Largest concise Abelian subgroup C1      NOp   1
                         Standard orientation:                         
 ---------------------------------------------------------------------
 Center     Atomic      Atomic             Coordinates (Angstroms)
 Number     Number       Type             X           Y           Z
 ---------------------------------------------------------------------
      1          6           0        1.469995   -2.030139   -0.023674
      2          6           0        2.513225   -1.089521   -0.011833
      3          6           0        2.231818    0.307835    0.005118
      4          6           0        0.922965    0.737272    0.011820
      5          6           0       -0.146913   -0.209254    0.002547
      6          6           0        0.161381   -1.597781   -0.018180
      7          8           0        3.773054   -1.514712   -0.017983
      8          6           0       -1.472998    0.279774    0.010873
      9          6           0       -2.645135   -0.468448    0.017510
     10          6           0       -3.894687    0.134717   -0.000094
     11          8           0       -4.967218   -0.634181    0.106509
     12          8           0       -4.018076    1.450018   -0.131794
     13          8           0        3.349387    1.074433    0.013231
     14          6           0        3.208537    2.501577    0.029802
     15          1           0        1.724857   -3.083486   -0.038972
     16          1           0        0.690164    1.795406    0.025097
     17          1           0       -0.633773   -2.333436   -0.030217
     18          1           0        4.377544   -0.750374   -0.009116
     19          1           0       -1.585857    1.361810    0.011655
     20          1           0       -2.649727   -1.550362    0.037282
     21          1           0       -5.805565   -0.203389   -0.125423
     22          1           0       -4.885657    1.800738    0.124958
     23          1           0        4.222270    2.897747    0.032393
     24          1           0        2.677939    2.842670   -0.865024
     25          1           0        2.681489    2.822028    0.934317
 ---------------------------------------------------------------------
 Rotational constants (GHZ):      1.5333472      0.2849645      0.2408013
 Standard basis: 6-31+G(d,p) (6D, 7F)
 There are   321 symmetry adapted cartesian basis functions of A   symmetry.
 There are   321 symmetry adapted basis functions of A   symmetry.
   321 basis functions,   525 primitive gaussians,   321 cartesian basis functions
    51 alpha electrons       51 beta electrons
       nuclear repulsion energy       838.5196916743 Hartrees.
 NAtoms=   25 NActive=   25 NUniq=   25 SFac= 1.00D+00 NAtFMM=   60 NAOKFM=F Big=F
 Integral buffers will be    131072 words long.
 Raffenetti 2 integral format.
 Two-electron integral symmetry is turned on.
 One-electron integrals computed using PRISM.
 NBasis=   321 RedAO= T EigKep=  1.40D-06  NBF=   321
 NBsUse=   320 1.00D-06 EigRej=  6.62D-07 NBFU=   320
 ExpMin= 4.38D-02 ExpMax= 5.48D+03 ExpMxC= 8.25D+02 IAcc=2 IRadAn=         4 AccDes= 0.00D+00
 Harris functional with IExCor= 1009 and IRadAn=       4 diagonalized for initial guess.
 HarFok:  IExCor= 1009 AccDes= 0.00D+00 IRadAn=         4 IDoV= 1 UseB2=F ITyADJ=14
 ICtDFT=  3500011 ScaDFX=  1.000000  1.000000  1.000000  1.000000
 FoFCou: FMM=F IPFlag=           0 FMFlag=      100000 FMFlg1=           0
         NFxFlg=           0 DoJE=T BraDBF=F KetDBF=T FulRan=T
         wScrn=  0.000000 ICntrl=     500 IOpCl=  0 I1Cent=   200000004 NGrid=           0
         NMat0=    1 NMatS0=      1 NMatT0=    0 NMatD0=    1 NMtDS0=    0 NMtDT0=    0
 Petite list used in FoFCou.
 Requested convergence on RMS density matrix=1.00D-08 within 128 cycles.
 Requested convergence on MAX density matrix=1.00D-06.
 Requested convergence on             energy=1.00D-06.
 No special actions if energy rises.
 SCF Done:  E(RM062X) =  -688.067976700     A.U. after   15 cycles
            NFock= 15  Conv=0.58D-08     -V/T= 2.0086

 **********************************************************************

            Population analysis using the SCF density.

 **********************************************************************

 Orbital symmetries:
       Occupied  (A) (A) (A) (A) (A) (A) (A) (A) (A) (A) (A) (A)
                 (A) (A) (A) (A) (A) (A) (A) (A) (A) (A) (A) (A)
                 (A) (A) (A) (A) (A) (A) (A) (A) (A) (A) (A) (A)
                 (A) (A) (A) (A) (A) (A) (A) (A) (A) (A) (A) (A)
                 (A) (A) (A)
       Virtual   (A) (A) (A) (A) (A) (A) (A) (A) (A) (A) (A) (A)
                 (A) (A) (A) (A) (A) (A) (A) (A) (A) (A) (A) (A)
                 (A) (A) (A) (A) (A) (A) (A) (A) (A) (A) (A) (A)
                 (A) (A) (A) (A) (A) (A) (A) (A) (A) (A) (A) (A)
                 (A) (A) (A) (A) (A) (A) (A) (A) (A) (A) (A) (A)
                 (A) (A) (A) (A) (A) (A) (A) (A) (A) (A) (A) (A)
                 (A) (A) (A) (A) (A) (A) (A) (A) (A) (A) (A) (A)
                 (A) (A) (A) (A) (A) (A) (A) (A) (A) (A) (A) (A)
                 (A) (A) (A) (A) (A) (A) (A) (A) (A) (A) (A) (A)
                 (A) (A) (A) (A) (A) (A) (A) (A) (A) (A) (A) (A)
                 (A) (A) (A) (A) (A) (A) (A) (A) (A) (A) (A) (A)
                 (A) (A) (A) (A) (A) (A) (A) (A) (A) (A) (A) (A)
                 (A) (A) (A) (A) (A) (A) (A) (A) (A) (A) (A) (A)
                 (A) (A) (A) (A) (A) (A) (A) (A) (A) (A) (A) (A)
                 (A) (A) (A) (A) (A) (A) (A) (A) (A) (A) (A) (A)
                 (A) (A) (A) (A) (A) (A) (A) (A) (A) (A) (A) (A)
                 (A) (A) (A) (A) (A) (A) (A) (A) (A) (A) (A) (A)
                 (A) (A) (A) (A) (A) (A) (A) (A) (A) (A) (A) (A)
                 (A) (A) (A) (A) (A) (A) (A) (A) (A) (A) (A) (A)
                 (A) (A) (A) (A) (A) (A) (A) (A) (A) (A) (A) (A)
                 (A) (A) (A) (A) (A) (A) (A) (A) (A) (A) (A) (A)
                 (A) (A) (A) (A) (A) (A) (A) (A) (A) (A) (A) (A)
                 (A) (A) (A) (A) (A)
 The electronic state is 1-A.
 Alpha  occ. eigenvalues --  -19.88504 -19.88295 -19.81887 -19.81575 -10.88909
 Alpha  occ. eigenvalues --  -10.77575 -10.75746 -10.75295 -10.72188 -10.71564
 Alpha  occ. eigenvalues --  -10.71293 -10.70978 -10.70896 -10.69289  -1.44028
 Alpha  occ. eigenvalues --   -1.35945  -1.34828  -1.31634  -1.11691  -1.07529
 Alpha  occ. eigenvalues --   -1.01221  -0.99824  -0.94539  -0.92094  -0.88102
 Alpha  occ. eigenvalues --   -0.86599  -0.83441  -0.80175  -0.78069  -0.75603
 Alpha  occ. eigenvalues --   -0.73128  -0.72372  -0.71496  -0.69848  -0.68192
 Alpha  occ. eigenvalues --   -0.66011  -0.65138  -0.63552  -0.63367  -0.63010
 Alpha  occ. eigenvalues --   -0.62742  -0.61132  -0.59460  -0.58872  -0.57692
 Alpha  occ. eigenvalues --   -0.54721  -0.54201  -0.54192  -0.49647  -0.44045
 Alpha  occ. eigenvalues --   -0.39972
 Alpha virt. eigenvalues --   -0.22307  -0.14076  -0.10729  -0.10583  -0.09254
 Alpha virt. eigenvalues --   -0.08393  -0.07983  -0.07319  -0.06251  -0.06107
 Alpha virt. eigenvalues --   -0.04912  -0.04780  -0.04011  -0.03839  -0.03598
 Alpha virt. eigenvalues --   -0.02312  -0.02176  -0.01041  -0.00921  -0.00105
 Alpha virt. eigenvalues --    0.00871   0.01150   0.03124   0.03521   0.03868
 Alpha virt. eigenvalues --    0.03892   0.04157   0.04569   0.04761   0.04924
 Alpha virt. eigenvalues --    0.05435   0.05771   0.06480   0.06762   0.07599
 Alpha virt. eigenvalues --    0.08124   0.08296   0.08715   0.09951   0.10297
 Alpha virt. eigenvalues --    0.10789   0.11280   0.11618   0.12054   0.12761
 Alpha virt. eigenvalues --    0.13015   0.13725   0.14500   0.15081   0.15322
 Alpha virt. eigenvalues --    0.15526   0.15949   0.16338   0.16926   0.17683
 Alpha virt. eigenvalues --    0.18214   0.18818   0.19269   0.19846   0.20348
 Alpha virt. eigenvalues --    0.21117   0.21472   0.21539   0.22699   0.23397
 Alpha virt. eigenvalues --    0.23775   0.24913   0.25238   0.25341   0.26529
 Alpha virt. eigenvalues --    0.27339   0.28341   0.28764   0.29500   0.30907
 Alpha virt. eigenvalues --    0.31359   0.32556   0.33272   0.36145   0.37603
 Alpha virt. eigenvalues --    0.39291   0.40970   0.43261   0.49739   0.54010
 Alpha virt. eigenvalues --    0.56394   0.56701   0.57674   0.58577   0.60323
 Alpha virt. eigenvalues --    0.61340   0.62002   0.62552   0.63742   0.64969
 Alpha virt. eigenvalues --    0.65134   0.65501   0.66903   0.68272   0.69021
 Alpha virt. eigenvalues --    0.69251   0.71272   0.75772   0.76611   0.78351
 Alpha virt. eigenvalues --    0.80718   0.83006   0.83254   0.84195   0.84981
 Alpha virt. eigenvalues --    0.86722   0.87955   0.89030   0.90447   0.94471
 Alpha virt. eigenvalues --    0.94701   0.97424   0.97845   0.98597   1.00684
 Alpha virt. eigenvalues --    1.01660   1.03602   1.04412   1.05468   1.06995
 Alpha virt. eigenvalues --    1.08143   1.08276   1.10796   1.11453   1.11694
 Alpha virt. eigenvalues --    1.13040   1.13542   1.13925   1.15864   1.16231
 Alpha virt. eigenvalues --    1.17591   1.18629   1.19238   1.20719   1.21193
 Alpha virt. eigenvalues --    1.21839   1.23347   1.23413   1.24878   1.26439
 Alpha virt. eigenvalues --    1.28843   1.29369   1.30551   1.32102   1.32229
 Alpha virt. eigenvalues --    1.33533   1.35093   1.37432   1.39975   1.43006
 Alpha virt. eigenvalues --    1.46161   1.46974   1.47740   1.51044   1.51486
 Alpha virt. eigenvalues --    1.53005   1.55761   1.60112   1.64970   1.67347
 Alpha virt. eigenvalues --    1.68539   1.71036   1.71580   1.74097   1.75576
 Alpha virt. eigenvalues --    1.77606   1.78436   1.80479   1.81262   1.81500
 Alpha virt. eigenvalues --    1.82457   1.84726   1.85181   1.87168   1.88448
 Alpha virt. eigenvalues --    1.88971   1.93047   1.94917   1.95299   1.96119
 Alpha virt. eigenvalues --    1.96581   1.99913   2.00232   2.05011   2.05262
 Alpha virt. eigenvalues --    2.07710   2.08974   2.11188   2.12420   2.14542
 Alpha virt. eigenvalues --    2.17507   2.17865   2.19468   2.22267   2.25955
 Alpha virt. eigenvalues --    2.27675   2.28176   2.29016   2.32474   2.35590
 Alpha virt. eigenvalues --    2.36237   2.37679   2.38875   2.39865   2.41627
 Alpha virt. eigenvalues --    2.42775   2.43775   2.45098   2.46451   2.47031
 Alpha virt. eigenvalues --    2.47676   2.50249   2.51801   2.53756   2.54556
 Alpha virt. eigenvalues --    2.55626   2.58311   2.59543   2.60501   2.61533
 Alpha virt. eigenvalues --    2.63708   2.63812   2.66192   2.71561   2.72514
 Alpha virt. eigenvalues --    2.74572   2.75525   2.76685   2.79100   2.83270
 Alpha virt. eigenvalues --    2.86737   2.90552   2.96224   2.98318   3.02562
 Alpha virt. eigenvalues --    3.06227   3.08994   3.10438   3.14175   3.20049
 Alpha virt. eigenvalues --    3.23307   3.28873   3.29293   3.33484   3.34337
 Alpha virt. eigenvalues --    3.37053   3.41616   3.43805   3.48301   3.67218
 Alpha virt. eigenvalues --    4.07372   4.13943   4.16087   4.22296   4.23965
 Alpha virt. eigenvalues --    4.28138   4.32700   4.35995   4.40458   4.41965
 Alpha virt. eigenvalues --    4.47918   4.55542   4.68778   4.98999
          Condensed to atoms (all electrons):
               1          2          3          4          5          6
     1  C   11.313054   0.541334  -1.558630  -1.372044  -0.259755  -2.171592
     2  C    0.541334  14.966990  -3.171855  -3.845818  -0.952913  -0.228545
     3  C   -1.558630  -3.171855  13.034267   0.373748  -0.940743  -1.631090
     4  C   -1.372044  -3.845818   0.373748  13.900288   1.349711  -1.315840
     5  C   -0.259755  -0.952913  -0.940743   1.349711   8.337118  -0.167326
     6  C   -2.171592  -0.228545  -1.631090  -1.315840  -0.167326  10.264225
     7  O   -0.419313   0.137915   0.264861   0.092914  -0.031557  -0.043506
     8  C   -0.128341  -0.659666  -0.171604  -1.921899  -0.525669   0.693632
     9  C   -0.301896  -0.166528  -0.435625  -1.320469  -0.156698   0.573909
    10  C   -0.169595   0.023046   0.054617  -0.381071  -1.043406   0.075657
    11  O    0.001247   0.000620   0.000344   0.005530   0.019533  -0.003447
    12  O   -0.006288  -0.000830   0.002068  -0.009430  -0.005249  -0.002106
    13  O    0.045268  -0.795450   0.556580   0.173023   0.004959  -0.043601
    14  C    0.033862   0.023334  -0.198417   0.065175  -0.036500   0.001313
    15  H    0.206150   0.066799   0.004422   0.012012  -0.005585   0.055442
    16  H   -0.014953   0.011250  -0.151138   0.335338   0.013720   0.003603
    17  H   -0.023338  -0.021164  -0.002884   0.044923   0.143526   0.177982
    18  H    0.153909   0.159575  -0.278951  -0.061778   0.002959   0.007743
    19  H    0.008487   0.003667   0.025978   0.219608   0.036185  -0.054043
    20  H    0.017136  -0.004604   0.007382   0.024139   0.091805  -0.032219
    21  H    0.000275   0.000038  -0.000034   0.001137  -0.000172   0.002044
    22  H   -0.000486  -0.000012   0.000377   0.005134   0.011669  -0.004439
    23  H    0.002451   0.042640   0.048934  -0.069999  -0.006004  -0.000263
    24  H   -0.003730  -0.030560  -0.092977   0.100462   0.012562   0.003109
    25  H   -0.002635  -0.035889  -0.096562   0.104142   0.021028   0.001593
               7          8          9         10         11         12
     1  C   -0.419313  -0.128341  -0.301896  -0.169595   0.001247  -0.006288
     2  C    0.137915  -0.659666  -0.166528   0.023046   0.000620  -0.000830
     3  C    0.264861  -0.171604  -0.435625   0.054617   0.000344   0.002068
     4  C    0.092914  -1.921899  -1.320469  -0.381071   0.005530  -0.009430
     5  C   -0.031557  -0.525669  -0.156698  -1.043406   0.019533  -0.005249
     6  C   -0.043506   0.693632   0.573909   0.075657  -0.003447  -0.002106
     7  O    8.248734   0.005345   0.000315   0.000223   0.000000  -0.000000
     8  C    0.005345   8.961897  -1.421004   0.664339  -0.129176   0.125020
     9  C    0.000315  -1.421004  11.578300  -1.997937   0.288162  -0.157101
    10  C    0.000223   0.664339  -1.997937   7.846178  -0.027390   0.194809
    11  O    0.000000  -0.129176   0.288162  -0.027390   8.149264  -0.102301
    12  O   -0.000000   0.125020  -0.157101   0.194809  -0.102301   8.207086
    13  O   -0.000312  -0.017985  -0.003540  -0.000024   0.000001  -0.000006
    14  C    0.001035  -0.017637  -0.001553  -0.001883  -0.000002   0.000004
    15  H   -0.004921  -0.005715   0.000944   0.000068   0.000000  -0.000000
    16  H   -0.000421   0.089949   0.028609   0.000807  -0.000000  -0.000083
    17  H   -0.000573  -0.008748  -0.015143   0.018842   0.000160   0.000029
    18  H    0.214814   0.000096   0.000119   0.000016   0.000000   0.000000
    19  H   -0.000006   0.255785  -0.132577  -0.063336   0.000724  -0.003939
    20  H   -0.000003   0.030079   0.280923  -0.090890  -0.009024   0.007728
    21  H   -0.000000   0.058746  -0.082914   0.033861   0.227203  -0.001810
    22  H   -0.000000  -0.004149   0.047470  -0.037210  -0.002486   0.219071
    23  H   -0.000081  -0.000271   0.000035   0.000003   0.000000  -0.000000
    24  H   -0.000065   0.001964   0.000158   0.000027  -0.000000   0.000001
    25  H   -0.000049   0.000455   0.000163  -0.000072   0.000000  -0.000000
              13         14         15         16         17         18
     1  C    0.045268   0.033862   0.206150  -0.014953  -0.023338   0.153909
     2  C   -0.795450   0.023334   0.066799   0.011250  -0.021164   0.159575
     3  C    0.556580  -0.198417   0.004422  -0.151138  -0.002884  -0.278951
     4  C    0.173023   0.065175   0.012012   0.335338   0.044923  -0.061778
     5  C    0.004959  -0.036500  -0.005585   0.013720   0.143526   0.002959
     6  C   -0.043601   0.001313   0.055442   0.003603   0.177982   0.007743
     7  O   -0.000312   0.001035  -0.004921  -0.000421  -0.000573   0.214814
     8  C   -0.017985  -0.017637  -0.005715   0.089949  -0.008748   0.000096
     9  C   -0.003540  -0.001553   0.000944   0.028609  -0.015143   0.000119
    10  C   -0.000024  -0.001883   0.000068   0.000807   0.018842   0.000016
    11  O    0.000001  -0.000002   0.000000  -0.000000   0.000160   0.000000
    12  O   -0.000006   0.000004  -0.000000  -0.000083   0.000029   0.000000
    13  O    8.571860   0.080219  -0.000470  -0.008645   0.000142   0.037309
    14  C    0.080219   4.969030   0.000082   0.002155   0.000042   0.004682
    15  H   -0.000470   0.000082   0.464401   0.000011  -0.003399  -0.000011
    16  H   -0.008645   0.002155   0.000011   0.515936  -0.000104  -0.000014
    17  H    0.000142   0.000042  -0.003399  -0.000104   0.517609   0.000004
    18  H    0.037309   0.004682  -0.000011  -0.000014   0.000004   0.329515
    19  H    0.000081   0.001093   0.000001   0.002975  -0.000018   0.000000
    20  H    0.000002   0.000029   0.000005  -0.000001   0.000380   0.000000
    21  H    0.000000   0.000000   0.000000   0.000000  -0.000000  -0.000000
    22  H   -0.000000   0.000005  -0.000000  -0.000000   0.000000   0.000000
    23  H   -0.061630   0.416117  -0.000000   0.000094  -0.000000  -0.000055
    24  H   -0.036216   0.406082   0.000000  -0.000950   0.000000   0.000030
    25  H   -0.036441   0.404824   0.000000  -0.000924   0.000000   0.000029
              19         20         21         22         23         24
     1  C    0.008487   0.017136   0.000275  -0.000486   0.002451  -0.003730
     2  C    0.003667  -0.004604   0.000038  -0.000012   0.042640  -0.030560
     3  C    0.025978   0.007382  -0.000034   0.000377   0.048934  -0.092977
     4  C    0.219608   0.024139   0.001137   0.005134  -0.069999   0.100462
     5  C    0.036185   0.091805  -0.000172   0.011669  -0.006004   0.012562
     6  C   -0.054043  -0.032219   0.002044  -0.004439  -0.000263   0.003109
     7  O   -0.000006  -0.000003  -0.000000  -0.000000  -0.000081  -0.000065
     8  C    0.255785   0.030079   0.058746  -0.004149  -0.000271   0.001964
     9  C   -0.132577   0.280923  -0.082914   0.047470   0.000035   0.000158
    10  C   -0.063336  -0.090890   0.033861  -0.037210   0.000003   0.000027
    11  O    0.000724  -0.009024   0.227203  -0.002486   0.000000  -0.000000
    12  O   -0.003939   0.007728  -0.001810   0.219071  -0.000000   0.000001
    13  O    0.000081   0.000002   0.000000  -0.000000  -0.061630  -0.036216
    14  C    0.001093   0.000029   0.000000   0.000005   0.416117   0.406082
    15  H    0.000001   0.000005   0.000000  -0.000000  -0.000000   0.000000
    16  H    0.002975  -0.000001   0.000000  -0.000000   0.000094  -0.000950
    17  H   -0.000018   0.000380  -0.000000   0.000000  -0.000000   0.000000
    18  H    0.000000   0.000000  -0.000000   0.000000  -0.000055   0.000030
    19  H    0.501591   0.002896   0.000010   0.000010   0.000000  -0.000001
    20  H    0.002896   0.479643   0.000075  -0.000145  -0.000000  -0.000000
    21  H    0.000010   0.000075   0.354132   0.002238   0.000000  -0.000000
    22  H    0.000010  -0.000145   0.002238   0.354859  -0.000000   0.000000
    23  H    0.000000  -0.000000   0.000000  -0.000000   0.475049  -0.022305
    24  H   -0.000001  -0.000000  -0.000000   0.000000  -0.022305   0.528161
    25  H   -0.000001   0.000000   0.000000  -0.000000  -0.022300  -0.039361
              25
     1  C   -0.002635
     2  C   -0.035889
     3  C   -0.096562
     4  C    0.104142
     5  C    0.021028
     6  C    0.001593
     7  O   -0.000049
     8  C    0.000455
     9  C    0.000163
    10  C   -0.000072
    11  O    0.000000
    12  O   -0.000000
    13  O   -0.036441
    14  C    0.404824
    15  H    0.000000
    16  H   -0.000924
    17  H    0.000000
    18  H    0.000029
    19  H   -0.000001
    20  H    0.000000
    21  H    0.000000
    22  H   -0.000000
    23  H   -0.022300
    24  H   -0.039361
    25  H    0.528414
 Mulliken charges:
               1
     1  C    0.109423
     2  C   -0.063375
     3  C    0.356930
     4  C   -0.508938
     5  C    0.086804
     6  C   -0.162235
     7  O   -0.465347
     8  C    0.124558
     9  C   -0.606121
    10  C    0.900322
    11  O   -0.418964
    12  O   -0.466672
    13  O   -0.465125
    14  C   -0.153091
    15  H    0.209765
    16  H    0.172787
    17  H    0.171734
    18  H    0.430008
    19  H    0.194828
    20  H    0.194662
    21  H    0.405171
    22  H    0.408094
    23  H    0.197586
    24  H    0.173610
    25  H    0.173585
 Sum of Mulliken charges =   1.00000
 Mulliken charges with hydrogens summed into heavy atoms:
               1
     1  C    0.319187
     2  C   -0.063375
     3  C    0.356930
     4  C   -0.336151
     5  C    0.086804
     6  C    0.009499
     7  O   -0.035339
     8  C    0.319386
     9  C   -0.411459
    10  C    0.900322
    11  O   -0.013793
    12  O   -0.058577
    13  O   -0.465125
    14  C    0.391690
 Electronic spatial extent (au):  <R**2>=           4162.8678
 Charge=              1.0000 electrons
 Dipole moment (field-independent basis, Debye):
    X=             -8.1708    Y=              3.5686    Z=              0.0678  Tot=              8.9164
 Quadrupole moment (field-independent basis, Debye-Ang):
   XX=              8.9945   YY=            -61.7386   ZZ=            -83.3759
   XY=             -2.3919   XZ=              0.3652   YZ=              1.3003
 Traceless Quadrupole moment (field-independent basis, Debye-Ang):
   XX=             54.3678   YY=            -16.3652   ZZ=            -38.0026
   XY=             -2.3919   XZ=              0.3652   YZ=              1.3003
 Octapole moment (field-independent basis, Debye-Ang**2):
  XXX=           -337.6155  YYY=             21.7140  ZZZ=             -0.0742  XYY=              2.9070
  XXY=             98.4126  XXZ=             -3.7125  XZZ=             -4.1589  YZZ=              5.5753
  YYZ=              1.6859  XYZ=             -4.9972
 Hexadecapole moment (field-independent basis, Debye-Ang**3):
 XXXX=          -1359.1813 YYYY=           -787.0592 ZZZZ=            -93.3783 XXXY=           -246.4194
 XXXZ=             35.8204 YYYX=             28.2334 YYYZ=              4.1714 ZZZX=              0.6875
 ZZZY=             -0.0086 XXYY=           -678.7595 XXZZ=           -714.4402 YYZZ=           -176.0253
 XXYZ=             26.6188 YYXZ=             -6.8169 ZZXY=             -3.0344
 N-N= 8.385196916743D+02 E-N=-3.266631666826D+03  KE= 6.821982629300D+02
 Calling FoFJK, ICntrl=      2127 FMM=F ISym2X=0 I1Cent= 0 IOpClX= 0 NMat=1 NMatS=1 NMatT=0.
 ***** Axes restored to original set *****
 -------------------------------------------------------------------
 Center     Atomic                   Forces (Hartrees/Bohr)
 Number     Number              X              Y              Z
 -------------------------------------------------------------------
      1        6          -0.000069743    0.002182980   -0.000029821
      2        6          -0.002893217   -0.001720037    0.000003187
      3        6          -0.000497429    0.002439035   -0.000006825
      4        6          -0.001198629   -0.003109010    0.000014373
      5        6          -0.002983413   -0.002480387    0.000003615
      6        6          -0.001158391    0.003706615   -0.000029440
      7        8           0.005832525    0.004803614   -0.000064686
      8        6           0.002571538   -0.001201878    0.000112731
      9        6          -0.001916112   -0.000637321   -0.000045204
     10        6           0.005792538    0.003297522    0.000117688
     11        8          -0.007105086    0.007666313    0.001481864
     12        8           0.000568912   -0.009374105   -0.001617783
     13        8           0.002700486    0.002455513    0.000005022
     14        6           0.000602682   -0.005402758    0.000011323
     15        1          -0.000356385    0.000000632   -0.000013837
     16        1          -0.000255544    0.001323936   -0.000005553
     17        1           0.000505793   -0.000528799    0.000026083
     18        1           0.000890197   -0.001751477    0.000018484
     19        1           0.000329886    0.001357510    0.000009418
     20        1           0.000528618   -0.000140332   -0.000057133
     21        1          -0.001161263   -0.000811347   -0.000527560
     22        1          -0.001175166   -0.000398427    0.000557025
     23        1           0.000456842   -0.000368649    0.000004539
     24        1          -0.000011410   -0.000658222   -0.000104883
     25        1           0.000001769   -0.000650923    0.000137371
 -------------------------------------------------------------------
 Cartesian Forces:  Max     0.009374105 RMS     0.002411986

 GradGradGradGradGradGradGradGradGradGradGradGradGradGradGradGradGradGrad
 Berny optimization.
 FormGI is forming the generalized inverse of G from B-inverse, IUseBI=4.
 GSVD:  received Info=                   1 from GESDD.
 Internal  Forces:  Max     0.010769456 RMS     0.002179388
 Search for a local minimum.
 Step number   1 out of a maximum of  119
 All quantities printed in internal units (Hartrees-Bohrs-Radians)
 Mixed Optimization -- RFO/linear search
 Second derivative matrix not updated -- first step.
 ITU=  0
     Eigenvalues ---    0.01240   0.01774   0.01830   0.01911   0.01931
     Eigenvalues ---    0.02017   0.02054   0.02063   0.02115   0.02145
     Eigenvalues ---    0.02208   0.02213   0.02231   0.02235   0.02252
     Eigenvalues ---    0.02284   0.02465   0.02622   0.02649   0.02698
     Eigenvalues ---    0.10156   0.10684   0.16000   0.16000   0.16000
     Eigenvalues ---    0.16000   0.16000   0.16000   0.16000   0.16000
     Eigenvalues ---    0.16000   0.16000   0.16000   0.22000   0.22000
     Eigenvalues ---    0.22369   0.23477   0.24604   0.24999   0.25000
     Eigenvalues ---    0.25000   0.25000   0.25000   0.25000   0.34262
     Eigenvalues ---    0.34264   0.34998   0.35056   0.35533   0.35572
     Eigenvalues ---    0.35595   0.35741   0.38889   0.40199   0.40395
     Eigenvalues ---    0.41881   0.43469   0.43790   0.47100   0.47213
     Eigenvalues ---    0.47735   0.49497   0.52463   0.53240   0.53301
     Eigenvalues ---    0.53920   0.59586   0.60070   0.60953
 RFO step:  Lambda=-1.14379739D-03 EMin= 1.23973185D-02
 Linear search not attempted -- first point.
 Iteration  1 RMS(Cart)=  0.02975329 RMS(Int)=  0.00016349
 Iteration  2 RMS(Cart)=  0.00027154 RMS(Int)=  0.00000257
 Iteration  3 RMS(Cart)=  0.00000004 RMS(Int)=  0.00000257
 Variable       Old X    -DE/DX   Delta X   Delta X   Delta X     New X
                                 (Linear)    (Quad)   (Total)
    R1        2.65453  -0.00314   0.00000  -0.00694  -0.00694   2.64759
    R2        2.60442  -0.00223   0.00000  -0.00439  -0.00439   2.60003
    R3        2.04818   0.00009   0.00000   0.00024   0.00024   2.04842
    R4        2.69383  -0.00326   0.00000  -0.00788  -0.00788   2.68594
    R5        2.51269  -0.00735   0.00000  -0.01230  -0.01230   2.50039
    R6        2.60313  -0.00447   0.00000  -0.00912  -0.00912   2.59402
    R7        2.56105  -0.00571   0.00000  -0.01056  -0.01056   2.55048
    R8        2.69949  -0.00285   0.00000  -0.00696  -0.00696   2.69253
    R9        2.04756   0.00124   0.00000   0.00346   0.00346   2.05102
   R10        2.68812  -0.00383   0.00000  -0.00900  -0.00900   2.67912
   R11        2.67095  -0.00152   0.00000  -0.00349  -0.00349   2.66746
   R12        2.04720   0.00073   0.00000   0.00206   0.00206   2.04925
   R13        1.84159  -0.00194   0.00000  -0.00369  -0.00369   1.83790
   R14        2.62786  -0.00360   0.00000  -0.00760  -0.00760   2.62027
   R15        2.05584   0.00139   0.00000   0.00395   0.00395   2.05979
   R16        2.62223  -0.00258   0.00000  -0.00540  -0.00540   2.61683
   R17        2.04488   0.00014   0.00000   0.00038   0.00038   2.04526
   R18        2.50194  -0.01077   0.00000  -0.01764  -0.01764   2.48430
   R19        2.50885  -0.00982   0.00000  -0.01631  -0.01631   2.49253
   R20        1.83430  -0.00148   0.00000  -0.00278  -0.00278   1.83152
   R21        1.83374  -0.00134   0.00000  -0.00251  -0.00251   1.83123
   R22        2.71019  -0.00698   0.00000  -0.01724  -0.01724   2.69296
   R23        2.05678  -0.00056   0.00000  -0.00159  -0.00159   2.05519
   R24        2.06888  -0.00030   0.00000  -0.00088  -0.00088   2.06800
   R25        2.06890  -0.00031   0.00000  -0.00090  -0.00090   2.06800
    A1        2.08871  -0.00075   0.00000  -0.00287  -0.00287   2.08584
    A2        2.06719   0.00003   0.00000  -0.00070  -0.00070   2.06649
    A3        2.12729   0.00072   0.00000   0.00357   0.00357   2.13086
    A4        2.10584   0.00061   0.00000   0.00255   0.00255   2.10840
    A5        2.08231   0.00023   0.00000   0.00087   0.00087   2.08317
    A6        2.09503  -0.00085   0.00000  -0.00342  -0.00342   2.09161
    A7        2.08658   0.00029   0.00000   0.00095   0.00095   2.08753
    A8        1.97334   0.00039   0.00000   0.00167   0.00167   1.97502
    A9        2.22326  -0.00068   0.00000  -0.00262  -0.00262   2.22064
   A10        2.10020  -0.00073   0.00000  -0.00348  -0.00348   2.09672
   A11        2.10441  -0.00019   0.00000  -0.00168  -0.00168   2.10273
   A12        2.07857   0.00092   0.00000   0.00516   0.00516   2.08373
   A13        2.07665   0.00103   0.00000   0.00431   0.00431   2.08096
   A14        2.06393  -0.00072   0.00000  -0.00297  -0.00297   2.06095
   A15        2.14261  -0.00031   0.00000  -0.00134  -0.00134   2.14127
   A16        2.10838  -0.00045   0.00000  -0.00146  -0.00146   2.10692
   A17        2.07585   0.00019   0.00000   0.00049   0.00049   2.07634
   A18        2.09895   0.00027   0.00000   0.00097   0.00098   2.09993
   A19        1.91439   0.00073   0.00000   0.00450   0.00450   1.91889
   A20        2.22017  -0.00032   0.00000  -0.00144  -0.00144   2.21872
   A21        2.02802   0.00035   0.00000   0.00189   0.00189   2.02991
   A22        2.03499  -0.00003   0.00000  -0.00045  -0.00045   2.03455
   A23        2.12361  -0.00412   0.00000  -0.01861  -0.01861   2.10500
   A24        2.14316   0.00260   0.00000   0.01269   0.01269   2.15585
   A25        2.01641   0.00151   0.00000   0.00592   0.00592   2.02233
   A26        2.06692   0.00089   0.00000   0.00355   0.00355   2.07047
   A27        2.11249  -0.00016   0.00000  -0.00064  -0.00064   2.11185
   A28        2.10373  -0.00073   0.00000  -0.00290  -0.00290   2.10083
   A29        2.00719   0.00039   0.00000   0.00239   0.00239   2.00958
   A30        1.99865   0.00024   0.00000   0.00151   0.00151   2.00016
   A31        2.07369  -0.00556   0.00000  -0.02213  -0.02213   2.05155
   A32        1.84498   0.00006   0.00000   0.00084   0.00084   1.84583
   A33        1.92643  -0.00076   0.00000  -0.00497  -0.00498   1.92145
   A34        1.92633  -0.00074   0.00000  -0.00485  -0.00486   1.92147
   A35        1.91765   0.00046   0.00000   0.00333   0.00333   1.92099
   A36        1.91758   0.00047   0.00000   0.00342   0.00342   1.92100
   A37        1.92919   0.00049   0.00000   0.00221   0.00219   1.93138
    D1       -0.00056  -0.00000   0.00000  -0.00009  -0.00008  -0.00065
    D2       -3.14095   0.00000   0.00000   0.00004   0.00004  -3.14090
    D3        3.13893   0.00000   0.00000  -0.00008  -0.00008   3.13886
    D4       -0.00145   0.00000   0.00000   0.00005   0.00005  -0.00140
    D5       -0.00261  -0.00001   0.00000  -0.00029  -0.00029  -0.00291
    D6        3.13867  -0.00001   0.00000  -0.00039  -0.00039   3.13827
    D7        3.14115  -0.00001   0.00000  -0.00029  -0.00029   3.14085
    D8       -0.00076  -0.00001   0.00000  -0.00040  -0.00040  -0.00115
    D9        0.00160   0.00001   0.00000   0.00028   0.00028   0.00188
   D10       -3.14028  -0.00001   0.00000  -0.00034  -0.00034  -3.14063
   D11       -3.14121   0.00000   0.00000   0.00016   0.00016  -3.14105
   D12        0.00009  -0.00001   0.00000  -0.00047  -0.00047  -0.00038
   D13        3.14065  -0.00000   0.00000  -0.00011  -0.00011   3.14054
   D14        0.00026  -0.00000   0.00000   0.00001   0.00001   0.00027
   D15        0.00054  -0.00000   0.00000  -0.00010  -0.00010   0.00045
   D16        3.14115  -0.00000   0.00000  -0.00010  -0.00010   3.14104
   D17       -3.14071   0.00001   0.00000   0.00063   0.00063  -3.14008
   D18       -0.00011   0.00001   0.00000   0.00062   0.00062   0.00051
   D19        3.14111   0.00003   0.00000   0.00140   0.00140  -3.14068
   D20       -0.00080   0.00002   0.00000   0.00071   0.00071  -0.00009
   D21       -0.00363  -0.00001   0.00000  -0.00028  -0.00028  -0.00391
   D22        3.14085   0.00000   0.00000   0.00009   0.00009   3.14095
   D23        3.13894  -0.00001   0.00000  -0.00027  -0.00027   3.13867
   D24        0.00023   0.00000   0.00000   0.00011   0.00011   0.00034
   D25        0.00470   0.00001   0.00000   0.00049   0.00049   0.00518
   D26       -3.13658   0.00001   0.00000   0.00059   0.00059  -3.13599
   D27       -3.13992   0.00000   0.00000   0.00009   0.00009  -3.13983
   D28        0.00199   0.00000   0.00000   0.00019   0.00019   0.00218
   D29       -3.12954   0.00003   0.00000   0.00166   0.00166  -3.12788
   D30        0.01263   0.00003   0.00000   0.00137   0.00137   0.01400
   D31        0.01506   0.00004   0.00000   0.00204   0.00204   0.01710
   D32       -3.12596   0.00003   0.00000   0.00175   0.00175  -3.12421
   D33       -3.11997   0.00002   0.00000   0.00090   0.00090  -3.11907
   D34        0.02243   0.00001   0.00000   0.00048   0.00048   0.02292
   D35        0.02105   0.00003   0.00000   0.00120   0.00120   0.02224
   D36       -3.11974   0.00002   0.00000   0.00078   0.00078  -3.11896
   D37       -3.05644  -0.00004   0.00000  -0.00158  -0.00158  -3.05802
   D38        0.09492  -0.00006   0.00000  -0.00243  -0.00243   0.09249
   D39        0.08440  -0.00003   0.00000  -0.00119  -0.00119   0.08321
   D40       -3.04742  -0.00005   0.00000  -0.00204  -0.00204  -3.04946
   D41       -2.89284  -0.00013   0.00000  -0.00464  -0.00464  -2.89748
   D42        0.23903  -0.00011   0.00000  -0.00378  -0.00378   0.23525
   D43       -2.84224  -0.00013   0.00000  -0.00493  -0.00494  -2.84717
   D44        0.30933  -0.00016   0.00000  -0.00584  -0.00584   0.30350
   D45       -3.14034  -0.00000   0.00000  -0.00071  -0.00071  -3.14105
   D46       -1.06754   0.00018   0.00000   0.00113   0.00112  -1.06642
   D47        1.07020  -0.00021   0.00000  -0.00272  -0.00271   1.06748
         Item               Value     Threshold  Converged?
 Maximum Force            0.010769     0.000450     NO 
 RMS     Force            0.002179     0.000300     NO 
 Maximum Displacement     0.110195     0.001800     NO 
 RMS     Displacement     0.029729     0.001200     NO 
 Predicted change in Energy=-5.736481D-04
 GradGradGradGradGradGradGradGradGradGradGradGradGradGradGradGradGradGrad

                          Input orientation:                          
 ---------------------------------------------------------------------
 Center     Atomic      Atomic             Coordinates (Angstroms)
 Number     Number       Type             X           Y           Z
 ---------------------------------------------------------------------
      1          6           0       -1.475457   -2.029457    0.024036
      2          6           0       -2.511667   -1.086560    0.012406
      3          6           0       -2.228287    0.306144   -0.004189
      4          6           0       -0.923564    0.732691   -0.011129
      5          6           0        0.139257   -0.216235   -0.002288
      6          6           0       -0.168321   -1.600039    0.018534
      7          8           0       -3.767606   -1.502856    0.018532
      8          6           0        1.464371    0.270078   -0.010736
      9          6           0        2.630854   -0.479496   -0.019603
     10          6           0        3.868305    0.141733   -0.000442
     11          8           0        4.947771   -0.601155   -0.105983
     12          8           0        3.969570    1.450253    0.130937
     13          8           0       -3.338429    1.073667   -0.012545
     14          6           0       -3.161916    2.487631   -0.030483
     15          1           0       -1.735890   -3.081573    0.039169
     16          1           0       -0.691026    1.792759   -0.024302
     17          1           0        0.626744   -2.337388    0.030782
     18          1           0       -4.370179   -0.739486    0.009944
     19          1           0        1.581206    1.353794   -0.009939
     20          1           0        2.645890   -1.561471   -0.041698
     21          1           0        5.777844   -0.156143    0.122691
     22          1           0        4.831440    1.815372   -0.119896
     23          1           0       -4.163957    2.910345   -0.034068
     24          1           0       -2.621482    2.810383    0.864691
     25          1           0       -2.624490    2.787950   -0.935223
 ---------------------------------------------------------------------
                    Distance matrix (angstroms):
                    1          2          3          4          5
     1  C    0.000000
     2  C    1.401043   0.000000
     3  C    2.454094   1.421339   0.000000
     4  C    2.816963   2.415015   1.372695   0.000000
     5  C    2.428120   2.790176   2.424489   1.424826   0.000000
     6  C    1.375875   2.398951   2.806690   2.452122   1.417728
     7  O    2.351868   1.323148   2.375395   3.617613   4.113321
     8  C    3.732514   4.201177   3.692840   2.432334   1.411559
     9  C    4.389313   5.178327   4.922267   3.755443   2.505525
    10  C    5.768055   6.497147   6.098810   4.828184   3.746190
    11  O    6.581398   7.476152   7.233903   6.021687   4.825009
    12  O    6.462826   6.961027   6.304020   4.947508   4.179261
    13  O    3.619583   2.313167   1.349658   2.438819   3.709212
    14  C    4.821950   3.633113   2.373024   2.844365   4.267252
    15  H    1.083976   2.140707   3.423589   3.900130   3.424626
    16  H    3.902179   3.406840   2.138598   1.085354   2.173917
    17  H    2.124645   3.378540   3.891103   3.439564   2.176702
    18  H    3.169170   1.890643   2.383536   3.747920   4.539709
    19  H    4.559685   4.765233   3.950929   2.580629   2.131728
    20  H    4.148353   5.179659   5.219865   4.243244   2.845070
    21  H    7.491957   8.342292   8.020470   6.761421   5.640292
    22  H    7.387852   7.896830   7.220173   5.856970   5.114472
    23  H    5.624327   4.325214   3.244931   3.904210   5.319227
    24  H    5.044216   3.990565   2.679695   2.822550   4.187332
    25  H    5.044588   3.990308   2.680143   2.823329   4.187337
                    6          7          8          9         10
     6  C    0.000000
     7  O    3.600596   0.000000
     8  C    2.482717   5.524287   0.000000
     9  C    3.015369   6.479892   1.386586   0.000000
    10  C    4.396418   7.811029   2.407380   1.384767   0.000000
    11  O    5.214180   8.762783   3.591962   2.321716   1.314636
    12  O    5.141892   8.282353   2.772887   2.353456   1.318991
    13  O    4.147198   2.612209   4.869563   6.168038   7.266750
    14  C    5.066859   4.036490   5.130348   6.508467   7.411353
    15  H    2.156998   2.573061   4.634407   5.083573   6.465159
    16  H    3.433094   4.508687   2.639030   4.024681   4.849120
    17  H    1.084418   4.472908   2.739019   2.733269   4.081022
    18  H    4.289083   0.972575   5.921286   7.005921   8.285486
    19  H    3.433189   6.063914   1.089996   2.112535   2.588437
    20  H    2.815121   6.414047   2.179798   1.082305   2.096880
    21  H    6.119851   9.640545   4.336533   3.166758   1.936551
    22  H    6.056550   9.218101   3.706345   3.181046   1.934673
    23  H    6.025898   4.431276   6.216884   7.593464   8.496093
    24  H    5.117206   4.542424   4.890165   6.260376   7.070183
    25  H    5.118287   4.541738   4.890106   6.255653   7.073377
                   11         12         13         14         15
    11  O    0.000000
    12  O    2.285012   0.000000
    13  O    8.454280   7.319101   0.000000
    14  C    8.678325   7.208350   1.425052   0.000000
    15  H    7.130558   7.286847   4.453856   5.749299   0.000000
    16  H    6.126461   4.675743   2.743350   2.566745   4.985468
    17  H    4.658807   5.052795   5.230657   6.135024   2.477079
    18  H    9.319697   8.623283   2.086274   3.446131   3.525011
    19  H    3.894202   2.394458   4.927604   4.876804   5.538774
    20  H    2.494993   3.294299   6.538874   7.079970   4.638669
    21  H    0.969201   2.418766   9.199845   9.323751   8.063580
    22  H    2.419365   0.969045   8.204169   8.022074   8.193606
    23  H    9.765213   8.265190   2.013789   1.087560   6.465599
    24  H    8.359090   6.769809   2.073580   1.094337   6.015056
    25  H    8.337433   6.812324   2.073598   1.094337   6.015842
                   16         17         18         19         20
    16  H    0.000000
    17  H    4.335629   0.000000
    18  H    4.466498   5.246233   0.000000
    19  H    2.314290   3.812805   6.308819   0.000000
    20  H    4.731403   2.164314   7.064245   3.103761   0.000000
    21  H    6.757671   5.594650  10.165401   4.461981   3.436729
    22  H    5.523340   5.911648   9.550599   3.284686   4.023158
    23  H    3.648334   7.105895   3.655918   5.952339   8.146854
    24  H    2.356379   6.143771   4.048469   4.533124   6.905060
    25  H    2.357639   6.145957   4.047663   4.538814   6.891499
                   21         22         23         24         25
    21  H    0.000000
    22  H    2.200318   0.000000
    23  H   10.405160   9.062202   0.000000
    24  H    8.938653   7.583238   1.788013   0.000000
    25  H    8.965829   7.563170   1.788022   1.800056   0.000000
 Stoichiometry    C10H11O4(1+)
 Framework group  C1[X(C10H11O4)]
 Deg. of freedom    69
 Full point group                 C1      NOp   1
 Largest Abelian subgroup         C1      NOp   1
 Largest concise Abelian subgroup C1      NOp   1
                         Standard orientation:                         
 ---------------------------------------------------------------------
 Center     Atomic      Atomic             Coordinates (Angstroms)
 Number     Number       Type             X           Y           Z
 ---------------------------------------------------------------------
      1          6           0        1.477469   -2.025905   -0.023447
      2          6           0        2.510699   -1.079743   -0.011803
      3          6           0        2.222925    0.312062    0.004540
      4          6           0        0.916862    0.734493    0.011218
      5          6           0       -0.142960   -0.217781    0.002360
      6          6           0        0.168985   -1.600612   -0.018207
      7          8           0        3.767945   -1.492077   -0.017677
      8          6           0       -1.469603    0.264351    0.010535
      9          6           0       -2.633716   -0.488897    0.019340
     10          6           0       -3.873118    0.128424   -0.000102
     11          8           0       -4.950251   -0.617850    0.105389
     12          8           0       -3.978489    1.436597   -0.131693
     13          8           0        3.330639    1.083085    0.012948
     14          6           0        3.149665    2.496488    0.030645
     15          1           0        1.741221   -3.077197   -0.038382
     16          1           0        0.680980    1.793825    0.024197
     17          1           0       -0.623749   -2.340467   -0.030464
     18          1           0        4.368106   -0.726809   -0.009113
     19          1           0       -1.589855    1.347693    0.009557
     20          1           0       -2.645344   -1.570910    0.041595
     21          1           0       -5.781689   -0.175493   -0.123478
     22          1           0       -4.841544    1.799033    0.118955
     23          1           0        4.150367    2.922361    0.034319
     24          1           0        2.608351    2.817398   -0.864658
     25          1           0        2.611157    2.795246    0.935259
 ---------------------------------------------------------------------
 Rotational constants (GHZ):      1.5447571      0.2882709      0.2434423
 Standard basis: 6-31+G(d,p) (6D, 7F)
 There are   321 symmetry adapted cartesian basis functions of A   symmetry.
 There are   321 symmetry adapted basis functions of A   symmetry.
   321 basis functions,   525 primitive gaussians,   321 cartesian basis functions
    51 alpha electrons       51 beta electrons
       nuclear repulsion energy       842.2643802467 Hartrees.
 NAtoms=   25 NActive=   25 NUniq=   25 SFac= 1.00D+00 NAtFMM=   60 NAOKFM=F Big=F
 Integral buffers will be    131072 words long.
 Raffenetti 2 integral format.
 Two-electron integral symmetry is turned on.
 One-electron integrals computed using PRISM.
 NBasis=   321 RedAO= T EigKep=  1.35D-06  NBF=   321
 NBsUse=   320 1.00D-06 EigRej=  6.44D-07 NBFU=   320
 Initial guess from the checkpoint file:  "m062xFAyang.chk"
 B after Tr=     0.000000   -0.000000    0.000000
         Rot=    0.999999    0.000068    0.000049   -0.001277 Ang=   0.15 deg.
 ExpMin= 4.38D-02 ExpMax= 5.48D+03 ExpMxC= 8.25D+02 IAcc=2 IRadAn=         4 AccDes= 0.00D+00
 Harris functional with IExCor= 1009 and IRadAn=       4 diagonalized for initial guess.
 HarFok:  IExCor= 1009 AccDes= 0.00D+00 IRadAn=         4 IDoV= 1 UseB2=F ITyADJ=14
 ICtDFT=  3500011 ScaDFX=  1.000000  1.000000  1.000000  1.000000
 FoFCou: FMM=F IPFlag=           0 FMFlag=      100000 FMFlg1=           0
         NFxFlg=           0 DoJE=T BraDBF=F KetDBF=T FulRan=T
         wScrn=  0.000000 ICntrl=     500 IOpCl=  0 I1Cent=   200000004 NGrid=           0
         NMat0=    1 NMatS0=      1 NMatT0=    0 NMatD0=    1 NMtDS0=    0 NMtDT0=    0
 Petite list used in FoFCou.
 Requested convergence on RMS density matrix=1.00D-08 within 128 cycles.
 Requested convergence on MAX density matrix=1.00D-06.
 Requested convergence on             energy=1.00D-06.
 No special actions if energy rises.
 SCF Done:  E(RM062X) =  -688.068495543     A.U. after   13 cycles
            NFock= 13  Conv=0.44D-08     -V/T= 2.0083
 Calling FoFJK, ICntrl=      2127 FMM=F ISym2X=0 I1Cent= 0 IOpClX= 0 NMat=1 NMatS=1 NMatT=0.
 ***** Axes restored to original set *****
 -------------------------------------------------------------------
 Center     Atomic                   Forces (Hartrees/Bohr)
 Number     Number              X              Y              Z
 -------------------------------------------------------------------
      1        6          -0.000243213   -0.000452259    0.000005055
      2        6          -0.000743560   -0.001410390    0.000008495
      3        6          -0.000327363   -0.000042525   -0.000036565
      4        6           0.000993097    0.000479186   -0.000013631
      5        6          -0.001055930   -0.000572224    0.000010578
      6        6           0.000806139    0.000651922   -0.000002024
      7        8           0.000318571    0.000847875   -0.000007821
      8        6           0.000926743    0.000366092    0.000021198
      9        6          -0.002201325   -0.001653363   -0.000054395
     10        6           0.002800976    0.001135726   -0.000005785
     11        8          -0.000890867    0.001299188    0.000494084
     12        8           0.000590677   -0.000887970   -0.000418206
     13        8           0.000077716    0.001052766    0.000032955
     14        6          -0.001191370   -0.001348871   -0.000000945
     15        1          -0.000118358    0.000028954   -0.000004779
     16        1           0.000337877   -0.000499343    0.000010019
     17        1           0.000014048    0.000023395    0.000011549
     18        1          -0.000260907   -0.000515603   -0.000004574
     19        1          -0.000016646   -0.000253224   -0.000000679
     20        1           0.000131800    0.000194329   -0.000026672
     21        1           0.000277097   -0.000580300   -0.000284530
     22        1          -0.000225155    0.000361961    0.000284372
     23        1           0.000142334    0.000666741   -0.000011238
     24        1          -0.000069771    0.000551062    0.000020612
     25        1          -0.000072609    0.000556876   -0.000027071
 -------------------------------------------------------------------
 Cartesian Forces:  Max     0.002800976 RMS     0.000695260

 GradGradGradGradGradGradGradGradGradGradGradGradGradGradGradGradGradGrad
 Berny optimization.
 Using GEDIIS/GDIIS optimizer.
 FormGI is forming the generalized inverse of G from B-inverse, IUseBI=4.
 GSVD:  received Info=                   1 from GESDD.
 Internal  Forces:  Max     0.003260554 RMS     0.000610266
 Search for a local minimum.
 Step number   2 out of a maximum of  119
 All quantities printed in internal units (Hartrees-Bohrs-Radians)
 Mixed Optimization -- En-DIIS/RFO-DIIS
 Update second derivatives using D2CorX and points    1    2
 DE= -5.19D-04 DEPred=-5.74D-04 R= 9.04D-01
 TightC=F SS=  1.41D+00  RLast= 5.54D-02 DXNew= 5.0454D-01 1.6620D-01
 Trust test= 9.04D-01 RLast= 5.54D-02 DXMaxT set to 3.00D-01
 ITU=  1  0
 Use linear search instead of GDIIS.
     Eigenvalues ---    0.01240   0.01774   0.01830   0.01911   0.01931
     Eigenvalues ---    0.02017   0.02053   0.02063   0.02114   0.02144
     Eigenvalues ---    0.02207   0.02213   0.02231   0.02235   0.02253
     Eigenvalues ---    0.02284   0.02464   0.02622   0.02643   0.02694
     Eigenvalues ---    0.10218   0.10696   0.15480   0.16000   0.16000
     Eigenvalues ---    0.16000   0.16000   0.16000   0.16000   0.16000
     Eigenvalues ---    0.16000   0.16000   0.16227   0.21610   0.22037
     Eigenvalues ---    0.22379   0.23479   0.24537   0.24938   0.25000
     Eigenvalues ---    0.25000   0.25000   0.25000   0.27725   0.34263
     Eigenvalues ---    0.34272   0.35003   0.35088   0.35533   0.35581
     Eigenvalues ---    0.35637   0.35747   0.38343   0.39703   0.40801
     Eigenvalues ---    0.41904   0.43515   0.44021   0.46880   0.47122
     Eigenvalues ---    0.48403   0.50997   0.52372   0.53172   0.53278
     Eigenvalues ---    0.55246   0.59678   0.60305   0.60948
 RFO step:  Lambda=-9.78087723D-05 EMin= 1.23972516D-02
 Quartic linear search produced a step of -0.10098.
 Iteration  1 RMS(Cart)=  0.00944418 RMS(Int)=  0.00002800
 Iteration  2 RMS(Cart)=  0.00004110 RMS(Int)=  0.00000110
 Iteration  3 RMS(Cart)=  0.00000000 RMS(Int)=  0.00000110
 Variable       Old X    -DE/DX   Delta X   Delta X   Delta X     New X
                                 (Linear)    (Quad)   (Total)
    R1        2.64759   0.00036   0.00070  -0.00060   0.00011   2.64769
    R2        2.60003   0.00072   0.00044   0.00038   0.00082   2.60085
    R3        2.04842   0.00000  -0.00002   0.00005   0.00003   2.04845
    R4        2.68594   0.00132   0.00080   0.00147   0.00227   2.68821
    R5        2.50039  -0.00016   0.00124  -0.00259  -0.00135   2.49904
    R6        2.59402   0.00170   0.00092   0.00143   0.00235   2.59636
    R7        2.55048   0.00176   0.00107   0.00091   0.00198   2.55246
    R8        2.69253   0.00042   0.00070  -0.00045   0.00025   2.69278
    R9        2.05102  -0.00042  -0.00035  -0.00039  -0.00073   2.05029
   R10        2.67912  -0.00044   0.00091  -0.00281  -0.00190   2.67722
   R11        2.66746   0.00134   0.00035   0.00209   0.00244   2.66990
   R12        2.04925  -0.00000  -0.00021   0.00040   0.00019   2.04944
   R13        1.83790  -0.00026   0.00037  -0.00114  -0.00077   1.83713
   R14        2.62027   0.00043   0.00077  -0.00064   0.00012   2.62039
   R15        2.05979  -0.00025  -0.00040   0.00013  -0.00027   2.05952
   R16        2.61683   0.00291   0.00055   0.00444   0.00498   2.62181
   R17        2.04526  -0.00020  -0.00004  -0.00043  -0.00047   2.04479
   R18        2.48430  -0.00094   0.00178  -0.00475  -0.00297   2.48133
   R19        2.49253  -0.00048   0.00165  -0.00383  -0.00218   2.49035
   R20        1.83152  -0.00009   0.00028  -0.00068  -0.00040   1.83113
   R21        1.83123  -0.00014   0.00025  -0.00071  -0.00045   1.83077
   R22        2.69296   0.00023   0.00174  -0.00281  -0.00107   2.69188
   R23        2.05519   0.00013   0.00016   0.00003   0.00019   2.05538
   R24        2.06800   0.00014   0.00009   0.00019   0.00028   2.06828
   R25        2.06800   0.00013   0.00009   0.00018   0.00027   2.06827
    A1        2.08584   0.00017   0.00029  -0.00010   0.00019   2.08603
    A2        2.06649  -0.00020   0.00007  -0.00102  -0.00095   2.06553
    A3        2.13086   0.00003  -0.00036   0.00112   0.00076   2.13162
    A4        2.10840  -0.00003  -0.00026   0.00064   0.00038   2.10878
    A5        2.08317  -0.00014  -0.00009  -0.00043  -0.00052   2.08266
    A6        2.09161   0.00016   0.00035  -0.00021   0.00014   2.09175
    A7        2.08753  -0.00063  -0.00010  -0.00168  -0.00177   2.08575
    A8        1.97502  -0.00065  -0.00017  -0.00221  -0.00238   1.97264
    A9        2.22064   0.00128   0.00026   0.00388   0.00415   2.22479
   A10        2.09672   0.00016   0.00035   0.00012   0.00047   2.09720
   A11        2.10273   0.00036   0.00017   0.00173   0.00190   2.10463
   A12        2.08373  -0.00052  -0.00052  -0.00185  -0.00237   2.08136
   A13        2.08096   0.00014  -0.00044   0.00107   0.00064   2.08159
   A14        2.06095   0.00020   0.00030   0.00026   0.00056   2.06152
   A15        2.14127  -0.00034   0.00013  -0.00134  -0.00120   2.14007
   A16        2.10692   0.00018   0.00015  -0.00005   0.00009   2.10702
   A17        2.07634  -0.00006  -0.00005   0.00017   0.00012   2.07646
   A18        2.09993  -0.00013  -0.00010  -0.00012  -0.00022   2.09971
   A19        1.91889   0.00097  -0.00045   0.00639   0.00594   1.92483
   A20        2.21872   0.00036   0.00015   0.00118   0.00132   2.22005
   A21        2.02991  -0.00017  -0.00019  -0.00031  -0.00050   2.02941
   A22        2.03455  -0.00019   0.00005  -0.00086  -0.00082   2.03373
   A23        2.10500   0.00014   0.00188  -0.00316  -0.00128   2.10372
   A24        2.15585   0.00008  -0.00128   0.00307   0.00179   2.15764
   A25        2.02233  -0.00021  -0.00060   0.00008  -0.00051   2.02182
   A26        2.07047  -0.00037  -0.00036  -0.00062  -0.00098   2.06950
   A27        2.11185   0.00027   0.00006   0.00084   0.00091   2.11276
   A28        2.10083   0.00010   0.00029  -0.00023   0.00007   2.10089
   A29        2.00958   0.00123  -0.00024   0.00737   0.00713   2.01671
   A30        2.00016   0.00089  -0.00015   0.00529   0.00514   2.00530
   A31        2.05155   0.00326   0.00224   0.00734   0.00958   2.06113
   A32        1.84583   0.00071  -0.00009   0.00403   0.00394   1.84977
   A33        1.92145   0.00054   0.00050   0.00209   0.00259   1.92403
   A34        1.92147   0.00055   0.00049   0.00216   0.00265   1.92412
   A35        1.92099  -0.00065  -0.00034  -0.00312  -0.00346   1.91753
   A36        1.92100  -0.00066  -0.00035  -0.00314  -0.00349   1.91751
   A37        1.93138  -0.00045  -0.00022  -0.00178  -0.00201   1.92937
    D1       -0.00065  -0.00000   0.00001  -0.00015  -0.00014  -0.00079
    D2       -3.14090  -0.00000  -0.00000  -0.00005  -0.00005  -3.14096
    D3        3.13886  -0.00000   0.00001  -0.00016  -0.00015   3.13871
    D4       -0.00140  -0.00000  -0.00001  -0.00005  -0.00006  -0.00146
    D5       -0.00291   0.00000   0.00003  -0.00006  -0.00003  -0.00294
    D6        3.13827  -0.00000   0.00004  -0.00034  -0.00030   3.13797
    D7        3.14085   0.00000   0.00003  -0.00005  -0.00002   3.14084
    D8       -0.00115  -0.00000   0.00004  -0.00033  -0.00029  -0.00145
    D9        0.00188  -0.00000  -0.00003   0.00014   0.00011   0.00200
   D10       -3.14063   0.00001   0.00003   0.00026   0.00030  -3.14033
   D11       -3.14105  -0.00000  -0.00002   0.00004   0.00002  -3.14103
   D12       -0.00038   0.00001   0.00005   0.00016   0.00021  -0.00017
   D13        3.14054   0.00001   0.00001   0.00017   0.00018   3.14072
   D14        0.00027   0.00001  -0.00000   0.00027   0.00027   0.00054
   D15        0.00045   0.00000   0.00001   0.00007   0.00008   0.00053
   D16        3.14104   0.00000   0.00001   0.00011   0.00012   3.14116
   D17       -3.14008  -0.00001  -0.00006  -0.00007  -0.00013  -3.14021
   D18        0.00051  -0.00001  -0.00006  -0.00003  -0.00010   0.00041
   D19       -3.14068   0.00002  -0.00014   0.00105   0.00091  -3.13977
   D20       -0.00009   0.00002  -0.00007   0.00118   0.00111   0.00102
   D21       -0.00391  -0.00000   0.00003  -0.00028  -0.00025  -0.00416
   D22        3.14095  -0.00000  -0.00001  -0.00014  -0.00014   3.14080
   D23        3.13867  -0.00000   0.00003  -0.00031  -0.00028   3.13839
   D24        0.00034  -0.00000  -0.00001  -0.00017  -0.00018   0.00016
   D25        0.00518   0.00000  -0.00005   0.00027   0.00022   0.00541
   D26       -3.13599   0.00001  -0.00006   0.00056   0.00050  -3.13549
   D27       -3.13983   0.00000  -0.00001   0.00013   0.00012  -3.13971
   D28        0.00218   0.00001  -0.00002   0.00041   0.00040   0.00258
   D29       -3.12788   0.00004  -0.00017   0.00230   0.00213  -3.12575
   D30        0.01400   0.00002  -0.00014   0.00157   0.00143   0.01543
[...]
 0.00001155,-0.00000478,-0.00015308,-0.00000068,0.00016897,0.00058712,-
 0.00009615,0.00113070,-0.00072262,0.00002501,-0.15265631,0.19820260,0.
 00013730,-0.00008713,0.00596802,0.00002313,0.00013639,0.00914095,-0.00
 000669,-0.00001106,-0.00131401,0.00010406,0.00010460,0.00498184,-0.000
 53750,0.00016866,0.00203289,-0.00312679,0.00316473,-0.03748284,0.00002
 281,-0.00001235,-0.00029784,0.00010803,-0.00011956,-0.00307454,0.00005
 118,0.00016150,0.00015311,-0.00007521,-0.00005745,-0.00034652,0.000043
 08,-0.00000931,-0.00011678,-0.00002375,0.00003162,0.00017693,0.0000033
 0,-0.00001462,-0.00038690,0.00000065,0.00000366,-0.00014666,0.00000726
 ,-0.00008207,-0.00492438,-0.00001276,0.00003287,0.00122365,0.00311853,
 -0.00340793,0.02352151,-0.00197742,-0.00523766,0.00007371,-0.04018580,
 0.03303739,-0.00046264,-0.00070153,0.00242700,-0.00001811,-0.00222510,
 0.00129349,-0.00001053,0.00270247,0.00093809,-0.00000769,-0.00161147,0
 .00065541,-0.00002314,-0.20741871,0.19288230,-0.00299994,-0.00274163,-
 0.00015207,0.00002487,0.00238841,0.00006022,0.00001709,-0.00243730,-0.
 00123367,-0.00002210,0.00135684,-0.00044025,-0.00013153,0.00041987,0.0
 0111468,0.00014983,-0.00049678,0.00176123,-0.00004495,0.00112453,-0.00
 151232,0.00002960,0.00008972,-0.00001300,0.00000399,0.00033875,0.00007
 636,-0.00000110,-0.00030027,-0.00018776,0.00000209,0.25191854,-0.00794
 008,0.00056972,0.00004513,-0.00229289,0.01542230,-0.00021081,-0.012511
 53,0.00044415,-0.00001933,0.00421722,-0.00049881,-0.00001069,-0.003804
 45,-0.00162606,0.00002249,0.00274921,0.00229415,-0.00001143,0.23998524
 ,-0.33581364,0.00433341,0.00338591,-0.00010412,-0.00001696,-0.00237731
 ,0.00001698,-0.00001892,0.00221852,0.00130112,0.00002697,-0.00115282,0
 .00036336,0.00012102,-0.00034511,-0.00111405,-0.00013894,0.00235200,-0
 .00193804,-0.00003822,0.00166751,-0.00303569,0.00004076,-0.00003384,0.
 00000063,-0.00001045,-0.00027076,-0.00004177,0.00000348,-0.00021831,-0
 .00007332,-0.00000412,-0.22628721,0.32225693,0.00006091,0.00004565,0.0
 0430684,0.00005862,-0.00021926,-0.00307948,0.00012426,-0.00000654,0.00
 020650,-0.00004324,-0.00000709,-0.00070366,0.00002867,0.00001421,0.000
 04868,-0.00000176,0.00001128,0.00166111,-0.00361589,0.00430351,-0.0118
 9448,-0.00003401,-0.00000670,-0.00009450,0.00003485,0.00001165,-0.0000
 7041,-0.00003558,-0.00001480,-0.00001796,0.00001950,-0.00000529,-0.000
 01790,0.00000094,0.00001937,0.00000525,-0.00005079,-0.00000767,-0.0016
 4584,-0.00001466,0.00001974,-0.00103351,0.00000214,-0.00001059,-0.0005
 3523,0.00000500,0.00000779,0.00040181,0.00000209,-0.00000751,-0.000509
 16,0.00346951,-0.00412246,0.01263463,0.00026842,-0.00151290,0.00004190
 ,0.00014393,-0.00035960,-0.00001781,0.00001335,0.00065148,-0.00000023,
 0.00050967,-0.00227601,0.00002103,-0.00028215,-0.02881247,-0.00006920,
 -0.00545524,-0.00003527,-0.00003948,0.00008798,0.00020788,0.00000875,-
 0.06178151,-0.02971432,-0.00008534,0.00538856,0.02823044,0.00037288,0.
 00064038,0.00426314,0.00015660,0.00046883,-0.00074979,-0.00007705,-0.0
 0222408,-0.00186430,-0.00062528,0.00009865,0.00004401,-0.00000216,-0.0
 0004103,-0.00008083,0.00000200,-0.00038508,-0.00004516,0.00000684,-0.0
 0090039,0.00094182,-0.00001513,0.00007906,-0.00000067,-0.00000005,-0.0
 0005705,-0.00003483,-0.00000123,0.06756589,0.00051049,-0.00058174,0.00
 003979,-0.00021362,-0.00004453,0.00000166,0.00014262,0.00050764,0.0000
 1203,0.00167296,0.00144396,0.00007566,0.00066270,-0.00789707,-0.000120
 75,-0.00153164,0.00070598,-0.00014119,0.00023067,0.00007501,-0.0000076
 1,-0.02870724,-0.33751420,-0.00115794,-0.00223504,-0.01439571,-0.00025
 987,-0.00011005,-0.00159973,-0.00013992,0.00007959,0.00019549,0.000021
 38,-0.00210559,0.00059124,0.00001530,0.00005669,-0.00009527,-0.0000079
 9,-0.00000615,0.00003712,0.00000022,-0.00013746,0.00000387,0.00001110,
 -0.00032694,0.00053155,-0.00002103,0.00008737,0.00006447,-0.00000147,-
 0.00003584,0.00002790,-0.00000021,0.03022887,0.35694612,0.00015935,-0.
 00007341,-0.00098800,-0.00014250,0.00001133,0.00048855,0.00002669,0.00
 011043,0.00010518,-0.00010707,0.00000191,-0.00356008,0.00049834,0.0003
 9206,0.00831756,-0.00007840,-0.00004214,0.00609270,0.00013544,0.000018
 75,-0.00012226,-0.00086011,-0.00120612,-0.04852784,0.00093416,-0.00028
 558,0.00786748,-0.00029702,-0.00039331,-0.00500226,0.00042064,0.000059
 95,0.00008858,-0.00075251,0.00031645,0.00062112,0.00001337,-0.00004001
 ,0.00020335,0.00000230,0.00002216,0.00005344,0.00000128,-0.00000827,-0
 .00066857,-0.00001357,-0.00000316,0.00029023,-0.00000604,-0.00000843,-
 0.00005217,-0.00001439,0.00001818,0.00006627,-0.00001568,0.00163322,0.
 02764923,0.00004960,-0.00035262,0.00003349,0.00015086,0.00038921,0.000
 00250,-0.00044406,-0.00055328,0.00000321,0.00059108,-0.00023146,-0.000
 02077,-0.00006491,-0.00146799,0.00000360,-0.00096612,0.00112011,-0.000
 05603,-0.00014475,-0.00013478,-0.00000251,0.00789018,0.02737403,0.0006
 1427,-0.05778424,0.00668856,0.00003388,0.00401594,-0.02969262,-0.00100
 888,-0.00021659,0.00026822,0.00002315,-0.00624365,-0.00257741,0.000655
 97,0.00018167,-0.00015618,0.00000377,0.00002287,0.00011077,-0.00000168
 ,-0.00003607,-0.00000767,-0.00000090,0.00016484,-0.00013657,0.00000162
 ,-0.00325238,-0.00175160,0.00016986,0.00001653,-0.00002062,-0.00000100
 ,-0.00417677,0.00188376,-0.00000243,0.05992558,-0.00024113,0.00036550,
 0.00001993,0.00017778,0.00000231,0.00001142,-0.00003763,-0.00023819,0.
 00000862,0.00033040,-0.00019201,0.00000041,-0.00155046,-0.00070379,0.0
 0013716,-0.00047189,0.00010518,0.00000508,-0.00030778,-0.00002932,-0.0
 0000612,0.00168846,-0.01000379,-0.00026609,-0.00149227,-0.35351293,-0.
 00808613,0.00213524,-0.01168543,-0.00050889,0.00168307,0.00071343,0.00
 017288,-0.00163069,0.00102486,0.00044324,-0.00002358,0.00009823,-0.000
 00292,-0.00000561,-0.00005132,0.00000004,-0.00000483,0.00000234,-0.000
 00078,-0.00000401,0.00005714,-0.00000408,-0.00198806,0.00046368,0.0000
 3495,0.00002450,-0.00003695,-0.00000242,0.00139890,0.00055760,-0.00018
 888,0.00024060,0.37301126,0.00001296,0.00001130,-0.00024489,-0.0000836
 7,-0.00008971,-0.00035109,0.00007528,0.00012601,0.00005796,-0.00017436
 ,0.00005415,-0.00016295,0.00028993,0.00015918,-0.00379909,0.00001588,-
 0.00017079,-0.00050668,0.00007387,0.00002496,0.00013640,-0.00067655,-0
 .00007991,0.00268673,0.00076170,-0.00806500,-0.03190598,-0.00064731,-0
 .00095065,-0.00018530,0.00045657,0.00004106,-0.00223260,-0.00037573,0.
 00064205,0.00429311,0.00000741,-0.00002751,0.00004438,-0.00000029,0.00
 000898,0.00002124,0.00000211,0.00000170,0.00013910,-0.00000476,0.00000
 231,0.00009979,0.00015262,0.00011168,0.00135445,-0.00001005,0.00001007
 ,0.00005150,0.00009780,0.00009991,0.00703711,0.00012082,0.00864143,0.0
 2266734,0.00118158,-0.00052911,0.00001796,-0.00177969,-0.00058682,0.00
 000248,0.00012929,0.00165099,0.00000054,-0.00131545,0.00045746,-0.0000
 8142,0.00287356,0.00169848,-0.00007869,-0.00079962,-0.00144446,0.00004
 217,0.00174107,0.00031623,-0.00000426,-0.00567872,0.00005223,0.0005425
 6,0.00583428,0.00436171,-0.00020509,-0.04066045,-0.02027455,-0.0056844
 3,-0.38575337,-0.17197423,-0.07555604,0.00647594,-0.00332836,0.0005125
 9,0.00052604,-0.00077237,0.00001787,0.00001912,0.00038722,-0.00000786,
 0.00002024,-0.00000973,-0.00000005,-0.00004388,-0.00001792,-0.00000236
 ,-0.00004596,-0.00004586,-0.00001067,-0.00023774,0.00019101,-0.0000034
 4,-0.00014586,0.00006105,-0.00006772,0.00029674,-0.00002021,-0.0001348
 7,0.41639831,0.00027373,-0.00012466,0.00001557,-0.00037105,-0.00011521
 ,0.00000430,0.00004097,0.00035574,-0.00003154,-0.00029184,0.00015908,0
 .00007234,0.00079474,0.00017676,0.00027445,-0.00022278,-0.00039633,-0.
 00005914,0.00035657,0.00005377,0.00000021,-0.00065427,0.00102237,-0.00
 053918,0.00361374,-0.00223919,-0.00108678,0.02873307,0.01283659,0.0065
 6233,-0.22021334,-0.15061967,-0.05389431,-0.00074922,-0.00057388,-0.00
 070192,0.00010661,-0.00019739,-0.00000835,0.00001750,0.00011473,-0.000
 00077,0.00000101,0.00000022,-0.00000516,0.00001190,-0.00001488,0.00000
 477,-0.00000435,0.00001478,-0.00000183,-0.00004206,0.00005204,-0.00000
 152,0.00003532,0.00000889,-0.00010270,0.00015634,0.00023215,0.00004486
 ,0.18657767,0.14250471,-0.00027430,0.00013220,-0.00007608,0.00040235,0
 .00013400,0.00003320,-0.00008275,-0.00039700,0.00002879,0.00037063,-0.
 00012258,-0.00039040,-0.00078495,-0.00044321,-0.00061519,0.00023759,0.
 00041552,0.00030059,-0.00038157,-0.00006733,-0.00001925,0.00200328,-0.
 00025645,0.00256213,-0.00086413,-0.00094889,0.00336454,0.00854317,0.00
 220040,-0.00395236,-0.08996166,-0.04940228,-0.02388053,0.00016988,-0.0
 0067296,-0.00379346,-0.00008916,0.00017348,0.00004259,-0.00000668,-0.0
 0008463,0.00002406,-0.00000208,0.00000181,0.00001420,-0.00000138,0.000
 00978,-0.00001188,0.00000420,-0.00001204,-0.00002318,0.00004737,-0.000
 04812,0.00000987,-0.00003823,-0.00001069,0.00017396,-0.00002530,-0.000
 06089,-0.00093152,0.08120090,0.04829232,0.02476198,0.00086025,-0.00040
 648,0.00005400,-0.00131594,-0.00047574,0.00000731,0.00011150,0.0012455
 6,-0.00002129,-0.00096224,0.00038130,0.00002439,0.00226908,0.00088775,
 -0.00016216,-0.00066623,-0.00110784,-0.00012125,0.00130087,0.00024088,
 -0.00000367,-0.00396712,0.00109196,0.00015484,0.00716595,0.00126167,0.
 00139208,-0.00426609,-0.00288210,-0.00202475,0.00007999,0.00461492,0.0
 0020800,-0.43253026,-0.17473337,0.10013991,0.00039968,-0.00057875,0.00
 000036,0.00001374,0.00029354,0.00000198,0.00001072,-0.00000564,0.00000
 493,-0.00003035,-0.00001982,0.00000801,-0.00003727,-0.00001991,0.00000
 221,-0.00017779,0.00014319,0.00000010,0.00018779,-0.00021023,0.0001685
 3,0.00004276,0.00009565,0.00004036,0.00100994,0.00183817,-0.00047395,0
 .43053621,0.00075125,-0.00028127,0.00002478,-0.00115351,-0.00034198,0.
 00001533,0.00001298,0.00103203,-0.00000084,-0.00071911,0.00037507,-0.0
 0004922,0.00160232,0.00104952,0.00026663,-0.00040118,-0.00091527,-0.00
 005933,0.00111211,0.00018226,-0.00000980,-0.00186411,0.00060988,0.0001
 3702,0.00648429,-0.00474912,-0.00063260,-0.05006892,-0.02413563,0.0092
 4879,0.00206279,0.00559376,-0.00089960,-0.12808753,-0.09716379,0.02750
 398,0.00040308,-0.00062412,0.00000930,0.00003905,0.00034499,-0.0000062
 7,0.00001834,-0.00000314,-0.00000366,-0.00003402,0.00000778,-0.0000078
 2,-0.00003946,-0.00000233,-0.00002792,-0.00015089,0.00013828,-0.000007
 30,-0.00055777,0.00043379,-0.00022603,-0.00113875,-0.00019312,-0.00059
 106,0.00334453,-0.00322726,0.00114513,0.16841745,0.12193075,0.00027443
 ,-0.00014745,-0.00014842,-0.00042246,-0.00019080,-0.00000458,0.0000702
 7,0.00045967,-0.00000356,-0.00038298,0.00013611,-0.00008837,0.00088378
 ,0.00031029,0.00010379,-0.00023676,-0.00044860,0.00019352,0.00042863,0
 .00008432,-0.00000162,-0.00172270,0.00070955,-0.00078619,0.00271870,-0
 .00211007,0.00264967,-0.00820693,-0.00645665,-0.00366592,0.00025312,-0
 .00052210,-0.00358769,0.10646948,0.04328957,-0.02771514,0.00011000,-0.
 00018484,-0.00001502,0.00000684,0.00009338,0.00003786,0.00000157,-0.00
 000140,0.00000682,0.00000023,-0.00001015,0.00004146,-0.00001163,0.0000
 2411,0.00012271,-0.00005593,0.00004967,0.00002457,0.00027906,-0.000040
 91,-0.00008406,-0.00054663,-0.00034813,0.00174203,-0.00050216,0.001161
 51,0.00238294,-0.09939840,-0.03583277,0.02880778,-0.00020643,-0.000039
 50,0.00000415,0.00035052,-0.00037173,0.00000169,0.00135150,-0.00217967
 ,0.00002767,-0.00039155,-0.00042107,0.00000564,0.00013132,0.00008032,0
 .00000149,0.00000981,0.00016523,-0.00000828,0.00005505,0.00012542,-0.0
 0000110,0.00017136,-0.00004922,-0.00000394,-0.00015366,0.00000709,0.00
 000360,0.00019079,0.00008298,0.00000063,-0.00010495,0.00002948,0.00000
 929,-0.00004252,-0.00008065,-0.00001242,0.00832844,-0.00394254,0.00007
 244,-0.30501666,0.10245701,-0.00177991,0.00002111,-0.00002008,0.000000
 20,0.00020451,0.00038488,-0.00000272,0.00000862,0.00002384,-0.00000012
 ,-0.00003205,-0.00006129,0.00000045,0.00002554,0.00000258,0.00000100,-
 0.00000029,-0.00000085,0.,0.00002043,0.00000301,-0.00000295,0.00001569
 ,0.00001562,0.00000428,0.31722134,-0.00049086,-0.00043646,0.00000715,0
 .00211472,-0.00080453,0.00001538,-0.00293130,-0.00498669,0.00009526,-0
 .00118523,-0.00051254,0.00000710,0.00060043,0.00030885,-0.00000307,-0.
 00001254,0.00008762,-0.00000629,-0.00030937,0.00013880,-0.00000333,-0.
 00026134,-0.00012785,0.00000375,0.00028105,0.00003229,0.00000467,-0.00
 025151,-0.00016764,-0.00000577,0.00013804,-0.00004087,-0.00001375,0.00
 004359,0.00014742,0.00001702,0.03667295,-0.02881079,0.00043323,0.08627
 628,-0.08014502,0.00047590,0.00013252,-0.00008625,0.00000103,0.0001504
 4,0.00058107,-0.00001375,0.00002210,0.00003841,-0.00000084,0.00023198,
 -0.00022967,0.00000517,0.00002944,-0.00000151,-0.00000146,-0.00000761,
 0.00000486,-0.00000122,-0.00002053,-0.00000696,0.00000561,-0.00001553,
 -0.00001631,-0.00000560,-0.10498786,0.10466461,0.00000867,0.00000567,-
 0.00004368,-0.00002907,0.00002005,0.00033931,0.00005173,0.00007312,0.0
 0055967,0.00001564,0.00001001,0.00022924,-0.00001106,-0.00000130,0.000
 16078,-0.00000005,-0.00000334,-0.00002152,0.00000231,-0.00000487,-0.00
 013554,0.00000336,0.00000262,0.00001932,-0.00000400,-0.00000166,0.0000
 0526,0.00000279,0.00000321,-0.00000745,-0.00000224,0.00000132,-0.00000
 046,0.00000064,-0.00000258,0.00000274,-0.00054315,0.00043177,-0.000327
 68,-0.00153579,0.00046994,-0.05094629,-0.00000192,0.00000080,-0.000029
 45,-0.00000072,-0.00001656,-0.00045912,-0.00000045,-0.00000094,-0.0000
 1984,-0.00000381,0.00000498,0.00019572,0.00000002,-0.00000037,-0.00000
 988,0.00000014,0.,-0.00000163,0.00000039,-0.00000009,0.00000191,-0.000
 00039,0.00000069,-0.00000031,0.00181725,-0.00091248,0.04682274,0.00022
 715,0.00003088,-0.00001240,0.00034175,0.00020763,-0.00028801,0.0007875
 0,0.00088884,0.00118999,0.00001919,-0.00085276,0.00019316,-0.00008580,
 0.00029090,-0.00037676,0.00004390,-0.00035369,-0.00003767,-0.00026721,
 -0.00011412,0.00011541,-0.00019414,0.00002102,0.00001873,0.00026340,0.
 00000510,0.00000316,-0.00031456,-0.00014521,0.00000424,0.00017968,-0.0
 0005031,-0.00001658,0.00006971,0.00014385,0.00002085,-0.00046367,-0.00
 586577,-0.00091105,-0.11772569,-0.03480813,-0.10916100,0.00001739,-0.0
 0001404,0.00000736,-0.00089639,0.00091874,0.00112552,-0.00000135,0.000
 00075,0.00004011,0.00012311,0.00021815,-0.00014129,-0.00001538,0.00000
 122,-0.00000062,-0.00000943,0.00000217,-0.00000141,-0.00003315,-0.0000
 0551,0.00000279,-0.00002523,-0.00002464,-0.00000821,-0.01106674,-0.008
 48356,-0.02498039,0.12040998,-0.00056774,0.00007182,0.00007229,-0.0004
 8986,-0.00177805,0.00068465,-0.00604617,0.00474894,-0.00162397,0.00054
 358,0.00074862,0.00033176,0.00064061,-0.00015828,0.00026659,0.00037934
 ,0.00030850,0.00005932,0.00085429,-0.00024521,0.00008623,-0.00040295,-
 0.00012929,-0.00002199,0.00041523,0.00002647,0.00001131,-0.00039615,-0
 .00021982,-0.00000662,0.00022817,-0.00007679,-0.00002050,0.00006686,0.
 00019998,0.00002812,-0.01754621,-0.03252145,-0.02914767,-0.03096510,-0
 .06695841,-0.05407548,0.00002057,-0.00000760,-0.00006965,0.00095477,-0
 .00048264,-0.00091855,0.00001623,0.00001535,-0.00004265,0.00039657,0.0
 0081181,-0.00031135,0.00000843,-0.00000110,-0.00001155,-0.00000154,0.0
 0000416,-0.00000165,-0.00003690,-0.00000839,0.00000804,-0.00002850,-0.
 00002199,-0.00000790,0.00440885,0.00536601,0.01024975,0.04248208,0.085
 46884,-0.00013627,0.00009924,-0.00001868,0.00017170,-0.00053744,-0.000
 24115,-0.00064002,0.00085470,0.00050817,-0.00100591,-0.00098952,-0.000
 19338,0.00035155,0.00037552,-0.00012556,0.00002026,0.00007869,-0.00004
 410,0.00018423,0.00018129,0.00002343,0.00002208,-0.00012111,0.00003161
 ,0.00000439,0.00003125,0.00000342,0.00004094,-0.00005831,-0.00000869,-
 0.00003361,0.00001819,0.00000415,-0.00001022,0.00004253,0.00000968,0.0
 0310001,-0.00289060,0.00774009,-0.10933658,-0.06049311,-0.23871142,0.0
 0000906,-0.00000668,0.00001409,0.00059957,0.00020354,-0.00004511,0.000
 01589,0.00006069,0.00000903,-0.00001711,0.00010450,-0.00000234,0.00005
 606,-0.00000809,-0.00001927,-0.00000969,0.00000362,-0.00000498,0.00000
 973,-0.00000451,-0.00000213,0.00000632,-0.00000347,-0.00000623,0.00164
 670,0.00113044,0.00165202,0.11914404,0.06854561,0.24845012,0.00022959,
 0.00003147,-0.00000064,0.00034034,0.00021660,0.00028255,0.00078221,0.0
 0086667,-0.00122697,-0.00004618,-0.00080167,-0.00017756,-0.00008278,0.
 00031044,0.00035154,0.00004131,-0.00035326,0.00006878,-0.00026533,-0.0
 0011721,-0.00011152,-0.00019360,0.00001816,-0.00001382,0.00026340,0.00
 000600,-0.00001204,-0.00031374,-0.00014483,-0.00000927,0.00017835,-0.0
 0004928,-0.00001338,0.00007001,0.00014250,0.00002307,-0.00049613,-0.00
 582367,0.00112360,-0.11794421,-0.03138567,0.11012339,0.00001768,-0.000
 01449,-0.00000622,-0.00093694,0.00090704,-0.00115830,-0.00000089,-0.00
 000006,-0.00004008,0.00012188,0.00022309,0.00013582,-0.00001352,-0.000
 00074,-0.00000304,-0.00000939,0.00000225,0.00000170,-0.00003265,-0.000
 00592,0.00000694,-0.00002566,-0.00002391,-0.00000560,-0.01109118,-0.00
 773630,0.02521012,0.00861598,0.00506552,-0.01419312,0.12079145,-0.0005
 6328,0.00006643,-0.00007799,-0.00050473,-0.00176100,-0.00064410,-0.006
 02006,0.00476652,0.00149725,0.00061964,0.00071599,-0.00034523,0.000635
 72,-0.00018851,-0.00025877,0.00037869,0.00031472,-0.00006311,0.0008461
 0,-0.00024839,-0.00008038,-0.00040217,-0.00012639,0.00003761,0.0004136
 1,0.00002563,-0.00001618,-0.00039594,-0.00021741,0.00000340,0.00022889
 ,-0.00007688,-0.00002594,0.00006467,0.00019950,0.00002366,-0.01761128,
 -0.03156372,0.03026624,-0.02754194,-0.06371996,0.04868098,0.00001884,-
 0.00000442,0.00006990,0.00094493,-0.00047383,0.00092714,0.00001533,0.0
 0001458,0.00004133,0.00039351,0.00081275,0.00029235,0.00000418,0.00000
 022,0.00000661,-0.00000090,0.00000415,-0.00000215,-0.00003754,-0.00000
 802,0.00000879,-0.00002812,-0.00002275,-0.00001080,0.00436816,0.005003
 15,-0.01032975,0.00550643,0.00483849,-0.00661696,0.03866727,0.08164914
 ,0.00015421,-0.00010185,-0.00001638,-0.00015908,0.00058879,-0.00023100
 ,0.00082773,-0.00099097,0.00049284,0.00097789,0.00096498,-0.00021773,-
 0.00037254,-0.00037316,-0.00010051,-0.00003384,-0.00008921,-0.00004421
 ,-0.00021048,-0.00017288,0.00002981,-0.00000827,0.00012652,0.00003299,
 -0.00001820,-0.00003188,0.00000786,-0.00002879,0.00006113,-0.00000450,
 0.00002422,-0.00001485,0.00000142,0.00001032,-0.00004775,0.00000645,-0
 .00254946,0.00407537,0.00672331,0.11017332,0.05507067,-0.24125692,-0.0
 0000976,0.00000751,0.00001268,-0.00063251,-0.00019485,-0.00007392,-0.0
 0001659,-0.00006064,0.00000974,0.00000494,-0.00013020,-0.00000828,-0.0
 0005610,0.00000779,-0.00002038,0.00000954,-0.00000347,-0.00000442,-0.0
 0000814,0.00000512,-0.00000477,-0.00000745,0.00000604,-0.00000605,-0.0
 0178504,-0.00123416,0.00201414,0.01407004,0.00591584,-0.01902278,-0.12
 035596,-0.06338389,0.25168063\\-0.00002876,0.00000890,0.00000196,0.000
 07155,0.00005065,-0.00000003,0.00000767,-0.00008119,-0.00000615,0.0000
 2908,0.00001019,0.00000200,-0.00004070,-0.00001284,0.00000072,0.000036
 58,0.00001177,0.00000246,-0.00005683,-0.00003811,0.00000240,0.00006831
 ,-0.00000855,-0.00001698,-0.00004760,0.00004190,-0.00002132,0.00002396
 ,0.00003189,0.00007443,-0.00000108,-0.00001075,-0.00002034,-0.00001948
 ,-0.00000113,-0.00001244,-0.00002872,0.00001631,0.00001083,-0.00000467
 ,-0.00003328,-0.00000514,0.00002151,-0.00000709,0.00000288,-0.00001430
 ,-0.00000383,0.00000078,0.00000871,-0.00000019,0.00000305,0.00000217,-
 0.00000280,0.00000216,-0.00001174,0.00000858,0.00000466,0.00001341,0.0
 0000172,-0.00000349,-0.00000093,0.00002950,-0.00001023,-0.00000482,0.0
 0001847,-0.00001228,-0.00001100,-0.00002063,-0.00000086,-0.00000663,-0
 .00000416,0.00000166,-0.00000567,-0.00000532,-0.00000073\\\@


 If your ship doesn't come in, swim out to it!
                          -- Jonathan Winters
 Job cpu time:       0 days  1 hours 46 minutes 22.4 seconds.
 File lengths (MBytes):  RWF=    478 Int=      0 D2E=      0 Chk=      9 Scr=      1
 Normal termination of Gaussian 09 at Tue May 28 18:55:46 2024.
