 Entering Gaussian System, Link 0=g09
 Input=m062xFA.gjf
 Output=m062xFA.log
 Initial command:
 /home/phzd/g09E/g09/l1.exe "/home/phzd/g09E/scratch/Gau-580512.inp" -scrdir="/home/phzd/g09E/scratch/"
 Default is to use a total of  18 processors:
                               18 via shared-memory
                                1 via Linda
 Entering Link 1 = /home/phzd/g09E/g09/l1.exe PID=    580514.
  
 Copyright (c) 1988,1990,1992,1993,1995,1998,2003,2009,2015,
            Gaussian, Inc.  All Rights Reserved.
  
 This is part of the Gaussian(R) 09 program.  It is based on
 the Gaussian(R) 03 system (copyright 2003, Gaussian, Inc.),
 the Gaussian(R) 98 system (copyright 1998, Gaussian, Inc.),
 the Gaussian(R) 94 system (copyright 1995, Gaussian, Inc.),
 the Gaussian 92(TM) system (copyright 1992, Gaussian, Inc.),
 the Gaussian 90(TM) system (copyright 1990, Gaussian, Inc.),
 the Gaussian 88(TM) system (copyright 1988, Gaussian, Inc.),
 the Gaussian 86(TM) system (copyright 1986, Carnegie Mellon
 University), and the Gaussian 82(TM) system (copyright 1983,
 Carnegie Mellon University). Gaussian is a federally registered
 trademark of Gaussian, Inc.
  
 This software contains proprietary and confidential information,
 including trade secrets, belonging to Gaussian, Inc.
  
 This software is provided under written license and may be
 used, copied, transmitted, or stored only in accord with that
 written license.
  
 The following legend is applicable only to US Government
 contracts under FAR:
  
                    RESTRICTED RIGHTS LEGEND
  
 Use, reproduction and disclosure by the US Government is
 subject to restrictions as set forth in subparagraphs (a)
 and (c) of the Commercial Computer Software - Restricted
 Rights clause in FAR 52.227-19.
  
 Gaussian, Inc.
 340 Quinnipiac St., Bldg. 40, Wallingford CT 06492
  
  
 ---------------------------------------------------------------
 Warning -- This program may not be used in any manner that
 competes with the business of Gaussian, Inc. or will provide
 assistance to any competitor of Gaussian, Inc.  The licensee
 of this program is prohibited from giving any competitor of
 Gaussian, Inc. access to this program.  By using this program,
 the user acknowledges that Gaussian, Inc. is engaged in the
 business of creating and licensing software in the field of
 computational chemistry and represents and warrants to the
 licensee that it is not a competitor of Gaussian, Inc. and that
 it will not use this program in any manner prohibited above.
 ---------------------------------------------------------------
  

 Cite this work as:
 Gaussian 09, Revision E.01,
 M. J. Frisch, G. W. Trucks, H. B. Schlegel, G. E. Scuseria, 
 M. A. Robb, J. R. Cheeseman, G. Scalmani, V. Barone, B. Mennucci, 
 G. A. Petersson, H. Nakatsuji, M. Caricato, X. Li, H. P. Hratchian, 
 A. F. Izmaylov, J. Bloino, G. Zheng, J. L. Sonnenberg, M. Hada, 
 M. Ehara, K. Toyota, R. Fukuda, J. Hasegawa, M. Ishida, T. Nakajima, 
 Y. Honda, O. Kitao, H. Nakai, T. Vreven, J. A. Montgomery, Jr., 
 J. E. Peralta, F. Ogliaro, M. Bearpark, J. J. Heyd, E. Brothers, 
 K. N. Kudin, V. N. Staroverov, T. Keith, R. Kobayashi, J. Normand, 
 K. Raghavachari, A. Rendell, J. C. Burant, S. S. Iyengar, J. Tomasi, 
 M. Cossi, N. Rega, J. M. Millam, M. Klene, J. E. Knox, J. B. Cross, 
 V. Bakken, C. Adamo, J. Jaramillo, R. Gomperts, R. E. Stratmann, 
 O. Yazyev, A. J. Austin, R. Cammi, C. Pomelli, J. W. Ochterski, 
 R. L. Martin, K. Morokuma, V. G. Zakrzewski, G. A. Voth, 
 P. Salvador, J. J. Dannenberg, S. Dapprich, A. D. Daniels, 
 O. Farkas, J. B. Foresman, J. V. Ortiz, J. Cioslowski, 
 and D. J. Fox, Gaussian, Inc., Wallingford CT, 2013.
 
 ******************************************
 Gaussian 09:  ES64L-G09RevE.01 30-Nov-2015
                28-May-2024 
 ******************************************
 %chk=m062xFA.chk
 ----------------------------
 # opt freq m062x/6-31+g(d,p)
 ----------------------------
 1/14=-1,18=20,19=15,26=3,38=1/1,3;
 2/9=110,12=2,17=6,18=5,40=1/2;
 3/5=1,6=6,7=111,11=2,16=1,25=1,30=1,71=1,74=-55/1,2,3;
 4//1;
 5/5=2,38=5/2;
 6/7=2,8=2,9=2,10=2,28=1/1;
 7//1,2,3,16;
 1/14=-1,18=20,19=15,26=3/3(2);
 2/9=110/2;
 99//99;
 2/9=110/2;
 3/5=1,6=6,7=111,11=2,16=1,25=1,30=1,71=1,74=-55/1,2,3;
 4/5=5,16=3,69=1/1;
 5/5=2,38=5/2;
 7//1,2,3,16;
 1/14=-1,18=20,19=15,26=3/3(-5);
 2/9=110/2;
 6/7=2,8=2,9=2,10=2,19=2,28=1/1;
 99/9=1/99;
 ----------
 [No Title]
 ----------
 Symbolic Z-matrix:
 Charge =  0 Multiplicity = 1
 C                     1.45814  -2.01669   0.00006 
 C                     2.493    -1.08322  -0.00003 
 C                     2.19067   0.29321  -0.00011 
 C                     0.86799   0.71504  -0.0001 
 C                    -0.18644  -0.22455  -0.00001 
 C                     0.13301  -1.59288   0.00007 
 O                     3.78406  -1.50188  -0.00004 
 C                    -1.55836   0.27498  -0.00001 
 C                    -2.69545  -0.44988   0.00001 
 O                     3.29712   1.10375  -0.00022 
 C                     3.10035   2.51439   0.00029 
 C                    -4.07769   0.0748    0.00003 
 O                    -5.0443   -0.65798   0.00013 
 O                    -4.27238   1.42677  -0.00015 
 H                     1.71117  -3.07124   0.00012 
 H                     0.63253   1.77324  -0.00017 
 H                    -0.65541  -2.33657   0.00015 
 H                     4.35791  -0.71924  -0.00007 
 H                    -1.62007   1.36481  -0.00003 
 H                    -2.6708   -1.53387   0.00005 
 H                     4.09656   2.95611   0.00046 
 H                     2.5563    2.83322  -0.89647 
 H                     2.55625   2.83257   0.89724 
 H                    -3.43174   1.90446  -0.00032 
 

 GradGradGradGradGradGradGradGradGradGradGradGradGradGradGradGradGradGrad
 Berny optimization.
 Initialization pass.
                           ----------------------------
                           !    Initial Parameters    !
                           ! (Angstroms and Degrees)  !
 --------------------------                            --------------------------
 ! Name  Definition              Value          Derivative Info.                !
 --------------------------------------------------------------------------------
 ! R1    R(1,2)                  1.3937         estimate D2E/DX2                !
 ! R2    R(1,6)                  1.3913         estimate D2E/DX2                !
 ! R3    R(1,15)                 1.0845         estimate D2E/DX2                !
 ! R4    R(2,3)                  1.4092         estimate D2E/DX2                !
 ! R5    R(2,7)                  1.3572         estimate D2E/DX2                !
 ! R6    R(3,4)                  1.3883         estimate D2E/DX2                !
 ! R7    R(3,10)                 1.3716         estimate D2E/DX2                !
 ! R8    R(4,5)                  1.4123         estimate D2E/DX2                !
 ! R9    R(4,16)                 1.0841         estimate D2E/DX2                !
 ! R10   R(5,6)                  1.4051         estimate D2E/DX2                !
 ! R11   R(5,8)                  1.46           estimate D2E/DX2                !
 ! R12   R(6,17)                 1.0838         estimate D2E/DX2                !
 ! R13   R(7,18)                 0.9705         estimate D2E/DX2                !
 ! R14   R(8,9)                  1.3485         estimate D2E/DX2                !
 ! R15   R(8,19)                 1.0916         estimate D2E/DX2                !
 ! R16   R(9,12)                 1.4785         estimate D2E/DX2                !
 ! R17   R(9,20)                 1.0843         estimate D2E/DX2                !
 ! R18   R(10,11)                1.4243         estimate D2E/DX2                !
 ! R19   R(11,21)                1.0898         estimate D2E/DX2                !
 ! R20   R(11,22)                1.0963         estimate D2E/DX2                !
 ! R21   R(11,23)                1.0963         estimate D2E/DX2                !
 ! R22   R(12,13)                1.213          estimate D2E/DX2                !
 ! R23   R(12,14)                1.3659         estimate D2E/DX2                !
 ! R24   R(14,24)                0.9669         estimate D2E/DX2                !
 ! A1    A(2,1,6)              120.213          estimate D2E/DX2                !
 ! A2    A(2,1,15)             118.5585         estimate D2E/DX2                !
 ! A3    A(6,1,15)             121.2285         estimate D2E/DX2                !
 ! A4    A(1,2,3)              119.6633         estimate D2E/DX2                !
 ! A5    A(1,2,7)              119.9822         estimate D2E/DX2                !
 ! A6    A(3,2,7)              120.3545         estimate D2E/DX2                !
 ! A7    A(2,3,4)              120.0764         estimate D2E/DX2                !
 ! A8    A(2,3,10)             113.8369         estimate D2E/DX2                !
 ! A9    A(4,3,10)             126.0867         estimate D2E/DX2                !
 ! A10   A(3,4,5)              120.6078         estimate D2E/DX2                !
 ! A11   A(3,4,16)             120.2333         estimate D2E/DX2                !
 ! A12   A(5,4,16)             119.1589         estimate D2E/DX2                !
 ! A13   A(4,5,6)              118.5632         estimate D2E/DX2                !
 ! A14   A(4,5,8)              118.2894         estimate D2E/DX2                !
 ! A15   A(6,5,8)              123.1474         estimate D2E/DX2                !
 ! A16   A(1,6,5)              120.8762         estimate D2E/DX2                !
 ! A17   A(1,6,17)             118.9364         estimate D2E/DX2                !
 ! A18   A(5,6,17)             120.1874         estimate D2E/DX2                !
 ! A19   A(2,7,18)             108.2834         estimate D2E/DX2                !
 ! A20   A(5,8,9)              127.4768         estimate D2E/DX2                !
 ! A21   A(5,8,19)             113.2478         estimate D2E/DX2                !
 ! A22   A(9,8,19)             119.2753         estimate D2E/DX2                !
 ! A23   A(8,9,12)             126.6975         estimate D2E/DX2                !
 ! A24   A(8,9,20)             121.2135         estimate D2E/DX2                !
 ! A25   A(12,9,20)            112.089          estimate D2E/DX2                !
 ! A26   A(3,10,11)            118.2836         estimate D2E/DX2                !
 ! A27   A(10,11,21)           105.9715         estimate D2E/DX2                !
 ! A28   A(10,11,22)           110.8745         estimate D2E/DX2                !
 ! A29   A(10,11,23)           110.8741         estimate D2E/DX2                !
 ! A30   A(21,11,22)           109.628          estimate D2E/DX2                !
 ! A31   A(21,11,23)           109.6291         estimate D2E/DX2                !
 ! A32   A(22,11,23)           109.7896         estimate D2E/DX2                !
 ! A33   A(9,12,13)            122.0484         estimate D2E/DX2                !
 ! A34   A(9,12,14)            118.9805         estimate D2E/DX2                !
 ! A35   A(13,12,14)           118.9711         estimate D2E/DX2                !
 ! A36   A(12,14,24)           111.4125         estimate D2E/DX2                !
 ! D1    D(6,1,2,3)             -0.0002         estimate D2E/DX2                !
 ! D2    D(6,1,2,7)            179.9998         estimate D2E/DX2                !
 ! D3    D(15,1,2,3)          -179.9993         estimate D2E/DX2                !
 ! D4    D(15,1,2,7)             0.0007         estimate D2E/DX2                !
 ! D5    D(2,1,6,5)              0.0002         estimate D2E/DX2                !
 ! D6    D(2,1,6,17)          -179.9994         estimate D2E/DX2                !
 ! D7    D(15,1,6,5)           179.9994         estimate D2E/DX2                !
 ! D8    D(15,1,6,17)           -0.0003         estimate D2E/DX2                !
 ! D9    D(1,2,3,4)              0.0            estimate D2E/DX2                !
 ! D10   D(1,2,3,10)          -179.9984         estimate D2E/DX2                !
 ! D11   D(7,2,3,4)            180.0            estimate D2E/DX2                !
 ! D12   D(7,2,3,10)             0.0016         estimate D2E/DX2                !
 ! D13   D(1,2,7,18)          -179.9977         estimate D2E/DX2                !
 ! D14   D(3,2,7,18)             0.0023         estimate D2E/DX2                !
 ! D15   D(2,3,4,5)              0.0002         estimate D2E/DX2                !
 ! D16   D(2,3,4,16)          -179.999          estimate D2E/DX2                !
 ! D17   D(10,3,4,5)           179.9984         estimate D2E/DX2                !
 ! D18   D(10,3,4,16)           -0.0009         estimate D2E/DX2                !
 ! D19   D(2,3,10,11)         -179.9731         estimate D2E/DX2                !
 ! D20   D(4,3,10,11)            0.0286         estimate D2E/DX2                !
 ! D21   D(3,4,5,6)             -0.0002         estimate D2E/DX2                !
 ! D22   D(3,4,5,8)           -179.9995         estimate D2E/DX2                !
 ! D23   D(16,4,5,6)           179.9991         estimate D2E/DX2                !
 ! D24   D(16,4,5,8)            -0.0003         estimate D2E/DX2                !
 ! D25   D(4,5,6,1)             -0.0001         estimate D2E/DX2                !
 ! D26   D(4,5,6,17)           179.9996         estimate D2E/DX2                !
 ! D27   D(8,5,6,1)            179.9993         estimate D2E/DX2                !
 ! D28   D(8,5,6,17)            -0.0011         estimate D2E/DX2                !
 ! D29   D(4,5,8,9)            179.9971         estimate D2E/DX2                !
 ! D30   D(4,5,8,19)            -0.0033         estimate D2E/DX2                !
 ! D31   D(6,5,8,9)             -0.0023         estimate D2E/DX2                !
 ! D32   D(6,5,8,19)           179.9974         estimate D2E/DX2                !
 ! D33   D(5,8,9,12)           179.999          estimate D2E/DX2                !
 ! D34   D(5,8,9,20)             0.0006         estimate D2E/DX2                !
 ! D35   D(19,8,9,12)           -0.0006         estimate D2E/DX2                !
 ! D36   D(19,8,9,20)         -179.999          estimate D2E/DX2                !
 ! D37   D(8,9,12,13)         -179.9956         estimate D2E/DX2                !
 ! D38   D(8,9,12,14)            0.008          estimate D2E/DX2                !
 ! D39   D(20,9,12,13)           0.0029         estimate D2E/DX2                !
 ! D40   D(20,9,12,14)        -179.9935         estimate D2E/DX2                !
 ! D41   D(3,10,11,21)         179.9797         estimate D2E/DX2                !
 ! D42   D(3,10,11,22)         -61.1329         estimate D2E/DX2                !
 ! D43   D(3,10,11,23)          61.0912         estimate D2E/DX2                !
 ! D44   D(9,12,14,24)           0.0037         estimate D2E/DX2                !
 ! D45   D(13,12,14,24)       -179.9929         estimate D2E/DX2                !
 --------------------------------------------------------------------------------
 Trust Radius=3.00D-01 FncErr=1.00D-07 GrdErr=1.00D-06
 Number of steps in this run=    115 maximum allowed number of steps=    144.
 GradGradGradGradGradGradGradGradGradGradGradGradGradGradGradGradGradGrad

                          Input orientation:                          
 ---------------------------------------------------------------------
 Center     Atomic      Atomic             Coordinates (Angstroms)
 Number     Number       Type             X           Y           Z
 ---------------------------------------------------------------------
      1          6           0        1.458135   -2.016691    0.000055
      2          6           0        2.492997   -1.083219   -0.000030
      3          6           0        2.190673    0.293212   -0.000105
      4          6           0        0.867994    0.715039   -0.000095
      5          6           0       -0.186435   -0.224546   -0.000005
      6          6           0        0.133007   -1.592879    0.000070
      7          8           0        3.784056   -1.501876   -0.000040
      8          6           0       -1.558361    0.274980   -0.000009
      9          6           0       -2.695451   -0.449882    0.000013
     10          8           0        3.297123    1.103747   -0.000220
     11          6           0        3.100346    2.514385    0.000285
     12          6           0       -4.077691    0.074800    0.000029
     13          8           0       -5.044300   -0.657977    0.000128
     14          8           0       -4.272376    1.426772   -0.000145
     15          1           0        1.711170   -3.071241    0.000123
     16          1           0        0.632527    1.773239   -0.000169
     17          1           0       -0.655409   -2.336570    0.000147
     18          1           0        4.357905   -0.719244   -0.000066
     19          1           0       -1.620074    1.364809   -0.000026
     20          1           0       -2.670799   -1.533867    0.000047
     21          1           0        4.096560    2.956112    0.000463
     22          1           0        2.556303    2.833224   -0.896473
     23          1           0        2.556253    2.832567    0.897243
     24          1           0       -3.431736    1.904455   -0.000322
 ---------------------------------------------------------------------
                    Distance matrix (angstroms):
                    1          2          3          4          5
     1  C    0.000000
     2  C    1.393668   0.000000
     3  C    2.423275   1.409242   0.000000
     4  C    2.794748   2.423709   1.388315   0.000000
     5  C    2.432364   2.813659   2.432841   1.412317   0.000000
     6  C    1.391252   2.414396   2.791295   2.422125   1.405126
     7  O    2.382214   1.357242   2.400252   3.663077   4.170896
     8  C    3.788272   4.272962   3.749078   2.465938   1.460037
     9  C    4.439276   5.226960   4.942307   3.749024   2.519114
    10  O    3.622017   2.330116   1.371568   2.460033   3.728209
    11  C    4.819492   3.648510   2.400232   2.867236   4.278396
    12  C    5.917745   6.671952   6.272168   4.986954   3.902753
    13  O    6.642873   7.549283   7.297232   6.069629   4.877163
    14  O    6.685521   7.215977   6.561704   5.189409   4.407013
    15  H    1.084483   2.136231   3.398451   3.879028   3.421195
    16  H    3.878814   3.408915   2.149023   1.084081   2.159130
    17  H    2.137613   3.388709   3.875040   3.410729   2.163465
    18  H    3.176796   1.900095   2.392062   3.773148   4.571187
    19  H    4.572736   4.786459   3.958549   2.571514   2.140414
    20  H    4.157068   5.183423   5.193470   4.192927   2.808271
    21  H    5.629392   4.345988   3.274667   3.930146   5.334851
    22  H    5.052862   4.018226   2.718239   2.853172   4.204310
    23  H    5.052337   4.017771   2.717941   2.852956   4.203966
    24  H    6.267872   6.635409   5.848725   4.461209   3.881317
                    6          7          8          9         10
     6  C    0.000000
     7  O    3.652183   0.000000
     8  C    2.519846   5.630154   0.000000
     9  C    3.050675   6.564351   1.348480   0.000000
    10  O    4.157334   2.650731   4.925706   6.190695   0.000000
    11  C    5.067023   4.074041   5.168993   6.509850   1.424297
    12  C    4.528922   8.018290   2.527270   1.478472   7.446248
    13  O    5.261041   8.868598   3.608626   2.358049   8.525433
    14  O    5.340945   8.572227   2.948305   2.451229   7.576388
    15  H    2.162441   2.599954   4.678357   5.127361   4.466069
    16  H    3.402980   4.545164   2.654199   4.002212   2.747415
    17  H    1.083825   4.517252   2.763244   2.778734   5.240066
    18  H    4.314279   0.970472   5.999224   7.058497   2.109160
    19  H    3.438199   6.117394   1.091575   2.109393   4.924122
    20  H    2.804427   6.454934   2.123546   1.084265   6.524807
    21  H    6.033496   4.468928   6.258323   7.598171   2.017512
    22  H    5.125089   4.593916   4.927344   6.258066   2.084028
    23  H    5.124609   4.593475   4.927105   6.257786   2.084022
    24  H    4.993870   7.979395   2.482886   2.466783   6.776332
                   11         12         13         14         15
    11  C    0.000000
    12  C    7.581279   0.000000
    13  O    8.740660   1.212970   0.000000
    14  O    7.452512   1.365917   2.223071   0.000000
    15  H    5.755782   6.588512   7.173578   7.485649   0.000000
    16  H    2.576709   5.007080   6.175530   4.917124   4.963110
    17  H    6.134938   4.186492   4.698940   5.219693   2.477991
    18  H    3.469555   8.472885   9.402405   8.893095   3.540776
    19  H    4.858383   2.775609   3.977058   2.653026   5.547587
    20  H    7.049430   2.137090   2.529959   3.366071   4.643832
    21  H    1.089755   8.667199   9.829393   8.507524   6.482212
    22  H    1.096274   7.240338   8.411988   7.029393   6.031653
    23  H    1.096271   7.240130   8.411725   7.029348   6.031081
    24  H    6.560496   1.940334   3.027610   0.966880   7.155909
                   16         17         18         19         20
    16  H    0.000000
    17  H    4.306891   0.000000
    18  H    4.482289   5.267738   0.000000
    19  H    2.289329   3.825021   6.330838   0.000000
    20  H    4.674282   2.169361   7.075754   3.083236   0.000000
    21  H    3.660425   7.112924   3.684636   5.933983   8.121395
    22  H    2.372308   6.151893   4.082811   4.516856   6.870067
    23  H    2.372392   6.151385   4.082459   4.516759   6.869700
    24  H    4.066381   5.068953   8.219629   1.890327   3.521517
                   21         22         23         24
    21  H    0.000000
    22  H    1.786613   0.000000
    23  H    1.786623   1.793716   0.000000
    24  H    7.601396   6.125546   6.125604   0.000000
 Stoichiometry    C10H10O4
 Framework group  C1[X(C10H10O4)]
 Deg. of freedom    66
 Full point group                 C1      NOp   1
 Largest Abelian subgroup         C1      NOp   1
 Largest concise Abelian subgroup C1      NOp   1
                         Standard orientation:                         
 ---------------------------------------------------------------------
 Center     Atomic      Atomic             Coordinates (Angstroms)
 Number     Number       Type             X           Y           Z
 ---------------------------------------------------------------------
      1          6           0        1.458135   -2.016691    0.000055
      2          6           0        2.492997   -1.083219   -0.000030
      3          6           0        2.190673    0.293212   -0.000105
      4          6           0        0.867994    0.715039   -0.000095
      5          6           0       -0.186435   -0.224546   -0.000005
      6          6           0        0.133007   -1.592879    0.000070
      7          8           0        3.784056   -1.501876   -0.000040
      8          6           0       -1.558361    0.274980   -0.000009
      9          6           0       -2.695451   -0.449882    0.000013
     10          8           0        3.297123    1.103747   -0.000220
     11          6           0        3.100346    2.514385    0.000285
     12          6           0       -4.077691    0.074800    0.000029
     13          8           0       -5.044300   -0.657977    0.000128
     14          8           0       -4.272376    1.426772   -0.000145
     15          1           0        1.711170   -3.071241    0.000123
     16          1           0        0.632527    1.773239   -0.000169
     17          1           0       -0.655409   -2.336570    0.000147
     18          1           0        4.357905   -0.719244   -0.000066
     19          1           0       -1.620074    1.364809   -0.000026
     20          1           0       -2.670799   -1.533867    0.000047
     21          1           0        4.096560    2.956112    0.000463
     22          1           0        2.556303    2.833224   -0.896473
     23          1           0        2.556253    2.832567    0.897243
     24          1           0       -3.431736    1.904455   -0.000322
 ---------------------------------------------------------------------
 Rotational constants (GHZ):      1.5395511      0.2844560      0.2404652
 Standard basis: 6-31+G(d,p) (6D, 7F)
 There are   316 symmetry adapted cartesian basis functions of A   symmetry.
 There are   316 symmetry adapted basis functions of A   symmetry.
   316 basis functions,   518 primitive gaussians,   316 cartesian basis functions
    51 alpha electrons       51 beta electrons
       nuclear repulsion energy       821.9984529001 Hartrees.
 NAtoms=   24 NActive=   24 NUniq=   24 SFac= 1.00D+00 NAtFMM=   60 NAOKFM=F Big=F
 Integral buffers will be    131072 words long.
 Raffenetti 2 integral format.
 Two-electron integral symmetry is turned on.
 One-electron integrals computed using PRISM.
 NBasis=   316 RedAO= T EigKep=  1.48D-06  NBF=   316
 NBsUse=   315 1.00D-06 EigRej=  6.86D-07 NBFU=   315
 ExpMin= 4.38D-02 ExpMax= 5.48D+03 ExpMxC= 8.25D+02 IAcc=2 IRadAn=         4 AccDes= 0.00D+00
 Harris functional with IExCor= 1009 and IRadAn=       4 diagonalized for initial guess.
 HarFok:  IExCor= 1009 AccDes= 0.00D+00 IRadAn=         4 IDoV= 1 UseB2=F ITyADJ=14
 ICtDFT=  3500011 ScaDFX=  1.000000  1.000000  1.000000  1.000000
 FoFCou: FMM=F IPFlag=           0 FMFlag=      100000 FMFlg1=           0
         NFxFlg=           0 DoJE=T BraDBF=F KetDBF=T FulRan=T
         wScrn=  0.000000 ICntrl=     500 IOpCl=  0 I1Cent=   200000004 NGrid=           0
         NMat0=    1 NMatS0=      1 NMatT0=    0 NMatD0=    1 NMtDS0=    0 NMtDT0=    0
 Petite list used in FoFCou.
 Requested convergence on RMS density matrix=1.00D-08 within 128 cycles.
 Requested convergence on MAX density matrix=1.00D-06.
 Requested convergence on             energy=1.00D-06.
 No special actions if energy rises.
 SCF Done:  E(RM062X) =  -687.717188924     A.U. after   16 cycles
            NFock= 16  Conv=0.32D-08     -V/T= 2.0086

 **********************************************************************

            Population analysis using the SCF density.

 **********************************************************************

 Orbital symmetries:
       Occupied  (A) (A) (A) (A) (A) (A) (A) (A) (A) (A) (A) (A)
                 (A) (A) (A) (A) (A) (A) (A) (A) (A) (A) (A) (A)
                 (A) (A) (A) (A) (A) (A) (A) (A) (A) (A) (A) (A)
                 (A) (A) (A) (A) (A) (A) (A) (A) (A) (A) (A) (A)
                 (A) (A) (A)
       Virtual   (A) (A) (A) (A) (A) (A) (A) (A) (A) (A) (A) (A)
                 (A) (A) (A) (A) (A) (A) (A) (A) (A) (A) (A) (A)
                 (A) (A) (A) (A) (A) (A) (A) (A) (A) (A) (A) (A)
                 (A) (A) (A) (A) (A) (A) (A) (A) (A) (A) (A) (A)
                 (A) (A) (A) (A) (A) (A) (A) (A) (A) (A) (A) (A)
                 (A) (A) (A) (A) (A) (A) (A) (A) (A) (A) (A) (A)
                 (A) (A) (A) (A) (A) (A) (A) (A) (A) (A) (A) (A)
                 (A) (A) (A) (A) (A) (A) (A) (A) (A) (A) (A) (A)
                 (A) (A) (A) (A) (A) (A) (A) (A) (A) (A) (A) (A)
                 (A) (A) (A) (A) (A) (A) (A) (A) (A) (A) (A) (A)
                 (A) (A) (A) (A) (A) (A) (A) (A) (A) (A) (A) (A)
                 (A) (A) (A) (A) (A) (A) (A) (A) (A) (A) (A) (A)
                 (A) (A) (A) (A) (A) (A) (A) (A) (A) (A) (A) (A)
                 (A) (A) (A) (A) (A) (A) (A) (A) (A) (A) (A) (A)
                 (A) (A) (A) (A) (A) (A) (A) (A) (A) (A) (A) (A)
                 (A) (A) (A) (A) (A) (A) (A) (A) (A) (A) (A) (A)
                 (A) (A) (A) (A) (A) (A) (A) (A) (A) (A) (A) (A)
                 (A) (A) (A) (A) (A) (A) (A) (A) (A) (A) (A) (A)
                 (A) (A) (A) (A) (A) (A) (A) (A) (A) (A) (A) (A)
                 (A) (A) (A) (A) (A) (A) (A) (A) (A) (A) (A) (A)
                 (A) (A) (A) (A) (A) (A) (A) (A) (A) (A) (A) (A)
                 (A) (A) (A) (A) (A) (A) (A) (A) (A) (A) (A) (A)
 The electronic state is 1-A.
 Alpha  occ. eigenvalues --  -19.71143 -19.69376 -19.69329 -19.63496 -10.69220
 Alpha  occ. eigenvalues --  -10.64000 -10.63902 -10.63130 -10.60336 -10.58838
 Alpha  occ. eigenvalues --  -10.58623 -10.58093 -10.57800 -10.57405  -1.22979
 Alpha  occ. eigenvalues --   -1.22708  -1.19688  -1.13929  -0.98972  -0.92578
 Alpha  occ. eigenvalues --   -0.87907  -0.86305  -0.81891  -0.76341  -0.72001
 Alpha  occ. eigenvalues --   -0.70787  -0.68179  -0.65965  -0.62926  -0.60603
 Alpha  occ. eigenvalues --   -0.59065  -0.57958  -0.55583  -0.54071  -0.52893
 Alpha  occ. eigenvalues --   -0.52804  -0.51944  -0.51268  -0.50482  -0.47435
 Alpha  occ. eigenvalues --   -0.47252  -0.45449  -0.45184  -0.43986  -0.43181
 Alpha  occ. eigenvalues --   -0.42684  -0.39468  -0.36375  -0.35573  -0.31932
 Alpha  occ. eigenvalues --   -0.27617
 Alpha virt. eigenvalues --   -0.05005  -0.00704   0.00332   0.00418   0.01575
 Alpha virt. eigenvalues --    0.02093   0.03126   0.03838   0.04657   0.04694
 Alpha virt. eigenvalues --    0.05687   0.05754   0.06301   0.07634   0.07640
 Alpha virt. eigenvalues --    0.08343   0.08732   0.09295   0.09600   0.10039
 Alpha virt. eigenvalues --    0.10931   0.11492   0.12713   0.13660   0.13703
 Alpha virt. eigenvalues --    0.14377   0.14455   0.14482   0.15253   0.15829
 Alpha virt. eigenvalues --    0.16721   0.16994   0.17813   0.18400   0.18405
 Alpha virt. eigenvalues --    0.18981   0.19708   0.20362   0.21206   0.21715
 Alpha virt. eigenvalues --    0.22155   0.22811   0.23436   0.23838   0.24496
 Alpha virt. eigenvalues --    0.24558   0.25423   0.26054   0.26260   0.27109
 Alpha virt. eigenvalues --    0.27332   0.27990   0.28652   0.29092   0.29897
 Alpha virt. eigenvalues --    0.30413   0.31444   0.31732   0.32319   0.32651
 Alpha virt. eigenvalues --    0.32877   0.33959   0.34035   0.34603   0.35221
 Alpha virt. eigenvalues --    0.35340   0.35785   0.37212   0.37922   0.38550
 Alpha virt. eigenvalues --    0.39892   0.40318   0.41017   0.41558   0.43988
 Alpha virt. eigenvalues --    0.44878   0.45270   0.48109   0.49530   0.52472
 Alpha virt. eigenvalues --    0.52824   0.56977   0.61935   0.66593   0.68361
 Alpha virt. eigenvalues --    0.68618   0.70635   0.71368   0.71652   0.72693
 Alpha virt. eigenvalues --    0.74406   0.75722   0.75756   0.76978   0.77085
 Alpha virt. eigenvalues --    0.78548   0.79672   0.81343   0.81837   0.83057
 Alpha virt. eigenvalues --    0.86948   0.87417   0.87885   0.90311   0.90919
 Alpha virt. eigenvalues --    0.93798   0.95160   0.96952   0.99209   1.01334
 Alpha virt. eigenvalues --    1.03883   1.05013   1.06842   1.08123   1.08446
 Alpha virt. eigenvalues --    1.09286   1.12498   1.12922   1.14726   1.15767
 Alpha virt. eigenvalues --    1.16954   1.19105   1.19694   1.21593   1.21829
 Alpha virt. eigenvalues --    1.23056   1.23866   1.24950   1.25753   1.26844
 Alpha virt. eigenvalues --    1.28190   1.29814   1.30624   1.31015   1.31273
 Alpha virt. eigenvalues --    1.32900   1.33923   1.34249   1.37209   1.37730
 Alpha virt. eigenvalues --    1.39812   1.40774   1.41740   1.42365   1.42666
 Alpha virt. eigenvalues --    1.44491   1.45152   1.46987   1.47339   1.48384
 Alpha virt. eigenvalues --    1.49482   1.50231   1.55923   1.57969   1.59680
 Alpha virt. eigenvalues --    1.62921   1.63655   1.64229   1.70364   1.74483
 Alpha virt. eigenvalues --    1.76783   1.80610   1.81989   1.82261   1.84022
 Alpha virt. eigenvalues --    1.86396   1.86508   1.89075   1.89233   1.90349
 Alpha virt. eigenvalues --    1.92261   1.93814   1.94097   1.96208   1.98763
 Alpha virt. eigenvalues --    1.99364   1.99472   2.00670   2.03587   2.04195
 Alpha virt. eigenvalues --    2.04555   2.06866   2.07721   2.09134   2.09212
 Alpha virt. eigenvalues --    2.12040   2.12685   2.16528   2.18464   2.20609
 Alpha virt. eigenvalues --    2.23494   2.25101   2.26356   2.29360   2.30658
 Alpha virt. eigenvalues --    2.33266   2.38408   2.39066   2.41389   2.45625
 Alpha virt. eigenvalues --    2.46791   2.48452   2.48915   2.48971   2.51275
 Alpha virt. eigenvalues --    2.52913   2.53473   2.53670   2.55834   2.56279
 Alpha virt. eigenvalues --    2.57269   2.59877   2.62449   2.63971   2.64511
 Alpha virt. eigenvalues --    2.66821   2.67531   2.69405   2.71700   2.72905
 Alpha virt. eigenvalues --    2.73738   2.74767   2.75453   2.78017   2.81553
 Alpha virt. eigenvalues --    2.84293   2.84622   2.85528   2.89790   2.94365
 Alpha virt. eigenvalues --    2.95662   3.02965   3.08285   3.10391   3.13404
 Alpha virt. eigenvalues --    3.16316   3.17927   3.20536   3.23110   3.25308
 Alpha virt. eigenvalues --    3.31901   3.34746   3.38247   3.43523   3.46876
 Alpha virt. eigenvalues --    3.48771   3.53536   3.57319   3.59534   3.79155
 Alpha virt. eigenvalues --    4.20959   4.25891   4.28548   4.33404   4.36645
 Alpha virt. eigenvalues --    4.41743   4.44379   4.48957   4.53376   4.55548
 Alpha virt. eigenvalues --    4.61015   4.68520   4.79108   5.09309
          Condensed to atoms (all electrons):
               1          2          3          4          5          6
     1  C   10.680010  -0.585656  -1.760645  -1.756394  -0.075647  -1.090451
     2  C   -0.585656  15.975069  -4.022558  -3.954405  -0.937758   0.943055
     3  C   -1.760645  -4.022558  14.519497  -0.276002  -1.066513  -1.600504
     4  C   -1.756394  -3.954405  -0.276002  14.345372   2.094148  -1.011866
     5  C   -0.075647  -0.937758  -1.066513   2.094148   7.784692  -0.176160
     6  C   -1.090451   0.943055  -1.600504  -1.011866  -0.176160   8.297454
     7  O   -0.535440   0.144667   0.287516   0.112100  -0.042747  -0.012631
     8  C    0.460269  -0.866182   0.268128  -2.593709  -0.717938   0.165939
     9  C    0.051119  -0.008886  -0.522777  -1.324349  -1.121572   0.742230
    10  O    0.069238  -0.828417   0.574428   0.170860  -0.003853  -0.052319
    11  C    0.037203   0.017593  -0.186380   0.031142  -0.001720  -0.004746
    12  C   -0.065434   0.051969  -0.009839   0.069347  -0.331807  -0.020801
    13  O   -0.001806   0.000073   0.000428   0.012810   0.057778  -0.010110
    14  O    0.000463  -0.001453   0.004740  -0.000397   0.026417  -0.002963
    15  H    0.232528   0.053831   0.030998   0.002239  -0.003289   0.014390
    16  H   -0.016971   0.001239  -0.195929   0.363250   0.020810  -0.000096
    17  H   -0.033411  -0.034536   0.006003   0.051677   0.160688   0.183923
    18  H    0.195901   0.165792  -0.317938  -0.064172   0.005752  -0.000057
    19  H    0.009132   0.000704   0.054053   0.230881   0.049075  -0.088220
    20  H    0.029378  -0.004859   0.006683   0.016512   0.086985  -0.038497
    21  H    0.003016   0.060214   0.051791  -0.085834  -0.006353  -0.000188
    22  H   -0.002996  -0.041882  -0.092810   0.106377   0.014273   0.002583
    23  H   -0.003007  -0.041872  -0.092588   0.106189   0.014271   0.002593
    24  H   -0.001143   0.001169  -0.002501   0.053714   0.064751  -0.008152
               7          8          9         10         11         12
     1  C   -0.535440   0.460269   0.051119   0.069238   0.037203  -0.065434
     2  C    0.144667  -0.866182  -0.008886  -0.828417   0.017593   0.051969
     3  C    0.287516   0.268128  -0.522777   0.574428  -0.186380  -0.009839
     4  C    0.112100  -2.593709  -1.324349   0.170860   0.031142   0.069347
     5  C   -0.042747  -0.717938  -1.121572  -0.003853  -0.001720  -0.331807
     6  C   -0.012631   0.165939   0.742230  -0.052319  -0.004746  -0.020801
     7  O    8.362072   0.003696   0.000351   0.002532   0.000694   0.000138
     8  C    0.003696   9.263808  -0.691580  -0.021403  -0.031351   0.305560
     9  C    0.000351  -0.691580  10.627607  -0.003654  -0.003377  -1.465782
    10  O    0.002532  -0.021403  -0.003654   8.606469   0.078830   0.000098
    11  C    0.000694  -0.031351  -0.003377   0.078830   4.973123  -0.000907
    12  C    0.000138   0.305560  -1.465782   0.000098  -0.000907   6.632535
    13  O    0.000000   0.062444  -0.327723   0.000000   0.000006   0.540878
    14  O   -0.000000   0.115524  -0.058233  -0.000005  -0.000012  -0.049286
    15  H   -0.004462  -0.002288   0.000543  -0.000638   0.000131   0.000026
    16  H   -0.000424   0.105462   0.031550  -0.010167   0.001177   0.000586
    17  H   -0.000558  -0.013276  -0.025101   0.000140   0.000097   0.014682
    18  H    0.208777   0.000630   0.000112   0.034186   0.005054   0.000009
    19  H   -0.000007   0.239538  -0.185725   0.000107   0.001142  -0.040363
    20  H   -0.000002  -0.023729   0.323528   0.000002   0.000029  -0.075187
    21  H   -0.000152  -0.000153   0.000063  -0.067544   0.413965   0.000004
    22  H   -0.000048   0.000155   0.000052  -0.038962   0.413193  -0.000029
    23  H   -0.000047   0.000151   0.000052  -0.038984   0.413178  -0.000029
    24  H   -0.000000   0.081078  -0.291110   0.000002   0.000108   0.128917
              13         14         15         16         17         18
     1  C   -0.001806   0.000463   0.232528  -0.016971  -0.033411   0.195901
     2  C    0.000073  -0.001453   0.053831   0.001239  -0.034536   0.165792
     3  C    0.000428   0.004740   0.030998  -0.195929   0.006003  -0.317938
     4  C    0.012810  -0.000397   0.002239   0.363250   0.051677  -0.064172
     5  C    0.057778   0.026417  -0.003289   0.020810   0.160688   0.005752
     6  C   -0.010110  -0.002963   0.014390  -0.000096   0.183923  -0.000057
     7  O    0.000000  -0.000000  -0.004462  -0.000424  -0.000558   0.208777
     8  C    0.062444   0.115524  -0.002288   0.105462  -0.013276   0.000630
     9  C   -0.327723  -0.058233   0.000543   0.031550  -0.025101   0.000112
    10  O    0.000000  -0.000005  -0.000638  -0.010167   0.000140   0.034186
    11  C    0.000006  -0.000012   0.000131   0.001177   0.000097   0.005054
    12  C    0.540878  -0.049286   0.000026   0.000586   0.014682   0.000009
    13  O    8.225077  -0.122421   0.000000  -0.000001   0.000152   0.000000
    14  O   -0.122421   8.345575  -0.000000   0.000018  -0.000005   0.000000
    15  H    0.000000  -0.000000   0.502086   0.000013  -0.003793  -0.000034
    16  H   -0.000001   0.000018   0.000013   0.556299  -0.000134  -0.000017
    17  H    0.000152  -0.000005  -0.003793  -0.000134   0.539289   0.000004
    18  H    0.000000   0.000000  -0.000034  -0.000017   0.000004   0.356960
    19  H   -0.000139  -0.007280   0.000002   0.003806   0.000016   0.000000
    20  H   -0.011571   0.006733   0.000005   0.000000   0.000713   0.000000
    21  H    0.000000  -0.000000  -0.000000   0.000147  -0.000000  -0.000042
    22  H   -0.000000  -0.000000   0.000000  -0.001273   0.000000   0.000021
    23  H   -0.000000  -0.000000   0.000000  -0.001273   0.000000   0.000021
    24  H    0.013987   0.185704   0.000000   0.000012   0.000003  -0.000000
              19         20         21         22         23         24
     1  C    0.009132   0.029378   0.003016  -0.002996  -0.003007  -0.001143
     2  C    0.000704  -0.004859   0.060214  -0.041882  -0.041872   0.001169
     3  C    0.054053   0.006683   0.051791  -0.092810  -0.092588  -0.002501
     4  C    0.230881   0.016512  -0.085834   0.106377   0.106189   0.053714
     5  C    0.049075   0.086985  -0.006353   0.014273   0.014271   0.064751
     6  C   -0.088220  -0.038497  -0.000188   0.002583   0.002593  -0.008152
     7  O   -0.000007  -0.000002  -0.000152  -0.000048  -0.000047  -0.000000
     8  C    0.239538  -0.023729  -0.000153   0.000155   0.000151   0.081078
     9  C   -0.185725   0.323528   0.000063   0.000052   0.000052  -0.291110
    10  O    0.000107   0.000002  -0.067544  -0.038962  -0.038984   0.000002
    11  C    0.001142   0.000029   0.413965   0.413193   0.413178   0.000108
    12  C   -0.040363  -0.075187   0.000004  -0.000029  -0.000029   0.128917
    13  O   -0.000139  -0.011571   0.000000  -0.000000  -0.000000   0.013987
    14  O   -0.007280   0.006733  -0.000000  -0.000000  -0.000000   0.185704
    15  H    0.000002   0.000005  -0.000000   0.000000   0.000000   0.000000
    16  H    0.003806   0.000000   0.000147  -0.001273  -0.001273   0.000012
    17  H    0.000016   0.000713  -0.000000   0.000000   0.000000   0.000003
    18  H    0.000000   0.000000  -0.000042   0.000021   0.000021  -0.000000
    19  H    0.618110   0.003928   0.000000  -0.000002  -0.000002   0.010760
    20  H    0.003928   0.513353  -0.000000   0.000000   0.000000   0.000104
    21  H    0.000000  -0.000000   0.508607  -0.025287  -0.025280   0.000000
    22  H   -0.000002   0.000000  -0.025287   0.546056  -0.041939   0.000000
    23  H   -0.000002   0.000000  -0.025280  -0.041939   0.546051   0.000000
    24  H    0.010760   0.000104   0.000000   0.000000   0.000000   0.415968
 Mulliken charges:
               1
     1  C    0.160744
     2  C   -0.086912
     3  C    0.342718
     4  C   -0.699492
     5  C    0.105718
     6  C   -0.234405
     7  O   -0.526025
     8  C   -0.110772
     9  C    0.252662
    10  O   -0.470946
    11  C   -0.158174
    12  C    0.314717
    13  O   -0.439865
    14  O   -0.443121
    15  H    0.177712
    16  H    0.141914
    17  H    0.153425
    18  H    0.409041
    19  H    0.100485
    20  H    0.165891
    21  H    0.173024
    22  H    0.162518
    23  H    0.162515
    24  H    0.346629
 Sum of Mulliken charges =  -0.00000
 Mulliken charges with hydrogens summed into heavy atoms:
               1
     1  C    0.338456
     2  C   -0.086912
     3  C    0.342718
     4  C   -0.557578
     5  C    0.105718
     6  C   -0.080981
     7  O   -0.116984
     8  C   -0.010288
     9  C    0.418553
    10  O   -0.470946
    11  C    0.339884
    12  C    0.314717
    13  O   -0.439865
    14  O   -0.096493
 Electronic spatial extent (au):  <R**2>=           4183.8117
 Charge=             -0.0000 electrons
 Dipole moment (field-independent basis, Debye):
    X=              6.5061    Y=              3.7900    Z=              0.0002  Tot=              7.5295
 Quadrupole moment (field-independent basis, Debye-Ang):
   XX=           -115.5370   YY=            -70.6592   ZZ=            -85.4096
   XY=              6.1219   XZ=              0.0037   YZ=              0.0003
 Traceless Quadrupole moment (field-independent basis, Debye-Ang):
   XX=            -25.0017   YY=             19.8761   ZZ=              5.1257
   XY=              6.1219   XZ=              0.0037   YZ=              0.0003
 Octapole moment (field-independent basis, Debye-Ang**2):
  XXX=            262.5013  YYY=             23.7095  ZZZ=             -0.0004  XYY=             11.7259
  XXY=             49.4894  XXZ=              0.0017  XZZ=             -2.3656  YZZ=              5.3207
  YYZ=              0.0009  XYZ=              0.0052
 Hexadecapole moment (field-independent basis, Debye-Ang**3):
 XXXX=          -5350.2446 YYYY=           -850.8445 ZZZZ=            -98.5403 XXXY=             74.7294
 XXXZ=              0.0506 YYYX=             50.3002 YYYZ=             -0.0073 ZZZX=             -0.0010
 ZZZY=              0.0003 XXYY=           -879.8428 XXZZ=           -732.7947 YYZZ=           -183.7571
 XXYZ=              0.0189 YYXZ=              0.0156 ZZXY=              1.6576
 N-N= 8.219984529001D+02 E-N=-3.247379824910D+03  KE= 6.818256958096D+02
 Calling FoFJK, ICntrl=      2127 FMM=F ISym2X=0 I1Cent= 0 IOpClX= 0 NMat=1 NMatS=1 NMatT=0.
 ***** Axes restored to original set *****
 -------------------------------------------------------------------
 Center     Atomic                   Forces (Hartrees/Bohr)
 Number     Number              X              Y              Z
 -------------------------------------------------------------------
      1        6           0.001345941    0.003136002    0.000000025
      2        6           0.001149171   -0.001293583   -0.000000461
      3        6           0.001785149    0.001553097   -0.000002100
      4        6          -0.000634360   -0.003665352    0.000000795
      5        6           0.007657038   -0.003930198   -0.000000564
      6        6           0.000304381    0.004663198   -0.000000333
      7        8          -0.004306909    0.004087952    0.000000066
      8        6          -0.009653350   -0.001150319    0.000000761
      9        6           0.008929867    0.001160483    0.000002252
     10        8          -0.003713308    0.001636448    0.000005383
     11        6          -0.000503287   -0.004751910   -0.000003693
     12        6          -0.015751204    0.002046662   -0.000008527
     13        8           0.012555424    0.008540624    0.000002376
     14        8           0.004712682   -0.007531188    0.000003118
     15        1           0.000340939    0.000087281   -0.000000202
     16        1           0.000171803    0.001101719    0.000000144
     17        1          -0.000338807   -0.000381418    0.000000162
     18        1          -0.001015305   -0.001792872   -0.000000174
     19        1           0.000207373    0.000356953    0.000000448
     20        1          -0.000237552   -0.000357415   -0.000000082
     21        1          -0.000453985   -0.000447673   -0.000000226
     22        1           0.000139572   -0.000764768    0.000260344
     23        1           0.000140238   -0.000763505   -0.000259688
     24        1          -0.002831512   -0.001540219    0.000000178
 -------------------------------------------------------------------
 Cartesian Forces:  Max     0.015751204 RMS     0.003652085

 GradGradGradGradGradGradGradGradGradGradGradGradGradGradGradGradGradGrad
 Berny optimization.
 FormGI is forming the generalized inverse of G from B-inverse, IUseBI=4.
 Internal  Forces:  Max     0.015170350 RMS     0.002493089
 Search for a local minimum.
 Step number   1 out of a maximum of  115
 All quantities printed in internal units (Hartrees-Bohrs-Radians)
 Mixed Optimization -- RFO/linear search
 Second derivative matrix not updated -- first step.
 ITU=  0
     Eigenvalues ---    0.01051   0.01295   0.01370   0.01399   0.01772
     Eigenvalues ---    0.01979   0.01987   0.02050   0.02068   0.02071
     Eigenvalues ---    0.02093   0.02103   0.02112   0.02141   0.02143
     Eigenvalues ---    0.02175   0.02189   0.02257   0.02770   0.10126
     Eigenvalues ---    0.10663   0.16000   0.16000   0.16000   0.16000
     Eigenvalues ---    0.16000   0.16000   0.16000   0.16000   0.16000
     Eigenvalues ---    0.16000   0.22000   0.22000   0.22372   0.23482
     Eigenvalues ---    0.24605   0.25000   0.25000   0.25000   0.25000
     Eigenvalues ---    0.25000   0.25000   0.34098   0.34098   0.34631
     Eigenvalues ---    0.34745   0.34841   0.35458   0.35484   0.35506
     Eigenvalues ---    0.35536   0.36960   0.40984   0.41750   0.41820
     Eigenvalues ---    0.44455   0.45072   0.46494   0.47393   0.50676
     Eigenvalues ---    0.51769   0.53281   0.53509   0.54020   0.55346
     Eigenvalues ---    0.98567
 RFO step:  Lambda=-1.19371280D-03 EMin= 1.05072535D-02
 Linear search not attempted -- first point.
 Iteration  1 RMS(Cart)=  0.02166452 RMS(Int)=  0.00010767
 Iteration  2 RMS(Cart)=  0.00016452 RMS(Int)=  0.00000280
 Iteration  3 RMS(Cart)=  0.00000002 RMS(Int)=  0.00000280
 Variable       Old X    -DE/DX   Delta X   Delta X   Delta X     New X
                                 (Linear)    (Quad)   (Total)
    R1        2.63365  -0.00438   0.00000  -0.00930  -0.00930   2.62435
    R2        2.62908  -0.00155   0.00000  -0.00320  -0.00321   2.62588
    R3        2.04938  -0.00000   0.00000  -0.00001  -0.00001   2.04936
    R4        2.66308  -0.00406   0.00000  -0.00921  -0.00921   2.65387
    R5        2.56482  -0.00577   0.00000  -0.01076  -0.01076   2.55406
    R6        2.62353  -0.00348   0.00000  -0.00738  -0.00738   2.61615
    R7        2.59189  -0.00655   0.00000  -0.01289  -0.01289   2.57899
    R8        2.66889  -0.00444   0.00000  -0.01021  -0.01021   2.65868
    R9        2.04862   0.00104   0.00000   0.00291   0.00291   2.05153
   R10        2.65530  -0.00478   0.00000  -0.01061  -0.01061   2.64469
   R11        2.75907   0.00248   0.00000   0.00670   0.00670   2.76577
   R12        2.04813   0.00051   0.00000   0.00143   0.00143   2.04956
   R13        1.83393  -0.00205   0.00000  -0.00385  -0.00385   1.83008
   R14        2.54826  -0.00749   0.00000  -0.01351  -0.01351   2.53475
   R15        2.06278   0.00035   0.00000   0.00100   0.00100   2.06378
   R16        2.79391   0.00178   0.00000   0.00510   0.00510   2.79900
   R17        2.04896   0.00035   0.00000   0.00097   0.00097   2.04993
   R18        2.69153  -0.00660   0.00000  -0.01573  -0.01573   2.67580
   R19        2.05934  -0.00059   0.00000  -0.00170  -0.00170   2.05764
   R20        2.07166  -0.00051   0.00000  -0.00149  -0.00149   2.07017
   R21        2.07165  -0.00051   0.00000  -0.00148  -0.00148   2.07017
   R22        2.29218  -0.01517   0.00000  -0.01537  -0.01537   2.27681
   R23        2.58121  -0.00923   0.00000  -0.01779  -0.01779   2.56342
   R24        1.82714  -0.00322   0.00000  -0.00594  -0.00594   1.82120
    A1        2.09811  -0.00044   0.00000  -0.00156  -0.00156   2.09655
    A2        2.06924  -0.00013   0.00000  -0.00141  -0.00141   2.06783
    A3        2.11584   0.00057   0.00000   0.00297   0.00297   2.11881
    A4        2.08852   0.00003   0.00000   0.00024   0.00024   2.08876
    A5        2.09408   0.00044   0.00000   0.00166   0.00166   2.09575
    A6        2.10058  -0.00046   0.00000  -0.00190  -0.00190   2.09868
    A7        2.09573   0.00055   0.00000   0.00208   0.00208   2.09781
    A8        1.98683   0.00030   0.00000   0.00127   0.00127   1.98809
    A9        2.20063  -0.00086   0.00000  -0.00335  -0.00335   2.19728
   A10        2.10500  -0.00060   0.00000  -0.00291  -0.00290   2.10210
   A11        2.09847  -0.00012   0.00000  -0.00115  -0.00115   2.09731
   A12        2.07971   0.00072   0.00000   0.00406   0.00406   2.08377
   A13        2.06932   0.00076   0.00000   0.00311   0.00311   2.07243
   A14        2.06454  -0.00063   0.00000  -0.00256  -0.00256   2.06198
   A15        2.14933  -0.00013   0.00000  -0.00055  -0.00055   2.14878
   A16        2.10969  -0.00030   0.00000  -0.00097  -0.00097   2.10872
   A17        2.07583   0.00011   0.00000   0.00023   0.00023   2.07606
   A18        2.09767   0.00019   0.00000   0.00074   0.00074   2.09840
   A19        1.88990   0.00045   0.00000   0.00279   0.00279   1.89269
   A20        2.22489  -0.00126   0.00000  -0.00570  -0.00570   2.21919
   A21        1.97655   0.00039   0.00000   0.00138   0.00138   1.97793
   A22        2.08175   0.00087   0.00000   0.00432   0.00432   2.08607
   A23        2.21129  -0.00175   0.00000  -0.00792  -0.00792   2.20337
   A24        2.11558   0.00113   0.00000   0.00554   0.00554   2.12112
   A25        1.95632   0.00062   0.00000   0.00238   0.00238   1.95870
   A26        2.06444  -0.00518   0.00000  -0.02062  -0.02062   2.04382
   A27        1.84955   0.00002   0.00000   0.00059   0.00058   1.85014
   A28        1.93513  -0.00080   0.00000  -0.00520  -0.00521   1.92992
   A29        1.93512  -0.00080   0.00000  -0.00519  -0.00520   1.92992
   A30        1.91337   0.00051   0.00000   0.00362   0.00362   1.91699
   A31        1.91339   0.00051   0.00000   0.00362   0.00362   1.91700
   A32        1.91619   0.00056   0.00000   0.00266   0.00264   1.91883
   A33        2.13015  -0.00072   0.00000  -0.00285  -0.00285   2.12729
   A34        2.07660  -0.00033   0.00000  -0.00130  -0.00130   2.07530
   A35        2.07644   0.00104   0.00000   0.00416   0.00416   2.08060
   A36        1.94452   0.00012   0.00000   0.00074   0.00074   1.94525
    D1       -0.00000   0.00000   0.00000   0.00000   0.00000  -0.00000
    D2        3.14159   0.00000   0.00000   0.00000   0.00000   3.14159
    D3       -3.14158  -0.00000   0.00000  -0.00000  -0.00000  -3.14158
    D4        0.00001  -0.00000   0.00000  -0.00000  -0.00000   0.00001
    D5        0.00000   0.00000   0.00000   0.00000   0.00000   0.00001
    D6       -3.14158   0.00000   0.00000   0.00000   0.00000  -3.14158
    D7        3.14158   0.00000   0.00000   0.00000   0.00000   3.14159
    D8       -0.00000   0.00000   0.00000   0.00001   0.00001   0.00000
    D9       -0.00000  -0.00000   0.00000  -0.00000  -0.00000  -0.00000
   D10       -3.14156  -0.00000   0.00000  -0.00001  -0.00001  -3.14158
   D11        3.14159  -0.00000   0.00000  -0.00000  -0.00000   3.14159
   D12        0.00003  -0.00000   0.00000  -0.00001  -0.00001   0.00001
   D13       -3.14155  -0.00000   0.00000  -0.00001  -0.00001  -3.14156
   D14        0.00004  -0.00000   0.00000  -0.00001  -0.00001   0.00003
   D15        0.00000   0.00000   0.00000   0.00000   0.00000   0.00001
   D16       -3.14158  -0.00000   0.00000  -0.00001  -0.00001  -3.14158
   D17        3.14156   0.00000   0.00000   0.00001   0.00001   3.14158
   D18       -0.00002   0.00000   0.00000   0.00001   0.00001  -0.00001
   D19       -3.14112  -0.00000   0.00000  -0.00006  -0.00006  -3.14119
   D20        0.00050  -0.00000   0.00000  -0.00008  -0.00008   0.00042
   D21       -0.00000   0.00000   0.00000   0.00000   0.00000  -0.00000
   D22       -3.14158  -0.00000   0.00000  -0.00000  -0.00000  -3.14159
   D23        3.14158   0.00000   0.00000   0.00001   0.00001   3.14159
   D24       -0.00001   0.00000   0.00000   0.00001   0.00001   0.00000
   D25       -0.00000  -0.00000   0.00000  -0.00000  -0.00000  -0.00000
   D26        3.14159  -0.00000   0.00000  -0.00000  -0.00000   3.14158
   D27        3.14158   0.00000   0.00000   0.00000   0.00000   3.14158
   D28       -0.00002   0.00000   0.00000   0.00000   0.00000  -0.00002
   D29        3.14154   0.00000   0.00000   0.00001   0.00001   3.14155
   D30       -0.00006   0.00000   0.00000   0.00001   0.00001  -0.00005
   D31       -0.00004   0.00000   0.00000   0.00000   0.00000  -0.00003
   D32        3.14155   0.00000   0.00000   0.00001   0.00001   3.14155
   D33        3.14158   0.00000   0.00000   0.00002   0.00002   3.14159
   D34        0.00001   0.00000   0.00000   0.00002   0.00002   0.00003
   D35       -0.00001   0.00000   0.00000   0.00002   0.00002   0.00001
   D36       -3.14157   0.00000   0.00000   0.00002   0.00002  -3.14156
   D37       -3.14152   0.00000   0.00000   0.00019   0.00019  -3.14132
   D38        0.00014  -0.00000   0.00000  -0.00007  -0.00007   0.00007
   D39        0.00005   0.00000   0.00000   0.00019   0.00019   0.00024
   D40       -3.14148  -0.00000   0.00000  -0.00007  -0.00007  -3.14155
   D41        3.14124   0.00000   0.00000   0.00006   0.00006   3.14129
   D42       -1.06697   0.00019   0.00000   0.00195   0.00194  -1.06503
   D43        1.06624  -0.00019   0.00000  -0.00184  -0.00182   1.06442
   D44        0.00006   0.00000   0.00000   0.00014   0.00014   0.00021
   D45       -3.14147  -0.00000   0.00000  -0.00011  -0.00011  -3.14158
         Item               Value     Threshold  Converged?
 Maximum Force            0.015170     0.000450     NO 
 RMS     Force            0.002493     0.000300     NO 
 Maximum Displacement     0.085202     0.001800     NO 
 RMS     Displacement     0.021641     0.001200     NO 
 Predicted change in Energy=-5.984347D-04
 GradGradGradGradGradGradGradGradGradGradGradGradGradGradGradGradGradGrad

                          Input orientation:                          
 ---------------------------------------------------------------------
 Center     Atomic      Atomic             Coordinates (Angstroms)
 Number     Number       Type             X           Y           Z
 ---------------------------------------------------------------------
      1          6           0        1.461362   -2.011556    0.000041
      2          6           0        2.492628   -1.081448   -0.000024
      3          6           0        2.191772    0.290317   -0.000084
      4          6           0        0.873823    0.714107   -0.000083
      5          6           0       -0.176089   -0.222425   -0.000015
      6          6           0        0.138539   -1.586109    0.000049
      7          8           0        3.778934   -1.496296   -0.000028
      8          6           0       -1.550320    0.281123   -0.000024
      9          6           0       -2.678736   -0.444027   -0.000012
     10          8           0        3.291945    1.097875   -0.000162
     11          6           0        3.066106    2.495722    0.000284
     12          6           0       -4.061245    0.087508   -0.000021
     13          8           0       -5.022395   -0.639004    0.000265
     14          8           0       -4.247113    1.431218   -0.000123
     15          1           0        1.715812   -3.065759    0.000096
     16          1           0        0.641777    1.774638   -0.000139
     17          1           0       -0.651809   -2.328853    0.000113
     18          1           0        4.352509   -0.715989   -0.000047
     19          1           0       -1.611339    1.371523   -0.000036
     20          1           0       -2.656118   -1.528570    0.000034
     21          1           0        4.051473    2.959032    0.000455
     22          1           0        2.513935    2.796803   -0.896683
     23          1           0        2.513882    2.796222    0.897411
     24          1           0       -3.406915    1.903296   -0.000366
 ---------------------------------------------------------------------
                    Distance matrix (angstroms):
                    1          2          3          4          5
     1  C    0.000000
     2  C    1.388744   0.000000
     3  C    2.414978   1.404370   0.000000
     4  C    2.788268   2.417550   1.384409   0.000000
     5  C    2.425332   2.803564   2.422740   1.406914   0.000000
     6  C    1.389555   2.407575   2.781500   2.414878   1.399509
     7  O    2.374160   1.351548   2.389785   3.650418   4.155112
     8  C    3.785050   4.266384   3.742104   2.462508   1.463582
     9  C    4.426913   5.210501   4.925557   3.736569   2.512439
    10  O    3.608267   2.321283   1.364745   2.448385   3.710856
    11  C    4.784428   3.622847   2.372397   2.824935   4.230857
    12  C    5.908067   6.657306   6.256306   4.974689   3.897499
    13  O    6.627442   7.528036   7.273777   6.049487   4.864177
    14  O    6.666286   7.192885   6.539181   5.170902   4.394061
    15  H    1.084477   2.130946   3.389659   3.872509   3.415236
    16  H    3.873885   3.403363   2.146088   1.085621   2.158047
    17  H    2.136860   3.382825   3.866007   3.403992   2.159479
    18  H    3.168158   1.895446   2.383576   3.761173   4.555414
    19  H    4.570198   4.781173   3.953816   2.570647   2.144904
    20  H    4.145710   5.168124   5.177875   4.182114   2.802955
    21  H    5.604946   4.330760   3.252772   3.890649   5.290931
    22  H    5.003233   3.980614   2.681445   2.798479   4.141978
    23  H    5.002779   3.980222   2.681196   2.798302   4.141684
    24  H    6.247094   6.611604   5.826405   4.442847   3.867419
                    6          7          8          9         10
     6  C    0.000000
     7  O    3.641503   0.000000
     8  C    2.517698   5.617844   0.000000
     9  C    3.039966   6.542842   1.341330   0.000000
    10  O    4.140982   2.639485   4.910663   6.166563   0.000000
    11  C    5.023146   4.055161   5.120140   6.453320   1.415973
    12  C    4.520972   7.998553   2.518379   1.481169   7.422280
    13  O    5.247118   8.842982   3.591926   2.351755   8.493820
    14  O    5.323364   8.543288   2.931793   2.444657   7.546423
    15  H    2.162673   2.592236   4.676456   5.117180   4.451970
    16  H    3.398216   4.532192   2.652523   3.993530   2.735214
    17  H    1.084583   4.508285   2.760308   2.767852   5.224525
    18  H    4.302865   0.968436   5.986453   7.036503   2.101165
    19  H    3.436519   6.105688   1.092106   2.106077   4.910914
    20  H    2.795249   6.435133   2.120796   1.084779   6.502127
    21  H    5.997446   4.463657   6.208968   7.541653   2.010172
    22  H    5.065230   4.564528   4.863210   6.186343   2.072536
    23  H    5.064813   4.564150   4.863008   6.186102   2.072535
    24  H    4.974555   7.949444   2.465439   2.457675   6.747105
                   11         12         13         14         15
    11  C    0.000000
    12  C    7.523206   0.000000
    13  O    8.674696   1.204835   0.000000
    14  O    7.390286   1.356504   2.210629   0.000000
    15  H    5.723055   6.581602   7.161883   7.468552   0.000000
    16  H    2.529295   4.996482   6.156989   4.900937   4.958124
    17  H    6.090929   4.178882   4.685894   5.202340   2.479649
    18  H    3.459757   8.452033   9.375219   8.863633   3.531797
    19  H    4.810646   2.765997   3.959485   2.636450   5.546116
    20  H    6.995625   2.141516   2.527962   3.360299   4.634298
    21  H    1.088855   8.605920   9.761195   8.438053   6.461689
    22  H    1.095487   7.167795   8.331000   6.955603   5.984217
    23  H    1.095486   7.167622   8.330732   6.955562   5.983720
    24  H    6.500075   1.930086   3.012152   0.963737   7.136795
                   16         17         18         19         20
    16  H    0.000000
    17  H    4.302559   0.000000
    18  H    4.469088   5.257807   0.000000
    19  H    2.288893   3.822759   6.318637   0.000000
    20  H    4.667686   2.158172   7.055575   3.082548   0.000000
    21  H    3.609545   7.076906   3.687330   5.881124   8.070338
    22  H    2.313782   6.090857   4.064974   4.455702   6.800177
    23  H    2.313872   6.090414   4.064677   4.455628   6.799853
    24  H    4.050736   5.049920   8.189586   1.872666   3.513033
                   21         22         23         24
    21  H    0.000000
    22  H    1.787511   0.000000
    23  H    1.787519   1.794094   0.000000
    24  H    7.532738   6.054603   6.054681   0.000000
 Stoichiometry    C10H10O4
 Framework group  C1[X(C10H10O4)]
 Deg. of freedom    66
 Full point group                 C1      NOp   1
 Largest Abelian subgroup         C1      NOp   1
 Largest concise Abelian subgroup C1      NOp   1
                         Standard orientation:                         
 ---------------------------------------------------------------------
 Center     Atomic      Atomic             Coordinates (Angstroms)
 Number     Number       Type             X           Y           Z
 ---------------------------------------------------------------------
      1          6           0        1.464437   -2.008793    0.000030
      2          6           0        2.492365   -1.074997   -0.000035
      3          6           0        2.186597    0.295682   -0.000095
      4          6           0        0.867139    0.714747   -0.000094
      5          6           0       -0.179412   -0.225539   -0.000026
      6          6           0        0.140099   -1.588088    0.000038
      7          8           0        3.780149   -1.485235   -0.000039
      8          6           0       -1.555438    0.273083   -0.000035
      9          6           0       -2.681249   -0.456104   -0.000023
     10          8           0        3.283870    1.107175   -0.000173
     11          6           0        3.053026    2.504204    0.000273
     12          6           0       -4.065654    0.070475   -0.000032
     13          8           0       -5.024194   -0.659476    0.000254
     14          8           0       -4.256333    1.413510   -0.000134
     15          1           0        1.722662   -3.062078    0.000085
     16          1           0        0.631295    1.774441   -0.000150
     17          1           0       -0.647584   -2.333658    0.000102
     18          1           0        4.350925   -0.702878   -0.000058
     19          1           0       -1.620362    1.363257   -0.000047
     20          1           0       -2.654746   -1.540559    0.000023
     21          1           0        4.036727    2.971041    0.000444
     22          1           0        2.499780    2.803305   -0.896694
     23          1           0        2.499728    2.802724    0.897400
     24          1           0       -3.417832    1.888595   -0.000377
 ---------------------------------------------------------------------
 Rotational constants (GHZ):      1.5534711      0.2867683      0.2424574
 Standard basis: 6-31+G(d,p) (6D, 7F)
 There are   316 symmetry adapted cartesian basis functions of A   symmetry.
 There are   316 symmetry adapted basis functions of A   symmetry.
   316 basis functions,   518 primitive gaussians,   316 cartesian basis functions
    51 alpha electrons       51 beta electrons
       nuclear repulsion energy       825.2141947018 Hartrees.
 NAtoms=   24 NActive=   24 NUniq=   24 SFac= 1.00D+00 NAtFMM=   60 NAOKFM=F Big=F
 Integral buffers will be    131072 words long.
 Raffenetti 2 integral format.
 Two-electron integral symmetry is turned on.
 One-electron integrals computed using PRISM.
 NBasis=   316 RedAO= T EigKep=  1.43D-06  NBF=   316
 NBsUse=   315 1.00D-06 EigRej=  6.72D-07 NBFU=   315
 Initial guess from the checkpoint file:  "m062xFA.chk"
 B after Tr=    -0.000000   -0.000000   -0.000000
         Rot=    0.999999   -0.000001   -0.000001   -0.001299 Ang=  -0.15 deg.
 ExpMin= 4.38D-02 ExpMax= 5.48D+03 ExpMxC= 8.25D+02 IAcc=2 IRadAn=         4 AccDes= 0.00D+00
 Harris functional with IExCor= 1009 and IRadAn=       4 diagonalized for initial guess.
 HarFok:  IExCor= 1009 AccDes= 0.00D+00 IRadAn=         4 IDoV= 1 UseB2=F ITyADJ=14
 ICtDFT=  3500011 ScaDFX=  1.000000  1.000000  1.000000  1.000000
 FoFCou: FMM=F IPFlag=           0 FMFlag=      100000 FMFlg1=           0
         NFxFlg=           0 DoJE=T BraDBF=F KetDBF=T FulRan=T
         wScrn=  0.000000 ICntrl=     500 IOpCl=  0 I1Cent=   200000004 NGrid=           0
         NMat0=    1 NMatS0=      1 NMatT0=    0 NMatD0=    1 NMtDS0=    0 NMtDT0=    0
 Petite list used in FoFCou.
 Requested convergence on RMS density matrix=1.00D-08 within 128 cycles.
 Requested convergence on MAX density matrix=1.00D-06.
 Requested convergence on             energy=1.00D-06.
 No special actions if energy rises.
 SCF Done:  E(RM062X) =  -687.717731511     A.U. after   13 cycles
            NFock= 13  Conv=0.37D-08     -V/T= 2.0083
 Calling FoFJK, ICntrl=      2127 FMM=F ISym2X=0 I1Cent= 0 IOpClX= 0 NMat=1 NMatS=1 NMatT=0.
 ***** Axes restored to original set *****
 -------------------------------------------------------------------
 Center     Atomic                   Forces (Hartrees/Bohr)
 Number     Number              X              Y              Z
 -------------------------------------------------------------------
      1        6           0.000333438   -0.000352043    0.000000163
      2        6           0.000489902   -0.001545437   -0.000000648
      3        6           0.000929898    0.000327758   -0.000002234
      4        6          -0.001250973    0.000539231    0.000000963
      5        6           0.001680300   -0.001020097    0.000001022
      6        6          -0.001208630    0.000561263   -0.000000187
      7        8          -0.000242202    0.000776909    0.000000048
      8        6          -0.001944042    0.000560295   -0.000000516
      9        6           0.002410928   -0.000960573   -0.000008120
     10        8          -0.000620964    0.000671273    0.000003784
     11        6           0.001317912   -0.000698822   -0.000002529
     12        6          -0.004062075    0.002299461    0.000027740
     13        8           0.000671338   -0.000351803   -0.000010814
     14        8           0.001453634   -0.001641661   -0.000006134
     15        1           0.000039674   -0.000044236   -0.000000064
     16        1          -0.000335353   -0.000580510    0.000000040
     17        1           0.000084311   -0.000077481   -0.000000054
     18        1           0.000265853   -0.000442177   -0.000000066
     19        1           0.000506429   -0.000088987   -0.000000354
     20        1          -0.000284606    0.000102380   -0.000000505
     21        1          -0.000133514    0.000548792   -0.000000072
     22        1           0.000163429    0.000535868   -0.000018792
     23        1           0.000164133    0.000535966    0.000019687
     24        1          -0.000428821    0.000344629   -0.000002360
 -------------------------------------------------------------------
 Cartesian Forces:  Max     0.004062075 RMS     0.000877129

 GradGradGradGradGradGradGradGradGradGradGradGradGradGradGradGradGradGrad
 Berny optimization.
 Using GEDIIS/GDIIS optimizer.
 FormGI is forming the generalized inverse of G from B-inverse, IUseBI=4.
 GSVD:  received Info=                   1 from GESDD.
 Internal  Forces:  Max     0.004597477 RMS     0.000719544
 Search for a local minimum.
 Step number   2 out of a maximum of  115
 All quantities printed in internal units (Hartrees-Bohrs-Radians)
 Mixed Optimization -- En-DIIS/RFO-DIIS
 Update second derivatives using D2CorX and points    1    2
 DE= -5.43D-04 DEPred=-5.98D-04 R= 9.07D-01
 TightC=F SS=  1.41D+00  RLast= 5.15D-02 DXNew= 5.0454D-01 1.5435D-01
 Trust test= 9.07D-01 RLast= 5.15D-02 DXMaxT set to 3.00D-01
 ITU=  1  0
 Use linear search instead of GDIIS.
     Eigenvalues ---    0.01051   0.01295   0.01370   0.01401   0.01773
     Eigenvalues ---    0.01981   0.01987   0.02050   0.02068   0.02072
     Eigenvalues ---    0.02093   0.02103   0.02111   0.02140   0.02143
     Eigenvalues ---    0.02175   0.02189   0.02257   0.02770   0.10202
     Eigenvalues ---    0.10678   0.15702   0.16000   0.16000   0.16000
     Eigenvalues ---    0.16000   0.16000   0.16000   0.16000   0.16000
     Eigenvalues ---    0.16218   0.21869   0.22009   0.22390   0.23402
     Eigenvalues ---    0.24401   0.24718   0.25000   0.25000   0.25000
     Eigenvalues ---    0.25000   0.27860   0.33093   0.34098   0.34120
     Eigenvalues ---    0.34636   0.34854   0.35458   0.35485   0.35527
     Eigenvalues ---    0.35578   0.36419   0.40653   0.41535   0.42640
     Eigenvalues ---    0.44837   0.45381   0.46391   0.48294   0.49884
     Eigenvalues ---    0.52749   0.53284   0.53911   0.54296   0.58071
     Eigenvalues ---    0.97053
 RFO step:  Lambda=-1.47892337D-04 EMin= 1.05072520D-02
 Quartic linear search produced a step of -0.09261.
 Iteration  1 RMS(Cart)=  0.01338759 RMS(Int)=  0.00005864
 Iteration  2 RMS(Cart)=  0.00009039 RMS(Int)=  0.00000089
 Iteration  3 RMS(Cart)=  0.00000000 RMS(Int)=  0.00000089
 Variable       Old X    -DE/DX   Delta X   Delta X   Delta X     New X
                                 (Linear)    (Quad)   (Total)
    R1        2.62435   0.00044   0.00086  -0.00119  -0.00033   2.62402
    R2        2.62588   0.00068   0.00030   0.00049   0.00079   2.62667
    R3        2.04936   0.00005   0.00000   0.00013   0.00013   2.04950
    R4        2.65387   0.00153   0.00085   0.00125   0.00210   2.65597
    R5        2.55406  -0.00008   0.00100  -0.00250  -0.00151   2.55255
    R6        2.61615   0.00181   0.00068   0.00194   0.00263   2.61878
    R7        2.57899   0.00166   0.00119   0.00014   0.00133   2.58032
    R8        2.65868   0.00055   0.00095  -0.00112  -0.00018   2.65851
    R9        2.05153  -0.00050  -0.00027  -0.00062  -0.00089   2.05063
   R10        2.64469  -0.00047   0.00098  -0.00344  -0.00245   2.64223
   R11        2.76577   0.00168  -0.00062   0.00560   0.00498   2.77075
   R12        2.04956  -0.00001  -0.00013   0.00030   0.00017   2.04973
   R13        1.83008  -0.00020   0.00036  -0.00119  -0.00084   1.82924
   R14        2.53475   0.00030   0.00125  -0.00249  -0.00124   2.53351
   R15        2.06378  -0.00011  -0.00009  -0.00008  -0.00017   2.06361
   R16        2.79900   0.00245  -0.00047   0.00752   0.00705   2.80605
   R17        2.04993  -0.00011  -0.00009  -0.00007  -0.00016   2.04977
   R18        2.67580   0.00065   0.00146  -0.00206  -0.00061   2.67519
   R19        2.05764   0.00011   0.00016  -0.00008   0.00008   2.05771
   R20        2.07017   0.00008   0.00014  -0.00012   0.00001   2.07018
   R21        2.07017   0.00008   0.00014  -0.00012   0.00001   2.07018
   R22        2.27681  -0.00033   0.00142  -0.00366  -0.00223   2.27457
   R23        2.56342  -0.00141   0.00165  -0.00639  -0.00474   2.55868
   R24        1.82120  -0.00020   0.00055  -0.00164  -0.00109   1.82011
    A1        2.09655   0.00022   0.00014   0.00033   0.00048   2.09703
    A2        2.06783  -0.00013   0.00013  -0.00080  -0.00067   2.06716
    A3        2.11881  -0.00009  -0.00027   0.00047   0.00019   2.11900
    A4        2.08876   0.00022  -0.00002   0.00113   0.00111   2.08987
    A5        2.09575  -0.00015  -0.00015  -0.00030  -0.00045   2.09529
    A6        2.09868  -0.00007   0.00018  -0.00083  -0.00065   2.09802
    A7        2.09781  -0.00096  -0.00019  -0.00255  -0.00274   2.09507
    A8        1.98809  -0.00088  -0.00012  -0.00313  -0.00325   1.98485
    A9        2.19728   0.00184   0.00031   0.00568   0.00599   2.20327
   A10        2.10210   0.00015   0.00027   0.00017   0.00044   2.10254
   A11        2.09731   0.00039   0.00011   0.00193   0.00204   2.09935
   A12        2.08377  -0.00054  -0.00038  -0.00211  -0.00248   2.08129
   A13        2.07243   0.00043  -0.00029   0.00195   0.00166   2.07409
   A14        2.06198  -0.00014   0.00024  -0.00093  -0.00070   2.06128
   A15        2.14878  -0.00029   0.00005  -0.00101  -0.00096   2.14781
   A16        2.10872  -0.00006   0.00009  -0.00103  -0.00094   2.10778
   A17        2.07606  -0.00008  -0.00002  -0.00018  -0.00021   2.07586
   A18        2.09840   0.00015  -0.00007   0.00121   0.00115   2.09955
   A19        1.89269   0.00088  -0.00026   0.00560   0.00534   1.89803
   A20        2.21919   0.00009   0.00053  -0.00090  -0.00037   2.21882
   A21        1.97793  -0.00057  -0.00013  -0.00283  -0.00295   1.97497
   A22        2.08607   0.00047  -0.00040   0.00372   0.00332   2.08939
   A23        2.20337   0.00042   0.00073  -0.00004   0.00069   2.20406
   A24        2.12112   0.00008  -0.00051   0.00204   0.00152   2.12264
   A25        1.95870  -0.00050  -0.00022  -0.00199  -0.00221   1.95648
   A26        2.04382   0.00460   0.00191   0.01206   0.01397   2.05779
   A27        1.85014   0.00049  -0.00005   0.00256   0.00250   1.85263
   A28        1.92992   0.00057   0.00048   0.00225   0.00273   1.93264
   A29        1.92992   0.00057   0.00048   0.00225   0.00273   1.93264
   A30        1.91699  -0.00064  -0.00034  -0.00319  -0.00353   1.91347
   A31        1.91700  -0.00064  -0.00033  -0.00319  -0.00353   1.91348
   A32        1.91883  -0.00034  -0.00024  -0.00066  -0.00091   1.91792
   A33        2.12729  -0.00062   0.00026  -0.00289  -0.00263   2.12466
   A34        2.07530  -0.00030   0.00012  -0.00139  -0.00127   2.07403
   A35        2.08060   0.00092  -0.00039   0.00428   0.00390   2.08449
   A36        1.94525   0.00094  -0.00007   0.00547   0.00540   1.95066
    D1       -0.00000   0.00000  -0.00000   0.00000   0.00000   0.00000
    D2        3.14159   0.00000  -0.00000   0.00000   0.00000  -3.14159
    D3       -3.14158  -0.00000   0.00000  -0.00000  -0.00000  -3.14158
    D4        0.00001  -0.00000   0.00000  -0.00000  -0.00000   0.00001
    D5        0.00001  -0.00000  -0.00000  -0.00000  -0.00000   0.00000
    D6       -3.14158  -0.00000  -0.00000  -0.00000  -0.00000  -3.14158
    D7        3.14159   0.00000  -0.00000   0.00000   0.00000   3.14159
    D8        0.00000   0.00000  -0.00000   0.00000   0.00000   0.00000
    D9       -0.00000  -0.00000   0.00000  -0.00000  -0.00000  -0.00000
   D10       -3.14158   0.00000   0.00000  -0.00000  -0.00000  -3.14158
   D11        3.14159  -0.00000   0.00000  -0.00000  -0.00000   3.14159
   D12        0.00001   0.00000   0.00000  -0.00000  -0.00000   0.00001
   D13       -3.14156  -0.00000   0.00000  -0.00000  -0.00000  -3.14156
   D14        0.00003  -0.00000   0.00000  -0.00000  -0.00000   0.00003
   D15        0.00001  -0.00000  -0.00000  -0.00000  -0.00000   0.00000
   D16       -3.14158   0.00000   0.00000  -0.00000   0.00000  -3.14158
   D17        3.14158  -0.00000  -0.00000  -0.00000  -0.00000   3.14158
   D18       -0.00001  -0.00000  -0.00000  -0.00000  -0.00000  -0.00001
   D19       -3.14119  -0.00000   0.00001  -0.00008  -0.00007  -3.14126
   D20        0.00042  -0.00000   0.00001  -0.00008  -0.00007   0.00035
   D21       -0.00000   0.00000  -0.00000   0.00000   0.00000   0.00000
   D22       -3.14159   0.00000   0.00000   0.00000   0.00000  -3.14158
   D23        3.14159  -0.00000  -0.00000   0.00000   0.00000   3.14159
   D24        0.00000   0.00000  -0.00000   0.00000   0.00000   0.00000
   D25       -0.00000  -0.00000   0.00000  -0.00000  -0.00000  -0.00001
   D26        3.14158   0.00000   0.00000  -0.00000  -0.00000   3.14158
   D27        3.14158  -0.00000  -0.00000  -0.00000  -0.00000   3.14158
   D28       -0.00002  -0.00000  -0.00000  -0.00000  -0.00000  -0.00002
   D29        3.14155   0.00000  -0.00000   0.00003   0.00003   3.14158
   D30       -0.00005  -0.00000  -0.00000   0.00001   0.00001  -0.00004
   D31       -0.00003   0.00000  -0.00000   0.00003   0.00003  -0.00001
   D32        3.14155  -0.00000  -0.00000   0.00001   0.00001   3.14156
   D33        3.14159  -0.00000  -0.00000  -0.00004  -0.00004   3.14155
   D34        0.00003  -0.00000  -0.00000  -0.00001  -0.00001   0.00002
   D35        0.00001  -0.00000  -0.00000  -0.00002  -0.00002  -0.00001
   D36       -3.14156  -0.00000  -0.00000   0.00001   0.00001  -3.14155
   D37       -3.14132  -0.00001  -0.00002  -0.00031  -0.00033   3.14153
   D38        0.00007   0.00001   0.00001   0.00045   0.00046   0.00052
   D39        0.00024  -0.00001  -0.00002  -0.00034  -0.00035  -0.00011
   D40       -3.14155   0.00001   0.00001   0.00042   0.00043  -3.14112
   D41        3.14129   0.00000  -0.00001   0.00007   0.00006   3.14136
   D42       -1.06503  -0.00017  -0.00018  -0.00103  -0.00121  -1.06625
   D43        1.06442   0.00017   0.00017   0.00117   0.00134   1.06576
   D44        0.00021  -0.00000  -0.00001  -0.00028  -0.00029  -0.00009
   D45       -3.14158   0.00001   0.00001   0.00046   0.00047  -3.14111
         Item               Value     Threshold  Converged?
 Maximum Force            0.004597     0.000450     NO 
 RMS     Force            0.000720     0.000300     NO 
 Maximum Displacement     0.056981     0.001800     NO 
 RMS     Displacement     0.013385     0.001200     NO 
 Predicted change in Energy=-7.985724D-05
 GradGradGradGradGradGradGradGradGradGradGradGradGradGradGradGradGradGrad

                          Input orientation:                          
 ---------------------------------------------------------------------
 Center     Atomic      Atomic             Coordinates (Angstroms)
 Number     Number       Type             X           Y           Z
 ---------------------------------------------------------------------
      1          6           0        1.458716   -2.009410   -0.000006
      2          6           0        2.488845   -1.078302   -0.000058
      3          6           0        2.187784    0.294556   -0.000055
      4          6           0        0.867364    0.715182   -0.000006
      5          6           0       -0.180345   -0.223674    0.000045
      6          6           0        0.134833   -1.585899    0.000048
      7          8           0        3.774654   -1.492095   -0.000110
      8          6           0       -1.557846    0.278606    0.000083
      9          6           0       -2.684298   -0.448387    0.000115
     10          8           0        3.291161    1.098926   -0.000127
     11          6           0        3.089499    2.500141    0.000289
     12          6           0       -4.071690    0.080830    0.000201
     13          8           0       -5.028061   -0.650015    0.000161
     14          8           0       -4.259050    1.421797   -0.000365
     15          1           0        1.715028   -3.063236   -0.000000
     16          1           0        0.630379    1.774137   -0.000013
     17          1           0       -0.654268   -2.330097    0.000098
[...]
 ,0.00000030,-0.00000092,0.00547840,-0.00000017,-0.00000027,0.00617814,
 0.00000003,0.,-0.00079212,0.00000004,-0.00000018,0.00690867,0.00000016
 ,-0.00000038,0.00268719,0.00000005,0.00000022,-0.00371863,0.,-0.000000
 03,0.00044537,0.00000004,-0.00000005,-0.00001349,0.00000007,-0.0000000
 7,-0.00008325,-0.00000005,0.00000013,-0.00033677,-0.00000005,-0.000000
 05,-0.00006520,0.00000004,0.00000003,-0.00000190,-0.00000001,0.0000000
 4,-0.00000261,-0.00000277,0.00001286,0.02544083,-0.00131204,-0.0001805
 1,-0.00000004,-0.00524485,-0.00014370,0.00000008,0.00105795,0.03066088
 ,0.00000149,-0.07236356,0.06148958,0.00000266,0.00889327,-0.02073581,-
 0.00000101,-0.00327830,-0.00335209,-0.00000009,-0.00082854,0.00178177,
 0.00000006,0.00103627,-0.00254654,0.00000007,0.00009218,0.00035171,0.0
 0000003,0.00192168,-0.00210953,-0.00000038,-0.00243288,0.00034286,0.00
 000011,-0.00034791,-0.00009587,0.00000011,0.00024835,0.00011427,-0.000
 00015,0.00010433,0.00002245,0.00000010,0.00007132,0.00003195,0.,0.0743
 9791,-0.00010799,0.00072467,0.00000008,0.00097698,0.00143874,-0.000000
 33,0.00067333,-0.00587542,-0.00000051,0.06274996,-0.32993405,-0.000013
 08,0.00628054,-0.01664933,-0.00000074,-0.00412302,-0.00074566,-0.00000
 022,0.00038364,-0.00050051,0.00000006,0.00279002,0.00057398,0.00000017
 ,-0.00048602,0.00049734,0.00000006,-0.00019217,-0.00094745,0.00000005,
 -0.00240640,-0.00117135,-0.00000017,0.00000755,-0.00018880,-0.00000008
 ,0.00000329,0.00003268,0.00000003,0.00001460,0.00011645,0.00000006,0.0
 0006664,-0.00007753,0.00000002,-0.06304916,0.35333168,-0.00000009,0.00
 000003,-0.00098914,0.00000004,-0.00000019,0.00643967,-0.00000010,-0.00
 000081,0.00429242,0.00000305,-0.00001367,-0.03278363,-0.00000002,-0.00
 000058,0.00232331,-0.00000008,-0.00000033,0.00503543,-0.00000001,0.000
 00004,-0.00061476,0.00000019,-0.00000011,-0.00417496,0.00000018,0.0000
 0014,0.00022433,-0.00000007,-0.00000001,-0.00331805,-0.00000039,0.0000
 0034,-0.00031834,0.00000007,-0.00000011,0.00028825,-0.00000009,0.00000
 005,-0.00010082,-0.00000008,0.00000007,-0.00009346,0.,0.,-0.00036517,-
 0.00000238,0.00001496,0.02343474,-0.01681788,-0.02190701,-0.00000066,-
 0.00331328,0.00331381,0.00000025,-0.00047168,0.00105747,0.00000002,0.0
 0065488,0.00201058,0.00000010,0.00981399,0.00408833,0.00000017,-0.2092
 5988,-0.14187173,-0.00000596,-0.00133558,-0.00140650,-0.00000011,-0.00
 072853,-0.00078871,-0.00000003,-0.00043264,0.00106841,0.00000011,0.000
 16034,-0.00020848,-0.00000002,-0.00000869,0.00007728,0.00000002,-0.000
 23005,0.00001133,0.00000016,0.00017727,0.00004038,-0.00000017,0.000100
 29,-0.00012603,0.,0.00107372,0.00011799,-0.00000004,0.00031926,0.00043
 056,0.00000006,0.22335979,0.00915153,0.01048106,0.00000023,0.00264705,
 -0.00008507,-0.00000031,0.00077871,-0.00038432,0.00000007,0.00305540,-
 0.00473585,-0.00000049,-0.02389990,-0.01438216,-0.00000066,-0.14326581
 ,-0.19335551,-0.00000618,0.00032517,0.00058431,0.00000004,-0.00157876,
 0.00078103,0.00000023,0.00011869,-0.00062294,0.00000021,-0.00000461,0.
 00029898,0.,0.00000712,-0.00012778,0.00000002,0.00050005,0.00031211,-0
 .00000008,-0.00015747,0.00002440,0.00000010,-0.00034148,0.00039443,-0.
 00000018,-0.00031995,0.00059740,0.00000019,-0.00116982,-0.00087885,-0.
 00000006,0.15234700,0.20053939,0.00000063,0.00000032,0.00373416,0.,-0.
 00000043,0.00753706,-0.00000007,0.,-0.00095349,0.00000031,-0.00000033,
 0.00627123,-0.00000130,-0.00000047,0.00284966,-0.00000603,-0.00000628,
 -0.03557194,0.,0.00000004,0.00005576,0.00000055,0.00000028,-0.00383331
 ,0.00000015,-0.00000087,-0.00002630,0.00000002,0.00000005,-0.00046652,
 0.,0.00000009,-0.00020542,-0.00000039,-0.00000001,-0.00020184,0.000000
 04,0.00000013,-0.00011534,-0.00000004,0.00000023,0.00013500,-0.0000000
 4,0.00000019,-0.00437732,-0.00000004,-0.00000012,0.00069668,0.00000557
 ,0.00000721,0.02329145,-0.00456311,0.00483470,0.00000011,-0.03583319,-
 0.03510100,-0.00000267,-0.00152483,-0.00172390,-0.00000003,-0.00128280
 ,-0.00115082,-0.00000013,0.00092847,0.00024285,0.00000005,-0.00032766,
 -0.00187163,-0.00000005,-0.20020968,-0.19579340,-0.00001645,-0.0006929
 3,0.00028060,0.00000010,0.00069025,-0.00008605,0.00000007,-0.00007220,
 -0.00153473,-0.00000067,0.00111155,0.00156416,0.00000069,-0.00082755,0
 .00032029,0.00000003,0.00045735,0.00007599,-0.00000016,0.00017629,-0.0
 0025321,0.00000008,0.00011095,0.00007831,0.,0.00031549,-0.00014891,0.,
 -0.00033300,0.00020702,0.00000002,0.24175933,0.00574308,0.00008881,-0.
 00000032,0.00499236,0.01245748,0.00000092,0.01020293,0.00212076,0.0000
 0014,-0.00194103,-0.00042256,0.00000006,0.00134153,-0.00090384,0.00000
 006,-0.00123314,0.00094474,-0.00000003,-0.24686984,-0.36059301,-0.0000
 2608,-0.00102971,0.00017758,0.00000007,0.00069772,-0.00002308,0.000000
 03,-0.00162132,-0.00260117,0.00000097,-0.00145680,-0.00260077,-0.00000
 106,-0.00063452,0.00039997,-0.00000005,0.00028673,0.00000299,-0.000000
 05,0.00011460,-0.00029759,0.00000005,0.00006458,0.00004592,0.00000003,
 0.00029059,-0.00009326,0.00000002,0.00023617,-0.00003583,0.00000003,0.
 23113109,0.35000999,0.00000035,-0.00000012,0.00188424,0.00000034,0.000
 00079,-0.00326573,0.00000036,-0.00000005,0.00181850,-0.00000008,-0.000
 00004,-0.00072559,-0.00000003,0.,0.00001238,0.00000006,-0.00000001,0.0
 0168990,-0.00002006,-0.00002558,-0.00531177,0.00000002,0.00000001,-0.0
 0007893,0.00000001,-0.00000004,-0.00005140,-0.00000055,0.00000001,-0.0
 0139223,0.00000020,0.00000015,-0.00103076,-0.00000005,-0.00000004,-0.0
 0000356,0.00000002,0.00000002,-0.00001561,0.,0.00000003,-0.00001164,0.
 ,0.00000001,-0.00059369,0.00000003,-0.00000002,0.00017873,0.,0.,-0.000
 14282,0.00001937,0.00002499,0.00682087,0.00055857,0.00157940,0.0000002
 7,0.00023294,-0.00025774,-0.00000017,-0.00020906,0.00000134,0.00000022
 ,0.00086227,0.00254779,-0.00000028,-0.00140051,0.02958935,-0.00000059,
 -0.00587164,-0.00000590,-0.00000011,-0.00017207,-0.00010780,0.00000003
 ,-0.05802700,0.01278305,-0.00000165,0.00656696,-0.02731548,0.00000243,
 -0.00005935,-0.00027195,-0.00000002,-0.00007049,0.00018409,0.00000001,
 0.00043511,-0.00088690,-0.00000060,0.00063828,0.00066235,-0.00000082,-
 0.00166632,0.00081075,0.00000174,-0.00041503,0.00009645,0.00000003,-0.
 00070240,-0.00104053,0.,0.00015430,0.00001729,-0.00000005,-0.00001963,
 0.00004991,0.,0.06811554,-0.00028821,-0.00066910,-0.00000008,-0.000563
 14,0.00042943,-0.00000002,0.00003534,-0.00028268,-0.00000012,-0.002427
 13,0.00096454,-0.00000004,-0.00095296,-0.01282057,-0.00000003,0.002337
 04,0.00115868,0.00000010,0.00056897,-0.00003755,0.00000004,0.01624308,
 -0.32087166,-0.00000358,0.00163803,-0.01706455,0.00000045,0.00033463,0
 .00051770,0.00000004,0.00008252,-0.00031972,-0.00000004,0.00201445,-0.
 00538622,0.00000232,-0.00020677,0.00176441,-0.00000078,0.00220216,0.00
 361459,0.00000037,0.00024396,-0.00004196,0.,0.00050118,0.00071094,0.00
 000019,-0.00017616,0.00008689,0.00000003,-0.00004735,-0.00006947,0.,-0
 .01847164,0.34664606,0.00000031,0.00000028,-0.00016956,-0.00000008,-0.
 00000019,0.00025306,0.00000003,0.00000005,-0.00011825,0.00000005,-0.00
 000003,-0.00109721,0.00000137,0.00000108,0.00474573,-0.00000067,0.0000
 0014,0.00240157,0.,0.00000002,-0.00005268,-0.00000685,-0.00001147,-0.0
 4154684,0.00000602,0.00000077,0.00618401,-0.00000009,-0.00000011,-0.00
 001434,-0.00000002,0.00000006,0.00006783,-0.00000326,0.00000059,-0.008
 00986,0.00000311,0.00000151,0.00126968,-0.00000235,-0.00000072,-0.0004
 2533,-0.00000006,0.00000002,-0.00029772,0.,0.00000002,0.00032216,0.000
 00002,0.00000006,-0.00004073,0.,0.,0.00002602,0.00000609,0.00000358,0.
 02351456,-0.00001208,0.00031339,0.00000003,0.00000985,0.00001442,0.000
 00001,-0.00016268,0.00010964,0.00000011,0.00020893,0.00011930,-0.00000
 009,0.00053340,0.00091481,-0.00000040,-0.00114663,-0.00090195,0.,0.000
 01560,0.00007150,0.,0.00674425,-0.02733894,0.00000242,-0.05475840,0.00
 466735,0.00000329,0.00024591,0.00027645,0.00000001,0.00003658,-0.00015
 400,-0.00000003,0.00206393,0.03152624,-0.00000587,0.00100883,-0.002296
 50,-0.00000082,-0.00618086,0.00360439,0.00000004,-0.00002880,-0.000004
 82,0.,0.00015480,0.00017147,0.,-0.00282993,0.00163257,0.00000064,-0.00
 000082,0.00000368,0.,-0.00390303,-0.00255688,0.00000021,0.05868042,0.0
 0015787,0.00049250,-0.00000019,-0.00011537,0.00003162,-0.00000006,-0.0
 0001973,-0.00028579,-0.00000005,-0.00031792,-0.00014543,-0.00000001,0.
 00137383,-0.00078336,-0.00000134,0.00056706,-0.00000611,-0.00000001,0.
 00030019,-0.00000861,0.00000005,-0.00015307,-0.01197168,0.00000186,0.0
 0963144,-0.34572003,0.00003598,0.00008707,0.00020164,0.00000003,0.0000
 2227,-0.00010662,0.,-0.00400961,-0.01162636,0.00000408,-0.00060674,0.0
 0248415,-0.00000085,0.00236845,-0.00046305,0.00000022,-0.00001489,-0.0
 0000986,0.,0.00001906,0.00009357,0.00000002,0.00170202,0.00055378,0.,-
 0.00001857,-0.00003423,0.00000002,-0.00158618,0.00015219,0.00000227,-0
 .00931339,0.36655433,0.00000009,-0.00000005,-0.00030343,-0.00000044,0.
 00000038,-0.00044296,0.00000032,-0.00000064,0.00015195,-0.00000076,-0.
 00000028,-0.00017184,0.00000119,-0.00000082,-0.00613559,0.00000017,0.0
 0000079,-0.00026784,0.00000047,-0.00000015,0.00018408,-0.00000310,0.00
 000090,0.00490888,0.00000428,0.00004198,-0.03722783,0.00000003,0.00000
 013,0.00003653,0.,-0.00000005,0.00002470,-0.00000280,0.00000048,0.0022
 8989,0.00000031,-0.00000049,-0.00144241,0.00000055,0.00000155,0.002403
 74,0.00000003,-0.00000001,0.00011096,-0.00000004,-0.00000003,0.0001300
 1,0.00000055,-0.00000050,0.00136363,-0.00000005,-0.00000005,0.00004779
 ,0.00000072,-0.00000113,0.01070588,-0.00000041,-0.00004119,0.02372944,
 -0.00014975,0.00002118,0.,0.00025518,0.00032138,-0.00000003,0.00127527
 ,0.00226780,0.00000011,-0.00054125,0.00047028,-0.00000002,0.00024826,-
 0.00010169,-0.00000008,-0.00004304,-0.00015466,0.,0.00014244,-0.000154
 20,0.00000002,0.00010885,0.00000404,-0.00000004,-0.00011330,0.00000419
 ,-0.00000002,0.00914079,0.00404018,0.00000137,-0.29272161,-0.10705152,
 -0.00002947,0.00019380,-0.00006563,0.,-0.00011313,-0.00001631,0.000000
 04,-0.00004959,0.00005971,-0.00000003,0.00001892,0.00001404,0.,0.00024
 069,-0.00053950,0.00000007,0.00000679,-0.00003821,0.00000001,-0.000093
 35,0.00008218,0.,0.00002785,0.00000355,0.,-0.00000031,0.00000364,0.,0.
 30555201,0.00061923,-0.00039232,0.00000013,-0.00234456,-0.00076466,-0.
 00000022,0.00380001,-0.00443705,-0.00000232,0.00119835,-0.00057168,0.0
 0000009,-0.00047501,0.00011130,0.,-0.00011987,0.00017389,-0.00000003,0
 .00042691,0.00009079,0.,0.00010492,-0.00012829,0.,-0.00014837,0.000035
 35,0.,-0.03601593,-0.03071561,-0.00000583,-0.09237290,-0.08623750,-0.0
 0001059,0.00013347,-0.00008729,0.,-0.00006698,0.00000197,0.00000002,-0
 .00003253,0.00007071,0.,-0.00013704,-0.00010956,0.,-0.00010334,0.00070
 075,0.00000012,-0.00002356,0.00003808,0.,-0.00023183,-0.00017470,-0.00
 000008,-0.00003307,0.00002937,0.,0.00001395,0.00001014,0.,0.11090598,0
 .11208931,0.00000026,-0.00000006,-0.00002002,-0.00000046,-0.00000038,0
 .00030761,0.00000106,-0.00000047,0.00063653,0.00000026,0.00000005,0.00
 029959,-0.00000017,-0.00000013,0.00014917,-0.00000010,0.00000013,-0.00
 003290,0.,0.00000006,-0.00012376,0.00000004,-0.00000002,0.00003632,-0.
 00000004,0.,0.00001503,-0.00000820,-0.00000727,-0.00011647,-0.00002613
 ,-0.00001030,-0.05103340,0.00000003,-0.00000001,-0.00001038,-0.0000000
 1,0.,0.00000211,0.,0.00000001,0.00000813,-0.00000003,-0.00000002,-0.00
 003791,0.00000010,0.00000020,-0.00046807,0.,0.,-0.00002528,-0.00000005
 ,-0.00000003,0.00016886,0.,0.,-0.00001358,0.,0.,-0.00000370,0.00003074
 ,0.00001666,0.04660277,0.00030163,-0.00001870,-0.00001903,0.00030290,-
 0.00035510,-0.00018247,0.00039592,-0.00073941,0.00105689,-0.00027762,0
 .00051082,0.00038753,-0.00012716,-0.00040183,-0.00033411,0.00000188,0.
 00040520,-0.00007440,-0.00028925,0.00016060,0.00010442,-0.00006258,0.0
 0004391,0.00002269,0.00013067,-0.00001215,-0.00000421,-0.00106248,0.00
 752761,-0.00229911,-0.11925716,0.03137153,-0.10962870,-0.00019640,0.00
 008379,0.00000055,0.00011328,0.00000928,0.00000143,0.00005330,-0.00007
 488,-0.00000275,0.00001943,0.00002714,0.00000262,-0.00109826,-0.001184
 84,0.00121005,0.00000047,0.00000244,0.00006019,0.00014519,-0.00022588,
 -0.00014010,-0.00000407,-0.00001373,0.00001072,-0.00001038,-0.00000749
 ,0.,-0.01170593,0.00745605,-0.02463696,0.12394555,0.00084381,0.0002290
 8,-0.00010326,0.00017209,-0.00182060,-0.00061175,0.00577115,0.00486167
 ,0.00140248,-0.00066930,0.00066230,-0.00028939,-0.00050235,-0.00068585
 ,-0.00026838,-0.00065450,0.00054255,-0.00007216,-0.00060670,-0.0002364
 0,-0.00007576,0.00014415,-0.00009655,0.00003818,-0.00016681,0.00001951
 ,-0.00002147,0.01917127,-0.03139022,0.02978945,0.02762714,-0.06398225,
 0.04833669,0.00014308,-0.00007134,0.00000827,-0.00007454,-0.00000736,-
 0.00000364,-0.00003128,0.00005907,-0.00001043,-0.00001535,-0.00001480,
 0.00007147,-0.00109165,-0.00058713,0.00099229,-0.00001680,0.00001855,0
 .00005592,-0.00043032,0.00076017,0.00030730,-0.00001774,0.00002794,0.0
 0001214,0.00001077,0.00000773,0.00000079,-0.00502620,0.00514839,-0.011
 00637,-0.03958636,0.08206198,-0.00010518,-0.00013549,-0.00002489,0.000
 28541,0.00033798,-0.00023075,-0.00105616,-0.00088481,0.00034316,-0.001
 00973,0.00102876,-0.00004376,0.00037561,-0.00032344,-0.00007639,0.0000
 5871,-0.00004527,-0.00005166,0.00010528,-0.00011048,0.00004886,0.00000
 118,0.00011444,0.00003073,0.00002755,-0.00002725,0.00000770,0.00229743
 ,0.00501306,0.00733640,-0.10922287,0.05388986,-0.23563940,0.00003588,0
 .00006907,-0.00001008,-0.00003919,-0.00003473,0.00000565,-0.00000466,-
 0.00005316,0.00001759,0.00001528,0.00001235,0.00001382,0.00062838,-0.0
 0035337,-0.00013341,0.00001445,-0.00006746,0.00001944,0.00003575,-0.00
 013877,-0.00002127,0.00005763,-0.00002378,-0.00001855,-0.00001606,-0.0
 0000969,-0.00000620,0.00171603,-0.00119801,0.00183115,0.12012089,-0.06
 282522,0.24656849,0.00030169,-0.00001872,0.00001907,0.00030308,-0.0003
 5530,0.00018221,0.00039655,-0.00073896,-0.00105790,-0.00027710,0.00051
 095,-0.00038727,-0.00012737,-0.00040192,0.00033381,0.00000192,0.000405
 29,0.00007443,-0.00028939,0.00016059,-0.00010446,-0.00006256,0.0000438
 8,-0.00002275,0.00013064,-0.00001215,0.00000429,-0.00106405,0.00752521
 ,0.00230411,-0.11925856,0.03131989,0.10964263,-0.00019640,0.00008378,-
 0.00000056,0.00011328,0.00000928,-0.00000149,0.00005330,-0.00007487,0.
 00000284,0.00001943,0.00002715,-0.00000258,-0.00109671,-0.00118378,-0.
 00121031,0.00000046,0.00000246,-0.00006016,0.00014516,-0.00022585,0.00
 014013,-0.00000406,-0.00001372,-0.00001073,-0.00001038,-0.00000749,-0.
 00000001,-0.01170548,0.00744458,0.02463965,0.00870555,-0.00499854,-0.0
 1434244,0.12394546,0.00084398,0.00022923,0.00010321,0.00017241,-0.0018
 2057,0.00061164,0.00577072,0.00486336,-0.00140173,-0.00066955,0.000662
 47,0.00028932,-0.00050236,-0.00068641,0.00026829,-0.00065464,0.0005427
 2,0.00007226,-0.00060648,-0.00023620,0.00007577,0.00014413,-0.00009648
 ,-0.00003827,-0.00016676,0.00001949,0.00002145,0.01917150,-0.03137439,
 -0.02980587,0.02757480,-0.06393472,-0.04825350,0.00014305,-0.00007125,
 -0.00000829,-0.00007454,-0.00000739,0.00000369,-0.00003127,0.00005901,
 0.00001039,-0.00001531,-0.00001477,-0.00007147,-0.00109045,-0.00058670
 ,-0.00099235,-0.00001679,0.00001852,-0.00005592,-0.00043015,0.00075991
 ,-0.00030734,-0.00001770,0.00002792,-0.00001214,0.00001076,0.00000772,
 -0.00000077,-0.00502524,0.00514254,0.01100795,-0.00500570,0.00450889,0
 .00574439,-0.03952943,0.08200241,0.00010573,0.00013571,-0.00002485,-0.
 00028562,-0.00033912,-0.00023056,0.00105851,0.00088704,0.00034320,0.00
 100895,-0.00102810,-0.00004364,-0.00037572,0.00032283,-0.00007610,-0.0
 0005923,0.00004555,-0.00005166,-0.00010547,0.00011038,0.00004888,-0.00
 000111,-0.00011445,0.00003071,-0.00002762,0.00002725,0.00000777,-0.002
 28743,-0.00503005,0.00731894,0.10923519,-0.05380762,-0.23567565,-0.000
 03581,-0.00006903,-0.00001004,0.00003914,0.00003470,0.00000559,0.00000
 467,0.00005315,0.00001764,-0.00001529,-0.00001236,0.00001380,-0.000628
 85,0.00035304,-0.00013427,-0.00001445,0.00006745,0.00001939,-0.0000359
 2,0.00013910,-0.00002137,-0.00005763,0.00002378,-0.00001858,0.00001606
 ,0.00000969,-0.00000621,-0.00171874,0.00120004,0.00183797,0.01434075,-
 0.00573281,-0.01994572,-0.12013931,0.06274485,0.24661575,-0.00005298,-
 0.00023881,0.00000003,-0.00021822,0.00013538,-0.00000012,-0.00025798,-
 0.00019679,0.00000019,0.00009493,0.00008577,-0.00000020,-0.00104217,-0
 .00135752,0.00000089,0.00049329,0.00003568,-0.00000010,0.00028199,-0.0
 0008177,0.,0.00057396,0.00711396,0.00000006,-0.00231968,0.00094183,-0.
 00000210,0.00027942,0.00021219,0.00000002,-0.00000302,-0.00010503,-0.0
 0000005,0.00621768,-0.00188175,-0.00000620,0.00353288,0.00503873,-0.00
 000073,-0.42340990,-0.22647824,0.00047056,0.00006601,-0.00001615,0.000
 00001,-0.00014806,-0.00008628,-0.00000009,-0.00006041,-0.00001649,0.,-
 0.00005929,0.00000095,0.,-0.00506714,-0.00048720,-0.00000381,-0.000658
 21,-0.00006247,-0.00000110,0.00002590,0.00000152,0.,-0.00002448,0.0000
 0498,0.00002082,-0.00002447,0.00000500,-0.00002080,0.42177995,-0.00021
 159,-0.00010303,0.00000010,0.00060838,-0.00024846,0.00000007,0.0001846
 7,0.00057887,-0.00000010,0.00007460,0.00037147,0.00000045,0.00021926,0
 .00039515,-0.00000201,-0.00034966,-0.00007165,0.00000010,-0.00076118,0
 .00012472,0.,0.00052907,-0.00011833,0.00000238,0.00045975,-0.00022030,
 -0.00000142,-0.00040988,-0.00060927,-0.00000004,-0.00007518,0.00037084
 ,0.00000002,-0.04436010,-0.01742665,0.00003694,0.00207517,-0.00976342,
 0.00000762,-0.17638640,-0.15267751,0.00019068,-0.00004587,0.00002536,0
 .,0.00006217,0.00001524,-0.00000006,0.00004042,-0.00012063,-0.00000010
 ,0.00008688,0.00008116,0.,0.00169087,0.00143280,0.00000207,-0.00089424
 ,0.00057176,-0.00000085,-0.00002498,-0.00002394,0.,0.00002767,-0.00001
 533,0.00002102,0.00002767,-0.00001532,-0.00002101,0.21743249,0.1774464
 8,0.00000018,-0.00000031,0.00003686,-0.00000054,0.00000021,0.00007074,
 -0.00000026,-0.00000038,-0.00009490,-0.00000006,-0.00000013,0.00007036
 ,-0.00000113,-0.00000236,-0.00074050,0.00000106,0.00000005,-0.00000160
 ,0.00000064,-0.00000015,-0.00003032,0.00000438,0.00000559,-0.00010401,
 -0.00000260,-0.00000244,-0.00039774,0.00000047,0.00000037,-0.00004217,
 0.,-0.00000019,0.00009356,0.00001872,-0.00000615,-0.00731366,-0.000000
 02,0.00000648,0.00665957,0.00044319,0.00023737,-0.00378859,0.00000012,
 -0.00000004,0.00000701,-0.00000023,-0.00000008,0.00012837,-0.00000005,
 0.00000011,-0.00001315,-0.00000009,-0.00000002,0.00001909,-0.00000723,
 -0.00000132,0.00233271,0.00000085,-0.00000084,-0.00007947,0.00000003,0
 .,-0.00000978,0.00000310,0.00000564,-0.00002090,-0.00000320,-0.0000055
 9,-0.00002099,-0.00045731,-0.00023582,0.00323950\\-0.00001081,-0.00002
 760,-0.00000026,0.00002968,0.00003066,0.00000001,0.00004294,0.00002654
 ,0.00000120,-0.00000342,0.00004353,-0.00000138,-0.00002298,0.00000158,
 -0.00000210,-0.00007420,-0.00003288,0.00000064,0.00002668,-0.00001977,
 0.00000019,-0.00001185,0.00002192,0.00000025,0.00007374,-0.00000653,0.
 00001594,0.00001653,-0.00003771,-0.00000135,-0.00002637,-0.00005923,0.
 00000075,0.00004039,0.00009783,-0.00005381,-0.00012173,-0.00006962,0.0
 0002095,-0.00003825,-0.00000512,0.00000966,0.00000169,0.00000244,0.000
 00003,0.00001311,-0.00000640,-0.00000006,-0.00000086,0.00000558,0.0000
 0036,0.00000402,0.00001475,-0.00000007,0.00000671,0.00000682,0.0000005
 5,-0.00000894,-0.00000405,0.00000109,0.00002416,-0.00001660,0.00000010
 ,-0.00000713,0.00001449,-0.00001440,-0.00000747,0.00001439,0.00001431,
 0.00005438,0.00000498,0.00000738\\\@


 ...THE PHYSICISTS HAVE MADE THEIR UNIVERSE, AND IF YOU DO NOT LIKE
 IT, YOU MUST MAKE YOUR OWN.
                               -- E. R. HARRISON IN "COSMOLOGY" (1980)
 Job cpu time:       0 days  1 hours 32 minutes 38.2 seconds.
 File lengths (MBytes):  RWF=    451 Int=      0 D2E=      0 Chk=      9 Scr=      1
 Normal termination of Gaussian 09 at Tue May 28 19:06:40 2024.
