 Entering Gaussian System, Link 0=g09
 Input=pbeFAyang.gjf
 Output=pbeFAyang.log
 Initial command:
 /home/phzd/g09E/g09/l1.exe "/home/phzd/g09E/scratch/Gau-572564.inp" -scrdir="/home/phzd/g09E/scratch/"
 Default is to use a total of  18 processors:
                               18 via shared-memory
                                1 via Linda
 Entering Link 1 = /home/phzd/g09E/g09/l1.exe PID=    572566.
  
 Copyright (c) 1988,1990,1992,1993,1995,1998,2003,2009,2015,
            Gaussian, Inc.  All Rights Reserved.
  
 This is part of the Gaussian(R) 09 program.  It is based on
 the Gaussian(R) 03 system (copyright 2003, Gaussian, Inc.),
 the Gaussian(R) 98 system (copyright 1998, Gaussian, Inc.),
 the Gaussian(R) 94 system (copyright 1995, Gaussian, Inc.),
 the Gaussian 92(TM) system (copyright 1992, Gaussian, Inc.),
 the Gaussian 90(TM) system (copyright 1990, Gaussian, Inc.),
 the Gaussian 88(TM) system (copyright 1988, Gaussian, Inc.),
 the Gaussian 86(TM) system (copyright 1986, Carnegie Mellon
 University), and the Gaussian 82(TM) system (copyright 1983,
 Carnegie Mellon University). Gaussian is a federally registered
 trademark of Gaussian, Inc.
  
 This software contains proprietary and confidential information,
 including trade secrets, belonging to Gaussian, Inc.
  
 This software is provided under written license and may be
 used, copied, transmitted, or stored only in accord with that
 written license.
  
 The following legend is applicable only to US Government
 contracts under FAR:
  
                    RESTRICTED RIGHTS LEGEND
  
 Use, reproduction and disclosure by the US Government is
 subject to restrictions as set forth in subparagraphs (a)
 and (c) of the Commercial Computer Software - Restricted
 Rights clause in FAR 52.227-19.
  
 Gaussian, Inc.
 340 Quinnipiac St., Bldg. 40, Wallingford CT 06492
  
  
 ---------------------------------------------------------------
 Warning -- This program may not be used in any manner that
 competes with the business of Gaussian, Inc. or will provide
 assistance to any competitor of Gaussian, Inc.  The licensee
 of this program is prohibited from giving any competitor of
 Gaussian, Inc. access to this program.  By using this program,
 the user acknowledges that Gaussian, Inc. is engaged in the
 business of creating and licensing software in the field of
 computational chemistry and represents and warrants to the
 licensee that it is not a competitor of Gaussian, Inc. and that
 it will not use this program in any manner prohibited above.
 ---------------------------------------------------------------
  

 Cite this work as:
 Gaussian 09, Revision E.01,
 M. J. Frisch, G. W. Trucks, H. B. Schlegel, G. E. Scuseria, 
 M. A. Robb, J. R. Cheeseman, G. Scalmani, V. Barone, B. Mennucci, 
 G. A. Petersson, H. Nakatsuji, M. Caricato, X. Li, H. P. Hratchian, 
 A. F. Izmaylov, J. Bloino, G. Zheng, J. L. Sonnenberg, M. Hada, 
 M. Ehara, K. Toyota, R. Fukuda, J. Hasegawa, M. Ishida, T. Nakajima, 
 Y. Honda, O. Kitao, H. Nakai, T. Vreven, J. A. Montgomery, Jr., 
 J. E. Peralta, F. Ogliaro, M. Bearpark, J. J. Heyd, E. Brothers, 
 K. N. Kudin, V. N. Staroverov, T. Keith, R. Kobayashi, J. Normand, 
 K. Raghavachari, A. Rendell, J. C. Burant, S. S. Iyengar, J. Tomasi, 
 M. Cossi, N. Rega, J. M. Millam, M. Klene, J. E. Knox, J. B. Cross, 
 V. Bakken, C. Adamo, J. Jaramillo, R. Gomperts, R. E. Stratmann, 
 O. Yazyev, A. J. Austin, R. Cammi, C. Pomelli, J. W. Ochterski, 
 R. L. Martin, K. Morokuma, V. G. Zakrzewski, G. A. Voth, 
 P. Salvador, J. J. Dannenberg, S. Dapprich, A. D. Daniels, 
 O. Farkas, J. B. Foresman, J. V. Ortiz, J. Cioslowski, 
 and D. J. Fox, Gaussian, Inc., Wallingford CT, 2013.
 
 ******************************************
 Gaussian 09:  ES64L-G09RevE.01 30-Nov-2015
                28-May-2024 
 ******************************************
 %chk=pbeFAyang.chk
 -----------------------------
 # opt freq pbepbe/6-31+g(d,p)
 -----------------------------
 1/14=-1,18=20,19=15,26=3,38=1/1,3;
 2/9=110,12=2,17=6,18=5,40=1/2;
 3/5=1,6=6,7=111,11=2,16=1,25=1,30=1,71=1,74=1009/1,2,3;
 4//1;
 5/5=2,38=5/2;
 6/7=2,8=2,9=2,10=2,28=1/1;
 7//1,2,3,16;
 1/14=-1,18=20,19=15,26=3/3(2);
 2/9=110/2;
 99//99;
 2/9=110/2;
 3/5=1,6=6,7=111,11=2,16=1,25=1,30=1,71=1,74=1009/1,2,3;
 4/5=5,16=3,69=1/1;
 5/5=2,38=5/2;
 7//1,2,3,16;
 1/14=-1,18=20,19=15,26=3/3(-5);
 2/9=110/2;
 6/7=2,8=2,9=2,10=2,19=2,28=1/1;
 99/9=1/99;
 ----------
 [No Title]
 ----------
 Symbolic Z-matrix:
 Charge =  1 Multiplicity = 1
 C                    -1.47     -2.03014   0.02367 
 C                    -2.51323  -1.08952   0.01183 
 C                    -2.23182   0.30784  -0.00512 
 C                    -0.92297   0.73727  -0.01182 
 C                     0.14691  -0.20925  -0.00255 
 C                    -0.16138  -1.59778   0.01818 
 O                    -3.77305  -1.51471   0.01798 
 C                     1.473     0.27977  -0.01087 
 C                     2.64514  -0.46845  -0.01751 
 C                     3.89469   0.13472   0.00009 
 O                     4.96722  -0.63418  -0.10651 
 O                     4.01808   1.45002   0.13179 
 O                    -3.34939   1.07443  -0.01323 
 C                    -3.20854   2.50158  -0.0298 
 H                    -1.72486  -3.08349   0.03897 
 H                    -0.69016   1.79541  -0.0251 
 H                     0.63377  -2.33344   0.03022 
 H                    -4.37754  -0.75037   0.00912 
 H                     1.58586   1.36181  -0.01166 
 H                     2.64973  -1.55036  -0.03728 
 H                     5.80557  -0.20339   0.12542 
 H                     4.88566   1.80074  -0.12496 
 H                    -4.22227   2.89775  -0.03239 
 H                    -2.67794   2.84267   0.86502 
 H                    -2.68149   2.82203  -0.93432 
 

 GradGradGradGradGradGradGradGradGradGradGradGradGradGradGradGradGradGrad
 Berny optimization.
 Initialization pass.
                           ----------------------------
                           !    Initial Parameters    !
                           ! (Angstroms and Degrees)  !
 --------------------------                            --------------------------
 ! Name  Definition              Value          Derivative Info.                !
 --------------------------------------------------------------------------------
 ! R1    R(1,2)                  1.4047         estimate D2E/DX2                !
 ! R2    R(1,6)                  1.3782         estimate D2E/DX2                !
 ! R3    R(1,15)                 1.0838         estimate D2E/DX2                !
 ! R4    R(2,3)                  1.4255         estimate D2E/DX2                !
 ! R5    R(2,7)                  1.3297         estimate D2E/DX2                !
 ! R6    R(3,4)                  1.3775         estimate D2E/DX2                !
 ! R7    R(3,13)                 1.3552         estimate D2E/DX2                !
 ! R8    R(4,5)                  1.4285         estimate D2E/DX2                !
 ! R9    R(4,16)                 1.0835         estimate D2E/DX2                !
 ! R10   R(5,6)                  1.4225         estimate D2E/DX2                !
 ! R11   R(5,8)                  1.4134         estimate D2E/DX2                !
 ! R12   R(6,17)                 1.0833         estimate D2E/DX2                !
 ! R13   R(7,18)                 0.9745         estimate D2E/DX2                !
 ! R14   R(8,9)                  1.3906         estimate D2E/DX2                !
 ! R15   R(8,19)                 1.0879         estimate D2E/DX2                !
 ! R16   R(9,10)                 1.3876         estimate D2E/DX2                !
 ! R17   R(9,20)                 1.0821         estimate D2E/DX2                !
 ! R18   R(10,11)                1.324          estimate D2E/DX2                !
 ! R19   R(10,12)                1.3276         estimate D2E/DX2                !
 ! R20   R(11,21)                0.9707         estimate D2E/DX2                !
 ! R21   R(12,22)                0.9704         estimate D2E/DX2                !
 ! R22   R(13,14)                1.4342         estimate D2E/DX2                !
 ! R23   R(14,23)                1.0884         estimate D2E/DX2                !
 ! R24   R(14,24)                1.0948         estimate D2E/DX2                !
 ! R25   R(14,25)                1.0948         estimate D2E/DX2                !
 ! A1    A(2,1,6)              119.674          estimate D2E/DX2                !
 ! A2    A(2,1,15)             118.4411         estimate D2E/DX2                !
 ! A3    A(6,1,15)             121.8848         estimate D2E/DX2                !
 ! A4    A(1,2,3)              120.6559         estimate D2E/DX2                !
 ! A5    A(1,2,7)              119.3074         estimate D2E/DX2                !
 ! A6    A(3,2,7)              120.0367         estimate D2E/DX2                !
 ! A7    A(2,3,4)              119.5521         estimate D2E/DX2                !
 ! A8    A(2,3,13)             113.0643         estimate D2E/DX2                !
 ! A9    A(4,3,13)             127.3836         estimate D2E/DX2                !
 ! A10   A(3,4,5)              120.3327         estimate D2E/DX2                !
 ! A11   A(3,4,16)             120.5738         estimate D2E/DX2                !
 ! A12   A(5,4,16)             119.0935         estimate D2E/DX2                !
 ! A13   A(4,5,6)              118.9832         estimate D2E/DX2                !
 ! A14   A(4,5,8)              118.2542         estimate D2E/DX2                !
 ! A15   A(6,5,8)              122.7623         estimate D2E/DX2                !
 ! A16   A(1,6,5)              120.8015         estimate D2E/DX2                !
 ! A17   A(1,6,17)             118.9375         estimate D2E/DX2                !
 ! A18   A(5,6,17)             120.261          estimate D2E/DX2                !
 ! A19   A(2,7,18)             109.6862         estimate D2E/DX2                !
 ! A20   A(5,8,9)              127.2063         estimate D2E/DX2                !
 ! A21   A(5,8,19)             116.1971         estimate D2E/DX2                !
 ! A22   A(9,8,19)             116.5966         estimate D2E/DX2                !
 ! A23   A(8,9,10)             121.6741         estimate D2E/DX2                !
 ! A24   A(8,9,20)             122.7943         estimate D2E/DX2                !
 ! A25   A(10,9,20)            115.5316         estimate D2E/DX2                !
 ! A26   A(9,10,11)            118.426          estimate D2E/DX2                !
 ! A27   A(9,10,12)            121.0369         estimate D2E/DX2                !
 ! A28   A(11,10,12)           120.5347         estimate D2E/DX2                !
 ! A29   A(10,11,21)           115.0035         estimate D2E/DX2                !
 ! A30   A(10,12,22)           114.5143         estimate D2E/DX2                !
 ! A31   A(3,13,14)            118.8136         estimate D2E/DX2                !
 ! A32   A(13,14,23)           105.7098         estimate D2E/DX2                !
 ! A33   A(13,14,24)           110.3762         estimate D2E/DX2                !
 ! A34   A(13,14,25)           110.3705         estimate D2E/DX2                !
 ! A35   A(23,14,24)           109.8735         estimate D2E/DX2                !
 ! A36   A(23,14,25)           109.8691         estimate D2E/DX2                !
 ! A37   A(24,14,25)           110.5342         estimate D2E/DX2                !
 ! D1    D(6,1,2,3)             -0.0323         estimate D2E/DX2                !
 ! D2    D(6,1,2,7)           -179.963          estimate D2E/DX2                !
 ! D3    D(15,1,2,3)           179.8476         estimate D2E/DX2                !
 ! D4    D(15,1,2,7)            -0.0831         estimate D2E/DX2                !
 ! D5    D(2,1,6,5)             -0.1498         estimate D2E/DX2                !
 ! D6    D(2,1,6,17)           179.8323         estimate D2E/DX2                !
 ! D7    D(15,1,6,5)           179.9745         estimate D2E/DX2                !
 ! D8    D(15,1,6,17)           -0.0434         estimate D2E/DX2                !
 ! D9    D(1,2,3,4)              0.0918         estimate D2E/DX2                !
 ! D10   D(1,2,3,13)          -179.9251         estimate D2E/DX2                !
 ! D11   D(7,2,3,4)           -179.978          estimate D2E/DX2                !
 ! D12   D(7,2,3,13)             0.0051         estimate D2E/DX2                !
 ! D13   D(1,2,7,18)           179.9459         estimate D2E/DX2                !
 ! D14   D(3,2,7,18)             0.0147         estimate D2E/DX2                !
 ! D15   D(2,3,4,5)              0.0311         estimate D2E/DX2                !
 ! D16   D(2,3,4,16)           179.9744         estimate D2E/DX2                !
 ! D17   D(13,3,4,5)          -179.9494         estimate D2E/DX2                !
 ! D18   D(13,3,4,16)           -0.0061         estimate D2E/DX2                !
 ! D19   D(2,3,13,14)          179.9724         estimate D2E/DX2                !
 ! D20   D(4,3,13,14)           -0.046          estimate D2E/DX2                !
 ! D21   D(3,4,5,6)             -0.2078         estimate D2E/DX2                !
 ! D22   D(3,4,5,8)            179.9575         estimate D2E/DX2                !
 ! D23   D(16,4,5,6)           179.8481         estimate D2E/DX2                !
 ! D24   D(16,4,5,8)             0.0134         estimate D2E/DX2                !
 ! D25   D(4,5,6,1)              0.2691         estimate D2E/DX2                !
 ! D26   D(4,5,6,17)          -179.7127         estimate D2E/DX2                !
 ! D27   D(8,5,6,1)           -179.9041         estimate D2E/DX2                !
 ! D28   D(8,5,6,17)             0.1141         estimate D2E/DX2                !
 ! D29   D(4,5,8,9)           -179.3093         estimate D2E/DX2                !
 ! D30   D(4,5,8,19)             0.7238         estimate D2E/DX2                !
 ! D31   D(6,5,8,9)              0.8627         estimate D2E/DX2                !
 ! D32   D(6,5,8,19)          -179.1042         estimate D2E/DX2                !
 ! D33   D(5,8,9,10)          -178.761          estimate D2E/DX2                !
 ! D34   D(5,8,9,20)             1.2854         estimate D2E/DX2                !
 ! D35   D(19,8,9,10)            1.2059         estimate D2E/DX2                !
 ! D36   D(19,8,9,20)         -178.7478         estimate D2E/DX2                !
 ! D37   D(8,9,10,11)         -175.121          estimate D2E/DX2                !
 ! D38   D(8,9,10,12)            5.4388         estimate D2E/DX2                !
 ! D39   D(20,9,10,11)           4.8358         estimate D2E/DX2                !
 ! D40   D(20,9,10,12)        -174.6044         estimate D2E/DX2                !
 ! D41   D(9,10,11,21)        -165.7477         estimate D2E/DX2                !
 ! D42   D(12,10,11,21)         13.6955         estimate D2E/DX2                !
 ! D43   D(9,10,12,22)        -162.8481         estimate D2E/DX2                !
 ! D44   D(11,10,12,22)         17.7235         estimate D2E/DX2                !
 ! D45   D(3,13,14,23)        -179.9282         estimate D2E/DX2                !
 ! D46   D(3,13,14,24)         -61.1657         estimate D2E/DX2                !
 ! D47   D(3,13,14,25)          61.3177         estimate D2E/DX2                !
 --------------------------------------------------------------------------------
 Trust Radius=3.00D-01 FncErr=1.00D-07 GrdErr=1.00D-06
 Number of steps in this run=    119 maximum allowed number of steps=    150.
 GradGradGradGradGradGradGradGradGradGradGradGradGradGradGradGradGradGrad

                          Input orientation:                          
 ---------------------------------------------------------------------
 Center     Atomic      Atomic             Coordinates (Angstroms)
 Number     Number       Type             X           Y           Z
 ---------------------------------------------------------------------
      1          6           0       -1.469995   -2.030139    0.023674
      2          6           0       -2.513225   -1.089521    0.011833
      3          6           0       -2.231818    0.307835   -0.005118
      4          6           0       -0.922965    0.737272   -0.011820
      5          6           0        0.146913   -0.209254   -0.002547
      6          6           0       -0.161381   -1.597781    0.018180
      7          8           0       -3.773054   -1.514712    0.017983
      8          6           0        1.472998    0.279774   -0.010873
      9          6           0        2.645135   -0.468448   -0.017510
     10          6           0        3.894687    0.134717    0.000094
     11          8           0        4.967218   -0.634181   -0.106509
     12          8           0        4.018076    1.450018    0.131794
     13          8           0       -3.349387    1.074433   -0.013231
     14          6           0       -3.208537    2.501577   -0.029802
     15          1           0       -1.724857   -3.083486    0.038972
     16          1           0       -0.690164    1.795406   -0.025097
     17          1           0        0.633773   -2.333436    0.030217
     18          1           0       -4.377544   -0.750374    0.009116
     19          1           0        1.585857    1.361810   -0.011655
     20          1           0        2.649727   -1.550362   -0.037282
     21          1           0        5.805565   -0.203389    0.125423
     22          1           0        4.885657    1.800738   -0.124958
     23          1           0       -4.222270    2.897747   -0.032393
     24          1           0       -2.677939    2.842670    0.865024
     25          1           0       -2.681489    2.822028   -0.934317
 ---------------------------------------------------------------------
                    Distance matrix (angstroms):
                    1          2          3          4          5
     1  C    0.000000
     2  C    1.404718   0.000000
     3  C    2.459131   1.425511   0.000000
     4  C    2.821182   2.422119   1.377519   0.000000
     5  C    2.435303   2.802037   2.434286   1.428508   0.000000
     6  C    1.378200   2.406146   2.814005   2.456295   1.422491
     7  O    2.360038   1.329659   2.386969   3.632537   4.131680
     8  C    3.741403   4.214909   3.704927   2.439251   1.413407
     9  C    4.401689   5.195697   4.938364   3.766315   2.511676
    10  C    5.785064   6.523820   6.128953   4.855202   3.763527
    11  O    6.588122   7.495223   7.261115   6.048480   4.840115
    12  O    6.499393   7.008676   6.354880   4.994248   4.213921
    13  O    3.629303   2.320020   1.355249   2.449735   3.724524
    14  C    4.854054   3.658029   2.401477   2.887375   4.313745
    15  H    1.083849   2.144331   3.429287   3.904331   3.430227
    16  H    3.904524   3.412875   2.142420   1.083522   2.172526
    17  H    2.125529   3.383971   3.897329   3.443029   2.179508
    18  H    3.176767   1.894918   2.392519   3.761336   4.556716
    19  H    4.565610   4.776196   3.960499   2.585389   2.130466
    20  H    4.148013   5.183711   5.223353   4.242410   2.839693
    21  H    7.502076   8.366624   8.054683   6.795351   5.660102
    22  H    7.422400   7.944543   7.273347   5.906255   5.148859
    23  H    5.644663   4.338329   3.266541   3.943791   5.361353
    24  H    5.090311   4.027057   2.716903   2.877758   4.248142
    25  H    5.092052   4.027869   2.717863   2.879169   4.249320
                    6          7          8          9         10
     6  C    0.000000
     7  O    3.612628   0.000000
     8  C    2.489428   5.544554   0.000000
     9  C    3.025425   6.503005   1.390606   0.000000
    10  C    4.410619   7.843162   2.426054   1.387623   0.000000
    11  O    5.219828   8.785396   3.613037   2.329690   1.323968
    12  O    5.173959   8.336923   2.804861   2.363847   1.327624
    13  O    4.159939   2.623764   4.887421   6.189895   7.304783
    14  C    5.108052   4.056050   5.182040   6.564044   7.487237
    15  H    2.156898   2.580039   4.641151   5.092980   6.475926
    16  H    3.434414   4.523599   2.641328   4.031044   4.876411
    17  H    1.083330   4.482252   2.744969   2.743362   4.089773
    18  H    4.300490   0.974525   5.940576   7.028386   8.319451
    19  H    3.436991   6.082202   1.087906   2.114698   2.614688
    20  H    2.812055   6.423118   2.175956   1.082104   2.095427
    21  H    6.128644   9.668560   4.361555   3.174745   1.944602
    22  H    6.086297   9.272859   3.737993   3.190719   1.942495
    23  H    6.058312   4.435553   6.268199   7.648055   8.574403
    24  H    5.173762   4.572038   4.956401   6.330678   7.161042
    25  H    5.176186   4.572276   4.957375   6.327771   7.165253
                   11         12         13         14         15
    11  O    0.000000
    12  O    2.302508   0.000000
    13  O    8.490817   7.378456   0.000000
    14  C    8.756816   7.304507   1.434173   0.000000
    15  H    7.127701   7.317278   4.464316   5.779184   0.000000
    16  H    6.157556   4.723498   2.755251   2.615512   4.987813
    17  H    4.656706   5.077238   5.242234   6.176107   2.475033
    18  H    9.346200   8.680047   2.094642   3.455905   3.532853
    19  H    3.927668   2.438042   4.943604   4.928043   5.542928
    20  H    2.492979   3.302006   6.548244   7.123028   4.636083
    21  H    0.970670   2.434936   9.244739   9.412490   8.062859
    22  H    2.436354   0.970373   8.267766   8.125036   8.220791
    23  H    9.845136   8.368165   2.021575   1.088399   6.482076
    24  H    8.454632   6.878497   2.085386   1.094802   6.058882
    25  H    8.434060   6.921212   2.085324   1.094813   6.061149
                   16         17         18         19         20
    16  H    0.000000
    17  H    4.336266   0.000000
    18  H    4.480953   5.255457   0.000000
    19  H    2.316993   3.816158   6.326445   0.000000
    20  H    4.727492   2.163754   7.072812   3.100520   0.000000
    21  H    6.797965   5.594068  10.198452   4.502730   3.435131
    22  H    5.576718   5.932452   9.609008   3.330792   4.029509
    23  H    3.700133   7.137951   3.651660   6.007818   8.185966
    24  H    2.416677   6.201323   4.065858   4.597985   6.963972
    25  H    2.417852   6.204845   4.065553   4.603671   6.953009
                   21         22         23         24         25
    21  H    0.000000
    22  H    2.219335   0.000000
    23  H   10.497591   9.174221   0.000000
    24  H    9.044077   7.698940   1.786994   0.000000
    25  H    9.072281   7.678528   1.786954   1.799463   0.000000
 Stoichiometry    C10H11O4(1+)
 Framework group  C1[X(C10H11O4)]
 Deg. of freedom    69
 Full point group                 C1      NOp   1
 Largest Abelian subgroup         C1      NOp   1
 Largest concise Abelian subgroup C1      NOp   1
                         Standard orientation:                         
 ---------------------------------------------------------------------
 Center     Atomic      Atomic             Coordinates (Angstroms)
 Number     Number       Type             X           Y           Z
 ---------------------------------------------------------------------
      1          6           0        1.469995   -2.030139   -0.023674
      2          6           0        2.513225   -1.089521   -0.011833
      3          6           0        2.231818    0.307835    0.005118
      4          6           0        0.922965    0.737272    0.011820
      5          6           0       -0.146913   -0.209254    0.002547
      6          6           0        0.161381   -1.597781   -0.018180
      7          8           0        3.773054   -1.514712   -0.017983
      8          6           0       -1.472998    0.279774    0.010873
      9          6           0       -2.645135   -0.468448    0.017510
     10          6           0       -3.894687    0.134717   -0.000094
     11          8           0       -4.967218   -0.634181    0.106509
     12          8           0       -4.018076    1.450018   -0.131794
     13          8           0        3.349387    1.074433    0.013231
     14          6           0        3.208537    2.501577    0.029802
     15          1           0        1.724857   -3.083486   -0.038972
     16          1           0        0.690164    1.795406    0.025097
     17          1           0       -0.633773   -2.333436   -0.030217
     18          1           0        4.377544   -0.750374   -0.009116
     19          1           0       -1.585857    1.361810    0.011655
     20          1           0       -2.649727   -1.550362    0.037282
     21          1           0       -5.805565   -0.203389   -0.125423
     22          1           0       -4.885657    1.800738    0.124958
     23          1           0        4.222270    2.897747    0.032393
     24          1           0        2.677939    2.842670   -0.865024
     25          1           0        2.681489    2.822028    0.934317
 ---------------------------------------------------------------------
 Rotational constants (GHZ):      1.5333472      0.2849645      0.2408013
 Standard basis: 6-31+G(d,p) (6D, 7F)
 There are   321 symmetry adapted cartesian basis functions of A   symmetry.
 There are   321 symmetry adapted basis functions of A   symmetry.
   321 basis functions,   525 primitive gaussians,   321 cartesian basis functions
    51 alpha electrons       51 beta electrons
       nuclear repulsion energy       838.5196916743 Hartrees.
 NAtoms=   25 NActive=   25 NUniq=   25 SFac= 1.00D+00 NAtFMM=   60 NAOKFM=F Big=F
 Integral buffers will be    131072 words long.
 Raffenetti 2 integral format.
 Two-electron integral symmetry is turned on.
 One-electron integrals computed using PRISM.
 NBasis=   321 RedAO= T EigKep=  1.40D-06  NBF=   321
 NBsUse=   320 1.00D-06 EigRej=  6.62D-07 NBFU=   320
 ExpMin= 4.38D-02 ExpMax= 5.48D+03 ExpMxC= 8.25D+02 IAcc=2 IRadAn=         4 AccDes= 0.00D+00
 Harris functional with IExCor= 1009 and IRadAn=       4 diagonalized for initial guess.
 HarFok:  IExCor= 1009 AccDes= 0.00D+00 IRadAn=         4 IDoV= 1 UseB2=F ITyADJ=14
 ICtDFT=  3500011 ScaDFX=  1.000000  1.000000  1.000000  1.000000
 FoFCou: FMM=F IPFlag=           0 FMFlag=      100000 FMFlg1=           0
         NFxFlg=           0 DoJE=T BraDBF=F KetDBF=T FulRan=T
         wScrn=  0.000000 ICntrl=     500 IOpCl=  0 I1Cent=   200000004 NGrid=           0
         NMat0=    1 NMatS0=      1 NMatT0=    0 NMatD0=    1 NMtDS0=    0 NMtDT0=    0
 Petite list used in FoFCou.
 Requested convergence on RMS density matrix=1.00D-08 within 128 cycles.
 Requested convergence on MAX density matrix=1.00D-06.
 Requested convergence on             energy=1.00D-06.
 No special actions if energy rises.
 EnCoef did     4 forward-backward iterations
 EnCoef did     1 forward-backward iterations
 SCF Done:  E(RPBE-PBE) =  -687.570170658     A.U. after   18 cycles
            NFock= 18  Conv=0.99D-08     -V/T= 2.0090

 **********************************************************************

            Population analysis using the SCF density.

 **********************************************************************

 Orbital symmetries:
       Occupied  (A) (A) (A) (A) (A) (A) (A) (A) (A) (A) (A) (A)
                 (A) (A) (A) (A) (A) (A) (A) (A) (A) (A) (A) (A)
                 (A) (A) (A) (A) (A) (A) (A) (A) (A) (A) (A) (A)
                 (A) (A) (A) (A) (A) (A) (A) (A) (A) (A) (A) (A)
                 (A) (A) (A)
       Virtual   (A) (A) (A) (A) (A) (A) (A) (A) (A) (A) (A) (A)
                 (A) (A) (A) (A) (A) (A) (A) (A) (A) (A) (A) (A)
                 (A) (A) (A) (A) (A) (A) (A) (A) (A) (A) (A) (A)
                 (A) (A) (A) (A) (A) (A) (A) (A) (A) (A) (A) (A)
                 (A) (A) (A) (A) (A) (A) (A) (A) (A) (A) (A) (A)
                 (A) (A) (A) (A) (A) (A) (A) (A) (A) (A) (A) (A)
                 (A) (A) (A) (A) (A) (A) (A) (A) (A) (A) (A) (A)
                 (A) (A) (A) (A) (A) (A) (A) (A) (A) (A) (A) (A)
                 (A) (A) (A) (A) (A) (A) (A) (A) (A) (A) (A) (A)
                 (A) (A) (A) (A) (A) (A) (A) (A) (A) (A) (A) (A)
                 (A) (A) (A) (A) (A) (A) (A) (A) (A) (A) (A) (A)
                 (A) (A) (A) (A) (A) (A) (A) (A) (A) (A) (A) (A)
                 (A) (A) (A) (A) (A) (A) (A) (A) (A) (A) (A) (A)
                 (A) (A) (A) (A) (A) (A) (A) (A) (A) (A) (A) (A)
                 (A) (A) (A) (A) (A) (A) (A) (A) (A) (A) (A) (A)
                 (A) (A) (A) (A) (A) (A) (A) (A) (A) (A) (A) (A)
                 (A) (A) (A) (A) (A) (A) (A) (A) (A) (A) (A) (A)
                 (A) (A) (A) (A) (A) (A) (A) (A) (A) (A) (A) (A)
                 (A) (A) (A) (A) (A) (A) (A) (A) (A) (A) (A) (A)
                 (A) (A) (A) (A) (A) (A) (A) (A) (A) (A) (A) (A)
                 (A) (A) (A) (A) (A) (A) (A) (A) (A) (A) (A) (A)
                 (A) (A) (A) (A) (A) (A) (A) (A) (A) (A) (A) (A)
                 (A) (A) (A) (A) (A)
 The electronic state is 1-A.
 Alpha  occ. eigenvalues --  -19.01093 -19.00995 -18.96165 -18.95816 -10.21282
 Alpha  occ. eigenvalues --  -10.11999 -10.10623 -10.08511 -10.07388 -10.06504
 Alpha  occ. eigenvalues --  -10.06442 -10.05537 -10.05416 -10.04613  -1.21807
 Alpha  occ. eigenvalues --   -1.14527  -1.14364  -1.11427  -0.93297  -0.89672
 Alpha  occ. eigenvalues --   -0.84406  -0.83142  -0.78781  -0.76685  -0.74023
 Alpha  occ. eigenvalues --   -0.72061  -0.69121  -0.66510  -0.64750  -0.61703
 Alpha  occ. eigenvalues --   -0.59935  -0.58420  -0.58307  -0.56944  -0.55317
 Alpha  occ. eigenvalues --   -0.53979  -0.53352  -0.51880  -0.51058  -0.50723
 Alpha  occ. eigenvalues --   -0.49529  -0.48427  -0.47723  -0.47294  -0.46676
 Alpha  occ. eigenvalues --   -0.44054  -0.43353  -0.43241  -0.40214  -0.35950
 Alpha  occ. eigenvalues --   -0.32977
 Alpha virt. eigenvalues --   -0.26560  -0.17804  -0.17077  -0.16983  -0.12290
 Alpha virt. eigenvalues --   -0.12061  -0.11323  -0.11041  -0.10754  -0.08960
 Alpha virt. eigenvalues --   -0.07680  -0.07550  -0.07079  -0.06449  -0.06025
 Alpha virt. eigenvalues --   -0.05115  -0.04160  -0.04018  -0.03815  -0.02851
 Alpha virt. eigenvalues --   -0.01684  -0.01272  -0.00968  -0.00421  -0.00159
 Alpha virt. eigenvalues --    0.00203   0.01115   0.01292   0.01727   0.01851
 Alpha virt. eigenvalues --    0.02352   0.02573   0.02779   0.03004   0.03492
 Alpha virt. eigenvalues --    0.04754   0.05264   0.05524   0.06029   0.06625
 Alpha virt. eigenvalues --    0.06937   0.07522   0.07609   0.08242   0.08716
 Alpha virt. eigenvalues --    0.09214   0.09375   0.09819   0.10807   0.11177
 Alpha virt. eigenvalues --    0.11779   0.12118   0.12771   0.13334   0.13663
 Alpha virt. eigenvalues --    0.13771   0.14607   0.15331   0.15375   0.15875
 Alpha virt. eigenvalues --    0.16104   0.17262   0.17477   0.18010   0.18563
 Alpha virt. eigenvalues --    0.20121   0.20493   0.21034   0.21353   0.21580
 Alpha virt. eigenvalues --    0.22369   0.22583   0.24158   0.24725   0.25346
 Alpha virt. eigenvalues --    0.26483   0.28208   0.28214   0.30319   0.31599
 Alpha virt. eigenvalues --    0.32226   0.34060   0.34691   0.40746   0.43446
 Alpha virt. eigenvalues --    0.47964   0.48630   0.49523   0.50081   0.52485
 Alpha virt. eigenvalues --    0.52586   0.53024   0.54203   0.55094   0.55443
 Alpha virt. eigenvalues --    0.56442   0.56864   0.58277   0.59445   0.60433
 Alpha virt. eigenvalues --    0.60518   0.62262   0.66765   0.67229   0.68976
 Alpha virt. eigenvalues --    0.71050   0.73308   0.74131   0.74352   0.74514
 Alpha virt. eigenvalues --    0.76960   0.78889   0.79836   0.81506   0.85091
 Alpha virt. eigenvalues --    0.85487   0.88286   0.88558   0.90206   0.90977
 Alpha virt. eigenvalues --    0.91817   0.93546   0.94195   0.95714   0.97693
 Alpha virt. eigenvalues --    0.98258   0.98384   0.99682   1.00800   1.01550
 Alpha virt. eigenvalues --    1.02035   1.03895   1.03975   1.04812   1.05738
 Alpha virt. eigenvalues --    1.06555   1.07281   1.09239   1.09441   1.10543
 Alpha virt. eigenvalues --    1.11336   1.12367   1.13286   1.15512   1.16294
 Alpha virt. eigenvalues --    1.16754   1.17304   1.19670   1.20752   1.22163
 Alpha virt. eigenvalues --    1.22718   1.24418   1.27099   1.27381   1.32045
 Alpha virt. eigenvalues --    1.34984   1.36518   1.37675   1.38579   1.40365
 Alpha virt. eigenvalues --    1.43331   1.46063   1.49305   1.54363   1.56264
 Alpha virt. eigenvalues --    1.58222   1.60498   1.60935   1.62991   1.64602
 Alpha virt. eigenvalues --    1.65360   1.66850   1.68938   1.69363   1.69741
 Alpha virt. eigenvalues --    1.70890   1.72281   1.72429   1.75623   1.76009
 Alpha virt. eigenvalues --    1.77538   1.80989   1.82888   1.83245   1.85081
 Alpha virt. eigenvalues --    1.85171   1.87008   1.87481   1.93008   1.94076
 Alpha virt. eigenvalues --    1.96030   1.96892   2.00237   2.01672   2.02624
 Alpha virt. eigenvalues --    2.06483   2.06648   2.08483   2.10952   2.15294
 Alpha virt. eigenvalues --    2.16803   2.17327   2.18133   2.21394   2.24167
 Alpha virt. eigenvalues --    2.25674   2.27513   2.28066   2.28713   2.30826
 Alpha virt. eigenvalues --    2.32858   2.33334   2.34485   2.36012   2.36795
 Alpha virt. eigenvalues --    2.37474   2.40256   2.41747   2.42778   2.44373
 Alpha virt. eigenvalues --    2.45886   2.47406   2.49100   2.49908   2.51953
 Alpha virt. eigenvalues --    2.53085   2.53191   2.56160   2.61568   2.62650
 Alpha virt. eigenvalues --    2.65219   2.65360   2.67055   2.68247   2.74836
 Alpha virt. eigenvalues --    2.77324   2.80625   2.86314   2.88842   2.93191
 Alpha virt. eigenvalues --    2.96353   2.99520   3.01658   3.06205   3.12445
 Alpha virt. eigenvalues --    3.14290   3.19622   3.21411   3.22877   3.26583
 Alpha virt. eigenvalues --    3.28989   3.33064   3.33733   3.39872   3.59068
 Alpha virt. eigenvalues --    3.96722   4.02327   4.05784   4.11184   4.13455
 Alpha virt. eigenvalues --    4.17662   4.21512   4.24889   4.29452   4.30980
 Alpha virt. eigenvalues --    4.36966   4.44493   4.57663   4.86298
          Condensed to atoms (all electrons):
               1          2          3          4          5          6
     1  C   12.054200   0.275032  -1.954232  -0.998146  -0.199834  -2.731389
     2  C    0.275032  16.620840  -3.462103  -4.647856  -0.809521  -0.141834
     3  C   -1.954232  -3.462103  14.677848  -0.085373  -1.355435  -1.310416
     4  C   -0.998146  -4.647856  -0.085373  16.054497   1.301634  -1.842146
     5  C   -0.199834  -0.809521  -1.355435   1.301634   9.002651  -0.402678
     6  C   -2.731389  -0.141834  -1.310416  -1.842146  -0.402678  10.927516
     7  O   -0.450254   0.028983   0.355609   0.078472  -0.036664  -0.022519
     8  C   -0.209942  -0.726189  -0.400164  -2.443787  -0.699858   0.862921
     9  C   -0.181159  -0.232356  -0.556328  -1.644673  -0.033194   0.716911
    10  C   -0.142709   0.010090   0.096089  -0.556475  -1.369878   0.149162
    11  O    0.000721   0.000599   0.001104   0.009211   0.020937  -0.006210
    12  O   -0.006538  -0.001002   0.001425  -0.016367  -0.007236  -0.002109
    13  O    0.054444  -0.867700   0.472664   0.321541   0.017804  -0.053140
    14  C    0.030119  -0.006747  -0.190483   0.075743  -0.053413   0.003306
    15  H    0.207331   0.075846   0.021892   0.019800  -0.008799   0.017996
    16  H   -0.021543   0.021095  -0.155019   0.292855   0.030731   0.013320
    17  H    0.012486  -0.025092   0.000420   0.043911   0.105355   0.179886
    18  H    0.169288   0.160676  -0.300847  -0.041406   0.004750  -0.001755
    19  H    0.014727   0.003785   0.027098   0.206578   0.038429  -0.042254
    20  H    0.024279  -0.003422   0.005338   0.019327   0.083815  -0.024182
    21  H    0.000368   0.000041  -0.000050   0.000902  -0.001276   0.002890
    22  H   -0.000428  -0.000017   0.000397   0.004999   0.011630  -0.003826
    23  H    0.004022   0.057139   0.089761  -0.123868  -0.012233  -0.000206
    24  H   -0.004102  -0.024582  -0.118152   0.113645   0.015554   0.003648
    25  H   -0.002807  -0.031518  -0.121727   0.117075   0.027468   0.001752
               7          8          9         10         11         12
     1  C   -0.450254  -0.209942  -0.181159  -0.142709   0.000721  -0.006538
     2  C    0.028983  -0.726189  -0.232356   0.010090   0.000599  -0.001002
     3  C    0.355609  -0.400164  -0.556328   0.096089   0.001104   0.001425
     4  C    0.078472  -2.443787  -1.644673  -0.556475   0.009211  -0.016367
     5  C   -0.036664  -0.699858  -0.033194  -1.369878   0.020937  -0.007236
     6  C   -0.022519   0.862921   0.716911   0.149162  -0.006210  -0.002109
     7  O    8.274493   0.009897   0.000773   0.000461   0.000000  -0.000000
     8  C    0.009897  10.206809  -2.235315   1.153585  -0.111430   0.112670
     9  C    0.000773  -2.235315  13.708103  -3.103153   0.268974  -0.194000
    10  C    0.000461   1.153585  -3.103153   8.913159  -0.066469   0.227103
    11  O    0.000000  -0.111430   0.268974  -0.066469   8.163975  -0.099954
    12  O   -0.000000   0.112670  -0.194000   0.227103  -0.099954   8.203711
    13  O   -0.018443  -0.030495  -0.003806  -0.000142   0.000001  -0.000006
    14  C    0.001833  -0.025861   0.001933  -0.002690  -0.000003  -0.000003
    15  H   -0.007329  -0.008792  -0.001245  -0.000261   0.000000  -0.000000
    16  H   -0.000504   0.102911   0.024691   0.001002   0.000001  -0.000107
    17  H   -0.000646  -0.014541  -0.019607   0.015959   0.000133   0.000022
    18  H    0.184926   0.000282   0.000148   0.000012   0.000000  -0.000000
    19  H   -0.000006   0.256753  -0.139197  -0.084125   0.000853  -0.003934
    20  H   -0.000003  -0.011678   0.319055  -0.103221  -0.011384   0.008779
    21  H   -0.000000   0.054863  -0.052648   0.016872   0.202151  -0.002702
    22  H   -0.000000  -0.004527   0.081337  -0.064380  -0.003850   0.197785
    23  H   -0.000062  -0.002033  -0.000054   0.000004   0.000000  -0.000000
    24  H   -0.000216   0.005226   0.000458   0.000028  -0.000000   0.000001
    25  H   -0.000191   0.002844   0.000483  -0.000088  -0.000000  -0.000001
              13         14         15         16         17         18
     1  C    0.054444   0.030119   0.207331  -0.021543   0.012486   0.169288
     2  C   -0.867700  -0.006747   0.075846   0.021095  -0.025092   0.160676
     3  C    0.472664  -0.190483   0.021892  -0.155019   0.000420  -0.300847
     4  C    0.321541   0.075743   0.019800   0.292855   0.043911  -0.041406
     5  C    0.017804  -0.053413  -0.008799   0.030731   0.105355   0.004750
     6  C   -0.053140   0.003306   0.017996   0.013320   0.179886  -0.001755
     7  O   -0.018443   0.001833  -0.007329  -0.000504  -0.000646   0.184926
     8  C   -0.030495  -0.025861  -0.008792   0.102911  -0.014541   0.000282
     9  C   -0.003806   0.001933  -0.001245   0.024691  -0.019607   0.000148
    10  C   -0.000142  -0.002690  -0.000261   0.001002   0.015959   0.000012
    11  O    0.000001  -0.000003   0.000000   0.000001   0.000133   0.000000
    12  O   -0.000006  -0.000003  -0.000000  -0.000107   0.000022  -0.000000
    13  O    8.531961   0.057113  -0.000554  -0.015061   0.000153   0.047197
    14  C    0.057113   5.083175   0.000117  -0.000822   0.000080   0.003659
    15  H   -0.000554   0.000117   0.501140   0.000013  -0.005229  -0.000055
    16  H   -0.015061  -0.000822   0.000013   0.547795  -0.000121  -0.000024
    17  H    0.000153   0.000080  -0.005229  -0.000121   0.550507   0.000005
    18  H    0.047197   0.003659  -0.000055  -0.000024   0.000005   0.368662
    19  H    0.000066   0.000993   0.000002   0.004081  -0.000021   0.000000
    20  H    0.000002   0.000030   0.000006  -0.000001   0.002051   0.000000
    21  H    0.000000   0.000000   0.000000  -0.000000  -0.000000  -0.000000
    22  H   -0.000000   0.000005  -0.000000  -0.000000   0.000000   0.000000
    23  H   -0.059905   0.412261  -0.000000   0.000054  -0.000000  -0.000081
    24  H   -0.040312   0.402116   0.000000  -0.000372   0.000000   0.000044
    25  H   -0.040629   0.400280   0.000000  -0.000334   0.000000   0.000042
              19         20         21         22         23         24
     1  C    0.014727   0.024279   0.000368  -0.000428   0.004022  -0.004102
     2  C    0.003785  -0.003422   0.000041  -0.000017   0.057139  -0.024582
     3  C    0.027098   0.005338  -0.000050   0.000397   0.089761  -0.118152
     4  C    0.206578   0.019327   0.000902   0.004999  -0.123868   0.113645
     5  C    0.038429   0.083815  -0.001276   0.011630  -0.012233   0.015554
     6  C   -0.042254  -0.024182   0.002890  -0.003826  -0.000206   0.003648
     7  O   -0.000006  -0.000003  -0.000000  -0.000000  -0.000062  -0.000216
     8  C    0.256753  -0.011678   0.054863  -0.004527  -0.002033   0.005226
     9  C   -0.139197   0.319055  -0.052648   0.081337  -0.000054   0.000458
    10  C   -0.084125  -0.103221   0.016872  -0.064380   0.000004   0.000028
    11  O    0.000853  -0.011384   0.202151  -0.003850   0.000000  -0.000000
    12  O   -0.003934   0.008779  -0.002702   0.197785  -0.000000   0.000001
    13  O    0.000066   0.000002   0.000000  -0.000000  -0.059905  -0.040312
    14  C    0.000993   0.000030   0.000000   0.000005   0.412261   0.402116
    15  H    0.000002   0.000006   0.000000  -0.000000  -0.000000   0.000000
    16  H    0.004081  -0.000001  -0.000000  -0.000000   0.000054  -0.000372
    17  H   -0.000021   0.002051  -0.000000   0.000000  -0.000000   0.000000
    18  H    0.000000   0.000000  -0.000000   0.000000  -0.000081   0.000044
    19  H    0.537806   0.003799   0.000012  -0.000090   0.000000  -0.000002
    20  H    0.003799   0.511311   0.000101  -0.000196   0.000000  -0.000000
    21  H    0.000012   0.000101   0.391172   0.002942   0.000000  -0.000000
    22  H   -0.000090  -0.000196   0.002942   0.391919  -0.000000   0.000000
    23  H    0.000000   0.000000   0.000000  -0.000000   0.483128  -0.023825
    24  H   -0.000002  -0.000000  -0.000000   0.000000  -0.023825   0.524747
    25  H   -0.000001   0.000000   0.000000  -0.000000  -0.023792  -0.039271
              25
     1  C   -0.002807
     2  C   -0.031518
     3  C   -0.121727
     4  C    0.117075
     5  C    0.027468
     6  C    0.001752
     7  O   -0.000191
     8  C    0.002844
     9  C    0.000483
    10  C   -0.000088
    11  O   -0.000000
    12  O   -0.000001
    13  O   -0.040629
    14  C    0.400280
    15  H    0.000000
    16  H   -0.000334
    17  H    0.000000
    18  H    0.000042
    19  H   -0.000001
    20  H    0.000000
    21  H    0.000000
    22  H   -0.000000
    23  H   -0.023792
    24  H   -0.039271
    25  H    0.525096
 Mulliken charges:
               1
     1  C    0.056067
     2  C   -0.274188
     3  C    0.260684
     4  C   -0.260093
     5  C    0.329258
     6  C   -0.294641
     7  O   -0.398609
     8  C    0.155850
     9  C   -0.726131
    10  C    0.910064
    11  O   -0.369361
    12  O   -0.417535
    13  O   -0.372754
    14  C   -0.192741
    15  H    0.188124
    16  H    0.155360
    17  H    0.154288
    18  H    0.404476
    19  H    0.174650
    20  H    0.176194
    21  H    0.384363
    22  H    0.386300
    23  H    0.199691
    24  H    0.185366
    25  H    0.185319
 Sum of Mulliken charges =   1.00000
 Mulliken charges with hydrogens summed into heavy atoms:
               1
     1  C    0.244190
     2  C   -0.274188
     3  C    0.260684
     4  C   -0.104733
     5  C    0.329258
     6  C   -0.140353
     7  O    0.005867
     8  C    0.330500
     9  C   -0.549937
    10  C    0.910064
    11  O    0.015001
    12  O   -0.031235
    13  O   -0.372754
    14  C    0.377634
 Electronic spatial extent (au):  <R**2>=           4161.8306
 Charge=              1.0000 electrons
 Dipole moment (field-independent basis, Debye):
    X=             -7.0164    Y=              3.3223    Z=              0.0640  Tot=              7.7635
 Quadrupole moment (field-independent basis, Debye-Ang):
   XX=              9.6562   YY=            -61.5689   ZZ=            -82.8122
   XY=             -2.2332   XZ=              0.3459   YZ=              1.2381
 Traceless Quadrupole moment (field-independent basis, Debye-Ang):
   XX=             54.5645   YY=            -16.6606   ZZ=            -37.9039
   XY=             -2.2332   XZ=              0.3459   YZ=              1.2381
 Octapole moment (field-independent basis, Debye-Ang**2):
  XXX=           -316.2209  YYY=             21.1324  ZZZ=             -0.0695  XYY=              5.0435
  XXY=             93.5292  XXZ=             -3.5284  XZZ=             -3.2859  YZZ=              5.1143
  YYZ=              1.6163  XYZ=             -4.7220
 Hexadecapole moment (field-independent basis, Debye-Ang**3):
 XXXX=          -1394.6215 YYYY=           -792.9849 ZZZZ=            -93.4808 XXXY=           -239.4230
 XXXZ=             34.0886 YYYX=             26.4619 YYYZ=              3.9969 ZZZX=              0.6255
 ZZZY=             -0.0169 XXYY=           -674.7625 XXZZ=           -713.2569 YYZZ=           -175.7874
 XXYZ=             25.4530 YYXZ=             -6.4765 ZZXY=             -2.8890
 N-N= 8.385196916743D+02 E-N=-3.266472303154D+03  KE= 6.814630197607D+02
 Calling FoFJK, ICntrl=      2527 FMM=F ISym2X=0 I1Cent= 0 IOpClX= 0 NMat=1 NMatS=1 NMatT=0.
 ***** Axes restored to original set *****
 -------------------------------------------------------------------
 Center     Atomic                   Forces (Hartrees/Bohr)
 Number     Number              X              Y              Z
 -------------------------------------------------------------------
      1        6          -0.000114210   -0.000735973    0.000001022
      2        6          -0.001327060    0.000154062   -0.000025555
      3        6          -0.002332881    0.002893990   -0.000044554
      4        6           0.003321803   -0.000452740    0.000022438
      5        6          -0.000841805    0.000586636    0.000034446
      6        6           0.000265806    0.000300822   -0.000029596
      7        8          -0.001519094   -0.010573462    0.000137408
      8        6           0.000636871   -0.001451577   -0.000157831
      9        6          -0.003206204    0.000726815   -0.000045603
     10        6           0.003362920    0.001721168   -0.000006112
     11        8           0.000295932   -0.011186325   -0.002988276
     12        8          -0.008008877    0.006686577    0.003351619
     13        8          -0.005423839   -0.002402201    0.000051566
     14        6           0.001074128   -0.001906691    0.000008996
     15        1          -0.001468709   -0.005893116    0.000083858
     16        1           0.001448322    0.006200370   -0.000080471
     17        1           0.004417292   -0.004252631    0.000082310
     18        1          -0.004619981    0.007421841   -0.000089340
     19        1           0.000658086    0.006143602   -0.000017533
     20        1           0.000206601   -0.006269813    0.000009292
     21        1           0.006227943    0.004084014    0.001873154
     22        1           0.007021328    0.001991599   -0.002100974
     23        1          -0.005223897    0.002059821   -0.000013025
     24        1           0.002580310    0.002129275    0.004518730
     25        1           0.002569214    0.002023938   -0.004575971
 -------------------------------------------------------------------
 Cartesian Forces:  Max     0.011186325 RMS     0.003549692

 GradGradGradGradGradGradGradGradGradGradGradGradGradGradGradGradGradGrad
 Berny optimization.
 FormGI is forming the generalized inverse of G from B-inverse, IUseBI=4.
 GSVD:  received Info=                   1 from GESDD.
 Internal  Forces:  Max     0.009493317 RMS     0.003392923
 Search for a local minimum.
 Step number   1 out of a maximum of  119
 All quantities printed in internal units (Hartrees-Bohrs-Radians)
 Mixed Optimization -- RFO/linear search
 Second derivative matrix not updated -- first step.
 ITU=  0
     Eigenvalues ---    0.01240   0.01774   0.01830   0.01911   0.01931
     Eigenvalues ---    0.02017   0.02054   0.02063   0.02115   0.02145
     Eigenvalues ---    0.02208   0.02213   0.02231   0.02235   0.02252
     Eigenvalues ---    0.02284   0.02465   0.02622   0.02649   0.02698
     Eigenvalues ---    0.10156   0.10684   0.16000   0.16000   0.16000
     Eigenvalues ---    0.16000   0.16000   0.16000   0.16000   0.16000
     Eigenvalues ---    0.16000   0.16000   0.16000   0.22000   0.22000
     Eigenvalues ---    0.22369   0.23477   0.24604   0.24999   0.25000
     Eigenvalues ---    0.25000   0.25000   0.25000   0.25000   0.34262
     Eigenvalues ---    0.34264   0.34998   0.35056   0.35533   0.35572
     Eigenvalues ---    0.35595   0.35741   0.38889   0.40199   0.40395
     Eigenvalues ---    0.41881   0.43469   0.43790   0.47100   0.47213
     Eigenvalues ---    0.47735   0.49497   0.52463   0.53240   0.53301
     Eigenvalues ---    0.53920   0.59586   0.60070   0.60953
 RFO step:  Lambda=-2.81639319D-03 EMin= 1.23973185D-02
 Linear search not attempted -- first point.
 Iteration  1 RMS(Cart)=  0.02050166 RMS(Int)=  0.00002405
 Iteration  2 RMS(Cart)=  0.00003916 RMS(Int)=  0.00000179
 Iteration  3 RMS(Cart)=  0.00000000 RMS(Int)=  0.00000179
 Variable       Old X    -DE/DX   Delta X   Delta X   Delta X     New X
                                 (Linear)    (Quad)   (Total)
    R1        2.65453   0.00664   0.00000   0.01477   0.01477   2.66930
    R2        2.60442   0.00723   0.00000   0.01444   0.01444   2.61886
    R3        2.04818   0.00607   0.00000   0.01696   0.01696   2.06514
    R4        2.69383   0.00744   0.00000   0.01795   0.01796   2.71178
    R5        2.51269   0.00682   0.00000   0.01140   0.01140   2.52409
    R6        2.60313   0.00931   0.00000   0.01878   0.01878   2.62191
    R7        2.56105   0.00473   0.00000   0.00872   0.00872   2.56977
    R8        2.69949   0.00543   0.00000   0.01301   0.01301   2.71250
    R9        2.04756   0.00637   0.00000   0.01776   0.01776   2.06532
   R10        2.68812   0.00676   0.00000   0.01575   0.01575   2.70387
   R11        2.67095   0.00761   0.00000   0.01739   0.01739   2.68834
   R12        2.04720   0.00613   0.00000   0.01709   0.01709   2.06429
   R13        1.84159   0.00868   0.00000   0.01646   0.01646   1.85805
   R14        2.62786   0.00616   0.00000   0.01298   0.01298   2.64084
   R15        2.05584   0.00618   0.00000   0.01749   0.01749   2.07333
   R16        2.62223   0.00946   0.00000   0.01970   0.01970   2.64193
   R17        2.04488   0.00627   0.00000   0.01740   0.01740   2.06228
   R18        2.50194   0.00949   0.00000   0.01550   0.01550   2.51744
   R19        2.50885   0.00864   0.00000   0.01432   0.01432   2.52316
   R20        1.83430   0.00764   0.00000   0.01428   0.01428   1.84858
   R21        1.83374   0.00755   0.00000   0.01410   0.01410   1.84784
   R22        2.71019   0.00437   0.00000   0.01074   0.01074   2.72093
   R23        2.05678   0.00562   0.00000   0.01592   0.01592   2.07270
   R24        2.06888   0.00560   0.00000   0.01622   0.01622   2.08510
   R25        2.06890   0.00561   0.00000   0.01623   0.01623   2.08513
    A1        2.08871   0.00030   0.00000   0.00113   0.00113   2.08983
    A2        2.06719  -0.00019   0.00000  -0.00080  -0.00080   2.06639
    A3        2.12729  -0.00011   0.00000  -0.00033  -0.00033   2.12696
    A4        2.10584  -0.00069   0.00000  -0.00236  -0.00236   2.10348
    A5        2.08231  -0.00005   0.00000  -0.00039  -0.00039   2.08192
    A6        2.09503   0.00074   0.00000   0.00275   0.00275   2.09779
    A7        2.08658  -0.00013   0.00000  -0.00007  -0.00007   2.08651
    A8        1.97334  -0.00085   0.00000  -0.00359  -0.00359   1.96976
    A9        2.22326   0.00098   0.00000   0.00365   0.00365   2.22692
   A10        2.10020   0.00030   0.00000   0.00134   0.00134   2.10155
   A11        2.10441  -0.00007   0.00000  -0.00016  -0.00017   2.10424
   A12        2.07857  -0.00023   0.00000  -0.00118  -0.00118   2.07740
   A13        2.07665  -0.00039   0.00000  -0.00210  -0.00211   2.07454
   A14        2.06393  -0.00015   0.00000  -0.00034  -0.00034   2.06359
   A15        2.14261   0.00055   0.00000   0.00244   0.00244   2.14505
   A16        2.10838   0.00062   0.00000   0.00207   0.00206   2.11045
   A17        2.07585  -0.00043   0.00000  -0.00178  -0.00178   2.07407
   A18        2.09895  -0.00019   0.00000  -0.00028  -0.00028   2.09867
   A19        1.91439  -0.00180   0.00000  -0.01106  -0.01106   1.90332
   A20        2.22017   0.00076   0.00000   0.00342   0.00342   2.22359
   A21        2.02802  -0.00036   0.00000  -0.00161  -0.00161   2.02641
   A22        2.03499  -0.00040   0.00000  -0.00181  -0.00181   2.03319
   A23        2.12361   0.00165   0.00000   0.00741   0.00741   2.13102
   A24        2.14316  -0.00064   0.00000  -0.00256  -0.00256   2.14061
   A25        2.01641  -0.00101   0.00000  -0.00485  -0.00485   2.01156
   A26        2.06692  -0.00130   0.00000  -0.00514  -0.00514   2.06178
   A27        2.11249  -0.00093   0.00000  -0.00368  -0.00368   2.10881
   A28        2.10373   0.00223   0.00000   0.00882   0.00882   2.11255
   A29        2.00719  -0.00144   0.00000  -0.00884  -0.00884   1.99835
   A30        1.99865  -0.00143   0.00000  -0.00881  -0.00881   1.98984
   A31        2.07369  -0.00062   0.00000  -0.00243  -0.00243   2.07125
   A32        1.84498  -0.00025   0.00000  -0.00202  -0.00202   1.84296
   A33        1.92643   0.00054   0.00000   0.00357   0.00356   1.92999
   A34        1.92633   0.00054   0.00000   0.00356   0.00355   1.92988
   A35        1.91765  -0.00029   0.00000  -0.00224  -0.00224   1.91542
   A36        1.91758  -0.00028   0.00000  -0.00221  -0.00221   1.91537
   A37        1.92919  -0.00026   0.00000  -0.00074  -0.00075   1.92843
    D1       -0.00056  -0.00000   0.00000  -0.00008  -0.00008  -0.00064
    D2       -3.14095   0.00000   0.00000   0.00008   0.00008  -3.14087
    D3        3.13893  -0.00000   0.00000  -0.00007  -0.00007   3.13886
    D4       -0.00145   0.00000   0.00000   0.00009   0.00009  -0.00136
    D5       -0.00261   0.00000   0.00000   0.00012   0.00012  -0.00249
    D6        3.13867  -0.00000   0.00000  -0.00015  -0.00015   3.13852
    D7        3.14115   0.00000   0.00000   0.00011   0.00011   3.14126
    D8       -0.00076  -0.00000   0.00000  -0.00015  -0.00015  -0.00091
    D9        0.00160  -0.00000   0.00000  -0.00004  -0.00004   0.00156
   D10       -3.14028  -0.00000   0.00000  -0.00004  -0.00004  -3.14032
   D11       -3.14121  -0.00001   0.00000  -0.00021  -0.00021  -3.14142
   D12        0.00009  -0.00000   0.00000  -0.00020  -0.00020  -0.00011
   D13        3.14065  -0.00000   0.00000  -0.00004  -0.00004   3.14061
   D14        0.00026   0.00000   0.00000   0.00012   0.00012   0.00038
   D15        0.00054   0.00000   0.00000   0.00012   0.00012   0.00066
   D16        3.14115  -0.00000   0.00000  -0.00010  -0.00010   3.14105
   D17       -3.14071   0.00000   0.00000   0.00011   0.00011  -3.14060
   D18       -0.00011  -0.00000   0.00000  -0.00010  -0.00010  -0.00021
   D19        3.14111   0.00001   0.00000   0.00043   0.00043   3.14154
   D20       -0.00080   0.00001   0.00000   0.00043   0.00043  -0.00037
   D21       -0.00363  -0.00000   0.00000  -0.00007  -0.00007  -0.00370
   D22        3.14085  -0.00001   0.00000  -0.00038  -0.00038   3.14047
   D23        3.13894   0.00000   0.00000   0.00014   0.00014   3.13908
   D24        0.00023  -0.00000   0.00000  -0.00017  -0.00017   0.00007
   D25        0.00470  -0.00000   0.00000  -0.00005  -0.00005   0.00465
   D26       -3.13658   0.00001   0.00000   0.00022   0.00022  -3.13636
   D27       -3.13992   0.00001   0.00000   0.00027   0.00027  -3.13964
   D28        0.00199   0.00001   0.00000   0.00054   0.00054   0.00254
   D29       -3.12954   0.00000   0.00000   0.00017   0.00017  -3.12937
   D30        0.01263   0.00001   0.00000   0.00040   0.00040   0.01304
   D31        0.01506  -0.00000   0.00000  -0.00015  -0.00015   0.01491
   D32       -3.12596   0.00000   0.00000   0.00009   0.00009  -3.12587
   D33       -3.11997   0.00003   0.00000   0.00123   0.00123  -3.11873
   D34        0.02243   0.00002   0.00000   0.00067   0.00067   0.02311
   D35        0.02105   0.00003   0.00000   0.00100   0.00100   0.02205
   D36       -3.11974   0.00001   0.00000   0.00044   0.00044  -3.11930
   D37       -3.05644   0.00011   0.00000   0.00423   0.00424  -3.05220
   D38        0.09492   0.00012   0.00000   0.00485   0.00485   0.09977
   D39        0.08440   0.00012   0.00000   0.00476   0.00476   0.08916
   D40       -3.04742   0.00013   0.00000   0.00537   0.00537  -3.04205
   D41       -2.89284  -0.00008   0.00000  -0.00292  -0.00292  -2.89576
   D42        0.23903  -0.00011   0.00000  -0.00360  -0.00360   0.23543
   D43       -2.84224  -0.00008   0.00000  -0.00267  -0.00267  -2.84490
   D44        0.30933  -0.00005   0.00000  -0.00196  -0.00196   0.30738
   D45       -3.14034  -0.00000   0.00000  -0.00022  -0.00022  -3.14055
   D46       -1.06754  -0.00021   0.00000  -0.00217  -0.00218  -1.06972
   D47        1.07020   0.00020   0.00000   0.00171   0.00172   1.07191
         Item               Value     Threshold  Converged?
 Maximum Force            0.009493     0.000450     NO 
 RMS     Force            0.003393     0.000300     NO 
 Maximum Displacement     0.074511     0.001800     NO 
 RMS     Displacement     0.020502     0.001200     NO 
 Predicted change in Energy=-1.417840D-03
 GradGradGradGradGradGradGradGradGradGradGradGradGradGradGradGradGradGrad

                          Input orientation:                          
 ---------------------------------------------------------------------
 Center     Atomic      Atomic             Coordinates (Angstroms)
 Number     Number       Type             X           Y           Z
 ---------------------------------------------------------------------
      1          6           0       -1.481465   -2.041379    0.024656
      2          6           0       -2.531586   -1.096735    0.012498
      3          6           0       -2.246598    0.309585   -0.005018
      4          6           0       -0.927751    0.740433   -0.011878
      5          6           0        0.147345   -0.210583   -0.002390
      6          6           0       -0.165606   -1.606602    0.018854
      7          8           0       -3.796472   -1.525797    0.019066
      8          6           0        1.481867    0.282157   -0.011398
      9          6           0        2.662650   -0.465263   -0.018242
     10          6           0        3.923764    0.137886    0.000185
     11          8           0        4.995967   -0.644604   -0.112831
     12          8           0        4.047899    1.459992    0.139419
     13          8           0       -3.369796    1.076125   -0.013376
     14          6           0       -3.228303    2.508903   -0.031014
     15          1           0       -1.738068   -3.103533    0.040501
     16          1           0       -0.691744    1.807476   -0.025706
     17          1           0        0.634879   -2.349804    0.031364
     18          1           0       -4.398994   -0.748857    0.009827
     19          1           0        1.593497    1.373624   -0.012353
     20          1           0        2.668650   -1.556368   -0.038475
     21          1           0        5.841148   -0.210723    0.120285
     22          1           0        4.925087    1.806609   -0.118562
     23          1           0       -4.250662    2.906136   -0.033853
     24          1           0       -2.695571    2.857169    0.870304
     25          1           0       -2.699159    2.835096   -0.942664
 ---------------------------------------------------------------------
                    Distance matrix (angstroms):
                    1          2          3          4          5
     1  C    0.000000
     2  C    1.412535   0.000000
     3  C    2.472518   1.435012   0.000000
     4  C    2.836621   2.438867   1.387457   0.000000
     5  C    2.450627   2.821730   2.449806   1.435393   0.000000
     6  C    1.385839   2.420303   2.828935   2.467870   1.430825
     7  O    2.371732   1.335692   2.402356   3.655998   4.157396
     8  C    3.765828   4.243786   3.728572   2.452810   1.422611
     9  C    4.433923   5.232570   4.970039   3.787443   2.528215
    10  C    5.828062   6.572366   6.172753   4.888804   3.792463
    11  O    6.627746   7.542161   7.305947   6.084320   4.869261
    12  O    6.545734   7.059928   6.400390   5.029686   4.245615
    13  O    3.645006   2.329074   1.359862   2.465010   3.745133
    14  C    4.874383   3.672592   2.408614   2.901791   4.334907
    15  H    1.092825   2.158169   3.451094   3.928796   3.453373
    16  H    3.929362   3.438156   2.159092   1.092918   2.185675
    17  H    2.138711   3.405443   3.921300   3.463127   2.194333
    18  H    3.191051   1.899536   2.398609   3.777299   4.578110
    19  H    4.595543   4.808285   3.984792   2.599542   2.145032
    20  H    4.178837   5.220759   5.257620   4.267330   2.858220
    21  H    7.548583   8.420173   8.105434   6.836677   5.695124
    22  H    7.474720   8.003034   7.327144   5.950111   5.187424
    23  H    5.670078   4.356644   3.280119   3.966421   5.390491
    24  H    5.117123   4.049207   2.730924   2.895514   4.272571
    25  H    5.118447   4.049655   2.731702   2.896871   4.273507
                    6          7          8          9         10
     6  C    0.000000
     7  O    3.631765   0.000000
     8  C    2.506490   5.579470   0.000000
     9  C    3.050093   6.545715   1.397473   0.000000
    10  C    4.445958   7.897483   2.446183   1.398048   0.000000
    11  O    5.252107   8.837470   3.635667   2.342110   1.332172
    12  O    5.212692   8.394258   2.827465   2.377052   1.335200
    13  O    4.179102   2.636874   4.916200   6.226259   7.353672
    14  C    5.130300   4.074817   5.210037   6.599178   7.534903
    15  H    2.171153   2.593595   4.672640   5.131300   6.524168
    16  H    3.454668   4.555442   2.655445   4.051833   4.908270
    17  H    1.092375   4.507329   2.765219   2.768720   4.123874
    18  H    4.319419   0.983237   5.970591   7.067392   8.369869
    19  H    3.460804   6.120408   1.097161   2.127117   2.637679
    20  H    2.835281   6.465450   2.188461   1.091310   2.108863
    21  H    6.167646   9.727455   4.389032   3.191681   1.952514
    22  H    6.130583   9.337529   3.767121   3.207816   1.949714
    23  H    6.087304   4.455460   6.304575   7.691584   8.630505
    24  H    5.201051   4.598584   4.985888   6.366993   7.208828
    25  H    5.203085   4.598522   4.986556   6.363641   7.212976
                   11         12         13         14         15
    11  O    0.000000
    12  O    2.322022   0.000000
    13  O    8.541475   7.429192   0.000000
    14  C    8.808514   7.353392   1.439856   0.000000
    15  H    7.170570   7.369732   4.487201   5.807353   0.000000
    16  H    6.194380   4.755231   2.776147   2.631760   5.021671
    17  H    4.684826   5.116143   5.270334   6.207665   2.489793
    18  H    9.396340   8.731884   2.095315   3.461963   3.553304
    19  H    3.957290   2.460606   4.972201   4.953682   5.580954
    20  H    2.500650   3.321506   6.587373   7.162440   4.671094
    21  H    0.978226   2.450999   9.301362   9.469646   8.112905
    22  H    2.452244   0.977833   8.327650   8.184048   8.278432
    23  H    9.905259   8.425406   2.031080   1.096823   6.514199
    24  H    8.508156   6.925365   2.099425   1.103388   6.093878
    25  H    8.485983   6.970266   2.099359   1.103403   6.095705
                   16         17         18         19         20
    16  H    0.000000
    17  H    4.364191   0.000000
    18  H    4.503310   5.282364   0.000000
    19  H    2.326098   3.845098   6.357308   0.000000
    20  H    4.754772   2.184180   7.113789   3.121136   0.000000
    21  H    6.839087   5.629281  10.254866   4.535447   3.449740
    22  H    5.617598   5.975294   9.668783   3.361286   4.050622
    23  H    3.724651   7.176189   3.658262   6.041792   8.233520
    24  H    2.433108   6.237651   4.079888   4.623429   7.005716
    25  H    2.434447   6.240812   4.079386   4.629069   6.993990
                   21         22         23         24         25
    21  H    0.000000
    22  H    2.228418   0.000000
    23  H   10.563295   9.241780   0.000000
    24  H    9.102201   7.756027   1.799501   0.000000
    25  H    9.129278   7.737316   1.799485   1.813105   0.000000
 Stoichiometry    C10H11O4(1+)
 Framework group  C1[X(C10H11O4)]
 Deg. of freedom    69
 Full point group                 C1      NOp   1
 Largest Abelian subgroup         C1      NOp   1
 Largest concise Abelian subgroup C1      NOp   1
                         Standard orientation:                         
 ---------------------------------------------------------------------
 Center     Atomic      Atomic             Coordinates (Angstroms)
 Number     Number       Type             X           Y           Z
 ---------------------------------------------------------------------
      1          6           0        1.482768   -2.039496   -0.025178
      2          6           0        2.532356   -1.094265   -0.012642
      3          6           0        2.246576    0.311888    0.005370
      4          6           0        0.927485    0.741991    0.012338
      5          6           0       -0.147074   -0.209627    0.002468
      6          6           0        0.166664   -1.605462   -0.019267
      7          8           0        3.797484   -1.522612   -0.019319
      8          6           0       -1.481874    0.282357    0.011606
      9          6           0       -2.662236   -0.465730    0.018138
     10          6           0       -3.923689    0.136715   -0.000117
     11          8           0       -4.995455   -0.646420    0.112579
     12          8           0       -4.048563    1.458800   -0.138879
     13          8           0        3.369341    1.079057    0.014045
     14          6           0        3.227040    2.511750    0.032194
     15          1           0        1.739970   -3.101499   -0.041397
     16          1           0        0.690877    1.808895    0.026542
     17          1           0       -0.633402   -2.349111   -0.032074
     18          1           0        4.399568   -0.745335   -0.009779
     19          1           0       -1.594119    1.373761    0.012950
     20          1           0       -2.667622   -1.556846    0.037978
     21          1           0       -5.840871   -0.212931   -0.120412
     22          1           0       -4.925956    1.804831    0.119195
     23          1           0        4.249175    2.909557    0.035212
     24          1           0        2.694144    2.860039   -0.869017
     25          1           0        2.697680    2.837316    0.943942
 ---------------------------------------------------------------------
 Rotational constants (GHZ):      1.5175457      0.2812712      0.2377922
 Standard basis: 6-31+G(d,p) (6D, 7F)
 There are   321 symmetry adapted cartesian basis functions of A   symmetry.
 There are   321 symmetry adapted basis functions of A   symmetry.
   321 basis functions,   525 primitive gaussians,   321 cartesian basis functions
    51 alpha electrons       51 beta electrons
       nuclear repulsion energy       833.5003545427 Hartrees.
 NAtoms=   25 NActive=   25 NUniq=   25 SFac= 1.00D+00 NAtFMM=   60 NAOKFM=F Big=F
 Integral buffers will be    131072 words long.
 Raffenetti 2 integral format.
 Two-electron integral symmetry is turned on.
 One-electron integrals computed using PRISM.
 NBasis=   321 RedAO= T EigKep=  1.51D-06  NBF=   321
 NBsUse=   320 1.00D-06 EigRej=  7.04D-07 NBFU=   320
 Initial guess from the checkpoint file:  "pbeFAyang.chk"
 B after Tr=    -0.000000   -0.000000   -0.000000
         Rot=    1.000000   -0.000054   -0.000005   -0.000239 Ang=  -0.03 deg.
 ExpMin= 4.38D-02 ExpMax= 5.48D+03 ExpMxC= 8.25D+02 IAcc=2 IRadAn=         4 AccDes= 0.00D+00
 Harris functional with IExCor= 1009 and IRadAn=       4 diagonalized for initial guess.
 HarFok:  IExCor= 1009 AccDes= 0.00D+00 IRadAn=         4 IDoV= 1 UseB2=F ITyADJ=14
 ICtDFT=  3500011 ScaDFX=  1.000000  1.000000  1.000000  1.000000
 FoFCou: FMM=F IPFlag=           0 FMFlag=      100000 FMFlg1=           0
         NFxFlg=           0 DoJE=T BraDBF=F KetDBF=T FulRan=T
         wScrn=  0.000000 ICntrl=     500 IOpCl=  0 I1Cent=   200000004 NGrid=           0
         NMat0=    1 NMatS0=      1 NMatT0=    0 NMatD0=    1 NMtDS0=    0 NMtDT0=    0
 Petite list used in FoFCou.
 Requested convergence on RMS density matrix=1.00D-08 within 128 cycles.
 Requested convergence on MAX density matrix=1.00D-06.
 Requested convergence on             energy=1.00D-06.
 No special actions if energy rises.
 EnCoef did     6 forward-backward iterations
 SCF Done:  E(RPBE-PBE) =  -687.571560911     A.U. after   13 cycles
            NFock= 13  Conv=0.52D-08     -V/T= 2.0096
 Calling FoFJK, ICntrl=      2527 FMM=F ISym2X=0 I1Cent= 0 IOpClX= 0 NMat=1 NMatS=1 NMatT=0.
 ***** Axes restored to original set *****
 -------------------------------------------------------------------
 Center     Atomic                   Forces (Hartrees/Bohr)
 Number     Number              X              Y              Z
 -------------------------------------------------------------------
      1        6           0.000293307    0.000414984   -0.000003234
      2        6           0.001185015    0.000838232   -0.000010461
      3        6           0.001184004    0.000028017   -0.000014559
      4        6           0.000173564   -0.000481333   -0.000002290
      5        6          -0.000283551   -0.000098504    0.000006018
      6        6          -0.000404042    0.000194307   -0.000008276
      7        8          -0.000275850   -0.001533326    0.000018635
      8        6           0.000403078   -0.000512160   -0.000025808
      9        6          -0.000637624    0.000655265    0.000026267
     10        6          -0.000754363   -0.000011753   -0.000018975
     11        8          -0.000054106   -0.001948118   -0.000532640
     12        8          -0.001400725    0.000936566    0.000579031
     13        8          -0.000841351   -0.000809016    0.000029638
     14        6           0.000382099    0.000884703   -0.000019842
     15        1           0.000059117    0.000100631   -0.000004320
     16        1          -0.000154492   -0.000011388   -0.000000001
     17        1          -0.000026097    0.000005474   -0.000001005
     18        1          -0.000271133    0.001171962   -0.000017430
     19        1          -0.000074955    0.000062342    0.000000770
     20        1           0.000143071   -0.000064898    0.000033013
     21        1           0.000438885    0.000866255    0.000279442
     22        1           0.000932393   -0.000169254   -0.000322351
     23        1          -0.000074997   -0.000134716    0.000001512
     24        1           0.000027148   -0.000190445    0.000068356
     25        1           0.000031607   -0.000193827   -0.000061492
 -------------------------------------------------------------------
 Cartesian Forces:  Max     0.001948118 RMS     0.000538896

 GradGradGradGradGradGradGradGradGradGradGradGradGradGradGradGradGradGrad
 Berny optimization.
 Using GEDIIS/GDIIS optimizer.
 FormGI is forming the generalized inverse of G from B-inverse, IUseBI=4.
 GSVD:  received Info=                   1 from GESDD.
 Internal  Forces:  Max     0.001284736 RMS     0.000395535
 Search for a local minimum.
 Step number   2 out of a maximum of  119
 All quantities printed in internal units (Hartrees-Bohrs-Radians)
 Mixed Optimization -- En-DIIS/RFO-DIIS
 Update second derivatives using D2CorX and points    1    2
 DE= -1.39D-03 DEPred=-1.42D-03 R= 9.81D-01
 TightC=F SS=  1.41D+00  RLast= 8.27D-02 DXNew= 5.0454D-01 2.4824D-01
 Trust test= 9.81D-01 RLast= 8.27D-02 DXMaxT set to 3.00D-01
 ITU=  1  0
 Use linear search instead of GDIIS.
     Eigenvalues ---    0.01240   0.01774   0.01830   0.01911   0.01931
     Eigenvalues ---    0.02017   0.02054   0.02063   0.02115   0.02145
     Eigenvalues ---    0.02208   0.02213   0.02231   0.02235   0.02252
     Eigenvalues ---    0.02284   0.02466   0.02622   0.02649   0.02697
     Eigenvalues ---    0.10116   0.10685   0.15622   0.16000   0.16000
     Eigenvalues ---    0.16000   0.16000   0.16000   0.16000   0.16000
     Eigenvalues ---    0.16000   0.16000   0.16027   0.21987   0.22067
     Eigenvalues ---    0.22368   0.23496   0.24616   0.24750   0.25000
     Eigenvalues ---    0.25000   0.25000   0.25000   0.25047   0.34235
     Eigenvalues ---    0.34263   0.34960   0.35032   0.35548   0.35574
     Eigenvalues ---    0.35586   0.35710   0.38930   0.40264   0.40334
     Eigenvalues ---    0.42209   0.43631   0.44419   0.47095   0.47373
     Eigenvalues ---    0.48369   0.51178   0.51943   0.52898   0.53272
     Eigenvalues ---    0.53967   0.59057   0.59838   0.60681
 RFO step:  Lambda=-5.30797887D-05 EMin= 1.23973015D-02
 Quartic linear search produced a step of -0.00478.
 Iteration  1 RMS(Cart)=  0.00358460 RMS(Int)=  0.00000568
 Iteration  2 RMS(Cart)=  0.00000717 RMS(Int)=  0.00000021
 Iteration  3 RMS(Cart)=  0.00000000 RMS(Int)=  0.00000021
 Variable       Old X    -DE/DX   Delta X   Delta X   Delta X     New X
                                 (Linear)    (Quad)   (Total)
    R1        2.66930  -0.00052  -0.00007  -0.00080  -0.00087   2.66843
    R2        2.61886  -0.00087  -0.00007  -0.00141  -0.00148   2.61738
    R3        2.06514  -0.00011  -0.00008   0.00009   0.00001   2.06515
    R4        2.71178  -0.00073  -0.00009  -0.00134  -0.00142   2.71036
    R5        2.52409   0.00063  -0.00005   0.00133   0.00127   2.52536
    R6        2.62191  -0.00091  -0.00009  -0.00139  -0.00148   2.62043
    R7        2.56977   0.00014  -0.00004   0.00047   0.00043   2.57019
    R8        2.71250  -0.00080  -0.00006  -0.00164  -0.00170   2.71080
    R9        2.06532  -0.00005  -0.00008   0.00029   0.00020   2.06552
   R10        2.70387  -0.00054  -0.00008  -0.00091  -0.00098   2.70289
   R11        2.68834  -0.00099  -0.00008  -0.00187  -0.00195   2.68639
   R12        2.06429  -0.00002  -0.00008   0.00034   0.00026   2.06455
   R13        1.85805   0.00109  -0.00008   0.00245   0.00237   1.86042
   R14        2.64084  -0.00128  -0.00006  -0.00240  -0.00247   2.63838
   R15        2.07333   0.00006  -0.00008   0.00057   0.00049   2.07382
   R16        2.64193  -0.00089  -0.00009  -0.00139  -0.00148   2.64045
   R17        2.06228   0.00006  -0.00008   0.00058   0.00050   2.06277
   R18        2.51744   0.00096  -0.00007   0.00193   0.00186   2.51930
   R19        2.52316   0.00075  -0.00007   0.00158   0.00151   2.52468
   R20        1.84858   0.00083  -0.00007   0.00189   0.00182   1.85040
   R21        1.84784   0.00086  -0.00007   0.00194   0.00187   1.84971
   R22        2.72093   0.00038  -0.00005   0.00120   0.00115   2.72208
   R23        2.07270   0.00002  -0.00008   0.00044   0.00036   2.07306
   R24        2.08510   0.00001  -0.00008   0.00040   0.00032   2.08542
   R25        2.08513   0.00001  -0.00008   0.00040   0.00032   2.08545
    A1        2.08983  -0.00019  -0.00001  -0.00072  -0.00073   2.08910
    A2        2.06639   0.00013   0.00000   0.00060   0.00060   2.06699
    A3        2.12696   0.00005   0.00000   0.00012   0.00013   2.12709
    A4        2.10348   0.00019   0.00001   0.00073   0.00074   2.10423
    A5        2.08192   0.00015   0.00000   0.00057   0.00057   2.08248
    A6        2.09779  -0.00034  -0.00001  -0.00130  -0.00131   2.09647
    A7        2.08651   0.00007   0.00000   0.00027   0.00027   2.08679
    A8        1.96976  -0.00040   0.00002  -0.00167  -0.00165   1.96811
    A9        2.22692   0.00033  -0.00002   0.00139   0.00138   2.22829
   A10        2.10155  -0.00029  -0.00001  -0.00125  -0.00126   2.10029
   A11        2.10424  -0.00001   0.00000  -0.00033  -0.00033   2.10392
   A12        2.07740   0.00030   0.00001   0.00158   0.00158   2.07898
   A13        2.07454   0.00037   0.00001   0.00149   0.00150   2.07604
   A14        2.06359  -0.00018   0.00000  -0.00074  -0.00074   2.06285
   A15        2.14505  -0.00019  -0.00001  -0.00075  -0.00076   2.14429
   A16        2.11045  -0.00015  -0.00001  -0.00052  -0.00053   2.10991
   A17        2.07407   0.00006   0.00001   0.00017   0.00018   2.07425
   A18        2.09867   0.00009   0.00000   0.00035   0.00035   2.09902
   A19        1.90332  -0.00093   0.00005  -0.00605  -0.00600   1.89732
   A20        2.22359  -0.00044  -0.00002  -0.00193  -0.00195   2.22164
   A21        2.02641   0.00014   0.00001   0.00044   0.00044   2.02686
   A22        2.03319   0.00031   0.00001   0.00149   0.00150   2.03469
   A23        2.13102  -0.00021  -0.00004  -0.00077  -0.00080   2.13022
   A24        2.14061   0.00025   0.00001   0.00134   0.00135   2.14196
   A25        2.01156  -0.00005   0.00002  -0.00057  -0.00055   2.01101
   A26        2.06178  -0.00022   0.00002  -0.00100  -0.00097   2.06081
   A27        2.10881  -0.00014   0.00002  -0.00063  -0.00061   2.10820
   A28        2.11255   0.00036  -0.00004   0.00162   0.00158   2.11413
   A29        1.99835  -0.00107   0.00004  -0.00688  -0.00684   1.99151
   A30        1.98984  -0.00093   0.00004  -0.00599  -0.00595   1.98389
   A31        2.07125  -0.00096   0.00001  -0.00388  -0.00387   2.06738
   A32        1.84296  -0.00014   0.00001  -0.00087  -0.00086   1.84210
   A33        1.92999  -0.00023  -0.00002  -0.00138  -0.00140   1.92859
   A34        1.92988  -0.00023  -0.00002  -0.00140  -0.00142   1.92846
   A35        1.91542   0.00019   0.00001   0.00119   0.00120   1.91661
   A36        1.91537   0.00019   0.00001   0.00121   0.00122   1.91659
   A37        1.92843   0.00021   0.00000   0.00121   0.00121   1.92964
    D1       -0.00064   0.00000   0.00000   0.00004   0.00004  -0.00061
    D2       -3.14087  -0.00000  -0.00000  -0.00005  -0.00005  -3.14091
    D3        3.13886   0.00000   0.00000   0.00009   0.00009   3.13895
    D4       -0.00136   0.00000  -0.00000   0.00001   0.00001  -0.00136
    D5       -0.00249   0.00000  -0.00000   0.00005   0.00005  -0.00245
    D6        3.13852   0.00000   0.00000   0.00002   0.00002   3.13853
    D7        3.14126   0.00000  -0.00000  -0.00001  -0.00001   3.14125
    D8       -0.00091  -0.00000   0.00000  -0.00004  -0.00004  -0.00095
    D9        0.00156  -0.00000   0.00000  -0.00001  -0.00001   0.00155
   D10       -3.14032   0.00000   0.00000   0.00003   0.00003  -3.14029
   D11       -3.14142   0.00000   0.00000   0.00007   0.00007  -3.14135
   D12       -0.00011   0.00000   0.00000   0.00012   0.00012   0.00001
   D13        3.14061   0.00000   0.00000   0.00011   0.00011   3.14071
   D14        0.00038   0.00000  -0.00000   0.00003   0.00003   0.00040
   D15        0.00066  -0.00000  -0.00000  -0.00009  -0.00009   0.00058
   D16        3.14105  -0.00000   0.00000  -0.00000  -0.00000   3.14104
   D17       -3.14060  -0.00000  -0.00000  -0.00014  -0.00014  -3.14074
   D18       -0.00021  -0.00000   0.00000  -0.00006  -0.00006  -0.00027
   D19        3.14154   0.00001  -0.00000   0.00028   0.00028  -3.14137
   D20       -0.00037   0.00001  -0.00000   0.00033   0.00033  -0.00004
   D21       -0.00370   0.00000   0.00000   0.00016   0.00016  -0.00354
   D22        3.14047   0.00000   0.00000   0.00000   0.00000   3.14047
   D23        3.13908   0.00000  -0.00000   0.00008   0.00008   3.13916
   D24        0.00007  -0.00000   0.00000  -0.00008  -0.00008  -0.00001
   D25        0.00465  -0.00000   0.00000  -0.00014  -0.00014   0.00451
   D26       -3.13636  -0.00000  -0.00000  -0.00011  -0.00011  -3.13646
   D27       -3.13964   0.00000  -0.00000   0.00003   0.00003  -3.13962
   D28        0.00254   0.00000  -0.00000   0.00006   0.00006   0.00259
[...]
 8,0.00111920,-0.00074574,0.00002529,-0.14650111,0.18969899,0.00015328,
 -0.00007721,0.00459036,0.00003296,0.00013137,0.00836774,-0.00000220,-0
 .00001746,-0.00112154,0.00009180,0.00009947,0.00411493,-0.00042383,0.0
 0019709,0.00117326,-0.00243070,0.00257938,-0.03296094,0.00001757,-0.00
 000738,0.00003403,0.00009286,-0.00010431,-0.00260038,-0.00000181,0.000
 13652,0.00023353,-0.00001604,-0.00001927,-0.00028498,0.00003861,-0.000
 00194,-0.00010180,-0.00001835,0.00002707,0.00015786,0.00000296,-0.0000
 1267,-0.00040003,-0.00000036,0.00000356,-0.00014540,0.00000310,-0.0000
 7650,-0.00452404,-0.00001132,0.00003213,0.00132023,0.00240465,-0.00285
 219,0.02160622,-0.00299286,-0.00507511,0.00008399,-0.03876006,0.033002
 12,-0.00041004,-0.00155879,0.00160135,-0.00000037,-0.00138732,0.001109
 60,-0.00001218,0.00135817,0.00067486,-0.00000481,-0.00124728,0.0011593
 2,-0.00002526,-0.17896932,0.16811004,-0.00202788,-0.00138572,-0.000127
 09,0.00000700,0.00135253,0.00011669,0.00001675,-0.00162878,-0.00080677
 ,-0.00000953,0.00100472,-0.00033085,-0.00013271,0.00032387,0.00080134,
 0.00013755,-0.00042939,0.00124070,-0.00001401,0.00107139,-0.00117502,0
 .00001368,0.00013079,-0.00007043,0.00000181,0.00035668,0.00009532,-0.0
 0000110,-0.00036385,-0.00021814,0.00000216,0.22326600,-0.00620634,0.00
 029947,0.00005598,-0.00383050,0.01238781,-0.00017370,-0.01197970,0.001
 81391,-0.00002315,0.00404437,-0.00066982,-0.00000595,-0.00249310,-0.00
 057512,0.00001264,0.00197354,0.00134859,0.00000170,0.21341771,-0.30668
 477,0.00360576,0.00204642,-0.00021338,-0.00000123,-0.00146024,-0.00002
 505,-0.00002331,0.00153321,0.00090336,0.00001709,-0.00084227,0.0002560
 0,0.00012149,-0.00027888,-0.00081008,-0.00012382,0.00237170,0.00173499
 ,-0.00003973,0.00262198,-0.00303037,0.00002521,-0.00011561,0.00009342,
 -0.00001020,-0.00031125,-0.00004417,0.00000546,-0.00019502,-0.00006743
 ,-0.00000617,-0.20085794,0.29148587,0.00006457,0.00005853,0.00474769,0
 .00011731,-0.00020726,-0.00248696,0.00012491,-0.00003127,-0.00049796,-
 0.00004201,-0.00000380,-0.00065762,0.00001705,0.00000367,0.00005124,-0
 .00001499,0.00001600,0.00152750,-0.00260968,0.00363782,-0.01274664,-0.
 00001491,-0.00000632,-0.00007248,0.00001847,0.00001314,-0.00006968,-0.
 00002373,-0.00000892,-0.00004130,0.00001553,-0.00000366,-0.00001529,0.
 00000216,0.00001955,0.00001659,-0.00001787,-0.00003476,-0.00121750,-0.
 00003328,0.00002116,-0.00133413,0.00000178,-0.00001146,-0.00049958,0.0
 0000560,0.00000831,0.00044489,0.00000163,-0.00000838,-0.00058442,0.002
 40059,-0.00342725,0.01308103,0.00025295,-0.00147504,0.00003790,0.00021
 670,-0.00029874,-0.00001414,0.00002663,0.00054752,-0.00000504,0.000496
 45,-0.00247050,0.00005931,-0.00148947,-0.02765079,0.00001302,-0.005122
 12,0.00009750,-0.00004259,0.00003321,0.00018747,0.00000654,-0.05654795
 ,-0.02648974,0.00009687,0.00399574,0.02688989,0.00014997,0.00068934,0.
 00366016,0.00016861,0.00043308,-0.00064696,-0.00009366,-0.00200402,-0.
 00140353,-0.00061442,0.00003432,0.00007803,-0.00000401,-0.00003112,-0.
 00009882,0.00000197,-0.00039473,-0.00006021,0.00000822,-0.00072719,0.0
 0100836,-0.00001518,0.00008978,-0.00002208,-0.00000095,-0.00004913,-0.
 00003527,-0.00000134,0.06379916,0.00043176,-0.00064530,0.00003804,-0.0
 0007411,-0.00000291,-0.00000346,0.00009441,0.00042865,0.00001061,0.001
 90629,0.00139978,0.00005554,0.00010878,-0.00877895,-0.00006042,-0.0015
 6579,0.00095709,-0.00012166,0.00013223,0.00004070,-0.00000409,-0.02613
 761,-0.31767411,0.00044914,-0.00148752,-0.01449711,-0.00014537,-0.0007
 3470,-0.00162854,-0.00019475,0.00020501,0.00016690,0.00002592,-0.00107
 178,0.00099672,0.00003833,0.00003280,-0.00004611,-0.00000747,-0.000018
 06,0.00001263,0.00000064,-0.00016556,-0.00000192,0.00001045,-0.0005820
 7,0.00048113,-0.00001460,0.00007670,0.00004634,-0.00000212,-0.00003419
 ,0.00002324,-0.00000095,0.02710869,0.33779397,0.00006753,-0.00001628,-
 0.00073526,-0.00004609,0.00002219,0.00047069,0.00000189,0.00002827,-0.
 00001218,-0.00005719,-0.00002508,-0.00331526,0.00027005,0.00034604,0.0
 0651200,0.00001796,0.00003634,0.00589246,0.00004622,0.00000376,-0.0001
 2552,-0.00032571,0.00034391,-0.04223917,0.00063302,-0.00013434,0.00616
 530,-0.00012999,-0.00040467,-0.00433637,0.00032848,0.00014752,0.000035
 00,-0.00083293,0.00038493,0.00056298,0.00000669,-0.00001346,0.00021785
 ,0.00000153,0.00000862,0.00004979,0.00000289,-0.00000936,-0.00071450,-
 0.00000230,0.00000309,0.00033799,-0.00000537,-0.00001066,-0.00009624,-
 0.00000465,0.00000744,0.00008095,-0.00009140,-0.00021582,0.02469073,0.
 00010541,-0.00045889,0.00001819,0.00008335,0.00030542,0.00001597,-0.00
 031482,-0.00041316,-0.00000608,0.00039382,-0.00017947,-0.00001071,0.00
 030155,-0.00115625,0.00003650,-0.00094125,0.00147671,-0.00004095,-0.00
 006382,-0.00011292,-0.00000294,0.00652254,0.02618684,0.00042380,-0.053
 01454,0.00310506,-0.00019677,0.00293616,-0.02804571,-0.00092037,-0.000
 20519,0.00003397,0.00004416,-0.00572951,-0.00215585,0.00084981,0.00015
 503,-0.00013673,0.00000286,0.00002170,0.00009987,-0.00000159,-0.000044
 73,-0.00000478,-0.00000407,0.00016917,-0.00013398,0.00000206,-0.001778
 69,-0.00156591,0.00008906,0.00002377,-0.00001850,-0.00000228,-0.003878
 03,0.00188643,-0.00004098,0.05508564,-0.00008928,0.00027243,0.00001594
 ,0.00002696,-0.00002383,0.00000550,0.00000363,-0.00009830,0.00000939,0
 .00020710,-0.00016038,-0.00000231,-0.00157963,-0.00045899,0.00011448,-
 0.00058816,0.00039422,-0.00001443,-0.00014304,0.00000291,-0.00000250,0
 .00119906,-0.01114978,-0.00018051,-0.00402907,-0.33330632,-0.00597015,
 0.00203501,-0.01187365,-0.00051635,0.00144752,0.00053048,0.00015097,-0
 .00154893,0.00108668,0.00061627,-0.00000414,0.00005920,-0.00000127,-0.
 00000463,-0.00003301,0.00000022,0.00000154,0.00000104,-0.00000005,-0.0
 0000984,0.00007474,-0.00000410,-0.00095009,0.00055556,0.00001374,0.000
 00490,-0.00002252,-0.00000303,0.00154617,0.00055129,-0.00015094,0.0023
 1942,0.35349121,-0.00000719,0.00001464,-0.00024315,-0.00003273,-0.0000
 4084,-0.00032413,0.00004571,0.00005862,0.00000021,-0.00010307,0.000034
 35,-0.00009692,0.00017106,0.00009977,-0.00336759,0.00002665,-0.0001230
 6,-0.00037117,0.00002207,0.00000853,0.00014287,-0.00053254,-0.00003786
 ,0.00246854,0.00051076,-0.00576700,-0.03026279,-0.00051740,-0.00088860
 ,-0.00039151,0.00052492,0.00002612,-0.00189348,-0.00031355,0.00080792,
 0.00417668,-0.00000056,-0.00001005,0.00003424,-0.00000022,0.00000217,0
 .00001929,0.00000211,0.00000121,0.00012429,-0.00000346,0.00000210,0.00
 009137,0.00008940,0.00009260,0.00112354,-0.00000445,0.00000567,0.00004
 772,0.00009956,0.00013615,0.00653628,0.00037091,0.00638618,0.02143511,
 0.00069124,-0.00034747,0.00001569,-0.00108785,-0.00038855,0.00000564,-
 0.00010001,0.00112472,-0.00001073,-0.00068904,0.00019336,-0.00013457,0
 .00128705,0.00128721,-0.00005217,-0.00042390,-0.00089982,0.00006170,0.
 00113040,0.00016370,-0.00000543,-0.00324945,-0.00057762,0.00080847,0.0
 0224748,0.00506920,-0.00049427,-0.03727534,-0.02004432,-0.00689853,-0.
 34708366,-0.14907043,-0.08635372,0.00595707,-0.00308563,0.00050301,0.0
 0045065,-0.00059721,0.00003182,0.00000557,0.00032474,-0.00000885,0.000
 01594,-0.00000935,-0.00000096,-0.00003153,-0.00002045,-0.00000552,-0.0
 0003716,-0.00002192,-0.00001835,-0.00017857,0.00014620,-0.00000367,-0.
 00016697,0.00006487,-0.00005932,0.00039328,0.00010200,-0.00023760,0.37
 729068,0.00017213,-0.00008534,0.00000547,-0.00023492,-0.00008820,0.000
 00345,-0.00000598,0.00025958,-0.00002635,-0.00015167,0.00009866,0.0000
 7374,0.00045076,0.00009958,0.00028232,-0.00014367,-0.00029432,-0.00003
 500,0.00023725,0.00002443,0.00000057,-0.00011839,0.00092034,-0.0006131
 7,0.00267770,-0.00218096,-0.00108254,0.02909031,0.00896131,0.00732060,
 -0.19672603,-0.13062203,-0.06024575,-0.00049432,0.00028784,-0.00081221
 ,0.00010205,-0.00016095,-0.00001279,0.00001098,0.00010151,-0.00000019,
 0.00000047,-0.00000097,-0.00000846,0.00001293,-0.00001734,0.00000583,0
 .00000271,0.00002373,0.00000029,-0.00003266,0.00004343,-0.00000079,-0.
 00000565,0.00001110,-0.00010175,0.00021906,0.00027968,0.00002466,0.163
 70115,0.12530133,-0.00024964,0.00013571,-0.00005160,0.00038093,0.00013
 603,0.00004020,-0.00000882,-0.00040877,0.00001484,0.00028343,-0.000099
 39,-0.00040187,-0.00054257,-0.00042879,-0.00054916,0.00021034,0.000393
 27,0.00024658,-0.00038248,-0.00004982,-0.00002001,0.00176759,-0.000202
 53,0.00252814,-0.00026491,-0.00089644,0.00288005,0.00822138,0.00197484
 ,-0.00366585,-0.10239481,-0.05504428,-0.03106353,0.00019911,-0.0007281
 2,-0.00313666,-0.00013996,0.00021754,0.00006436,-0.00000441,-0.0001194
 0,0.00001382,-0.00000229,0.00000354,0.00001539,-0.00000135,0.00001365,
 -0.00001537,0.00000680,-0.00001563,-0.00003899,0.00005722,-0.00005731,
 0.00000648,-0.00004606,-0.00000749,0.00010437,-0.00002749,-0.00006001,
 -0.00091941,0.09345365,0.05384814,0.03194025,0.00051110,-0.00027977,0.
 00005548,-0.00081555,-0.00033272,0.00001348,-0.00006002,0.00085342,-0.
 00001461,-0.00046318,0.00021837,0.00001536,0.00115192,0.00049775,-0.00
 014562,-0.00043672,-0.00073979,-0.00014192,0.00085943,0.00012951,-0.00
 000499,-0.00210658,0.00076692,0.00019989,0.00548132,0.00019519,0.00142
 553,-0.00713954,-0.00000779,-0.00115103,0.00095621,0.00401342,0.000266
 38,-0.39170720,-0.15103785,0.11283235,0.00035418,-0.00045643,-0.000002
 65,0.00000447,0.00025583,0.00000464,0.00000550,-0.00000587,0.00000753,
 -0.00001553,-0.00002309,0.00001143,-0.00002863,0.00001144,-0.00000451,
 -0.00013577,0.00011223,-0.00000119,0.00035254,-0.00018435,0.00022156,-
 0.00020235,0.00005278,-0.00011123,0.00089690,0.00124267,-0.00052742,0.
 39257073,0.00040748,-0.00015079,0.00003606,-0.00067817,-0.00021233,0.0
 0003920,-0.00012215,0.00064991,-0.00001957,-0.00028894,0.00021152,-0.0
 0001193,0.00059301,0.00067064,0.00024196,-0.00016214,-0.00053920,-0.00
 007709,0.00068836,0.00008720,-0.00001173,-0.00032706,0.00034257,0.0002
 2304,0.00456936,-0.00512833,-0.00043928,-0.04667317,-0.02260062,0.0108
 1230,0.00148806,0.00521461,-0.00094659,-0.10569116,-0.08002808,0.02783
 896,0.00034154,-0.00046251,0.00000440,0.00002183,0.00027872,-0.0000047
 4,0.00001577,-0.00000263,-0.00000581,-0.00003089,0.00000139,-0.0000094
 7,-0.00003080,0.00002112,-0.00004189,-0.00010849,0.00010116,-0.0000107
 3,-0.00051346,0.00036931,-0.00024767,-0.00123897,-0.00018144,-0.000830
 60,0.00297845,-0.00293685,0.00136000,0.14479164,0.10435273,0.00021927,
 -0.00013054,-0.00015616,-0.00036984,-0.00018596,-0.00001549,-0.0000073
 6,0.00043101,-0.00002561,-0.00025966,0.00010748,-0.00007281,0.00058182
 ,0.00026865,0.00010795,-0.00019563,-0.00040559,0.00020802,0.00039955,0
 .00006481,0.00000434,-0.00130591,0.00053577,-0.00072141,0.00204234,-0.
 00224474,0.00222331,-0.00801235,-0.00601742,-0.00337997,0.00023180,-0.
 00066339,-0.00296396,0.12045705,0.04522003,-0.03703870,0.00015625,-0.0
 0021302,-0.00001134,0.00000367,0.00011901,0.00003180,0.00000308,-0.000
 00275,0.00000244,-0.00000197,-0.00001085,0.00003601,-0.00000835,0.0000
 2961,0.00012076,-0.00006225,0.00005349,0.00002833,0.00028696,0.0000138
 2,-0.00003547,-0.00059923,-0.00040708,0.00167715,-0.00059848,0.0013736
 9,0.00201072,-0.11294648,-0.03790178,0.03797884,-0.00017107,-0.0000582
 3,0.00000454,0.00035146,-0.00026399,0.00000131,0.00135415,-0.00217482,
 0.00002837,-0.00027947,-0.00039024,0.00000360,0.00015473,0.00010161,0.
 00000169,-0.00001421,0.00013120,-0.00000697,0.00003030,0.00014214,-0.0
 0000178,0.00010412,-0.00003780,-0.00000064,-0.00009179,0.00000474,0.00
 000236,0.00013494,0.00005459,-0.00000047,-0.00007712,0.00002164,0.0000
 0931,-0.00003258,-0.00005692,-0.00001117,0.00705034,-0.00272474,0.0000
 2127,-0.29253322,0.09236688,-0.00075366,0.00002414,-0.00002114,0.00000
 014,0.00020765,0.00034291,-0.00000531,0.00000693,0.00002334,-0.0000002
 6,-0.00002072,-0.00009520,0.00000136,0.00002225,0.00000143,0.00000055,
 -0.00000043,0.00000070,-0.00000030,0.00001513,0.00000171,-0.00000368,0
 .00001119,0.00001145,0.00000468,0.30475487,-0.00045142,-0.00046084,0.0
 0001163,0.00210926,-0.00057375,0.00000683,-0.00222339,-0.00519148,0.00
 007213,-0.00101751,-0.00051486,0.00001150,0.00045442,0.00032891,-0.000
 00267,-0.00006444,0.00006528,-0.00000767,-0.00032221,0.00015470,-0.000
 00309,-0.00013574,-0.00011202,0.00000167,0.00018047,0.00003883,0.00000
 565,-0.00018648,-0.00012705,-0.00000528,0.00011576,-0.00003455,-0.0000
 1541,0.00003948,0.00012201,0.00001690,0.03411536,-0.02699286,0.0002877
 2,0.07752928,-0.07003589,0.00016105,0.00013853,-0.00009166,0.00000069,
 0.00023343,0.00048030,-0.00001323,0.00002182,0.00003709,-0.00000077,0.
 00018969,-0.00028598,0.00000528,0.00002852,-0.00000007,-0.00000037,-0.
 00000719,0.00000394,-0.00000063,-0.00001732,-0.00000658,0.00000748,-0.
 00001407,-0.00001309,-0.00000673,-0.09506960,0.09355308,0.00000589,0.0
 0000520,-0.00002849,-0.00002707,0.00001394,0.00033919,0.00002445,0.000
 07601,0.00049988,0.00001343,0.00000969,0.00020977,-0.00000588,-0.00000
 156,0.00016656,0.00000052,-0.00000181,-0.00002463,0.00000383,-0.000004
 61,-0.00012085,0.00000097,0.00000215,0.00002750,-0.00000200,-0.0000015
 8,-0.00000062,0.00000121,0.00000204,-0.00000994,-0.00000171,0.00000154
 ,0.00000045,0.00000092,-0.00000206,0.00000127,-0.00044257,0.00034715,-
 0.00032724,-0.00056348,0.00013126,-0.04684457,-0.00000172,0.00000065,-
 0.00003379,-0.00000292,-0.00001272,-0.00047156,-0.00000044,-0.00000082
 ,-0.00001720,-0.00000191,0.00000588,0.00019585,-0.00000008,-0.00000042
 ,-0.00000742,0.00000023,0.,-0.00000073,0.00000078,-0.00000043,0.000002
 80,-0.00000043,0.00000062,0.00000043,0.00076173,-0.00047081,0.04370160
 ,0.00021142,0.00005077,-0.00003065,0.00034159,0.00005165,-0.00024125,0
 .00074832,0.00121239,0.00130065,0.00027838,-0.00085417,0.00014020,-0.0
 0019475,0.00029457,-0.00048602,0.00005992,-0.00037847,-0.00003001,-0.0
 0025731,-0.00009644,0.00009718,-0.00012559,0.00001782,0.00000580,0.000
 18551,0.00001185,0.00001925,-0.00026112,-0.00011461,0.00000718,0.00016
 065,-0.00004668,-0.00002314,0.00006336,0.00012430,0.00002337,-0.000096
 98,-0.00497051,-0.00009433,-0.10751478,-0.03346315,-0.10219272,0.00001
 230,-0.00001039,0.00001065,-0.00055520,0.00059455,0.00093520,-0.000000
 67,-0.00000799,0.00005657,0.00010979,0.00022491,-0.00013050,-0.0000160
 9,0.00000404,-0.00000487,-0.00000915,-0.00000009,-0.00000024,-0.000029
 74,-0.00000386,0.00000488,-0.00002182,-0.00002110,-0.00001078,-0.01053
 801,-0.00812105,-0.02353853,0.11009890,-0.00048517,0.00006620,0.000063
 90,-0.00044520,-0.00159528,0.00070807,-0.00609538,0.00427416,-0.001589
 86,0.00081211,0.00070525,0.00024417,0.00038375,-0.00000094,0.00023276,
 0.00031966,0.00022635,0.00005639,0.00083524,-0.00037114,0.00012594,-0.
 00021916,-0.00012213,-0.00001200,0.00029094,0.00004656,0.00001726,-0.0
 0034194,-0.00019252,-0.00000446,0.00022891,-0.00007984,-0.00003058,0.0
 0007064,0.00020213,0.00003475,-0.01543603,-0.03104853,-0.02623367,-0.0
 3010470,-0.06247010,-0.05356700,0.00001692,-0.00000823,-0.00007176,0.0
 0077431,-0.00034574,-0.00085006,0.00001553,0.00001705,-0.00004264,0.00
 036522,0.00096551,-0.00039409,0.00001103,-0.00000238,-0.00001334,-0.00
 000251,0.00000250,-0.00000090,-0.00003741,-0.00000966,0.00001261,-0.00
 002995,-0.00002217,-0.00001274,0.00388571,0.00495640,0.00890634,0.0404
 3156,0.08005543,-0.00010576,0.00009349,-0.00001628,0.00020105,-0.00049
 900,-0.00024257,-0.00089098,0.00094133,0.00085091,-0.00060608,-0.00086
 815,-0.00020023,0.00026311,0.00041636,-0.00016138,-0.00000059,0.000019
 59,-0.00004275,0.00011688,0.00021504,0.00002754,0.00000366,-0.00010177
 ,0.00003021,0.00002855,0.00003567,0.00000588,-0.00001017,-0.00007650,-
 0.00000782,0.00000689,0.00000280,-0.00000159,0.00000368,0.00006833,0.0
 0001117,0.00316551,-0.00264369,0.00675450,-0.10257812,-0.05894884,-0.2
 2428555,0.00000665,-0.00000364,0.00001632,0.00065350,0.00008343,-0.000
 02811,0.00001328,0.00005756,0.00001614,-0.00001176,0.00003981,0.000002
 04,0.00005053,-0.00000645,-0.00001894,-0.00000916,0.00000567,-0.000003
 63,0.00000212,-0.00000608,0.00000081,-0.00000085,-0.00000685,-0.000006
 42,0.00191791,0.00102000,0.00128242,0.11108479,0.06658181,0.23367130,0
 .00021373,0.00005164,0.00001985,0.00033961,0.00006182,0.00024049,0.000
 74152,0.00115707,-0.00131908,0.00028711,-0.00084588,-0.00011694,-0.000
 19463,0.00030833,0.00046337,0.00005877,-0.00038031,0.00005611,-0.00025
 798,-0.00010056,-0.00009304,-0.00012769,0.00001703,0.00000083,0.000186
 93,0.00001261,-0.00002241,-0.00026155,-0.00011513,-0.00001185,0.000158
 82,-0.00004491,-0.00001549,0.00006446,0.00012327,0.00002483,-0.0001159
 7,-0.00494553,0.00023666,-0.10677304,-0.03068184,0.10259708,0.00001240
 ,-0.00001078,-0.00001010,-0.00057039,0.00055670,-0.00094615,-0.0000007
 4,-0.00001018,-0.00005689,0.00010984,0.00022754,0.00012445,-0.00001535
 ,0.00000230,0.00000243,-0.00000892,0.00000011,0.00000142,-0.00002816,-
 0.00000473,0.00001054,-0.00002258,-0.00002044,-0.00000816,-0.01046356,
 -0.00752558,0.02377478,0.00735107,0.00475595,-0.01330463,0.10931632,-0
 .00048461,0.00006251,-0.00007144,-0.00044978,-0.00160537,-0.00067039,-
 0.00606269,0.00429700,0.00149372,0.00082044,0.00070571,-0.00026961,0.0
 0037500,-0.00001836,-0.00023441,0.00032099,0.00022695,-0.00005724,0.00
 083210,-0.00037604,-0.00011743,-0.00021877,-0.00012172,0.00002137,0.00
 029178,0.00004568,-0.00001856,-0.00034304,-0.00019180,0.00000271,0.000
 23006,-0.00007990,-0.00003299,0.00006807,0.00020261,0.00002926,-0.0153
 9988,-0.03034291,0.02723838,-0.02734228,-0.05970706,0.04949266,0.00001
 633,-0.00000560,0.00007200,0.00074336,-0.00031606,0.00084353,0.0000152
 3,0.00001702,0.00004188,0.00036554,0.00097193,0.00036922,0.00000745,-0
 .00000142,0.00001163,-0.00000197,0.00000233,-0.00000114,-0.00003812,-0
 .00000934,0.00001516,-0.00002946,-0.00002283,-0.00001478,0.00380260,0.
 00470014,-0.00900563,0.00507012,0.00475113,-0.00641991,0.03741151,0.07
 681538,0.00011676,-0.00009556,-0.00001595,-0.00019008,0.00053352,-0.00
 023204,0.00104607,-0.00104083,0.00083442,0.00058317,0.00084913,-0.0002
 2463,-0.00027302,-0.00042174,-0.00014108,-0.00000770,-0.00002351,-0.00
 004241,-0.00013794,-0.00020379,0.00003595,0.00000319,0.00010574,0.0000
 3384,-0.00003701,-0.00003627,0.00000576,0.00001930,0.00007754,-0.00000
 059,-0.00001483,-0.00000002,0.00000480,-0.00000335,-0.00007287,-0.0000
 0043,-0.00275001,0.00361612,0.00600532,0.10290303,0.05485817,-0.227720
 78,-0.00000712,0.00000445,0.00001496,-0.00067048,-0.00008289,-0.000039
 69,-0.00001381,-0.00005729,0.00001738,0.00000217,-0.00006581,-0.000006
 72,-0.00005060,0.00000643,-0.00002008,0.00000908,-0.00000565,-0.000002
 80,-0.00000071,0.00000674,-0.00000638,-0.00000072,0.00000920,-0.000002
 76,-0.00197459,-0.00108188,0.00145931,0.01309731,0.00583908,-0.0176539
 7,-0.11164811,-0.06271801,0.23769857\\0.00007914,0.00004087,-0.0000001
 3,-0.00001595,0.00001871,0.00000056,-0.00004990,-0.00001036,0.00000710
 ,0.00006451,-0.00006268,-0.00000153,-0.00001819,0.00001948,0.00000025,
 -0.00003885,-0.00000534,-0.00000029,0.00004181,-0.00001672,0.00000104,
 0.00002328,-0.00003156,0.00000637,-0.00011898,0.00000035,0.00000495,0.
 00015950,0.00004544,-0.00000699,-0.00011221,-0.00000913,0.00001064,-0.
 00009852,-0.00004072,-0.00002396,0.00006429,0.00008566,-0.00000924,-0.
 00008224,-0.00020257,0.00000719,-0.00000220,-0.00001012,0.00000101,-0.
 00000537,0.00000189,-0.00000069,-0.00000099,-0.00001074,-0.00000032,-0
 .00004139,0.00002761,0.00000103,-0.00000352,0.00001493,-0.00000280,-0.
 00000195,0.00000101,-0.00000036,0.00006349,0.00004348,-0.00001068,0.00
 007130,0.00002102,0.00001896,-0.00001425,0.00003197,0.00000011,0.00001
 975,0.00002384,0.00001852,0.00001742,0.00002368,-0.00002074\\\@


 THE MORE ACCURATE THE CALCULATIONS BECOME, THE MORE THE CONCEPTS
 TEND TO VANISH INTO THIN AIR.
     -- R.S. MULLIKEN, J.C.P. 43,S2(1965)
 Job cpu time:       0 days  1 hours 10 minutes 44.5 seconds.
 File lengths (MBytes):  RWF=    264 Int=      0 D2E=      0 Chk=      9 Scr=      1
 Normal termination of Gaussian 09 at Tue May 28 18:21:30 2024.
