 Entering Gaussian System, Link 0=g09
 Input=WB97XDFAyang.gjf
 Output=WB97XDFAyang.log
 Initial command:
 /home/phzd/g09E/g09/l1.exe "/home/phzd/g09E/scratch/Gau-573800.inp" -scrdir="/home/phzd/g09E/scratch/"
 Default is to use a total of  18 processors:
                               18 via shared-memory
                                1 via Linda
 Entering Link 1 = /home/phzd/g09E/g09/l1.exe PID=    573802.
  
 Copyright (c) 1988,1990,1992,1993,1995,1998,2003,2009,2015,
            Gaussian, Inc.  All Rights Reserved.
  
 This is part of the Gaussian(R) 09 program.  It is based on
 the Gaussian(R) 03 system (copyright 2003, Gaussian, Inc.),
 the Gaussian(R) 98 system (copyright 1998, Gaussian, Inc.),
 the Gaussian(R) 94 system (copyright 1995, Gaussian, Inc.),
 the Gaussian 92(TM) system (copyright 1992, Gaussian, Inc.),
 the Gaussian 90(TM) system (copyright 1990, Gaussian, Inc.),
 the Gaussian 88(TM) system (copyright 1988, Gaussian, Inc.),
 the Gaussian 86(TM) system (copyright 1986, Carnegie Mellon
 University), and the Gaussian 82(TM) system (copyright 1983,
 Carnegie Mellon University). Gaussian is a federally registered
 trademark of Gaussian, Inc.
  
 This software contains proprietary and confidential information,
 including trade secrets, belonging to Gaussian, Inc.
  
 This software is provided under written license and may be
 used, copied, transmitted, or stored only in accord with that
 written license.
  
 The following legend is applicable only to US Government
 contracts under FAR:
  
                    RESTRICTED RIGHTS LEGEND
  
 Use, reproduction and disclosure by the US Government is
 subject to restrictions as set forth in subparagraphs (a)
 and (c) of the Commercial Computer Software - Restricted
 Rights clause in FAR 52.227-19.
  
 Gaussian, Inc.
 340 Quinnipiac St., Bldg. 40, Wallingford CT 06492
  
  
 ---------------------------------------------------------------
 Warning -- This program may not be used in any manner that
 competes with the business of Gaussian, Inc. or will provide
 assistance to any competitor of Gaussian, Inc.  The licensee
 of this program is prohibited from giving any competitor of
 Gaussian, Inc. access to this program.  By using this program,
 the user acknowledges that Gaussian, Inc. is engaged in the
 business of creating and licensing software in the field of
 computational chemistry and represents and warrants to the
 licensee that it is not a competitor of Gaussian, Inc. and that
 it will not use this program in any manner prohibited above.
 ---------------------------------------------------------------
  

 Cite this work as:
 Gaussian 09, Revision E.01,
 M. J. Frisch, G. W. Trucks, H. B. Schlegel, G. E. Scuseria, 
 M. A. Robb, J. R. Cheeseman, G. Scalmani, V. Barone, B. Mennucci, 
 G. A. Petersson, H. Nakatsuji, M. Caricato, X. Li, H. P. Hratchian, 
 A. F. Izmaylov, J. Bloino, G. Zheng, J. L. Sonnenberg, M. Hada, 
 M. Ehara, K. Toyota, R. Fukuda, J. Hasegawa, M. Ishida, T. Nakajima, 
 Y. Honda, O. Kitao, H. Nakai, T. Vreven, J. A. Montgomery, Jr., 
 J. E. Peralta, F. Ogliaro, M. Bearpark, J. J. Heyd, E. Brothers, 
 K. N. Kudin, V. N. Staroverov, T. Keith, R. Kobayashi, J. Normand, 
 K. Raghavachari, A. Rendell, J. C. Burant, S. S. Iyengar, J. Tomasi, 
 M. Cossi, N. Rega, J. M. Millam, M. Klene, J. E. Knox, J. B. Cross, 
 V. Bakken, C. Adamo, J. Jaramillo, R. Gomperts, R. E. Stratmann, 
 O. Yazyev, A. J. Austin, R. Cammi, C. Pomelli, J. W. Ochterski, 
 R. L. Martin, K. Morokuma, V. G. Zakrzewski, G. A. Voth, 
 P. Salvador, J. J. Dannenberg, S. Dapprich, A. D. Daniels, 
 O. Farkas, J. B. Foresman, J. V. Ortiz, J. Cioslowski, 
 and D. J. Fox, Gaussian, Inc., Wallingford CT, 2013.
 
 ******************************************
 Gaussian 09:  ES64L-G09RevE.01 30-Nov-2015
                28-May-2024 
 ******************************************
 %chk=WB97XDFAyang.chk
 -----------------------------
 # opt freq wb97xd/6-31+g(d,p)
 -----------------------------
 1/14=-1,18=20,19=15,26=3,38=1/1,3;
 2/9=110,12=2,17=6,18=5,40=1/2;
 3/5=1,6=6,7=111,11=2,16=1,25=1,30=1,71=1,74=-58/1,2,3;
 4//1;
 5/5=2,38=5/2;
 6/7=2,8=2,9=2,10=2,28=1/1;
 7//1,2,3,16;
 1/14=-1,18=20,19=15,26=3/3(2);
 2/9=110/2;
 99//99;
 2/9=110/2;
 3/5=1,6=6,7=111,11=2,16=1,25=1,30=1,71=1,74=-58/1,2,3;
 4/5=5,16=3,69=1/1;
 5/5=2,38=5/2;
 7//1,2,3,16;
 1/14=-1,18=20,19=15,26=3/3(-5);
 2/9=110/2;
 6/7=2,8=2,9=2,10=2,19=2,28=1/1;
 99/9=1/99;
 ----------
 [No Title]
 ----------
 Symbolic Z-matrix:
 Charge =  1 Multiplicity = 1
 C                    -1.47     -2.03014   0.02367 
 C                    -2.51323  -1.08952   0.01183 
 C                    -2.23182   0.30784  -0.00512 
 C                    -0.92297   0.73727  -0.01182 
 C                     0.14691  -0.20925  -0.00255 
 C                    -0.16138  -1.59778   0.01818 
 O                    -3.77305  -1.51471   0.01798 
 C                     1.473     0.27977  -0.01087 
 C                     2.64514  -0.46845  -0.01751 
 C                     3.89469   0.13472   0.00009 
 O                     4.96722  -0.63418  -0.10651 
 O                     4.01808   1.45002   0.13179 
 O                    -3.34939   1.07443  -0.01323 
 C                    -3.20854   2.50158  -0.0298 
 H                    -1.72486  -3.08349   0.03897 
 H                    -0.69016   1.79541  -0.0251 
 H                     0.63377  -2.33344   0.03022 
 H                    -4.37754  -0.75037   0.00912 
 H                     1.58586   1.36181  -0.01166 
 H                     2.64973  -1.55036  -0.03728 
 H                     5.80557  -0.20339   0.12542 
 H                     4.88566   1.80074  -0.12496 
 H                    -4.22227   2.89775  -0.03239 
 H                    -2.67794   2.84267   0.86502 
 H                    -2.68149   2.82203  -0.93432 
 

 GradGradGradGradGradGradGradGradGradGradGradGradGradGradGradGradGradGrad
 Berny optimization.
 Initialization pass.
                           ----------------------------
                           !    Initial Parameters    !
                           ! (Angstroms and Degrees)  !
 --------------------------                            --------------------------
 ! Name  Definition              Value          Derivative Info.                !
 --------------------------------------------------------------------------------
 ! R1    R(1,2)                  1.4047         estimate D2E/DX2                !
 ! R2    R(1,6)                  1.3782         estimate D2E/DX2                !
 ! R3    R(1,15)                 1.0838         estimate D2E/DX2                !
 ! R4    R(2,3)                  1.4255         estimate D2E/DX2                !
 ! R5    R(2,7)                  1.3297         estimate D2E/DX2                !
 ! R6    R(3,4)                  1.3775         estimate D2E/DX2                !
 ! R7    R(3,13)                 1.3552         estimate D2E/DX2                !
 ! R8    R(4,5)                  1.4285         estimate D2E/DX2                !
 ! R9    R(4,16)                 1.0835         estimate D2E/DX2                !
 ! R10   R(5,6)                  1.4225         estimate D2E/DX2                !
 ! R11   R(5,8)                  1.4134         estimate D2E/DX2                !
 ! R12   R(6,17)                 1.0833         estimate D2E/DX2                !
 ! R13   R(7,18)                 0.9745         estimate D2E/DX2                !
 ! R14   R(8,9)                  1.3906         estimate D2E/DX2                !
 ! R15   R(8,19)                 1.0879         estimate D2E/DX2                !
 ! R16   R(9,10)                 1.3876         estimate D2E/DX2                !
 ! R17   R(9,20)                 1.0821         estimate D2E/DX2                !
 ! R18   R(10,11)                1.324          estimate D2E/DX2                !
 ! R19   R(10,12)                1.3276         estimate D2E/DX2                !
 ! R20   R(11,21)                0.9707         estimate D2E/DX2                !
 ! R21   R(12,22)                0.9704         estimate D2E/DX2                !
 ! R22   R(13,14)                1.4342         estimate D2E/DX2                !
 ! R23   R(14,23)                1.0884         estimate D2E/DX2                !
 ! R24   R(14,24)                1.0948         estimate D2E/DX2                !
 ! R25   R(14,25)                1.0948         estimate D2E/DX2                !
 ! A1    A(2,1,6)              119.674          estimate D2E/DX2                !
 ! A2    A(2,1,15)             118.4411         estimate D2E/DX2                !
 ! A3    A(6,1,15)             121.8848         estimate D2E/DX2                !
 ! A4    A(1,2,3)              120.6559         estimate D2E/DX2                !
 ! A5    A(1,2,7)              119.3074         estimate D2E/DX2                !
 ! A6    A(3,2,7)              120.0367         estimate D2E/DX2                !
 ! A7    A(2,3,4)              119.5521         estimate D2E/DX2                !
 ! A8    A(2,3,13)             113.0643         estimate D2E/DX2                !
 ! A9    A(4,3,13)             127.3836         estimate D2E/DX2                !
 ! A10   A(3,4,5)              120.3327         estimate D2E/DX2                !
 ! A11   A(3,4,16)             120.5738         estimate D2E/DX2                !
 ! A12   A(5,4,16)             119.0935         estimate D2E/DX2                !
 ! A13   A(4,5,6)              118.9832         estimate D2E/DX2                !
 ! A14   A(4,5,8)              118.2542         estimate D2E/DX2                !
 ! A15   A(6,5,8)              122.7623         estimate D2E/DX2                !
 ! A16   A(1,6,5)              120.8015         estimate D2E/DX2                !
 ! A17   A(1,6,17)             118.9375         estimate D2E/DX2                !
 ! A18   A(5,6,17)             120.261          estimate D2E/DX2                !
 ! A19   A(2,7,18)             109.6862         estimate D2E/DX2                !
 ! A20   A(5,8,9)              127.2063         estimate D2E/DX2                !
 ! A21   A(5,8,19)             116.1971         estimate D2E/DX2                !
 ! A22   A(9,8,19)             116.5966         estimate D2E/DX2                !
 ! A23   A(8,9,10)             121.6741         estimate D2E/DX2                !
 ! A24   A(8,9,20)             122.7943         estimate D2E/DX2                !
 ! A25   A(10,9,20)            115.5316         estimate D2E/DX2                !
 ! A26   A(9,10,11)            118.426          estimate D2E/DX2                !
 ! A27   A(9,10,12)            121.0369         estimate D2E/DX2                !
 ! A28   A(11,10,12)           120.5347         estimate D2E/DX2                !
 ! A29   A(10,11,21)           115.0035         estimate D2E/DX2                !
 ! A30   A(10,12,22)           114.5143         estimate D2E/DX2                !
 ! A31   A(3,13,14)            118.8136         estimate D2E/DX2                !
 ! A32   A(13,14,23)           105.7098         estimate D2E/DX2                !
 ! A33   A(13,14,24)           110.3762         estimate D2E/DX2                !
 ! A34   A(13,14,25)           110.3705         estimate D2E/DX2                !
 ! A35   A(23,14,24)           109.8735         estimate D2E/DX2                !
 ! A36   A(23,14,25)           109.8691         estimate D2E/DX2                !
 ! A37   A(24,14,25)           110.5342         estimate D2E/DX2                !
 ! D1    D(6,1,2,3)             -0.0323         estimate D2E/DX2                !
 ! D2    D(6,1,2,7)           -179.963          estimate D2E/DX2                !
 ! D3    D(15,1,2,3)           179.8476         estimate D2E/DX2                !
 ! D4    D(15,1,2,7)            -0.0831         estimate D2E/DX2                !
 ! D5    D(2,1,6,5)             -0.1498         estimate D2E/DX2                !
 ! D6    D(2,1,6,17)           179.8323         estimate D2E/DX2                !
 ! D7    D(15,1,6,5)           179.9745         estimate D2E/DX2                !
 ! D8    D(15,1,6,17)           -0.0434         estimate D2E/DX2                !
 ! D9    D(1,2,3,4)              0.0918         estimate D2E/DX2                !
 ! D10   D(1,2,3,13)          -179.9251         estimate D2E/DX2                !
 ! D11   D(7,2,3,4)           -179.978          estimate D2E/DX2                !
 ! D12   D(7,2,3,13)             0.0051         estimate D2E/DX2                !
 ! D13   D(1,2,7,18)           179.9459         estimate D2E/DX2                !
 ! D14   D(3,2,7,18)             0.0147         estimate D2E/DX2                !
 ! D15   D(2,3,4,5)              0.0311         estimate D2E/DX2                !
 ! D16   D(2,3,4,16)           179.9744         estimate D2E/DX2                !
 ! D17   D(13,3,4,5)          -179.9494         estimate D2E/DX2                !
 ! D18   D(13,3,4,16)           -0.0061         estimate D2E/DX2                !
 ! D19   D(2,3,13,14)          179.9724         estimate D2E/DX2                !
 ! D20   D(4,3,13,14)           -0.046          estimate D2E/DX2                !
 ! D21   D(3,4,5,6)             -0.2078         estimate D2E/DX2                !
 ! D22   D(3,4,5,8)            179.9575         estimate D2E/DX2                !
 ! D23   D(16,4,5,6)           179.8481         estimate D2E/DX2                !
 ! D24   D(16,4,5,8)             0.0134         estimate D2E/DX2                !
 ! D25   D(4,5,6,1)              0.2691         estimate D2E/DX2                !
 ! D26   D(4,5,6,17)          -179.7127         estimate D2E/DX2                !
 ! D27   D(8,5,6,1)           -179.9041         estimate D2E/DX2                !
 ! D28   D(8,5,6,17)             0.1141         estimate D2E/DX2                !
 ! D29   D(4,5,8,9)           -179.3093         estimate D2E/DX2                !
 ! D30   D(4,5,8,19)             0.7238         estimate D2E/DX2                !
 ! D31   D(6,5,8,9)              0.8627         estimate D2E/DX2                !
 ! D32   D(6,5,8,19)          -179.1042         estimate D2E/DX2                !
 ! D33   D(5,8,9,10)          -178.761          estimate D2E/DX2                !
 ! D34   D(5,8,9,20)             1.2854         estimate D2E/DX2                !
 ! D35   D(19,8,9,10)            1.2059         estimate D2E/DX2                !
 ! D36   D(19,8,9,20)         -178.7478         estimate D2E/DX2                !
 ! D37   D(8,9,10,11)         -175.121          estimate D2E/DX2                !
 ! D38   D(8,9,10,12)            5.4388         estimate D2E/DX2                !
 ! D39   D(20,9,10,11)           4.8358         estimate D2E/DX2                !
 ! D40   D(20,9,10,12)        -174.6044         estimate D2E/DX2                !
 ! D41   D(9,10,11,21)        -165.7477         estimate D2E/DX2                !
 ! D42   D(12,10,11,21)         13.6955         estimate D2E/DX2                !
 ! D43   D(9,10,12,22)        -162.8481         estimate D2E/DX2                !
 ! D44   D(11,10,12,22)         17.7235         estimate D2E/DX2                !
 ! D45   D(3,13,14,23)        -179.9282         estimate D2E/DX2                !
 ! D46   D(3,13,14,24)         -61.1657         estimate D2E/DX2                !
 ! D47   D(3,13,14,25)          61.3177         estimate D2E/DX2                !
 --------------------------------------------------------------------------------
 Trust Radius=3.00D-01 FncErr=1.00D-07 GrdErr=1.00D-06
 Number of steps in this run=    119 maximum allowed number of steps=    150.
 GradGradGradGradGradGradGradGradGradGradGradGradGradGradGradGradGradGrad

                          Input orientation:                          
 ---------------------------------------------------------------------
 Center     Atomic      Atomic             Coordinates (Angstroms)
 Number     Number       Type             X           Y           Z
 ---------------------------------------------------------------------
      1          6           0       -1.469995   -2.030139    0.023674
      2          6           0       -2.513225   -1.089521    0.011833
      3          6           0       -2.231818    0.307835   -0.005118
      4          6           0       -0.922965    0.737272   -0.011820
      5          6           0        0.146913   -0.209254   -0.002547
      6          6           0       -0.161381   -1.597781    0.018180
      7          8           0       -3.773054   -1.514712    0.017983
      8          6           0        1.472998    0.279774   -0.010873
      9          6           0        2.645135   -0.468448   -0.017510
     10          6           0        3.894687    0.134717    0.000094
     11          8           0        4.967218   -0.634181   -0.106509
     12          8           0        4.018076    1.450018    0.131794
     13          8           0       -3.349387    1.074433   -0.013231
     14          6           0       -3.208537    2.501577   -0.029802
     15          1           0       -1.724857   -3.083486    0.038972
     16          1           0       -0.690164    1.795406   -0.025097
     17          1           0        0.633773   -2.333436    0.030217
     18          1           0       -4.377544   -0.750374    0.009116
     19          1           0        1.585857    1.361810   -0.011655
     20          1           0        2.649727   -1.550362   -0.037282
     21          1           0        5.805565   -0.203389    0.125423
     22          1           0        4.885657    1.800738   -0.124958
     23          1           0       -4.222270    2.897747   -0.032393
     24          1           0       -2.677939    2.842670    0.865024
     25          1           0       -2.681489    2.822028   -0.934317
 ---------------------------------------------------------------------
                    Distance matrix (angstroms):
                    1          2          3          4          5
     1  C    0.000000
     2  C    1.404718   0.000000
     3  C    2.459131   1.425511   0.000000
     4  C    2.821182   2.422119   1.377519   0.000000
     5  C    2.435303   2.802037   2.434286   1.428508   0.000000
     6  C    1.378200   2.406146   2.814005   2.456295   1.422491
     7  O    2.360038   1.329659   2.386969   3.632537   4.131680
     8  C    3.741403   4.214909   3.704927   2.439251   1.413407
     9  C    4.401689   5.195697   4.938364   3.766315   2.511676
    10  C    5.785064   6.523820   6.128953   4.855202   3.763527
    11  O    6.588122   7.495223   7.261115   6.048480   4.840115
    12  O    6.499393   7.008676   6.354880   4.994248   4.213921
    13  O    3.629303   2.320020   1.355249   2.449735   3.724524
    14  C    4.854054   3.658029   2.401477   2.887375   4.313745
    15  H    1.083849   2.144331   3.429287   3.904331   3.430227
    16  H    3.904524   3.412875   2.142420   1.083522   2.172526
    17  H    2.125529   3.383971   3.897329   3.443029   2.179508
    18  H    3.176767   1.894918   2.392519   3.761336   4.556716
    19  H    4.565610   4.776196   3.960499   2.585389   2.130466
    20  H    4.148013   5.183711   5.223353   4.242410   2.839693
    21  H    7.502076   8.366624   8.054683   6.795351   5.660102
    22  H    7.422400   7.944543   7.273347   5.906255   5.148859
    23  H    5.644663   4.338329   3.266541   3.943791   5.361353
    24  H    5.090311   4.027057   2.716903   2.877758   4.248142
    25  H    5.092052   4.027869   2.717863   2.879169   4.249320
                    6          7          8          9         10
     6  C    0.000000
     7  O    3.612628   0.000000
     8  C    2.489428   5.544554   0.000000
     9  C    3.025425   6.503005   1.390606   0.000000
    10  C    4.410619   7.843162   2.426054   1.387623   0.000000
    11  O    5.219828   8.785396   3.613037   2.329690   1.323968
    12  O    5.173959   8.336923   2.804861   2.363847   1.327624
    13  O    4.159939   2.623764   4.887421   6.189895   7.304783
    14  C    5.108052   4.056050   5.182040   6.564044   7.487237
    15  H    2.156898   2.580039   4.641151   5.092980   6.475926
    16  H    3.434414   4.523599   2.641328   4.031044   4.876411
    17  H    1.083330   4.482252   2.744969   2.743362   4.089773
    18  H    4.300490   0.974525   5.940576   7.028386   8.319451
    19  H    3.436991   6.082202   1.087906   2.114698   2.614688
    20  H    2.812055   6.423118   2.175956   1.082104   2.095427
    21  H    6.128644   9.668560   4.361555   3.174745   1.944602
    22  H    6.086297   9.272859   3.737993   3.190719   1.942495
    23  H    6.058312   4.435553   6.268199   7.648055   8.574403
    24  H    5.173762   4.572038   4.956401   6.330678   7.161042
    25  H    5.176186   4.572276   4.957375   6.327771   7.165253
                   11         12         13         14         15
    11  O    0.000000
    12  O    2.302508   0.000000
    13  O    8.490817   7.378456   0.000000
    14  C    8.756816   7.304507   1.434173   0.000000
    15  H    7.127701   7.317278   4.464316   5.779184   0.000000
    16  H    6.157556   4.723498   2.755251   2.615512   4.987813
    17  H    4.656706   5.077238   5.242234   6.176107   2.475033
    18  H    9.346200   8.680047   2.094642   3.455905   3.532853
    19  H    3.927668   2.438042   4.943604   4.928043   5.542928
    20  H    2.492979   3.302006   6.548244   7.123028   4.636083
    21  H    0.970670   2.434936   9.244739   9.412490   8.062859
    22  H    2.436354   0.970373   8.267766   8.125036   8.220791
    23  H    9.845136   8.368165   2.021575   1.088399   6.482076
    24  H    8.454632   6.878497   2.085386   1.094802   6.058882
    25  H    8.434060   6.921212   2.085324   1.094813   6.061149
                   16         17         18         19         20
    16  H    0.000000
    17  H    4.336266   0.000000
    18  H    4.480953   5.255457   0.000000
    19  H    2.316993   3.816158   6.326445   0.000000
    20  H    4.727492   2.163754   7.072812   3.100520   0.000000
    21  H    6.797965   5.594068  10.198452   4.502730   3.435131
    22  H    5.576718   5.932452   9.609008   3.330792   4.029509
    23  H    3.700133   7.137951   3.651660   6.007818   8.185966
    24  H    2.416677   6.201323   4.065858   4.597985   6.963972
    25  H    2.417852   6.204845   4.065553   4.603671   6.953009
                   21         22         23         24         25
    21  H    0.000000
    22  H    2.219335   0.000000
    23  H   10.497591   9.174221   0.000000
    24  H    9.044077   7.698940   1.786994   0.000000
    25  H    9.072281   7.678528   1.786954   1.799463   0.000000
 Stoichiometry    C10H11O4(1+)
 Framework group  C1[X(C10H11O4)]
 Deg. of freedom    69
 Full point group                 C1      NOp   1
 Largest Abelian subgroup         C1      NOp   1
 Largest concise Abelian subgroup C1      NOp   1
                         Standard orientation:                         
 ---------------------------------------------------------------------
 Center     Atomic      Atomic             Coordinates (Angstroms)
 Number     Number       Type             X           Y           Z
 ---------------------------------------------------------------------
      1          6           0        1.469995   -2.030139   -0.023674
      2          6           0        2.513225   -1.089521   -0.011833
      3          6           0        2.231818    0.307835    0.005118
      4          6           0        0.922965    0.737272    0.011820
      5          6           0       -0.146913   -0.209254    0.002547
      6          6           0        0.161381   -1.597781   -0.018180
      7          8           0        3.773054   -1.514712   -0.017983
      8          6           0       -1.472998    0.279774    0.010873
      9          6           0       -2.645135   -0.468448    0.017510
     10          6           0       -3.894687    0.134717   -0.000094
     11          8           0       -4.967218   -0.634181    0.106509
     12          8           0       -4.018076    1.450018   -0.131794
     13          8           0        3.349387    1.074433    0.013231
     14          6           0        3.208537    2.501577    0.029802
     15          1           0        1.724857   -3.083486   -0.038972
     16          1           0        0.690164    1.795406    0.025097
     17          1           0       -0.633773   -2.333436   -0.030217
     18          1           0        4.377544   -0.750374   -0.009116
     19          1           0       -1.585857    1.361810    0.011655
     20          1           0       -2.649727   -1.550362    0.037282
     21          1           0       -5.805565   -0.203389   -0.125423
     22          1           0       -4.885657    1.800738    0.124958
     23          1           0        4.222270    2.897747    0.032393
     24          1           0        2.677939    2.842670   -0.865024
     25          1           0        2.681489    2.822028    0.934317
 ---------------------------------------------------------------------
 Rotational constants (GHZ):      1.5333472      0.2849645      0.2408013
 Standard basis: 6-31+G(d,p) (6D, 7F)
 There are   321 symmetry adapted cartesian basis functions of A   symmetry.
 There are   321 symmetry adapted basis functions of A   symmetry.
   321 basis functions,   525 primitive gaussians,   321 cartesian basis functions
    51 alpha electrons       51 beta electrons
       nuclear repulsion energy       838.5196916743 Hartrees.
 NAtoms=   25 NActive=   25 NUniq=   25 SFac= 1.00D+00 NAtFMM=   60 NAOKFM=F Big=F
 Integral buffers will be    131072 words long.
 Raffenetti 2 integral format.
 Two-electron integral symmetry is turned on.
 Nuclear repulsion after empirical dispersion term =      838.5066533537 Hartrees.
 One-electron integrals computed using PRISM.
 NBasis=   321 RedAO= T EigKep=  1.40D-06  NBF=   321
 NBsUse=   320 1.00D-06 EigRej=  6.62D-07 NBFU=   320
 ExpMin= 4.38D-02 ExpMax= 5.48D+03 ExpMxC= 8.25D+02 IAcc=2 IRadAn=         4 AccDes= 0.00D+00
 Harris functional with IExCor= 4639 and IRadAn=       4 diagonalized for initial guess.
 HarFok:  IExCor= 4639 AccDes= 0.00D+00 IRadAn=         4 IDoV= 1 UseB2=F ITyADJ=14
 ICtDFT=  3500011 ScaDFX=  1.000000  1.000000  1.000000  1.000000
 FoFCou: FMM=F IPFlag=           0 FMFlag=      100000 FMFlg1=           0
         NFxFlg=           0 DoJE=T BraDBF=F KetDBF=T FulRan=T
         wScrn=  0.000000 ICntrl=     500 IOpCl=  0 I1Cent=   200000004 NGrid=           0
         NMat0=    1 NMatS0=      1 NMatT0=    0 NMatD0=    1 NMtDS0=    0 NMtDT0=    0
 Petite list used in FoFCou.
 Requested convergence on RMS density matrix=1.00D-08 within 128 cycles.
 Requested convergence on MAX density matrix=1.00D-06.
 Requested convergence on             energy=1.00D-06.
 No special actions if energy rises.
 SCF Done:  E(RwB97XD) =  -688.133856571     A.U. after   17 cycles
            NFock= 17  Conv=0.52D-08     -V/T= 2.0092

 **********************************************************************

            Population analysis using the SCF density.

 **********************************************************************

 Orbital symmetries:
       Occupied  (A) (A) (A) (A) (A) (A) (A) (A) (A) (A) (A) (A)
                 (A) (A) (A) (A) (A) (A) (A) (A) (A) (A) (A) (A)
                 (A) (A) (A) (A) (A) (A) (A) (A) (A) (A) (A) (A)
                 (A) (A) (A) (A) (A) (A) (A) (A) (A) (A) (A) (A)
                 (A) (A) (A)
       Virtual   (A) (A) (A) (A) (A) (A) (A) (A) (A) (A) (A) (A)
                 (A) (A) (A) (A) (A) (A) (A) (A) (A) (A) (A) (A)
                 (A) (A) (A) (A) (A) (A) (A) (A) (A) (A) (A) (A)
                 (A) (A) (A) (A) (A) (A) (A) (A) (A) (A) (A) (A)
                 (A) (A) (A) (A) (A) (A) (A) (A) (A) (A) (A) (A)
                 (A) (A) (A) (A) (A) (A) (A) (A) (A) (A) (A) (A)
                 (A) (A) (A) (A) (A) (A) (A) (A) (A) (A) (A) (A)
                 (A) (A) (A) (A) (A) (A) (A) (A) (A) (A) (A) (A)
                 (A) (A) (A) (A) (A) (A) (A) (A) (A) (A) (A) (A)
                 (A) (A) (A) (A) (A) (A) (A) (A) (A) (A) (A) (A)
                 (A) (A) (A) (A) (A) (A) (A) (A) (A) (A) (A) (A)
                 (A) (A) (A) (A) (A) (A) (A) (A) (A) (A) (A) (A)
                 (A) (A) (A) (A) (A) (A) (A) (A) (A) (A) (A) (A)
                 (A) (A) (A) (A) (A) (A) (A) (A) (A) (A) (A) (A)
                 (A) (A) (A) (A) (A) (A) (A) (A) (A) (A) (A) (A)
                 (A) (A) (A) (A) (A) (A) (A) (A) (A) (A) (A) (A)
                 (A) (A) (A) (A) (A) (A) (A) (A) (A) (A) (A) (A)
                 (A) (A) (A) (A) (A) (A) (A) (A) (A) (A) (A) (A)
                 (A) (A) (A) (A) (A) (A) (A) (A) (A) (A) (A) (A)
                 (A) (A) (A) (A) (A) (A) (A) (A) (A) (A) (A) (A)
                 (A) (A) (A) (A) (A) (A) (A) (A) (A) (A) (A) (A)
                 (A) (A) (A) (A) (A) (A) (A) (A) (A) (A) (A) (A)
                 (A) (A) (A) (A) (A)
 The electronic state is 1-A.
 Alpha  occ. eigenvalues --  -19.51978 -19.51740 -19.45150 -19.44776 -10.63823
 Alpha  occ. eigenvalues --  -10.52488 -10.50728 -10.50492 -10.47162 -10.46640
 Alpha  occ. eigenvalues --  -10.46411 -10.46054 -10.45955 -10.44319  -1.42059
 Alpha  occ. eigenvalues --   -1.34273  -1.32820  -1.29693  -1.11467  -1.07599
 Alpha  occ. eigenvalues --   -1.01543  -1.00065  -0.95121  -0.92720  -0.89366
 Alpha  occ. eigenvalues --   -0.87692  -0.84483  -0.81428  -0.79295  -0.76627
 Alpha  occ. eigenvalues --   -0.74383  -0.73463  -0.72785  -0.71290  -0.69155
 Alpha  occ. eigenvalues --   -0.67923  -0.66916  -0.65379  -0.64354  -0.64273
 Alpha  occ. eigenvalues --   -0.63963  -0.62202  -0.61600  -0.60603  -0.59534
 Alpha  occ. eigenvalues --   -0.56652  -0.55881  -0.55778  -0.51778  -0.46214
 Alpha  occ. eigenvalues --   -0.42069
 Alpha virt. eigenvalues --   -0.19007  -0.09040  -0.07135  -0.06978  -0.04174
 Alpha virt. eigenvalues --   -0.03251  -0.02858  -0.02411  -0.01114  -0.00976
 Alpha virt. eigenvalues --   -0.00218   0.00206   0.01127   0.01188   0.01449
 Alpha virt. eigenvalues --    0.02925   0.03078   0.04086   0.04267   0.05073
 Alpha virt. eigenvalues --    0.06128   0.06457   0.08059   0.08303   0.08847
 Alpha virt. eigenvalues --    0.08967   0.09081   0.09384   0.09462   0.09958
 Alpha virt. eigenvalues --    0.10498   0.10748   0.11377   0.11487   0.12112
 Alpha virt. eigenvalues --    0.13219   0.13870   0.14056   0.14589   0.14919
 Alpha virt. eigenvalues --    0.14935   0.15850   0.16365   0.16677   0.17552
 Alpha virt. eigenvalues --    0.17995   0.18093   0.19170   0.19464   0.19765
 Alpha virt. eigenvalues --    0.20537   0.20802   0.21126   0.21783   0.23066
 Alpha virt. eigenvalues --    0.23108   0.23404   0.23985   0.24337   0.25220
 Alpha virt. eigenvalues --    0.25719   0.25984   0.26579   0.27567   0.27997
 Alpha virt. eigenvalues --    0.29068   0.29955   0.30100   0.30647   0.31006
 Alpha virt. eigenvalues --    0.32070   0.32585   0.33838   0.34301   0.35391
 Alpha virt. eigenvalues --    0.36121   0.37071   0.37879   0.40454   0.42113
 Alpha virt. eigenvalues --    0.43776   0.45151   0.46845   0.53724   0.57301
 Alpha virt. eigenvalues --    0.60389   0.60769   0.61808   0.62460   0.64353
 Alpha virt. eigenvalues --    0.65407   0.65857   0.66638   0.67693   0.68569
 Alpha virt. eigenvalues --    0.69047   0.69468   0.70825   0.72363   0.73115
 Alpha virt. eigenvalues --    0.73202   0.75159   0.79748   0.80668   0.82176
 Alpha virt. eigenvalues --    0.84590   0.86672   0.87343   0.88014   0.88640
 Alpha virt. eigenvalues --    0.90387   0.92073   0.93069   0.94668   0.98625
 Alpha virt. eigenvalues --    0.98873   1.01705   1.01984   1.03061   1.04608
 Alpha virt. eigenvalues --    1.05958   1.07005   1.08028   1.09529   1.11334
 Alpha virt. eigenvalues --    1.12112   1.12861   1.13576   1.14210   1.15160
 Alpha virt. eigenvalues --    1.16198   1.17321   1.18055   1.18944   1.19489
 Alpha virt. eigenvalues --    1.20368   1.21517   1.23224   1.23468   1.24835
 Alpha virt. eigenvalues --    1.25493   1.26275   1.27123   1.28875   1.30406
 Alpha virt. eigenvalues --    1.31417   1.32012   1.34765   1.35079   1.36295
 Alpha virt. eigenvalues --    1.37143   1.38285   1.41412   1.42826   1.46648
 Alpha virt. eigenvalues --    1.49904   1.51147   1.51922   1.54835   1.54918
 Alpha virt. eigenvalues --    1.57539   1.60547   1.64468   1.69726   1.71831
 Alpha virt. eigenvalues --    1.73126   1.75352   1.75852   1.78478   1.80016
 Alpha virt. eigenvalues --    1.81458   1.82566   1.84510   1.85233   1.85408
 Alpha virt. eigenvalues --    1.86760   1.88328   1.88827   1.91567   1.92203
 Alpha virt. eigenvalues --    1.93099   1.97123   1.99301   1.99467   2.00901
 Alpha virt. eigenvalues --    2.01309   2.03707   2.03947   2.09342   2.09892
 Alpha virt. eigenvalues --    2.12405   2.13416   2.16311   2.17400   2.19222
 Alpha virt. eigenvalues --    2.22847   2.22926   2.24223   2.27628   2.31203
 Alpha virt. eigenvalues --    2.32907   2.33685   2.34312   2.37355   2.40786
 Alpha virt. eigenvalues --    2.42065   2.43503   2.44585   2.45349   2.47183
 Alpha virt. eigenvalues --    2.48978   2.50002   2.51074   2.52297   2.53169
 Alpha virt. eigenvalues --    2.53850   2.56254   2.57844   2.59954   2.61108
 Alpha virt. eigenvalues --    2.61998   2.63819   2.66008   2.66654   2.68020
 Alpha virt. eigenvalues --    2.70163   2.70459   2.72694   2.78543   2.79388
 Alpha virt. eigenvalues --    2.81873   2.82705   2.83435   2.85570   2.90909
 Alpha virt. eigenvalues --    2.93834   2.97828   3.03526   3.05838   3.10488
 Alpha virt. eigenvalues --    3.13802   3.16168   3.18957   3.24031   3.29830
 Alpha virt. eigenvalues --    3.31830   3.36683   3.39266   3.39841   3.44140
 Alpha virt. eigenvalues --    3.46625   3.50826   3.51321   3.57243   3.77108
 Alpha virt. eigenvalues --    4.14901   4.21489   4.23962   4.29792   4.31453
 Alpha virt. eigenvalues --    4.35526   4.40396   4.43432   4.47858   4.49188
 Alpha virt. eigenvalues --    4.55486   4.63080   4.76654   5.05500
          Condensed to atoms (all electrons):
               1          2          3          4          5          6
     1  C   11.573591   0.087387  -1.288071  -1.451967  -0.145270  -2.476470
     2  C    0.087387  14.423431  -3.093277  -3.194453  -0.802699  -0.050507
     3  C   -1.288071  -3.093277  12.084040   0.677658  -0.812661  -1.536259
     4  C   -1.451967  -3.194453   0.677658  13.335581   1.215289  -1.125333
     5  C   -0.145270  -0.802699  -0.812661   1.215289   8.239646  -0.326945
     6  C   -2.476470  -0.050507  -1.536259  -1.125333  -0.326945  10.344021
     7  O   -0.401351   0.125290   0.261537   0.094581  -0.035221  -0.037943
     8  C    0.004037  -0.673455  -0.159723  -2.188099  -0.370041   0.565399
     9  C   -0.319749  -0.114166  -0.427800  -1.416288  -0.347259   0.680674
    10  C   -0.171526   0.019057   0.042813  -0.404746  -1.040166   0.060067
    11  O    0.000659   0.000549   0.000246   0.005570   0.021469  -0.003888
    12  O   -0.004938  -0.000819   0.001468  -0.013529  -0.005455   0.001592
    13  O    0.058739  -0.759061   0.541763   0.149648  -0.000380  -0.047367
    14  C    0.041728   0.001626  -0.090645   0.009244  -0.037685  -0.003114
    15  H    0.130008   0.117867  -0.005766   0.015798  -0.017332   0.101995
    16  H   -0.006791   0.004170  -0.135113   0.296504   0.023662  -0.005249
    17  H   -0.004053  -0.017203  -0.001259   0.025498   0.135130   0.156738
    18  H    0.153716   0.171612  -0.280197  -0.067500   0.002862   0.005551
    19  H    0.008769   0.004921   0.036523   0.256597   0.040963  -0.068971
    20  H    0.030964  -0.005873   0.009475   0.018657   0.085815  -0.025743
    21  H    0.000227   0.000037  -0.000032   0.001113  -0.000147   0.001714
    22  H   -0.000455  -0.000008   0.000351   0.005062   0.011057  -0.004129
    23  H    0.001181   0.044192   0.032225  -0.051764  -0.002487  -0.000258
    24  H   -0.002279  -0.031854  -0.057206   0.071553   0.011504   0.001937
    25  H   -0.001440  -0.035844  -0.059713   0.074011   0.018013   0.000802
               7          8          9         10         11         12
     1  C   -0.401351   0.004037  -0.319749  -0.171526   0.000659  -0.004938
     2  C    0.125290  -0.673455  -0.114166   0.019057   0.000549  -0.000819
     3  C    0.261537  -0.159723  -0.427800   0.042813   0.000246   0.001468
     4  C    0.094581  -2.188099  -1.416288  -0.404746   0.005570  -0.013529
     5  C   -0.035221  -0.370041  -0.347259  -1.040166   0.021469  -0.005455
     6  C   -0.037943   0.565399   0.680674   0.060067  -0.003888   0.001592
     7  O    8.252599   0.004336   0.000289   0.000215   0.000000  -0.000000
     8  C    0.004336   8.889661  -1.094112   0.528800  -0.133990   0.123020
     9  C    0.000289  -1.094112  11.133204  -1.764724   0.325240  -0.134655
    10  C    0.000215   0.528800  -1.764724   7.799883  -0.059535   0.180795
    11  O    0.000000  -0.133990   0.325240  -0.059535   8.134777  -0.091545
    12  O   -0.000000   0.123020  -0.134655   0.180795  -0.091545   8.189482
    13  O   -0.009166  -0.019114  -0.003280  -0.000039   0.000001  -0.000005
    14  C    0.001959  -0.026296  -0.005204  -0.002040  -0.000000  -0.000010
    15  H   -0.006281  -0.006512   0.001391   0.000097   0.000000  -0.000000
    16  H   -0.000360   0.113495   0.030210   0.000200  -0.000001  -0.000077
    17  H   -0.000501   0.012850  -0.012979   0.021587   0.000140   0.000026
    18  H    0.208005   0.000060   0.000069   0.000014   0.000000   0.000000
    19  H   -0.000006   0.255176  -0.169214  -0.061084   0.000740  -0.005778
    20  H   -0.000002   0.054471   0.280364  -0.119523  -0.010026   0.006480
    21  H   -0.000000   0.056039  -0.086810   0.042859   0.224177  -0.002323
    22  H   -0.000000   0.000056   0.036251  -0.028861  -0.002806   0.218449
    23  H   -0.000149   0.000421   0.000107   0.000005   0.000000  -0.000000
    24  H   -0.000064   0.000030  -0.000308  -0.000002   0.000000   0.000001
    25  H   -0.000052  -0.001116  -0.000305  -0.000075   0.000000  -0.000000
              13         14         15         16         17         18
     1  C    0.058739   0.041728   0.130008  -0.006791  -0.004053   0.153716
     2  C   -0.759061   0.001626   0.117867   0.004170  -0.017203   0.171612
     3  C    0.541763  -0.090645  -0.005766  -0.135113  -0.001259  -0.280197
     4  C    0.149648   0.009244   0.015798   0.296504   0.025498  -0.067500
     5  C   -0.000380  -0.037685  -0.017332   0.023662   0.135130   0.002862
     6  C   -0.047367  -0.003114   0.101995  -0.005249   0.156738   0.005551
     7  O   -0.009166   0.001959  -0.006281  -0.000360  -0.000501   0.208005
     8  C   -0.019114  -0.026296  -0.006512   0.113495   0.012850   0.000060
     9  C   -0.003280  -0.005204   0.001391   0.030210  -0.012979   0.000069
    10  C   -0.000039  -0.002040   0.000097   0.000200   0.021587   0.000014
    11  O    0.000001  -0.000000   0.000000  -0.000001   0.000140   0.000000
    12  O   -0.000005  -0.000010  -0.000000  -0.000077   0.000026   0.000000
    13  O    8.585029   0.065181  -0.000454  -0.010086   0.000129   0.041456
    14  C    0.065181   4.958153   0.000026   0.001620  -0.000040   0.005080
    15  H   -0.000454   0.000026   0.464354   0.000010  -0.003315  -0.000023
    16  H   -0.010086   0.001620   0.000010   0.516355  -0.000100  -0.000015
    17  H    0.000129  -0.000040  -0.003315  -0.000100   0.518047   0.000004
    18  H    0.041456   0.005080  -0.000023  -0.000015   0.000004   0.340317
    19  H    0.000073   0.001073   0.000001   0.002692  -0.000004   0.000000
    20  H    0.000001   0.000028   0.000003  -0.000000   0.000837   0.000000
    21  H    0.000000   0.000000   0.000000   0.000000  -0.000000  -0.000000
    22  H   -0.000000   0.000005  -0.000000  -0.000000   0.000000   0.000000
    23  H   -0.066120   0.414822  -0.000000   0.000078  -0.000000  -0.000067
    24  H   -0.039164   0.405963   0.000000  -0.000805   0.000000   0.000030
    25  H   -0.039366   0.404982   0.000000  -0.000785   0.000000   0.000029
              19         20         21         22         23         24
     1  C    0.008769   0.030964   0.000227  -0.000455   0.001181  -0.002279
     2  C    0.004921  -0.005873   0.000037  -0.000008   0.044192  -0.031854
     3  C    0.036523   0.009475  -0.000032   0.000351   0.032225  -0.057206
     4  C    0.256597   0.018657   0.001113   0.005062  -0.051764   0.071553
     5  C    0.040963   0.085815  -0.000147   0.011057  -0.002487   0.011504
     6  C   -0.068971  -0.025743   0.001714  -0.004129  -0.000258   0.001937
     7  O   -0.000006  -0.000002  -0.000000  -0.000000  -0.000149  -0.000064
     8  C    0.255176   0.054471   0.056039   0.000056   0.000421   0.000030
     9  C   -0.169214   0.280364  -0.086810   0.036251   0.000107  -0.000308
    10  C   -0.061084  -0.119523   0.042859  -0.028861   0.000005  -0.000002
    11  O    0.000740  -0.010026   0.224177  -0.002806   0.000000   0.000000
    12  O   -0.005778   0.006480  -0.002323   0.218449  -0.000000   0.000001
    13  O    0.000073   0.000001   0.000000  -0.000000  -0.066120  -0.039164
    14  C    0.001073   0.000028   0.000000   0.000005   0.414822   0.405963
    15  H    0.000001   0.000003   0.000000  -0.000000  -0.000000   0.000000
    16  H    0.002692  -0.000000   0.000000  -0.000000   0.000078  -0.000805
    17  H   -0.000004   0.000837  -0.000000   0.000000  -0.000000   0.000000
    18  H    0.000000   0.000000  -0.000000   0.000000  -0.000067   0.000030
    19  H    0.504103   0.002801   0.000007  -0.000020   0.000000  -0.000001
    20  H    0.002801   0.480668   0.000042  -0.000147  -0.000000   0.000000
    21  H    0.000007   0.000042   0.361218   0.002513   0.000000  -0.000000
    22  H   -0.000020  -0.000147   0.002513   0.360417  -0.000000   0.000000
    23  H    0.000000  -0.000000   0.000000  -0.000000   0.477727  -0.022420
    24  H   -0.000001   0.000000  -0.000000   0.000000  -0.022420   0.531327
    25  H   -0.000000   0.000000   0.000000  -0.000000  -0.022428  -0.038100
              25
     1  C   -0.001440
     2  C   -0.035844
     3  C   -0.059713
     4  C    0.074011
     5  C    0.018013
     6  C    0.000802
     7  O   -0.000052
     8  C   -0.001116
     9  C   -0.000305
    10  C   -0.000075
    11  O    0.000000
    12  O   -0.000000
    13  O   -0.039366
    14  C    0.404982
    15  H    0.000000
    16  H   -0.000785
    17  H    0.000000
    18  H    0.000029
    19  H   -0.000000
    20  H    0.000000
    21  H    0.000000
    22  H   -0.000000
    23  H   -0.022428
    24  H   -0.038100
    25  H    0.531574
 Mulliken charges:
               1
     1  C    0.183354
     2  C   -0.220922
     3  C    0.259624
     4  C   -0.338687
     5  C    0.138336
     6  C   -0.208315
     7  O   -0.457716
     8  C    0.064606
     9  C   -0.590945
    10  C    0.955930
    11  O   -0.411779
    12  O   -0.462178
    13  O   -0.448417
    14  C   -0.146457
    15  H    0.208130
    16  H    0.170387
    17  H    0.168468
    18  H    0.418996
    19  H    0.190638
    20  H    0.190708
    21  H    0.399366
    22  H    0.402266
    23  H    0.194933
    24  H    0.169858
    25  H    0.169815
 Sum of Mulliken charges =   1.00000
 Mulliken charges with hydrogens summed into heavy atoms:
               1
     1  C    0.391484
     2  C   -0.220922
     3  C    0.259624
     4  C   -0.168300
     5  C    0.138336
     6  C   -0.039846
     7  O   -0.038720
     8  C    0.255245
     9  C   -0.400238
    10  C    0.955930
    11  O   -0.012412
    12  O   -0.059912
    13  O   -0.448417
    14  C    0.388148
 Electronic spatial extent (au):  <R**2>=           4161.8080
 Charge=              1.0000 electrons
 Dipole moment (field-independent basis, Debye):
    X=             -8.2419    Y=              3.6359    Z=              0.0673  Tot=              9.0086
 Quadrupole moment (field-independent basis, Debye-Ang):
   XX=              9.2982   YY=            -61.2911   ZZ=            -82.7016
   XY=             -2.3449   XZ=              0.3685   YZ=              1.2962
 Traceless Quadrupole moment (field-independent basis, Debye-Ang):
   XX=             54.1964   YY=            -16.3929   ZZ=            -37.8034
   XY=             -2.3449   XZ=              0.3685   YZ=              1.2962
 Octapole moment (field-independent basis, Debye-Ang**2):
  XXX=           -338.2206  YYY=             22.0613  ZZZ=             -0.0676  XYY=              2.7594
  XXY=             98.6609  XXZ=             -3.7052  XZZ=             -4.1296  YZZ=              5.6307
  YYZ=              1.6818  XYZ=             -4.9880
 Hexadecapole moment (field-independent basis, Debye-Ang**3):
 XXXX=          -1342.7586 YYYY=           -780.7516 ZZZZ=            -91.6272 XXXY=           -244.1844
 XXXZ=             35.7268 YYYX=             29.1244 YYYZ=              4.1694 ZZZX=              0.6934
 ZZZY=              0.0276 XXYY=           -674.1603 XXZZ=           -709.4923 YYZZ=           -174.2340
 XXYZ=             26.5379 YYXZ=             -6.7660 ZZXY=             -2.7229
 N-N= 8.385066533537D+02 E-N=-3.266904393766D+03  KE= 6.818656879927D+02
 Calling FoFJK, ICntrl=      2127 FMM=F ISym2X=0 I1Cent= 0 IOpClX= 0 NMat=1 NMatS=1 NMatT=0.
 ***** Axes restored to original set *****
 -------------------------------------------------------------------
 Center     Atomic                   Forces (Hartrees/Bohr)
 Number     Number              X              Y              Z
 -------------------------------------------------------------------
      1        6          -0.001216977    0.003080627   -0.000050386
      2        6          -0.001796096   -0.000789715    0.000012659
      3        6          -0.001194593    0.001179788   -0.000040111
      4        6          -0.001288630   -0.003587391    0.000040554
      5        6          -0.002373925   -0.002452498    0.000038704
      6        6          -0.001204911    0.004195705   -0.000027348
      7        8           0.003551684    0.005569446   -0.000068541
      8        6           0.001293580   -0.001917640    0.000055627
      9        6           0.000388479    0.001076583    0.000011465
     10        6           0.005242469    0.002929725    0.000116590
     11        8          -0.004300026    0.007559887    0.001938760
     12        8           0.002887349   -0.007418220   -0.002148620
     13        8           0.004097498    0.002749900   -0.000001067
     14        6           0.000214314   -0.006083073    0.000051848
     15        1           0.000181577    0.000141448    0.000018996
     16        1          -0.000296359    0.000900728   -0.000033530
     17        1          -0.000240500   -0.000542828   -0.000002790
     18        1           0.003062710   -0.003426420    0.000043634
     19        1           0.000202332    0.000765881   -0.000018987
     20        1           0.000304087   -0.000054821   -0.000057660
     21        1          -0.003726726   -0.001821342   -0.001179531
     22        1          -0.003759234   -0.001605636    0.001289449
     23        1           0.000444498   -0.000155386    0.000001458
     24        1          -0.000251973   -0.000139418   -0.000019036
     25        1          -0.000220625   -0.000155329    0.000027860
 -------------------------------------------------------------------
 Cartesian Forces:  Max     0.007559887 RMS     0.002362365

 GradGradGradGradGradGradGradGradGradGradGradGradGradGradGradGradGradGrad
 Berny optimization.
 FormGI is forming the generalized inverse of G from B-inverse, IUseBI=4.
 GSVD:  received Info=                   1 from GESDD.
 Internal  Forces:  Max     0.009902119 RMS     0.002135447
 Search for a local minimum.
 Step number   1 out of a maximum of  119
 All quantities printed in internal units (Hartrees-Bohrs-Radians)
 Mixed Optimization -- RFO/linear search
 Second derivative matrix not updated -- first step.
 ITU=  0
     Eigenvalues ---    0.01240   0.01774   0.01830   0.01911   0.01931
     Eigenvalues ---    0.02017   0.02054   0.02063   0.02115   0.02145
     Eigenvalues ---    0.02208   0.02213   0.02231   0.02235   0.02252
     Eigenvalues ---    0.02284   0.02465   0.02622   0.02649   0.02698
     Eigenvalues ---    0.10156   0.10684   0.16000   0.16000   0.16000
     Eigenvalues ---    0.16000   0.16000   0.16000   0.16000   0.16000
     Eigenvalues ---    0.16000   0.16000   0.16000   0.22000   0.22000
     Eigenvalues ---    0.22369   0.23477   0.24604   0.24999   0.25000
     Eigenvalues ---    0.25000   0.25000   0.25000   0.25000   0.34262
     Eigenvalues ---    0.34264   0.34998   0.35056   0.35533   0.35572
     Eigenvalues ---    0.35595   0.35741   0.38889   0.40199   0.40395
     Eigenvalues ---    0.41881   0.43469   0.43790   0.47100   0.47213
     Eigenvalues ---    0.47735   0.49497   0.52463   0.53240   0.53301
     Eigenvalues ---    0.53920   0.59586   0.60070   0.60953
 RFO step:  Lambda=-1.00330249D-03 EMin= 1.23973185D-02
 Linear search not attempted -- first point.
 Iteration  1 RMS(Cart)=  0.02263036 RMS(Int)=  0.00006837
 Iteration  2 RMS(Cart)=  0.00014348 RMS(Int)=  0.00000041
 Iteration  3 RMS(Cart)=  0.00000001 RMS(Int)=  0.00000041
 Variable       Old X    -DE/DX   Delta X   Delta X   Delta X     New X
                                 (Linear)    (Quad)   (Total)
    R1        2.65453  -0.00444   0.00000  -0.00991  -0.00991   2.64462
    R2        2.60442  -0.00267   0.00000  -0.00533  -0.00533   2.59909
    R3        2.04818  -0.00018   0.00000  -0.00050  -0.00050   2.04768
    R4        2.69383  -0.00409   0.00000  -0.00992  -0.00992   2.68391
    R5        2.51269  -0.00695   0.00000  -0.01165  -0.01165   2.50104
    R6        2.60313  -0.00446   0.00000  -0.00904  -0.00904   2.59409
    R7        2.56105  -0.00567   0.00000  -0.01050  -0.01050   2.55055
    R8        2.69949  -0.00292   0.00000  -0.00702  -0.00702   2.69247
    R9        2.04756   0.00082   0.00000   0.00229   0.00229   2.04985
   R10        2.68812  -0.00443   0.00000  -0.01038  -0.01038   2.67773
   R11        2.67095  -0.00153   0.00000  -0.00352  -0.00352   2.66743
   R12        2.04720   0.00019   0.00000   0.00054   0.00054   2.04774
   R13        1.84159  -0.00459   0.00000  -0.00874  -0.00874   1.83285
   R14        2.62786  -0.00287   0.00000  -0.00607  -0.00607   2.62179
   R15        2.05584   0.00078   0.00000   0.00223   0.00223   2.05808
   R16        2.62223  -0.00344   0.00000  -0.00718  -0.00718   2.61504
   R17        2.04488   0.00005   0.00000   0.00015   0.00015   2.04503
   R18        2.50194  -0.00990   0.00000  -0.01622  -0.01622   2.48572
   R19        2.50885  -0.00910   0.00000  -0.01512  -0.01512   2.49373
   R20        1.83430  -0.00431   0.00000  -0.00807  -0.00807   1.82623
   R21        1.83374  -0.00428   0.00000  -0.00802  -0.00802   1.82572
   R22        2.71019  -0.00650   0.00000  -0.01605  -0.01605   2.69415
   R23        2.05678  -0.00047   0.00000  -0.00134  -0.00134   2.05544
   R24        2.06888  -0.00018   0.00000  -0.00053  -0.00053   2.06834
   R25        2.06890  -0.00018   0.00000  -0.00052  -0.00052   2.06838
    A1        2.08871  -0.00034   0.00000  -0.00143  -0.00143   2.08728
    A2        2.06719   0.00032   0.00000   0.00165   0.00165   2.06884
    A3        2.12729   0.00002   0.00000  -0.00022  -0.00022   2.12707
    A4        2.10584   0.00054   0.00000   0.00196   0.00196   2.10780
    A5        2.08231  -0.00014   0.00000  -0.00044  -0.00045   2.08186
    A6        2.09503  -0.00041   0.00000  -0.00152  -0.00152   2.09352
    A7        2.08658   0.00007   0.00000   0.00002   0.00002   2.08660
    A8        1.97334   0.00017   0.00000   0.00078   0.00078   1.97413
    A9        2.22326  -0.00023   0.00000  -0.00080  -0.00080   2.22246
   A10        2.10020  -0.00028   0.00000  -0.00123  -0.00123   2.09897
   A11        2.10441  -0.00036   0.00000  -0.00247  -0.00247   2.10194
   A12        2.07857   0.00064   0.00000   0.00370   0.00370   2.08227
   A13        2.07665   0.00024   0.00000   0.00131   0.00131   2.07796
   A14        2.06393  -0.00085   0.00000  -0.00356  -0.00356   2.06036
   A15        2.14261   0.00061   0.00000   0.00225   0.00225   2.14486
   A16        2.10838  -0.00023   0.00000  -0.00063  -0.00064   2.10775
   A17        2.07585  -0.00046   0.00000  -0.00324  -0.00324   2.07261
   A18        2.09895   0.00069   0.00000   0.00387   0.00387   2.10282
   A19        1.91439  -0.00051   0.00000  -0.00314  -0.00314   1.91125
   A20        2.22017   0.00090   0.00000   0.00408   0.00408   2.22425
   A21        2.02802  -0.00033   0.00000  -0.00127  -0.00127   2.02675
   A22        2.03499  -0.00057   0.00000  -0.00281  -0.00281   2.03219
   A23        2.12361  -0.00254   0.00000  -0.01147  -0.01147   2.11214
   A24        2.14316   0.00158   0.00000   0.00768   0.00768   2.15084
   A25        2.01641   0.00096   0.00000   0.00380   0.00380   2.02020
   A26        2.06692   0.00007   0.00000   0.00029   0.00029   2.06721
   A27        2.11249  -0.00003   0.00000  -0.00011  -0.00011   2.11239
   A28        2.10373  -0.00005   0.00000  -0.00018  -0.00018   2.10354
   A29        2.00719  -0.00010   0.00000  -0.00063  -0.00063   2.00656
   A30        1.99865  -0.00006   0.00000  -0.00038  -0.00038   1.99827
   A31        2.07369  -0.00224   0.00000  -0.00892  -0.00892   2.06477
   A32        1.84498  -0.00001   0.00000  -0.00031  -0.00031   1.84467
   A33        1.92643  -0.00010   0.00000  -0.00048  -0.00048   1.92595
   A34        1.92633  -0.00012   0.00000  -0.00061  -0.00061   1.92572
   A35        1.91765  -0.00005   0.00000  -0.00055  -0.00055   1.91710
   A36        1.91758  -0.00002   0.00000  -0.00039  -0.00039   1.91719
   A37        1.92919   0.00028   0.00000   0.00220   0.00220   1.93139
    D1       -0.00056   0.00000   0.00000   0.00012   0.00012  -0.00045
    D2       -3.14095   0.00000   0.00000   0.00019   0.00019  -3.14076
    D3        3.13893  -0.00001   0.00000  -0.00030  -0.00030   3.13864
    D4       -0.00145  -0.00001   0.00000  -0.00022  -0.00022  -0.00167
    D5       -0.00261   0.00001   0.00000   0.00033   0.00033  -0.00229
    D6        3.13867  -0.00000   0.00000  -0.00014  -0.00014   3.13852
    D7        3.14115   0.00002   0.00000   0.00075   0.00075  -3.14129
    D8       -0.00076   0.00001   0.00000   0.00028   0.00028  -0.00048
    D9        0.00160  -0.00001   0.00000  -0.00038  -0.00038   0.00122
   D10       -3.14028  -0.00001   0.00000  -0.00034  -0.00034  -3.14063
   D11       -3.14121  -0.00001   0.00000  -0.00045  -0.00045   3.14152
   D12        0.00009  -0.00001   0.00000  -0.00042  -0.00042  -0.00033
   D13        3.14065  -0.00000   0.00000  -0.00017  -0.00017   3.14047
   D14        0.00026  -0.00000   0.00000  -0.00010  -0.00010   0.00015
   D15        0.00054   0.00000   0.00000   0.00020   0.00020   0.00074
   D16        3.14115  -0.00000   0.00000  -0.00012  -0.00012   3.14103
   D17       -3.14071   0.00000   0.00000   0.00016   0.00016  -3.14055
   D18       -0.00011  -0.00000   0.00000  -0.00016  -0.00015  -0.00026
   D19        3.14111   0.00001   0.00000   0.00023   0.00023   3.14134
   D20       -0.00080   0.00001   0.00000   0.00027   0.00027  -0.00053
   D21       -0.00363   0.00000   0.00000   0.00023   0.00023  -0.00340
   D22        3.14085   0.00002   0.00000   0.00102   0.00102  -3.14132
   D23        3.13894   0.00001   0.00000   0.00054   0.00054   3.13948
   D24        0.00023   0.00002   0.00000   0.00133   0.00133   0.00156
   D25        0.00470  -0.00001   0.00000  -0.00050  -0.00050   0.00420
   D26       -3.13658   0.00000   0.00000  -0.00002  -0.00002  -3.13660
   D27       -3.13992  -0.00003   0.00000  -0.00133  -0.00133  -3.14125
   D28        0.00199  -0.00002   0.00000  -0.00086  -0.00086   0.00114
   D29       -3.12954   0.00004   0.00000   0.00218   0.00218  -3.12736
   D30        0.01263   0.00004   0.00000   0.00201   0.00201   0.01464
   D31        0.01506   0.00006   0.00000   0.00300   0.00300   0.01805
   D32       -3.12596   0.00006   0.00000   0.00283   0.00283  -3.12313
   D33       -3.11997   0.00006   0.00000   0.00250   0.00250  -3.11747
   D34        0.02243   0.00006   0.00000   0.00276   0.00276   0.02519
   D35        0.02105   0.00006   0.00000   0.00267   0.00267   0.02372
   D36       -3.11974   0.00007   0.00000   0.00293   0.00293  -3.11681
   D37       -3.05644   0.00002   0.00000   0.00089   0.00089  -3.05555
   D38        0.09492   0.00002   0.00000   0.00094   0.00094   0.09587
   D39        0.08440   0.00002   0.00000   0.00065   0.00065   0.08505
   D40       -3.04742   0.00002   0.00000   0.00070   0.00070  -3.04672
   D41       -2.89284  -0.00014   0.00000  -0.00505  -0.00505  -2.89789
   D42        0.23903  -0.00014   0.00000  -0.00510  -0.00510   0.23393
   D43       -2.84224  -0.00015   0.00000  -0.00533  -0.00533  -2.84757
   D44        0.30933  -0.00015   0.00000  -0.00528  -0.00528   0.30405
   D45       -3.14034  -0.00002   0.00000  -0.00141  -0.00141   3.14144
   D46       -1.06754  -0.00013   0.00000  -0.00249  -0.00249  -1.07003
   D47        1.07020   0.00008   0.00000  -0.00044  -0.00044   1.06975
         Item               Value     Threshold  Converged?
 Maximum Force            0.009902     0.000450     NO 
 RMS     Force            0.002135     0.000300     NO 
 Maximum Displacement     0.084341     0.001800     NO 
 RMS     Displacement     0.022614     0.001200     NO 
 Predicted change in Energy=-5.028420D-04
 GradGradGradGradGradGradGradGradGradGradGradGradGradGradGradGradGradGrad

                          Input orientation:                          
 ---------------------------------------------------------------------
 Center     Atomic      Atomic             Coordinates (Angstroms)
 Number     Number       Type             X           Y           Z
 ---------------------------------------------------------------------
      1          6           0       -1.477232   -2.027837    0.025115
      2          6           0       -2.511199   -1.084809    0.013519
      3          6           0       -2.225612    0.306322   -0.004890
      4          6           0       -0.919720    0.729384   -0.012826
      5          6           0        0.142681   -0.219961   -0.003584
      6          6           0       -0.169461   -1.601981    0.018065
      7          8           0       -3.767397   -1.501398    0.021356
      8          6           0        1.467700    0.266572   -0.011990
      9          6           0        2.639110   -0.476781   -0.021099
     10          6           0        3.876604    0.142194   -0.000105
     11          8           0        4.953128   -0.605741   -0.109312
     12          8           0        3.980573    1.450519    0.137315
     13          8           0       -3.335128    1.074812   -0.012952
     14          6           0       -3.176045    2.491473   -0.031166
     15          1           0       -1.736301   -3.079861    0.041882
     16          1           0       -0.685325    1.788388   -0.027398
     17          1           0        0.620350   -2.343788    0.030127
     18          1           0       -4.362603   -0.735655    0.012576
     19          1           0        1.580831    1.349766   -0.010819
     20          1           0        2.654894   -1.558574   -0.045558
     21          1           0        5.781606   -0.164179    0.119977
     22          1           0        4.841026    1.812316   -0.111944
     23          1           0       -4.183831    2.900648   -0.034985
     24          1           0       -2.642603    2.826110    0.864061
     25          1           0       -2.645065    2.803005   -0.936167
 ---------------------------------------------------------------------
                    Distance matrix (angstroms):
                    1          2          3          4          5
     1  C    0.000000
     2  C    1.399473   0.000000
     3  C    2.451381   1.420262   0.000000
     4  C    2.813276   2.413461   1.372733   0.000000
     5  C    2.427623   2.791296   2.426064   1.424794   0.000000
     6  C    1.375379   2.398171   2.805334   2.449307   1.416996
     7  O    2.349895   1.323496   2.376056   3.617571   4.114779
     8  C    3.733404   4.202204   3.693532   2.431866   1.411545
     9  C    4.399111   5.186191   4.927375   3.757682   2.509665
    10  C    5.776956   6.504594   6.104424   4.832150   3.751446
    11  O    6.587105   7.480693   7.237201   6.023472   4.827049
    12  O    6.472957   6.970389   6.312380   4.955346   4.188051
    13  O    3.616581   2.311606   1.349692   2.439982   3.711021
    14  C    4.828384   3.637830   2.383044   2.862917   4.285624
    15  H    1.083583   2.140445   3.421673   3.896170   3.422231
    16  H    3.897876   3.404519   2.137641   1.084731   2.172470
    17  H    2.121250   3.375189   3.888934   3.437739   2.177141
    18  H    3.161528   1.884040   2.377552   3.741715   4.534731
    19  H    4.556450   4.761560   3.946874   2.576360   2.128937
    20  H    4.159287   5.188108   5.224828   4.244254   2.846904
    21  H    7.494861   8.344429   8.022001   6.761942   5.640554
    22  H    7.394994   7.903435   7.226122   5.862488   5.120189
    23  H    5.623100   4.322490   3.250547   3.920370   5.334594
    24  H    5.061889   4.004494   2.697831   2.851932   4.217720
    25  H    5.062107   4.004362   2.697526   2.851189   4.216582
                    6          7          8          9         10
     6  C    0.000000
     7  O    3.599343   0.000000
     8  C    2.484489   5.525673   0.000000
     9  C    3.025835   6.488063   1.387392   0.000000
    10  C    4.406031   7.818734   2.412142   1.383821   0.000000
    11  O    5.220118   8.767373   3.594247   2.319287   1.315385
    12  O    5.153131   8.292062   2.781826   2.353530   1.319624
    13  O    4.145796   2.612450   4.870360   6.172441   7.271796
    14  C    5.079206   4.036765   5.149264   6.528909   7.433702
    15  H    2.153993   2.572414   4.633263   5.091582   6.472101
    16  H    3.429691   4.508241   2.636603   4.022797   4.849937
    17  H    1.083617   4.467887   2.744768   2.750224   4.096853
    18  H    4.281704   0.969902   5.915868   7.006578   8.285850
    19  H    3.431787   6.060834   1.089087   2.111003   2.594016
    20  H    2.825405   6.422894   2.177547   1.082184   2.094576
    21  H    6.123141   9.642683   4.337366   3.161155   1.933214
    22  H    6.064594   9.225151   3.711960   3.177523   1.931819
    23  H    6.032549   4.422059   6.235277   7.613129   8.519442
    24  H    5.141996   4.550016   4.920700   6.291986   7.102833
    25  H    5.142283   4.550205   4.919597   6.286243   7.105512
                   11         12         13         14         15
    11  O    0.000000
    12  O    2.287989   0.000000
    13  O    8.457466   7.326883   0.000000
    14  C    8.699557   7.233889   1.425681   0.000000
    15  H    7.133904   7.294936   4.452029   5.754820   0.000000
    16  H    6.126232   4.681014   2.744240   2.588055   4.980882
    17  H    4.670462   5.069453   5.228239   6.147855   2.468956
    18  H    9.317434   8.625747   2.081862   3.438632   3.520458
    19  H    3.899500   2.406420   4.923642   4.892011   5.534233
    20  H    2.488741   3.293251   6.543405   7.099502   4.648070
    21  H    0.966398   2.418940   9.201500   9.344241   8.063883
    22  H    2.420656   0.966129   8.209945   8.046191   8.198675
    23  H    9.786946   8.293977   2.013569   1.087691   6.462414
    24  H    8.391674   6.803445   2.077447   1.094521   6.031406
    25  H    8.368739   6.846946   2.077297   1.094540   6.032457
                   16         17         18         19         20
    16  H    0.000000
    17  H    4.333933   0.000000
    18  H    4.460355   5.236050   0.000000
    19  H    2.308273   3.816614   6.298725   0.000000
    20  H    4.728588   2.182123   7.065822   3.100526   0.000000
    21  H    6.756880   5.603332  10.160861   4.467175   3.427545
    22  H    5.527049   5.925157   9.550625   3.294397   4.018268
    23  H    3.671066   7.112560   3.641006   5.969685   8.164125
    24  H    2.387992   6.170102   4.045937   4.558771   6.936594
    25  H    2.386606   6.171397   4.046253   4.563592   6.921425
                   21         22         23         24         25
    21  H    0.000000
    22  H    2.201139   0.000000
    23  H   10.427229   9.090568   0.000000
    24  H    8.970105   7.614792   1.785840   0.000000
    25  H    8.996022   7.596207   1.785906   1.800378   0.000000
 Stoichiometry    C10H11O4(1+)
 Framework group  C1[X(C10H11O4)]
 Deg. of freedom    69
 Full point group                 C1      NOp   1
 Largest Abelian subgroup         C1      NOp   1
 Largest concise Abelian subgroup C1      NOp   1
                         Standard orientation:                         
 ---------------------------------------------------------------------
 Center     Atomic      Atomic             Coordinates (Angstroms)
 Number     Number       Type             X           Y           Z
 ---------------------------------------------------------------------
      1          6           0        1.479466   -2.025348   -0.024928
      2          6           0        2.511277   -1.079961   -0.013332
      3          6           0        2.222514    0.310513    0.005077
      4          6           0        0.915660    0.730592    0.013013
      5          6           0       -0.144571   -0.221177    0.003770
      6          6           0        0.170726   -1.602480   -0.017878
      7          8           0        3.768423   -1.493681   -0.021169
      8          6           0       -1.470697    0.262329    0.012177
      9          6           0       -2.640407   -0.483697    0.021286
     10          6           0       -3.879311    0.132450    0.000292
     11          8           0       -4.954125   -0.617942    0.109499
     12          8           0       -3.986268    1.440534   -0.137128
     13          8           0        3.330272    1.081535    0.013139
     14          6           0        3.167954    2.497829    0.031353
     15          1           0        1.740937   -3.076778   -0.041695
     16          1           0        0.678846    1.789058    0.027585
     17          1           0       -0.617388   -2.346089   -0.029940
     18          1           0        4.361879   -0.726581   -0.012389
     19          1           0       -1.586302    1.345262    0.011006
     20          1           0       -2.653720   -1.565523    0.045745
     21          1           0       -5.783608   -0.178273   -0.119790
     22          1           0       -4.847545    1.800365    0.112131
     23          1           0        4.174803    2.909305    0.035172
     24          1           0        2.633749    2.831247   -0.863875
     25          1           0        2.636264    2.808148    0.936354
 ---------------------------------------------------------------------
 Rotational constants (GHZ):      1.5432707      0.2875028      0.2428674
 Standard basis: 6-31+G(d,p) (6D, 7F)
 There are   321 symmetry adapted cartesian basis functions of A   symmetry.
 There are   321 symmetry adapted basis functions of A   symmetry.
   321 basis functions,   525 primitive gaussians,   321 cartesian basis functions
    51 alpha electrons       51 beta electrons
       nuclear repulsion energy       841.8132080733 Hartrees.
 NAtoms=   25 NActive=   25 NUniq=   25 SFac= 1.00D+00 NAtFMM=   60 NAOKFM=F Big=F
 Integral buffers will be    131072 words long.
 Raffenetti 2 integral format.
 Two-electron integral symmetry is turned on.
 Nuclear repulsion after empirical dispersion term =      841.8001454149 Hartrees.
 One-electron integrals computed using PRISM.
 NBasis=   321 RedAO= T EigKep=  1.36D-06  NBF=   321
 NBsUse=   320 1.00D-06 EigRej=  6.44D-07 NBFU=   320
 Initial guess from the checkpoint file:  "WB97XDFAyang.chk"
 B after Tr=     0.000000   -0.000000   -0.000000
         Rot=    1.000000    0.000039   -0.000040   -0.000951 Ang=   0.11 deg.
 ExpMin= 4.38D-02 ExpMax= 5.48D+03 ExpMxC= 8.25D+02 IAcc=2 IRadAn=         4 AccDes= 0.00D+00
 Harris functional with IExCor= 4639 and IRadAn=       4 diagonalized for initial guess.
 HarFok:  IExCor= 4639 AccDes= 0.00D+00 IRadAn=         4 IDoV= 1 UseB2=F ITyADJ=14
 ICtDFT=  3500011 ScaDFX=  1.000000  1.000000  1.000000  1.000000
 FoFCou: FMM=F IPFlag=           0 FMFlag=      100000 FMFlg1=           0
         NFxFlg=           0 DoJE=T BraDBF=F KetDBF=T FulRan=T
         wScrn=  0.000000 ICntrl=     500 IOpCl=  0 I1Cent=   200000004 NGrid=           0
         NMat0=    1 NMatS0=      1 NMatT0=    0 NMatD0=    1 NMtDS0=    0 NMtDT0=    0
 Petite list used in FoFCou.
 Requested convergence on RMS density matrix=1.00D-08 within 128 cycles.
 Requested convergence on MAX density matrix=1.00D-06.
 Requested convergence on             energy=1.00D-06.
 No special actions if energy rises.
 SCF Done:  E(RwB97XD) =  -688.134336034     A.U. after   13 cycles
            NFock= 13  Conv=0.49D-08     -V/T= 2.0089
 Calling FoFJK, ICntrl=      2127 FMM=F ISym2X=0 I1Cent= 0 IOpClX= 0 NMat=1 NMatS=1 NMatT=0.
 ***** Axes restored to original set *****
 -------------------------------------------------------------------
 Center     Atomic                   Forces (Hartrees/Bohr)
 Number     Number              X              Y              Z
 -------------------------------------------------------------------
      1        6          -0.000435920   -0.000257130    0.000000859
      2        6          -0.000378127   -0.001450955    0.000019564
      3        6          -0.000716225    0.000249026   -0.000035172
      4        6           0.000602690    0.000295597   -0.000004816
      5        6          -0.000498367   -0.000481017   -0.000023424
      6        6           0.001013778    0.000646522    0.000026692
      7        8           0.000044343    0.000858321   -0.000010391
      8        6           0.000660149   -0.000140500    0.000021891
      9        6          -0.001873984   -0.000896411   -0.000026774
     10        6           0.001999499    0.000911985    0.000025025
     11        8          -0.000625384    0.001285774    0.000526160
     12        8           0.000632044   -0.001124870   -0.000477801
     13        8           0.000752893    0.001496966    0.000020551
     14        6          -0.001034499   -0.002131199    0.000010955
     15        1           0.000052037   -0.000020049    0.000006848
     16        1           0.000098478   -0.000178070    0.000001379
     17        1           0.000126916   -0.000061062   -0.000002579
     18        1          -0.000495936   -0.000385968    0.000004123
     19        1          -0.000028473   -0.000088210    0.000003297
     20        1          -0.000085149    0.000023452   -0.000048290
     21        1           0.000322126   -0.000554258   -0.000309507
     22        1          -0.000202918    0.000482105    0.000296919
     23        1           0.000107731    0.000645787   -0.000016850
     24        1          -0.000013212    0.000431919    0.000062963
     25        1          -0.000024491    0.000442243   -0.000071622
 -------------------------------------------------------------------
 Cartesian Forces:  Max     0.002131199 RMS     0.000638769

 GradGradGradGradGradGradGradGradGradGradGradGradGradGradGradGradGradGrad
 Berny optimization.
 Using GEDIIS/GDIIS optimizer.
 FormGI is forming the generalized inverse of G from B-inverse, IUseBI=4.
 GSVD:  received Info=                   1 from GESDD.
 Internal  Forces:  Max     0.002364530 RMS     0.000462098
 Search for a local minimum.
 Step number   2 out of a maximum of  119
 All quantities printed in internal units (Hartrees-Bohrs-Radians)
 Mixed Optimization -- En-DIIS/RFO-DIIS
 Update second derivatives using D2CorX and points    1    2
 DE= -4.79D-04 DEPred=-5.03D-04 R= 9.54D-01
 TightC=F SS=  1.41D+00  RLast= 4.87D-02 DXNew= 5.0454D-01 1.4595D-01
 Trust test= 9.54D-01 RLast= 4.87D-02 DXMaxT set to 3.00D-01
 ITU=  1  0
 Use linear search instead of GDIIS.
     Eigenvalues ---    0.01240   0.01774   0.01830   0.01910   0.01931
     Eigenvalues ---    0.02016   0.02053   0.02063   0.02114   0.02144
     Eigenvalues ---    0.02208   0.02212   0.02231   0.02235   0.02253
     Eigenvalues ---    0.02284   0.02465   0.02622   0.02641   0.02691
     Eigenvalues ---    0.10155   0.10691   0.15690   0.16000   0.16000
     Eigenvalues ---    0.16000   0.16000   0.16000   0.16000   0.16000
     Eigenvalues ---    0.16000   0.16000   0.16227   0.21928   0.22057
     Eigenvalues ---    0.22403   0.23494   0.24592   0.24974   0.24999
     Eigenvalues ---    0.25000   0.25000   0.25000   0.25779   0.34262
     Eigenvalues ---    0.34263   0.35004   0.35065   0.35533   0.35579
     Eigenvalues ---    0.35593   0.35741   0.38114   0.39342   0.40506
     Eigenvalues ---    0.42046   0.43496   0.44114   0.46844   0.47147
     Eigenvalues ---    0.48314   0.50495   0.52653   0.53268   0.53354
     Eigenvalues ---    0.55837   0.59030   0.60561   0.61037
 RFO step:  Lambda=-7.39223975D-05 EMin= 1.23974239D-02
 Quartic linear search produced a step of -0.05222.
 Iteration  1 RMS(Cart)=  0.00651206 RMS(Int)=  0.00001575
 Iteration  2 RMS(Cart)=  0.00002007 RMS(Int)=  0.00000111
 Iteration  3 RMS(Cart)=  0.00000000 RMS(Int)=  0.00000111
 Variable       Old X    -DE/DX   Delta X   Delta X   Delta X     New X
                                 (Linear)    (Quad)   (Total)
    R1        2.64462   0.00050   0.00052  -0.00017   0.00035   2.64497
    R2        2.59909   0.00096   0.00028   0.00111   0.00139   2.60048
    R3        2.04768   0.00001   0.00003  -0.00004  -0.00002   2.04766
    R4        2.68391   0.00113   0.00052   0.00141   0.00193   2.68583
    R5        2.50104   0.00028   0.00061  -0.00103  -0.00043   2.50062
    R6        2.59409   0.00114   0.00047   0.00107   0.00154   2.59563
    R7        2.55055   0.00068   0.00055  -0.00014   0.00040   2.55095
    R8        2.69247   0.00045   0.00037   0.00009   0.00046   2.69293
    R9        2.04985  -0.00015  -0.00012  -0.00012  -0.00024   2.04961
   R10        2.67773  -0.00044   0.00054  -0.00243  -0.00189   2.67585
   R11        2.66743   0.00073   0.00018   0.00115   0.00133   2.66876
   R12        2.04774   0.00014  -0.00003   0.00043   0.00040   2.04814
   R13        1.83285  -0.00001   0.00046  -0.00112  -0.00067   1.83218
   R14        2.62179   0.00005   0.00032  -0.00068  -0.00036   2.62143
   R15        2.05808  -0.00009  -0.00012   0.00005  -0.00007   2.05801
   R16        2.61504   0.00236   0.00038   0.00378   0.00415   2.61920
   R17        2.04503  -0.00003  -0.00001  -0.00006  -0.00006   2.04497
   R18        2.48572  -0.00069   0.00085  -0.00313  -0.00229   2.48343
   R19        2.49373  -0.00061   0.00079  -0.00288  -0.00209   2.49164
   R20        1.82623  -0.00005   0.00042  -0.00111  -0.00069   1.82554
   R21        1.82572  -0.00008   0.00042  -0.00116  -0.00074   1.82498
   R22        2.69415  -0.00074   0.00084  -0.00378  -0.00294   2.69120
   R23        2.05544   0.00014   0.00007   0.00022   0.00029   2.05573
   R24        2.06834   0.00017   0.00003   0.00041   0.00044   2.06878
   R25        2.06838   0.00017   0.00003   0.00040   0.00043   2.06881
    A1        2.08728   0.00022   0.00007   0.00072   0.00079   2.08807
    A2        2.06884  -0.00005  -0.00009   0.00014   0.00005   2.06889
    A3        2.12707  -0.00017   0.00001  -0.00085  -0.00084   2.12622
    A4        2.10780  -0.00027  -0.00010  -0.00054  -0.00065   2.10716
    A5        2.08186   0.00027   0.00002   0.00088   0.00090   2.08276
    A6        2.09352  -0.00001   0.00008  -0.00033  -0.00025   2.09326
    A7        2.08660  -0.00032  -0.00000  -0.00100  -0.00100   2.08560
    A8        1.97413  -0.00013  -0.00004  -0.00049  -0.00053   1.97359
    A9        2.22246   0.00045   0.00004   0.00149   0.00153   2.22399
   A10        2.09897   0.00021   0.00006   0.00074   0.00080   2.09978
   A11        2.10194   0.00003   0.00013   0.00003   0.00016   2.10210
   A12        2.08227  -0.00024  -0.00019  -0.00077  -0.00096   2.08131
   A13        2.07796   0.00008  -0.00007   0.00018   0.00011   2.07807
   A14        2.06036   0.00029   0.00019   0.00076   0.00095   2.06131
   A15        2.14486  -0.00036  -0.00012  -0.00094  -0.00106   2.14380
   A16        2.10775   0.00008   0.00003  -0.00009  -0.00006   2.10769
   A17        2.07261   0.00001   0.00017  -0.00014   0.00003   2.07264
   A18        2.10282  -0.00009  -0.00020   0.00023   0.00003   2.10285
   A19        1.91125   0.00116   0.00016   0.00644   0.00661   1.91785
   A20        2.22425   0.00012  -0.00021   0.00104   0.00083   2.22508
   A21        2.02675  -0.00008   0.00007  -0.00055  -0.00049   2.02627
   A22        2.03219  -0.00004   0.00015  -0.00049  -0.00034   2.03184
   A23        2.11214   0.00026   0.00060  -0.00038   0.00022   2.11236
   A24        2.15084  -0.00021  -0.00040  -0.00006  -0.00046   2.15038
   A25        2.02020  -0.00005  -0.00020   0.00043   0.00023   2.02044
   A26        2.06721  -0.00010  -0.00002  -0.00035  -0.00037   2.06684
   A27        2.11239   0.00015   0.00001   0.00056   0.00057   2.11296
   A28        2.10354  -0.00005   0.00001  -0.00021  -0.00020   2.10334
   A29        2.00656   0.00125   0.00003   0.00730   0.00733   2.01389
   A30        1.99827   0.00107   0.00002   0.00627   0.00629   2.00457
   A31        2.06477   0.00204   0.00047   0.00659   0.00705   2.07182
   A32        1.84467   0.00076   0.00002   0.00445   0.00446   1.84913
   A33        1.92595   0.00036   0.00002   0.00210   0.00212   1.92807
   A34        1.92572   0.00038   0.00003   0.00219   0.00222   1.92794
   A35        1.91710  -0.00054   0.00003  -0.00330  -0.00328   1.91383
   A36        1.91719  -0.00056   0.00002  -0.00339  -0.00338   1.91381
   A37        1.93139  -0.00037  -0.00011  -0.00184  -0.00196   1.92943
    D1       -0.00045   0.00000  -0.00001   0.00004   0.00003  -0.00042
    D2       -3.14076   0.00000  -0.00001   0.00007   0.00006  -3.14070
    D3        3.13864  -0.00000   0.00002  -0.00017  -0.00016   3.13848
    D4       -0.00167  -0.00000   0.00001  -0.00014  -0.00013  -0.00180
    D5       -0.00229   0.00000  -0.00002   0.00011   0.00009  -0.00220
    D6        3.13852  -0.00000   0.00001  -0.00011  -0.00011   3.13842
    D7       -3.14129   0.00000  -0.00004   0.00033   0.00029  -3.14100
    D8       -0.00048   0.00000  -0.00001   0.00010   0.00009  -0.00039
    D9        0.00122  -0.00000   0.00002  -0.00021  -0.00019   0.00104
   D10       -3.14063   0.00000   0.00002   0.00014   0.00015  -3.14048
   D11        3.14152  -0.00000   0.00002  -0.00024  -0.00022   3.14131
   D12       -0.00033   0.00000   0.00002   0.00010   0.00012  -0.00020
   D13        3.14047   0.00000   0.00001   0.00001   0.00002   3.14049
   D14        0.00015   0.00000   0.00001   0.00004   0.00005   0.00020
   D15        0.00074   0.00000  -0.00001   0.00023   0.00022   0.00096
   D16        3.14103   0.00001   0.00001   0.00025   0.00025   3.14128
   D17       -3.14055  -0.00000  -0.00001  -0.00017  -0.00018  -3.14073
   D18       -0.00026  -0.00000   0.00001  -0.00015  -0.00014  -0.00040
   D19        3.14134   0.00002  -0.00001   0.00067   0.00066  -3.14119
   D20       -0.00053   0.00002  -0.00001   0.00104   0.00103   0.00050
   D21       -0.00340  -0.00000  -0.00001  -0.00009  -0.00010  -0.00349
   D22       -3.14132   0.00001  -0.00005   0.00070   0.00065  -3.14067
   D23        3.13948  -0.00000  -0.00003  -0.00010  -0.00013   3.13935
   D24        0.00156   0.00001  -0.00007   0.00068   0.00061   0.00217
   D25        0.00420  -0.00000   0.00003  -0.00009  -0.00006   0.00413
   D26       -3.13660   0.00000   0.00000   0.00014   0.00014  -3.13646
   D27       -3.14125  -0.00001   0.00007  -0.00091  -0.00084   3.14109
[...]
 0010279,0.00111941,-0.00074482,0.00002584,-0.15431818,0.20590420,0.000
 20246,-0.00011982,0.00599068,0.00004147,0.00016558,0.00900934,-0.00000
 141,-0.00000760,-0.00129083,0.00010311,0.00010850,0.00488873,-0.000577
 67,0.00015639,0.00201856,-0.00269489,0.00291917,-0.03870459,0.00002782
 ,-0.00001434,-0.00029023,0.00011317,-0.00012663,-0.00301075,0.00011286
 ,0.00020138,0.00018123,-0.00006992,-0.00005085,-0.00031726,0.00004098,
 -0.00001071,-0.00010977,-0.00001944,0.00002718,0.00016092,-0.00000008,
 -0.00001435,-0.00037815,0.00000078,0.00000222,-0.00015352,-0.00000160,
 -0.00009154,-0.00488948,-0.00000950,0.00003617,0.00127218,0.00267792,-
 0.00312794,0.02478523,-0.00248361,-0.00508606,0.00008909,-0.04046698,0
 .03437999,-0.00043431,-0.00058700,0.00213982,-0.00002113,-0.00210440,0
 .00135499,-0.00001158,0.00260027,0.00085495,-0.00000718,-0.00152580,0.
 00073298,-0.00002109,-0.20809881,0.19386571,-0.00237036,-0.00260429,-0
 .00015824,0.00002666,0.00222912,0.00003425,0.00001801,-0.00221985,-0.0
 0111767,-0.00002959,0.00120647,-0.00039177,-0.00010298,0.00038296,0.00
 099708,0.00013037,-0.00049628,0.00215934,-0.00004651,0.00111501,-0.001
 41561,0.00002943,0.00011300,-0.00004727,0.00000283,0.00035227,0.000087
 20,-0.00000043,-0.00031020,-0.00018383,0.00000156,0.25310196,-0.007582
 14,0.00045059,0.00006584,-0.00330281,0.01509809,-0.00021998,-0.0125779
 7,0.00094645,-0.00001618,0.00433617,-0.00058817,-0.00001590,-0.0037886
 5,-0.00162542,0.00002193,0.00275455,0.00225286,-0.00001034,0.24231394,
 -0.34059876,0.00417336,0.00332112,-0.00006837,-0.00002006,-0.00228262,
 0.00003444,-0.00002019,0.00207140,0.00122280,0.00003406,-0.00104792,0.
 00032771,0.00009671,-0.00032454,-0.00103042,-0.00012441,0.00297197,0.0
 0209093,-0.00012636,0.00211550,-0.00315572,0.00004166,-0.00007949,0.00
 004294,-0.00001250,-0.00028641,-0.00003951,0.00000498,-0.00020056,-0.0
 0007404,-0.00000429,-0.22902384,0.32298467,0.00009287,0.00006021,0.004
 26759,0.00012591,-0.00031770,-0.00270559,0.00017153,-0.00000486,0.0002
 1620,-0.00005172,-0.00000753,-0.00071573,0.00003716,0.00001802,0.00004
 692,-0.00002320,0.00001054,0.00170073,-0.00304787,0.00421269,-0.012054
 25,-0.00003762,-0.00000618,-0.00009621,0.00003660,0.00001150,-0.000062
 23,-0.00003526,-0.00001424,-0.00001686,0.00001897,-0.00000552,-0.00001
 639,0.00000129,0.00001783,0.00000335,-0.00006179,-0.00008089,-0.001634
 94,-0.00002621,0.00002699,-0.00105395,0.00000215,-0.00001265,-0.000535
 31,0.00000556,0.00000860,0.00041168,0.00000056,-0.00000772,-0.00050741
 ,0.00280223,-0.00388028,0.01243616,0.00020859,-0.00149476,0.00005057,0
 .00020544,-0.00037191,-0.00001922,0.00002999,0.00064465,-0.00000337,0.
 00038082,-0.00239801,0.00002404,-0.00018974,-0.02941252,-0.00012198,-0
 .00547260,0.00002102,-0.00005712,0.00006462,0.00020312,0.00000920,-0.0
 6347399,-0.02850526,-0.00012700,0.00536090,0.02875107,0.00046599,0.000
 52848,0.00409637,0.00015332,0.00049873,-0.00072636,-0.00007633,-0.0024
 6234,-0.00183608,-0.00057083,0.00009492,0.00004713,-0.00000217,-0.0000
 3230,-0.00008313,0.00000265,-0.00038884,-0.00004729,0.00000970,-0.0012
 2412,0.00106675,-0.00002288,0.00009948,0.00001995,-0.00000285,-0.00005
 403,-0.00003829,-0.00000145,0.06987554,0.00041078,-0.00055954,0.000043
 07,-0.00011479,-0.00006082,0.00000224,0.00016699,0.00042806,0.00001718
 ,0.00173641,0.00161049,0.00008627,0.00091049,-0.00819458,-0.00016634,-
 0.00157848,0.00071995,-0.00016256,0.00015570,0.00006218,-0.00000888,-0
 .02787725,-0.33904844,-0.00212706,-0.00235553,-0.01445876,-0.00035933,
 -0.00025658,-0.00170596,-0.00013537,0.00011254,0.00018900,0.00002176,-
 0.00187103,0.00088043,0.00002352,0.00003907,-0.00006114,-0.00000949,-0
 .00001238,0.00001480,0.00000056,-0.00014628,-0.00000252,0.00001374,-0.
 00034423,0.00048396,-0.00002373,0.00009986,0.00008837,-0.00000355,-0.0
 0002697,0.00001769,-0.00000014,0.02913196,0.35868953,0.00018684,-0.000
 09905,-0.00102928,-0.00016368,0.00001388,0.00047250,0.00003106,0.00012
 947,0.00013968,-0.00013050,0.00000554,-0.00348847,0.00062311,0.0003882
 3,0.00846234,-0.00010369,-0.00005207,0.00614304,0.00015575,0.00002126,
 -0.00011604,-0.00100417,-0.00218732,-0.04829932,0.00100459,-0.00035363
 ,0.00820231,-0.00035660,-0.00043297,-0.00499443,0.00042469,0.00002844,
 0.00008885,-0.00070438,0.00035231,0.00075786,0.00001373,-0.00004465,0.
 00020285,0.00000200,0.00002514,0.00005148,-0.00000250,-0.00000942,-0.0
 0065691,-0.00001789,-0.00000301,0.00031328,-0.00000803,-0.00000882,-0.
 00004642,-0.00001601,0.00002143,0.00006661,-0.00002418,0.00273046,0.02
 668233,0.00011206,-0.00040428,0.00003607,0.00012826,0.00039520,0.00000
 207,-0.00043229,-0.00053781,0.00000577,0.00063272,-0.00023265,-0.00002
 360,-0.00024949,-0.00140538,0.00000370,-0.00134204,0.00131080,-0.00006
 836,-0.00012099,-0.00012738,-0.00000216,0.00764365,0.02824001,0.000745
 06,-0.05790961,0.00608357,0.00016957,0.00394072,-0.03022841,-0.0011118
 9,-0.00022480,0.00010398,0.00001307,-0.00628190,-0.00253971,0.00053953
 ,0.00017618,-0.00015206,0.00000407,0.00002177,0.00011159,-0.00000187,-
 0.00003652,-0.00000637,-0.00000123,0.00016398,-0.00013498,0.00000191,-
 0.00356453,-0.00204116,0.00006501,0.00001603,-0.00001921,-0.00000083,-
 0.00421509,0.00196029,-0.00000014,0.06119880,-0.00014642,0.00030009,0.
 00002657,0.00008343,-0.00000339,0.00001108,-0.00002237,-0.00015189,0.0
 0000771,0.00024275,-0.00016125,0.00000758,-0.00139531,-0.00051392,0.00
 015455,-0.00059425,0.00022470,0.00001126,-0.00019244,-0.00001045,-0.00
 000646,0.00094979,-0.01019649,-0.00032711,-0.00183298,-0.35755237,-0.0
 1005317,0.00281487,-0.01186952,-0.00051998,0.00146521,0.00076853,0.000
 15616,-0.00170409,0.00085276,0.00032843,-0.00001967,0.00007939,-0.0000
 0317,-0.00000518,-0.00004353,-0.00000024,-0.00000043,0.00000097,-0.000
 00123,-0.00001687,0.00006528,-0.00000502,-0.00184032,0.00035390,-0.000
 01569,0.00001248,-0.00002438,-0.00000272,0.00145482,0.00047669,-0.0002
 2446,0.00062694,0.37734563,0.00001541,0.00001849,-0.00021004,-0.000089
 49,-0.00009418,-0.00032764,0.00007891,0.00013710,0.00005373,-0.0001843
 2,0.00006007,-0.00017613,0.00030506,0.00020623,-0.00369209,-0.00000331
 ,-0.00020747,-0.00052345,0.00008053,0.00002663,0.00012586,-0.00074704,
 -0.00008407,0.00260217,0.00076546,-0.01015565,-0.03136225,-0.00058037,
 -0.00095201,-0.00035536,0.00044110,0.00002035,-0.00206548,-0.00034923,
 0.00055815,0.00418267,0.00000914,-0.00002993,0.00004295,-0.00000065,0.
 00001044,0.00002199,0.00000324,0.00000217,0.00013559,-0.00000670,0.000
 00317,0.00010443,0.00014625,0.00010297,0.00128787,-0.00001088,0.000011
 10,0.00004762,0.00009871,0.00007517,0.00704472,0.00013402,0.01079925,0
 .02219468,0.00107430,-0.00046461,0.00001886,-0.00157063,-0.00052117,0.
 00000216,0.00012411,0.00150546,0.00000451,-0.00124961,0.00044350,-0.00
 007310,0.00277799,0.00162476,-0.00006883,-0.00074078,-0.00136312,0.000
 03321,0.00155155,0.00027753,-0.00000610,-0.00546718,-0.00002269,0.0004
 7794,0.00513472,0.00443026,-0.00008274,-0.03975971,-0.02139995,-0.0051
 1668,-0.39631835,-0.17504828,-0.06697237,0.00647393,-0.00308338,0.0003
 2532,0.00048607,-0.00071621,0.00001514,0.00001363,0.00036420,-0.000007
 62,0.00002098,-0.00000040,0.00000014,-0.00004269,-0.00002404,-0.000002
 57,-0.00005120,-0.00003300,-0.00001056,-0.00020819,0.00017013,-0.00000
 332,-0.00014135,0.00005068,-0.00006412,0.00033960,0.00002921,-0.000129
 10,0.42677343,0.00022822,-0.00009900,0.00001668,-0.00029211,-0.0000887
 9,0.00000269,0.00004021,0.00029098,-0.00002813,-0.00025318,0.00014829,
 0.00006615,0.00073504,0.00013403,0.00023784,-0.00019102,-0.00035134,-0
 .00005725,0.00028339,0.00003986,0.00000012,-0.00053928,0.00105338,-0.0
 0049407,0.00340012,-0.00242997,-0.00091698,0.03063253,0.01196802,0.005
 73397,-0.22593413,-0.15180484,-0.04741393,-0.00050769,-0.00009483,-0.0
 0055218,0.00008618,-0.00016578,-0.00000702,0.00001476,0.00009994,-0.00
 000082,0.00000086,0.00000109,-0.00000437,0.00001191,-0.00001727,0.0000
 0410,-0.00000038,0.00002001,-0.00000144,-0.00003164,0.00004405,-0.0000
 0137,0.00002897,0.00000793,-0.00008930,0.00018549,0.00025585,0.0000504
 4,0.19043297,0.14445542,-0.00022400,0.00010407,-0.00005176,0.00031917,
 0.00010435,0.00002929,-0.00006814,-0.00032108,0.00003412,0.00030955,-0
 .00010867,-0.00039416,-0.00068940,-0.00037165,-0.00062157,0.00019613,0
 .00034585,0.00025630,-0.00030666,-0.00005279,-0.00002018,0.00172605,-0
 .00022488,0.00272009,-0.00077245,-0.00089459,0.00342918,0.00781491,0.0
 0197875,-0.00427337,-0.07994146,-0.04349404,-0.01796676,0.00006917,-0.
 00049921,-0.00378946,-0.00007614,0.00014600,0.00004029,-0.00000434,-0.
 00007242,0.00002395,-0.00000209,0.00000029,0.00001414,-0.00000012,0.00
 000982,-0.00001358,0.00000574,-0.00001162,-0.00002977,0.00003758,-0.00
 003901,0.00000905,-0.00003207,-0.00000864,0.00016375,-0.00001943,-0.00
 002695,-0.00098358,0.07203669,0.04251523,0.01898469,0.00077324,-0.0003
 5832,0.00005004,-0.00114992,-0.00042037,0.00000950,0.00011684,0.001127
 55,-0.00002100,-0.00089657,0.00037300,0.00002262,0.00221623,0.00083843
 ,-0.00015390,-0.00062692,-0.00104684,-0.00010673,0.00114780,0.00020898
 ,-0.00000494,-0.00376330,0.00106350,0.00017497,0.00673577,0.00097828,0
 .00118914,-0.00438244,-0.00057155,-0.00157636,0.00066081,0.00446010,0.
 00024025,-0.44945618,-0.18097311,0.08554651,0.00036114,-0.00052877,0.0
 0000032,0.00000922,0.00027162,0.00000125,0.00001086,0.00000090,0.00000
 427,-0.00002652,-0.00002508,0.00000731,-0.00003953,-0.00000881,0.00000
 070,-0.00015362,0.00012685,-0.00000007,0.00030771,-0.00019603,0.000156
 97,0.00002273,0.00008898,0.00002286,0.00082190,0.00167558,-0.00038465,
 0.44734277,0.00069491,-0.00024636,0.00001820,-0.00103964,-0.00031059,0
 .00002186,0.00001172,0.00096240,-0.00000937,-0.00069751,0.00036648,-0.
 00002866,0.00157363,0.00101519,0.00021227,-0.00037403,-0.00087584,-0.0
 0004925,0.00101002,0.00016221,-0.00001103,-0.00171056,0.00057211,0.000
 16331,0.00625643,-0.00494257,-0.00061858,-0.05073057,-0.02386297,0.007
 84716,0.00186403,0.00546896,-0.00060540,-0.13170857,-0.09843246,0.0224
 9894,0.00038445,-0.00059348,0.00000886,0.00003331,0.00033362,-0.000006
 49,0.00001875,0.00000214,-0.00000311,-0.00003692,0.00000012,-0.0000072
 5,-0.00003871,0.00000504,-0.00002598,-0.00013494,0.00012646,-0.0000064
 3,-0.00059393,0.00042234,-0.00020369,-0.00117608,-0.00020772,-0.000552
 87,0.00344129,-0.00344588,0.00090158,0.17298542,0.12354350,0.00024738,
 -0.00012948,-0.00015051,-0.00037193,-0.00016465,-0.00001377,0.00006455
 ,0.00041114,0.00000964,-0.00035028,0.00013232,-0.00007932,0.00082283,0
 .00029645,0.00011605,-0.00021402,-0.00040909,0.00020980,0.00037966,0.0
 0007266,-0.00000111,-0.00155742,0.00062311,-0.00095123,0.00258240,-0.0
 0189664,0.00279871,-0.00787458,-0.00601450,-0.00423055,0.00024991,-0.0
 0028741,-0.00359717,0.09178156,0.03634740,-0.01941312,0.00010285,-0.00
 017188,-0.00001360,0.00000476,0.00008834,0.00003645,0.00000244,0.00000
 090,0.00000683,-0.00000190,-0.00001033,0.00004219,-0.00001064,0.000023
 69,0.00012517,-0.00004881,0.00004421,0.00002408,0.00024724,-0.00000822
 ,-0.00011047,-0.00049031,-0.00031667,0.00186287,-0.00037881,0.00093923
 ,0.00244449,-0.08517778,-0.02954692,0.02089766,-0.00021625,-0.00002169
 ,0.00000365,0.00030929,-0.00036158,0.00000344,0.00125747,-0.00203214,0
 .00002523,-0.00034607,-0.00041796,0.00000784,0.00012103,0.00005025,0.0
 0000193,0.00002195,0.00018235,-0.00000881,0.00005650,0.00015088,-0.000
 00171,0.00019983,-0.00004560,-0.00000626,-0.00018661,0.00000900,0.0000
 0370,0.00022106,0.00009443,0.00000180,-0.00012000,0.00003489,0.0000097
 0,-0.00004768,-0.00009169,-0.00001434,0.00840597,-0.00377139,0.0000789
 2,-0.30799251,0.10134102,-0.00196159,0.00001692,-0.00001508,0.00000011
 ,0.00024612,0.00033988,-0.00000219,0.00000653,0.00002487,-0.00000004,-
 0.00004336,-0.00008154,0.00000154,0.00002811,0.00000217,0.00000135,0.0
 0000001,-0.00000006,0.00000026,0.00002282,0.00000263,-0.00000318,0.000
 01707,0.00001723,0.00000517,0.31988825,-0.00051121,-0.00039957,0.00000
 793,0.00211923,-0.00075395,0.00001008,-0.00259710,-0.00505145,0.000126
 21,-0.00115807,-0.00047380,0.00000859,0.00060691,0.00026631,-0.0000037
 9,0.00001989,0.00010289,-0.00000670,-0.00034915,0.00014539,-0.00000335
 ,-0.00027896,-0.00012900,0.00000490,0.00028820,0.00002816,0.00000389,-
 0.00025357,-0.00016634,-0.00000677,0.00013465,-0.00003918,-0.00001159,
 0.00004476,0.00014382,0.00001659,0.03695013,-0.02888623,0.00047808,0.0
 8540905,-0.07928292,0.00053812,0.00012552,-0.00008708,0.00000097,0.000
 19633,0.00051044,-0.00001459,0.00002176,0.00003360,-0.00000068,0.00021
 994,-0.00022448,0.00000702,0.00002799,-0.00000007,-0.00000172,-0.00000
 789,0.00000439,-0.00000128,-0.00001977,-0.00000615,0.00000477,-0.00001
 494,-0.00001609,-0.00000542,-0.10413039,0.10365152,0.00001065,0.000006
 13,-0.00003827,-0.00003274,0.00002337,0.00031122,0.00005450,0.00008117
 ,0.00053745,0.00001927,0.00000974,0.00021248,-0.00001144,-0.00000107,0
 .00013301,-0.00000063,-0.00000528,-0.00002169,0.00000341,-0.00000597,-
 0.00013517,0.00000255,0.00000287,0.00001954,-0.00000341,-0.00000154,0.
 00000640,0.00000221,0.00000305,-0.00000759,-0.00000180,0.00000111,-0.0
 0000090,0.00000049,-0.00000217,0.00000264,-0.00061602,0.00048537,0.000
 03450,-0.00170649,0.00054182,-0.05114020,-0.00000202,0.00000091,-0.000
 02692,0.00000383,-0.00002334,-0.00045884,-0.00000052,-0.00000096,-0.00
 001620,-0.00000335,0.00000637,0.00019684,0.00000004,-0.00000039,-0.000
 00922,0.00000009,0.,-0.00000138,0.00000027,-0.00000011,0.00000217,-0.0
 0000029,0.00000051,-0.00000008,0.00202954,-0.00101201,0.04660111,0.000
 22536,0.00003608,-0.00001394,0.00037174,0.00020934,-0.00028446,0.00067
 186,0.00094458,0.00129864,0.00025838,-0.00074328,0.00012919,-0.0000980
 2,0.00024668,-0.00041850,0.00005911,-0.00036573,-0.00003594,-0.0002840
 7,-0.00012110,0.00011439,-0.00022328,0.00002455,0.00002571,0.00028344,
 0.00000203,0.00000230,-0.00032865,-0.00015298,0.00000078,0.00018258,-0
 .00005166,-0.00001455,0.00007218,0.00014887,0.00002150,0.00014037,-0.0
 0557456,-0.00051990,-0.11510551,-0.03554223,-0.10611339,0.00001635,-0.
 00001492,0.00000888,-0.00074346,0.00067875,0.00103263,0.00000204,-0.00
 000770,0.00004759,0.00011982,0.00022366,-0.00014263,-0.00001580,0.0000
 0236,-0.00000198,-0.00000962,0.00000094,-0.00000178,-0.00003294,-0.000
 00456,0.00000234,-0.00002451,-0.00002525,-0.00000894,-0.01091592,-0.00
 885068,-0.02525283,0.11681703,-0.00059500,0.00009354,0.00008565,-0.000
 40352,-0.00177787,0.00068597,-0.00607445,0.00463133,-0.00172931,0.0004
 6950,0.00065282,0.00028517,0.00068599,-0.00015195,0.00026696,0.0004021
 6,0.00031874,0.00005818,0.00082623,-0.00030054,0.00009963,-0.00044859,
 -0.00013768,-0.00002241,0.00044068,0.00002371,0.00001150,-0.00041149,-
 0.00023063,-0.00000795,0.00022831,-0.00007542,-0.00001774,0.00007055,0
 .00020529,0.00002838,-0.01718709,-0.03288952,-0.02887384,-0.03205636,-
 0.06825508,-0.05627690,0.00002023,-0.00001084,-0.00007531,0.00085082,-
 0.00036764,-0.00088717,0.00001761,0.00001673,-0.00004480,0.00039055,0.
 00089230,-0.00032829,0.00000923,-0.00000043,-0.00001324,-0.00000270,0.
 00000344,-0.00000239,-0.00003639,-0.00000761,0.00000666,-0.00002785,-0
 .00002300,-0.00000825,0.00438723,0.00550744,0.00997876,0.04341517,0.08
 686942,-0.00016454,0.00011147,-0.00001956,0.00019469,-0.00056754,-0.00
 023442,-0.00080097,0.00088945,0.00060785,-0.00084897,-0.00091514,-0.00
 019070,0.00036469,0.00032980,-0.00014791,0.00005704,0.00008939,-0.0000
 4605,0.00017328,0.00018120,0.00002655,-0.00002948,-0.00011865,0.000023
 59,0.00003222,0.00003172,0.00000701,0.00001052,-0.00007727,-0.00000990
 ,-0.00001964,0.00001585,0.00000302,-0.00000290,0.00005712,0.00001131,0
 .00329902,-0.00279784,0.00785397,-0.10676664,-0.06211709,-0.23760760,0
 .00000857,-0.00000464,0.00001407,0.00068910,0.00008399,-0.00008339,0.0
 0001487,0.00005536,0.00001230,-0.00001253,0.00010033,-0.00001024,0.000
 05440,-0.00000626,-0.00001990,-0.00001035,0.00000545,-0.00000520,0.000
 00727,-0.00000539,-0.00000220,0.00000419,-0.00000572,-0.00000676,0.001
 83789,0.00101563,0.00168758,0.11608451,0.07060896,0.24681081,0.0002293
 0,0.00003636,0.00000109,0.00036737,0.00021754,0.00027718,0.00067129,0.
 00092031,-0.00134663,0.00010875,-0.00066429,-0.00011525,-0.00008641,0.
 00027917,0.00039639,0.00005117,-0.00036488,0.00006592,-0.00028018,-0.0
 0012529,-0.00010861,-0.00021931,0.00002054,-0.00001865,0.00028116,0.00
 000278,-0.00001080,-0.00032504,-0.00015065,-0.00000906,0.00018014,-0.0
 0005049,-0.00001245,0.00007151,0.00014593,0.00002234,0.00009222,-0.005
 55796,0.00073943,-0.11566096,-0.03168327,0.10740634,0.00001675,-0.0000
 1539,-0.00000765,-0.00096060,0.00078434,-0.00108152,0.00000272,-0.0000
 0739,-0.00004746,0.00011953,0.00023070,0.00013560,-0.00001313,0.000000
 23,-0.00000223,-0.00000962,0.00000097,0.00000190,-0.00003241,-0.000004
 89,0.00000681,-0.00002456,-0.00002447,-0.00000534,-0.01095054,-0.00799
 264,0.02550467,0.00856153,0.00502916,-0.01417624,0.11780931,-0.0005944
 0,0.00008920,-0.00009242,-0.00041909,-0.00178064,-0.00063604,-0.006044
 23,0.00467061,0.00161914,0.00058784,0.00061656,-0.00030006,0.00066553,
 -0.00018343,-0.00026285,0.00040618,0.00031777,-0.00006245,0.00082031,-
 0.00030792,-0.00009236,-0.00044628,-0.00013385,0.00004014,0.00043919,0
 .00002245,-0.00001730,-0.00041164,-0.00022764,0.00000039,0.00022940,-0
 .00007573,-0.00002258,0.00006887,0.00020433,0.00002307,-0.01730335,-0.
 03182378,0.03015287,-0.02812036,-0.06435689,0.05037696,0.00001876,-0.0
 0000737,0.00007561,0.00093231,-0.00040631,0.00090489,0.00001671,0.0000
 1535,0.00004362,0.00038856,0.00089727,0.00030311,0.00000451,0.00000085
 ,0.00000717,-0.00000183,0.00000330,-0.00000189,-0.00003697,-0.00000741
 ,0.00000818,-0.00002752,-0.00002362,-0.00001000,0.00433229,0.00512235,
 -0.01008835,0.00552163,0.00501346,-0.00696016,0.03897358,0.08236109,0.
 00018705,-0.00011674,-0.00001732,-0.00018465,0.00062901,-0.00022413,0.
 00101256,-0.00103678,0.00058696,0.00082333,0.00089738,-0.00021684,-0.0
 0038739,-0.00033074,-0.00012185,-0.00007305,-0.00010082,-0.00004305,-0
 .00020193,-0.00017071,0.00003479,0.00004284,0.00012568,0.00002281,-0.0
 0004745,-0.00003208,0.00001072,0.00000205,0.00008019,-0.00000375,0.000
 01003,-0.00001222,0.00000214,0.00000302,-0.00006209,0.00000537,-0.0026
 9905,0.00416518,0.00670413,0.10790712,0.05620679,-0.24101901,-0.000009
 30,0.00000560,0.00001211,-0.00072400,-0.00008259,-0.00011200,-0.000015
 74,-0.00005561,0.00001217,-0.00000102,-0.00013246,-0.00001772,-0.00005
 444,0.00000599,-0.00002111,0.00001022,-0.00000518,-0.00000459,-0.00000
 560,0.00000593,-0.00000510,-0.00000519,0.00000806,-0.00000623,-0.00201
 396,-0.00115489,0.00211152,0.01404035,0.00617178,-0.01867421,-0.117615
 78,-0.06500868,0.25098420\\0.00000961,-0.00000356,0.00000087,-0.000013
 24,-0.00001964,0.00000384,-0.00000560,0.00001620,-0.00000415,-0.000009
 99,-0.00000451,0.00000007,0.00001499,0.00000442,0.00000166,-0.00000057
 ,-0.00000192,-0.00000055,0.00001534,0.00000401,0.00000044,-0.00001792,
 0.00000198,0.00000122,0.00001493,0.00000170,-0.00000231,-0.00000825,-0
 .00000277,-0.00000091,0.00000506,0.00001105,0.00000056,0.00000133,0.00
 001372,-0.00000171,0.00000814,-0.00001109,0.00000540,-0.00000433,-0.00
 000669,-0.00000191,0.00000364,-0.00000239,0.00000145,-0.00000084,-0.00
 000073,-0.00000007,0.00000458,0.00000125,0.00000118,-0.00000017,-0.000
 00993,0.00000104,0.00000031,0.00000262,-0.00000153,0.00000140,0.000004
 99,-0.00000076,-0.00000028,0.00000749,-0.00000174,-0.00000431,0.000007
 38,-0.00000176,-0.00000412,-0.00000562,-0.00000015,-0.00000517,-0.0000
 0330,-0.00000007,-0.00000454,-0.00000464,-0.00000011\\\@


 SOME THINGS ARE EASY, THEY ARE ONLY HARD TO DO.
            -- A. EINSTEIN TO J. O. HIRSCHFELDER
 THE ONLY TROUBLE WITH A SURE THING IS THE UNCERTAINTY.
     -- FROM A TEABAG (BELONGING TO W.H.?)
 Job cpu time:       0 days  1 hours 58 minutes 18.2 seconds.
 File lengths (MBytes):  RWF=    264 Int=      0 D2E=      0 Chk=      9 Scr=      1
 Normal termination of Gaussian 09 at Tue May 28 18:35:50 2024.
