 Entering Gaussian System, Link 0=g09
 Input=ccpvTZ3HPA2.gjf
 Output=ccpvTZ3HPA2.log
 Initial command:
 /home/c612/g09E/g09/l1.exe "/mnt/ja_sm883/scratch/Gau-1984714.inp" -scrdir="/mnt/ja_sm883/scratch/"
 Default is to use a total of  18 processors:
                               18 via shared-memory
                                1 via Linda
 Entering Link 1 = /home/c612/g09E/g09/l1.exe PID=   1984716.
  
 Copyright (c) 1988,1990,1992,1993,1995,1998,2003,2009,2015,
            Gaussian, Inc.  All Rights Reserved.
  
 This is part of the Gaussian(R) 09 program.  It is based on
 the Gaussian(R) 03 system (copyright 2003, Gaussian, Inc.),
 the Gaussian(R) 98 system (copyright 1998, Gaussian, Inc.),
 the Gaussian(R) 94 system (copyright 1995, Gaussian, Inc.),
 the Gaussian 92(TM) system (copyright 1992, Gaussian, Inc.),
 the Gaussian 90(TM) system (copyright 1990, Gaussian, Inc.),
 the Gaussian 88(TM) system (copyright 1988, Gaussian, Inc.),
 the Gaussian 86(TM) system (copyright 1986, Carnegie Mellon
 University), and the Gaussian 82(TM) system (copyright 1983,
 Carnegie Mellon University). Gaussian is a federally registered
 trademark of Gaussian, Inc.
  
 This software contains proprietary and confidential information,
 including trade secrets, belonging to Gaussian, Inc.
  
 This software is provided under written license and may be
 used, copied, transmitted, or stored only in accord with that
 written license.
  
 The following legend is applicable only to US Government
 contracts under FAR:
  
                    RESTRICTED RIGHTS LEGEND
  
 Use, reproduction and disclosure by the US Government is
 subject to restrictions as set forth in subparagraphs (a)
 and (c) of the Commercial Computer Software - Restricted
 Rights clause in FAR 52.227-19.
  
 Gaussian, Inc.
 340 Quinnipiac St., Bldg. 40, Wallingford CT 06492
  
  
 ---------------------------------------------------------------
 Warning -- This program may not be used in any manner that
 competes with the business of Gaussian, Inc. or will provide
 assistance to any competitor of Gaussian, Inc.  The licensee
 of this program is prohibited from giving any competitor of
 Gaussian, Inc. access to this program.  By using this program,
 the user acknowledges that Gaussian, Inc. is engaged in the
 business of creating and licensing software in the field of
 computational chemistry and represents and warrants to the
 licensee that it is not a competitor of Gaussian, Inc. and that
 it will not use this program in any manner prohibited above.
 ---------------------------------------------------------------
  

 Cite this work as:
 Gaussian 09, Revision E.01,
 M. J. Frisch, G. W. Trucks, H. B. Schlegel, G. E. Scuseria, 
 M. A. Robb, J. R. Cheeseman, G. Scalmani, V. Barone, B. Mennucci, 
 G. A. Petersson, H. Nakatsuji, M. Caricato, X. Li, H. P. Hratchian, 
 A. F. Izmaylov, J. Bloino, G. Zheng, J. L. Sonnenberg, M. Hada, 
 M. Ehara, K. Toyota, R. Fukuda, J. Hasegawa, M. Ishida, T. Nakajima, 
 Y. Honda, O. Kitao, H. Nakai, T. Vreven, J. A. Montgomery, Jr., 
 J. E. Peralta, F. Ogliaro, M. Bearpark, J. J. Heyd, E. Brothers, 
 K. N. Kudin, V. N. Staroverov, T. Keith, R. Kobayashi, J. Normand, 
 K. Raghavachari, A. Rendell, J. C. Burant, S. S. Iyengar, J. Tomasi, 
 M. Cossi, N. Rega, J. M. Millam, M. Klene, J. E. Knox, J. B. Cross, 
 V. Bakken, C. Adamo, J. Jaramillo, R. Gomperts, R. E. Stratmann, 
 O. Yazyev, A. J. Austin, R. Cammi, C. Pomelli, J. W. Ochterski, 
 R. L. Martin, K. Morokuma, V. G. Zakrzewski, G. A. Voth, 
 P. Salvador, J. J. Dannenberg, S. Dapprich, A. D. Daniels, 
 O. Farkas, J. B. Foresman, J. V. Ortiz, J. Cioslowski, 
 and D. J. Fox, Gaussian, Inc., Wallingford CT, 2013.
 
 ******************************************
 Gaussian 09:  ES64L-G09RevE.01 30-Nov-2015
                19-Dec-2024 
 ******************************************
 %chk=ccpvTZ3HPA2.chk
 ------------------------
 # opt freq m062x/cc-pvtz
 ------------------------
 1/14=-1,18=20,19=15,26=3,38=1/1,3;
 2/9=110,12=2,17=6,18=5,40=1/2;
 3/5=16,6=1,11=2,16=1,25=1,30=1,71=1,74=-55/1,2,3;
 4//1;
 5/5=2,38=5/2;
 6/7=2,8=2,9=2,10=2,28=1/1;
 7//1,2,3,16;
 1/14=-1,18=20,19=15,26=3/3(2);
 2/9=110/2;
 99//99;
 2/9=110/2;
 3/5=16,6=1,11=2,16=1,25=1,30=1,71=1,74=-55/1,2,3;
 4/5=5,16=3,69=1/1;
 5/5=2,38=5/2;
 7//1,2,3,16;
 1/14=-1,18=20,19=15,26=3/3(-5);
 2/9=110/2;
 6/7=2,8=2,9=2,10=2,19=2,28=1/1;
 99/9=1/99;
 ----------
 [No Title]
 ----------
 Symbolic Z-matrix:
 Charge =  1 Multiplicity = 1
 N                    -0.50491  -1.34741  -0.00006 
 C                    -1.83067  -1.42167  -0.00002 
 C                    -2.56395  -0.23077   0.00007 
 C                    -1.89865   0.97787   0.0001 
 C                    -0.48462   1.02139   0.00005 
 C                     0.2037   -0.19319  -0.00003 
 C                     1.68112  -0.42129  -0.00009 
 O                     2.14519  -1.52702  -0.00012 
 O                     2.3723    0.72285  0. 
 O                     0.08359   2.2177    0.00009 
 H                     0.06984  -2.1969   -0.00012 
 H                    -2.2765   -2.41298  -0.00005 
 H                    -3.65055  -0.27346   0.0001 
 H                    -2.43668   1.92568   0.00016 
 H                     3.32535   0.5269   -0.00001 
 H                     1.05262   2.16038   0.00006 
 

 GradGradGradGradGradGradGradGradGradGradGradGradGradGradGradGradGradGrad
 Berny optimization.
 Initialization pass.
                           ----------------------------
                           !    Initial Parameters    !
                           ! (Angstroms and Degrees)  !
 --------------------------                            --------------------------
 ! Name  Definition              Value          Derivative Info.                !
 --------------------------------------------------------------------------------
 ! R1    R(1,2)                  1.3278         estimate D2E/DX2                !
 ! R2    R(1,6)                  1.3544         estimate D2E/DX2                !
 ! R3    R(1,11)                 1.0257         estimate D2E/DX2                !
 ! R4    R(2,3)                  1.3985         estimate D2E/DX2                !
 ! R5    R(2,12)                 1.087          estimate D2E/DX2                !
 ! R6    R(3,4)                  1.3796         estimate D2E/DX2                !
 ! R7    R(3,13)                 1.0874         estimate D2E/DX2                !
 ! R8    R(4,5)                  1.4147         estimate D2E/DX2                !
 ! R9    R(4,14)                 1.0899         estimate D2E/DX2                !
 ! R10   R(5,6)                  1.3961         estimate D2E/DX2                !
 ! R11   R(5,10)                 1.3244         estimate D2E/DX2                !
 ! R12   R(6,7)                  1.4949         estimate D2E/DX2                !
 ! R13   R(7,8)                  1.1992         estimate D2E/DX2                !
 ! R14   R(7,9)                  1.3367         estimate D2E/DX2                !
 ! R15   R(9,15)                 0.973          estimate D2E/DX2                !
 ! R16   R(10,16)                0.9707         estimate D2E/DX2                !
 ! A1    A(2,1,6)              124.7526         estimate D2E/DX2                !
 ! A2    A(2,1,11)             120.8759         estimate D2E/DX2                !
 ! A3    A(6,1,11)             114.3715         estimate D2E/DX2                !
 ! A4    A(1,2,3)              118.4165         estimate D2E/DX2                !
 ! A5    A(1,2,12)             117.4209         estimate D2E/DX2                !
 ! A6    A(3,2,12)             124.1626         estimate D2E/DX2                !
 ! A7    A(2,3,4)              119.547          estimate D2E/DX2                !
 ! A8    A(2,3,13)             119.3723         estimate D2E/DX2                !
 ! A9    A(4,3,13)             121.0807         estimate D2E/DX2                !
 ! A10   A(3,4,5)              120.5936         estimate D2E/DX2                !
 ! A11   A(3,4,14)             121.5874         estimate D2E/DX2                !
 ! A12   A(5,4,14)             117.819          estimate D2E/DX2                !
 ! A13   A(4,5,6)              117.7781         estimate D2E/DX2                !
 ! A14   A(4,5,10)             117.1688         estimate D2E/DX2                !
 ! A15   A(6,5,10)             125.0532         estimate D2E/DX2                !
 ! A16   A(1,6,5)              118.9122         estimate D2E/DX2                !
 ! A17   A(1,6,7)              112.7701         estimate D2E/DX2                !
 ! A18   A(5,6,7)              128.3177         estimate D2E/DX2                !
 ! A19   A(6,7,8)              121.5445         estimate D2E/DX2                !
 ! A20   A(6,7,9)              112.3598         estimate D2E/DX2                !
 ! A21   A(8,7,9)              126.0958         estimate D2E/DX2                !
 ! A22   A(7,9,15)             109.5186         estimate D2E/DX2                !
 ! A23   A(5,10,16)            112.0207         estimate D2E/DX2                !
 ! D1    D(6,1,2,3)              0.0            estimate D2E/DX2                !
 ! D2    D(6,1,2,12)           179.9998         estimate D2E/DX2                !
 ! D3    D(11,1,2,3)          -179.9997         estimate D2E/DX2                !
 ! D4    D(11,1,2,12)            0.0001         estimate D2E/DX2                !
 ! D5    D(2,1,6,5)             -0.0001         estimate D2E/DX2                !
 ! D6    D(2,1,6,7)           -179.9998         estimate D2E/DX2                !
 ! D7    D(11,1,6,5)           179.9996         estimate D2E/DX2                !
 ! D8    D(11,1,6,7)            -0.0001         estimate D2E/DX2                !
 ! D9    D(1,2,3,4)              0.0001         estimate D2E/DX2                !
 ! D10   D(1,2,3,13)          -180.0            estimate D2E/DX2                !
 ! D11   D(12,2,3,4)          -179.9997         estimate D2E/DX2                !
 ! D12   D(12,2,3,13)            0.0002         estimate D2E/DX2                !
 ! D13   D(2,3,4,5)             -0.0001         estimate D2E/DX2                !
 ! D14   D(2,3,4,14)          -180.0            estimate D2E/DX2                !
 ! D15   D(13,3,4,5)           179.9999         estimate D2E/DX2                !
 ! D16   D(13,3,4,14)            0.0001         estimate D2E/DX2                !
 ! D17   D(3,4,5,6)              0.0            estimate D2E/DX2                !
 ! D18   D(3,4,5,10)          -180.0            estimate D2E/DX2                !
 ! D19   D(14,4,5,6)           179.9999         estimate D2E/DX2                !
 ! D20   D(14,4,5,10)           -0.0001         estimate D2E/DX2                !
 ! D21   D(4,5,6,1)              0.0001         estimate D2E/DX2                !
 ! D22   D(4,5,6,7)            179.9997         estimate D2E/DX2                !
 ! D23   D(10,5,6,1)          -179.9999         estimate D2E/DX2                !
 ! D24   D(10,5,6,7)            -0.0002         estimate D2E/DX2                !
 ! D25   D(4,5,10,16)          179.9999         estimate D2E/DX2                !
 ! D26   D(6,5,10,16)           -0.0001         estimate D2E/DX2                !
 ! D27   D(1,6,7,8)             -0.0026         estimate D2E/DX2                !
 ! D28   D(1,6,7,9)           -179.9975         estimate D2E/DX2                !
 ! D29   D(5,6,7,8)            179.9977         estimate D2E/DX2                !
 ! D30   D(5,6,7,9)              0.0028         estimate D2E/DX2                !
 ! D31   D(6,7,9,15)           179.9975         estimate D2E/DX2                !
 ! D32   D(8,7,9,15)             0.0029         estimate D2E/DX2                !
 --------------------------------------------------------------------------------
 Trust Radius=3.00D-01 FncErr=1.00D-07 GrdErr=1.00D-06
 Number of steps in this run=     81 maximum allowed number of steps=    100.
 GradGradGradGradGradGradGradGradGradGradGradGradGradGradGradGradGradGrad

                          Input orientation:                          
 ---------------------------------------------------------------------
 Center     Atomic      Atomic             Coordinates (Angstroms)
 Number     Number       Type             X           Y           Z
 ---------------------------------------------------------------------
      1          7           0       -0.504910   -1.347412   -0.000058
      2          6           0       -1.830669   -1.421665   -0.000017
      3          6           0       -2.563949   -0.230767    0.000065
      4          6           0       -1.898649    0.977869    0.000099
      5          6           0       -0.484615    1.021388    0.000054
      6          6           0        0.203702   -0.193186   -0.000026
      7          6           0        1.681119   -0.421291   -0.000091
      8          8           0        2.145190   -1.527022   -0.000116
      9          8           0        2.372304    0.722845   -0.000004
     10          8           0        0.083588    2.217699    0.000091
     11          1           0        0.069841   -2.196904   -0.000123
     12          1           0       -2.276501   -2.412982   -0.000053
     13          1           0       -3.650549   -0.273457    0.000100
     14          1           0       -2.436684    1.925683    0.000163
     15          1           0        3.325350    0.526901   -0.000010
     16          1           0        1.052621    2.160377    0.000057
 ---------------------------------------------------------------------
                    Distance matrix (angstroms):
                    1          2          3          4          5
     1  N    0.000000
     2  C    1.327837   0.000000
     3  C    2.342336   1.398548   0.000000
     4  C    2.710985   2.400497   1.379647   0.000000
     5  C    2.368887   2.789331   2.427246   1.414704   0.000000
     6  C    1.354389   2.376516   2.767906   2.406502   1.396055
     7  C    2.374115   3.651493   4.249341   3.843486   2.602254
     8  O    2.656180   3.977255   4.884288   4.756796   3.662003
     9  O    3.544619   4.718464   5.027521   4.278560   2.872475
    10  O    3.613357   4.112098   3.606167   2.338042   1.324392
    11  H    1.025659   2.052543   3.286722   3.735524   3.265704
    12  H    2.067359   1.086957   2.201065   3.411839   3.873726
    13  H    3.323917   2.151824   1.087438   2.152898   3.420491
    14  H    3.800645   3.401763   2.160202   1.089878   2.151354
    15  H    4.264263   5.511936   5.937837   5.243428   3.841920
    16  H    3.838032   4.598303   4.335568   3.179358   1.913215
                    6          7          8          9         10
     6  C    0.000000
     7  C    1.494922   0.000000
     8  O    2.355524   1.199168   0.000000
     9  O    2.354134   1.336706   2.261301   0.000000
    10  O    2.413875   3.084862   4.274709   2.733644   0.000000
    11  H    2.008184   2.397711   2.180783   3.718369   4.414624
    12  H    3.328498   4.430529   4.509576   5.607566   5.197425
    13  H    3.855087   5.333717   5.929757   6.104701   4.488835
    14  H    3.385446   4.739682   5.737137   4.957135   2.537133
    15  H    3.203625   1.898042   2.368835   0.972980   3.656203
    16  H    2.501984   2.657070   3.845857   1.951425   0.970727
                   11         12         13         14         15
    11  H    0.000000
    12  H    2.356270   0.000000
    13  H    4.188192   2.542750   0.000000
    14  H    4.824769   4.341621   2.511909   0.000000
    15  H    4.244697   6.326424   7.021662   5.929387   0.000000
    16  H    4.466739   5.656736   5.295598   3.497189   2.798846
                   16
    16  H    0.000000
 Stoichiometry    C6H6NO3(1+)
 Framework group  C1[X(C6H6NO3)]
 Deg. of freedom    42
 Full point group                 C1      NOp   1
 Largest Abelian subgroup         C1      NOp   1
 Largest concise Abelian subgroup C1      NOp   1
                         Standard orientation:                         
 ---------------------------------------------------------------------
 Center     Atomic      Atomic             Coordinates (Angstroms)
 Number     Number       Type             X           Y           Z
 ---------------------------------------------------------------------
      1          7           0       -0.504910   -1.347412   -0.000058
      2          6           0       -1.830669   -1.421665   -0.000017
      3          6           0       -2.563949   -0.230767    0.000065
      4          6           0       -1.898649    0.977869    0.000099
      5          6           0       -0.484615    1.021388    0.000054
      6          6           0        0.203702   -0.193186   -0.000026
      7          6           0        1.681119   -0.421291   -0.000091
      8          8           0        2.145190   -1.527022   -0.000116
      9          8           0        2.372304    0.722845   -0.000004
     10          8           0        0.083588    2.217699    0.000091
     11          1           0        0.069841   -2.196904   -0.000123
     12          1           0       -2.276501   -2.412982   -0.000053
     13          1           0       -3.650549   -0.273457    0.000100
     14          1           0       -2.436684    1.925683    0.000163
     15          1           0        3.325350    0.526901   -0.000010
     16          1           0        1.052621    2.160377    0.000057
 ---------------------------------------------------------------------
 Rotational constants (GHZ):      2.2913230      1.2513559      0.8093481
 Standard basis: CC-pVTZ (5D, 7F)
 There are   440 symmetry adapted cartesian basis functions of A   symmetry.
 There are   384 symmetry adapted basis functions of A   symmetry.
   384 basis functions,   622 primitive gaussians,   440 cartesian basis functions
    36 alpha electrons       36 beta electrons
       nuclear repulsion energy       521.9639651550 Hartrees.
 NAtoms=   16 NActive=   16 NUniq=   16 SFac= 1.00D+00 NAtFMM=   60 NAOKFM=F Big=F
 Integral buffers will be    131072 words long.
 Raffenetti 2 integral format.
 Two-electron integral symmetry is turned on.
 One-electron integrals computed using PRISM.
 NBasis=   384 RedAO= T EigKep=  7.91D-05  NBF=   384
 NBsUse=   384 1.00D-06 EigRej= -1.00D+00 NBFU=   384
 ExpMin= 1.03D-01 ExpMax= 1.53D+04 ExpMxC= 5.22D+02 IAcc=1 IRadAn=         1 AccDes= 0.00D+00
 Harris functional with IExCor= 1009 and IRadAn=       1 diagonalized for initial guess.
 HarFok:  IExCor= 1009 AccDes= 0.00D+00 IRadAn=         1 IDoV= 1 UseB2=F ITyADJ=14
 ICtDFT=  3500011 ScaDFX=  1.000000  1.000000  1.000000  1.000000
 FoFCou: FMM=F IPFlag=           0 FMFlag=      100000 FMFlg1=           0
         NFxFlg=           0 DoJE=T BraDBF=F KetDBF=T FulRan=T
         wScrn=  0.000000 ICntrl=     500 IOpCl=  0 I1Cent=   200000004 NGrid=           0
         NMat0=    1 NMatS0=      1 NMatT0=    0 NMatD0=    1 NMtDS0=    0 NMtDT0=    0
 Petite list used in FoFCou.
 Requested convergence on RMS density matrix=1.00D-08 within 128 cycles.
 Requested convergence on MAX density matrix=1.00D-06.
 Requested convergence on             energy=1.00D-06.
 No special actions if energy rises.
 Integral accuracy reduced to 1.0D-05 until final iterations.
 Initial convergence to 1.0D-05 achieved.  Increase integral accuracy.
 SCF Done:  E(RM062X) =  -512.447156271     A.U. after   15 cycles
            NFock= 15  Conv=0.50D-08     -V/T= 2.0057

 **********************************************************************

            Population analysis using the SCF density.

 **********************************************************************

 Orbital symmetries:
       Occupied  (A) (A) (A) (A) (A) (A) (A) (A) (A) (A) (A) (A)
                 (A) (A) (A) (A) (A) (A) (A) (A) (A) (A) (A) (A)
                 (A) (A) (A) (A) (A) (A) (A) (A) (A) (A) (A) (A)
       Virtual   (A) (A) (A) (A) (A) (A) (A) (A) (A) (A) (A) (A)
                 (A) (A) (A) (A) (A) (A) (A) (A) (A) (A) (A) (A)
                 (A) (A) (A) (A) (A) (A) (A) (A) (A) (A) (A) (A)
                 (A) (A) (A) (A) (A) (A) (A) (A) (A) (A) (A) (A)
                 (A) (A) (A) (A) (A) (A) (A) (A) (A) (A) (A) (A)
                 (A) (A) (A) (A) (A) (A) (A) (A) (A) (A) (A) (A)
                 (A) (A) (A) (A) (A) (A) (A) (A) (A) (A) (A) (A)
                 (A) (A) (A) (A) (A) (A) (A) (A) (A) (A) (A) (A)
                 (A) (A) (A) (A) (A) (A) (A) (A) (A) (A) (A) (A)
                 (A) (A) (A) (A) (A) (A) (A) (A) (A) (A) (A) (A)
                 (A) (A) (A) (A) (A) (A) (A) (A) (A) (A) (A) (A)
                 (A) (A) (A) (A) (A) (A) (A) (A) (A) (A) (A) (A)
                 (A) (A) (A) (A) (A) (A) (A) (A) (A) (A) (A) (A)
                 (A) (A) (A) (A) (A) (A) (A) (A) (A) (A) (A) (A)
                 (A) (A) (A) (A) (A) (A) (A) (A) (A) (A) (A) (A)
                 (A) (A) (A) (A) (A) (A) (A) (A) (A) (A) (A) (A)
                 (A) (A) (A) (A) (A) (A) (A) (A) (A) (A) (A) (A)
                 (A) (A) (A) (A) (A) (A) (A) (A) (A) (A) (A) (A)
                 (A) (A) (A) (A) (A) (A) (A) (A) (A) (A) (A) (A)
                 (A) (A) (A) (A) (A) (A) (A) (A) (A) (A) (A) (A)
                 (A) (A) (A) (A) (A) (A) (A) (A) (A) (A) (A) (A)
                 (A) (A) (A) (A) (A) (A) (A) (A) (A) (A) (A) (A)
                 (A) (A) (A) (A) (A) (A) (A) (A) (A) (A) (A) (A)
                 (A) (A) (A) (A) (A) (A) (A) (A) (A) (A) (A) (A)
                 (A) (A) (A) (A) (A) (A) (A) (A) (A) (A) (A) (A)
                 (A) (A) (A) (A) (A) (A) (A) (A) (A) (A) (A) (A)
                 (A) (A) (A) (A) (A) (A) (A) (A) (A) (A) (A) (A)
                 (A) (A) (A) (A) (A) (A) (A) (A) (A) (A) (A) (A)
                 (A) (A) (A) (A) (A) (A) (A) (A) (A) (A) (A) (A)
 The electronic state is 1-A.
 Alpha  occ. eigenvalues --  -19.86350 -19.84174 -19.80671 -15.04587 -10.87624
 Alpha  occ. eigenvalues --  -10.83060 -10.80901 -10.80691 -10.76371 -10.76060
 Alpha  occ. eigenvalues --   -1.43138  -1.38675  -1.34425  -1.31929  -1.12159
 Alpha  occ. eigenvalues --   -1.09649  -0.98144  -0.94871  -0.91874  -0.86037
 Alpha  occ. eigenvalues --   -0.83019  -0.79232  -0.76664  -0.76174  -0.75124
 Alpha  occ. eigenvalues --   -0.74171  -0.70500  -0.68701  -0.67229  -0.66733
 Alpha  occ. eigenvalues --   -0.65824  -0.61541  -0.58964  -0.55724  -0.55263
 Alpha  occ. eigenvalues --   -0.49892
 Alpha virt. eigenvalues --   -0.23851  -0.18591  -0.09768  -0.09683  -0.08021
 Alpha virt. eigenvalues --   -0.05411  -0.03539  -0.03314  -0.00300   0.00871
 Alpha virt. eigenvalues --    0.02341   0.04276   0.05183   0.07246   0.09005
 Alpha virt. eigenvalues --    0.10844   0.11987   0.13316   0.14265   0.15597
 Alpha virt. eigenvalues --    0.15908   0.16540   0.17859   0.18550   0.20313
 Alpha virt. eigenvalues --    0.21727   0.22154   0.24128   0.25273   0.26756
 Alpha virt. eigenvalues --    0.27871   0.27887   0.28891   0.29355   0.31187
 Alpha virt. eigenvalues --    0.32534   0.32923   0.33649   0.34364   0.37268
 Alpha virt. eigenvalues --    0.38931   0.40593   0.41132   0.43285   0.44353
 Alpha virt. eigenvalues --    0.45239   0.45953   0.48554   0.48931   0.49391
 Alpha virt. eigenvalues --    0.50476   0.52827   0.53989   0.54800   0.55880
 Alpha virt. eigenvalues --    0.56525   0.59749   0.60176   0.61424   0.61737
 Alpha virt. eigenvalues --    0.62048   0.64021   0.65385   0.66423   0.69108
 Alpha virt. eigenvalues --    0.70574   0.70644   0.71882   0.73493   0.74048
 Alpha virt. eigenvalues --    0.75924   0.77918   0.79045   0.82755   0.84045
 Alpha virt. eigenvalues --    0.85394   0.86855   0.89169   0.90165   0.92884
 Alpha virt. eigenvalues --    0.95149   0.96898   0.97967   1.00309   1.02616
 Alpha virt. eigenvalues --    1.06256   1.07041   1.07265   1.09278   1.11646
 Alpha virt. eigenvalues --    1.12232   1.12570   1.15189   1.15325   1.16390
 Alpha virt. eigenvalues --    1.17617   1.20487   1.21754   1.23796   1.24586
 Alpha virt. eigenvalues --    1.26851   1.29057   1.29704   1.35212   1.37014
 Alpha virt. eigenvalues --    1.40189   1.41101   1.44517   1.44879   1.49343
 Alpha virt. eigenvalues --    1.50903   1.53432   1.56799   1.59869   1.62486
 Alpha virt. eigenvalues --    1.63528   1.63999   1.70563   1.73083   1.76117
 Alpha virt. eigenvalues --    1.76512   1.79685   1.85322   1.86553   1.90109
 Alpha virt. eigenvalues --    1.90301   1.92880   1.94335   1.96308   1.97198
 Alpha virt. eigenvalues --    1.99739   2.00773   2.03473   2.04046   2.08209
 Alpha virt. eigenvalues --    2.10462   2.10995   2.14610   2.17855   2.19248
 Alpha virt. eigenvalues --    2.19819   2.22355   2.23236   2.25440   2.27092
 Alpha virt. eigenvalues --    2.30402   2.31413   2.33331   2.36565   2.41757
 Alpha virt. eigenvalues --    2.42398   2.43990   2.45590   2.46543   2.51722
 Alpha virt. eigenvalues --    2.52237   2.52292   2.54034   2.55944   2.57615
 Alpha virt. eigenvalues --    2.61640   2.62906   2.64249   2.64719   2.68016
 Alpha virt. eigenvalues --    2.68585   2.70749   2.70853   2.73631   2.74427
 Alpha virt. eigenvalues --    2.76705   2.77401   2.77506   2.80945   2.82092
 Alpha virt. eigenvalues --    2.84023   2.84658   2.85986   2.86900   2.87378
 Alpha virt. eigenvalues --    2.88944   2.91570   2.93706   2.94015   2.96248
 Alpha virt. eigenvalues --    2.97053   2.97705   2.98202   3.00507   3.01104
 Alpha virt. eigenvalues --    3.02040   3.06919   3.07500   3.10415   3.10977
 Alpha virt. eigenvalues --    3.11323   3.12724   3.13902   3.16890   3.17008
 Alpha virt. eigenvalues --    3.18328   3.18425   3.20719   3.20759   3.25097
 Alpha virt. eigenvalues --    3.26548   3.27980   3.30531   3.31698   3.32384
 Alpha virt. eigenvalues --    3.35981   3.38471   3.41193   3.41559   3.43344
 Alpha virt. eigenvalues --    3.43923   3.49017   3.49099   3.50434   3.51719
 Alpha virt. eigenvalues --    3.54811   3.55158   3.56829   3.57975   3.60390
 Alpha virt. eigenvalues --    3.60459   3.61340   3.62643   3.64882   3.65809
 Alpha virt. eigenvalues --    3.67226   3.67387   3.69212   3.70906   3.75219
 Alpha virt. eigenvalues --    3.80506   3.81905   3.85876   3.86434   3.87379
 Alpha virt. eigenvalues --    3.89930   3.90378   3.90785   3.95348   3.96481
 Alpha virt. eigenvalues --    3.97302   4.00977   4.02345   4.03769   4.05381
 Alpha virt. eigenvalues --    4.06289   4.07842   4.10186   4.11837   4.13704
 Alpha virt. eigenvalues --    4.14391   4.14649   4.18437   4.23039   4.25119
 Alpha virt. eigenvalues --    4.29740   4.30094   4.31871   4.36532   4.42384
 Alpha virt. eigenvalues --    4.45773   4.46327   4.46920   4.48192   4.51919
 Alpha virt. eigenvalues --    4.52970   4.54956   4.63124   4.63415   4.69226
 Alpha virt. eigenvalues --    4.70646   4.73149   4.79136   4.83993   4.86685
 Alpha virt. eigenvalues --    4.88227   4.88585   4.94281   4.98286   5.00690
 Alpha virt. eigenvalues --    5.02178   5.06543   5.06765   5.08004   5.11114
 Alpha virt. eigenvalues --    5.16625   5.18369   5.23624   5.25620   5.28175
 Alpha virt. eigenvalues --    5.31952   5.32003   5.35415   5.40123   5.40215
 Alpha virt. eigenvalues --    5.48075   5.52831   5.56891   5.66853   5.76592
 Alpha virt. eigenvalues --    5.80569   5.80928   5.94909   5.95322   5.98115
 Alpha virt. eigenvalues --    5.98349   6.04712   6.09884   6.15207   6.23609
 Alpha virt. eigenvalues --    6.24508   6.28338   6.30562   6.32290   6.37740
 Alpha virt. eigenvalues --    6.40712   6.45907   6.47119   6.55009   6.56157
 Alpha virt. eigenvalues --    6.58005   6.61608   6.63671   6.68602   6.77684
 Alpha virt. eigenvalues --    6.83821   6.85721   6.93320   7.00183   7.09033
 Alpha virt. eigenvalues --    7.14902   7.31443   7.36968   8.84427  10.18836
 Alpha virt. eigenvalues --   11.44647  12.15736  12.32774  12.63057  12.87056
 Alpha virt. eigenvalues --   13.26504  13.35476  14.85134
          Condensed to atoms (all electrons):
               1          2          3          4          5          6
     1  N    5.962563   0.505737  -0.075106  -0.008072  -0.040101   0.404722
     2  C    0.505737   4.793644   0.474549  -0.063448  -0.009647  -0.085945
     3  C   -0.075106   0.474549   4.875678   0.488523  -0.061942  -0.001708
     4  C   -0.008072  -0.063448   0.488523   4.906809   0.453408  -0.048071
     5  C   -0.040101  -0.009647  -0.061942   0.453408   4.770397   0.227760
     6  C    0.404722  -0.085945  -0.001708  -0.048071   0.227760   5.549537
     7  C   -0.029194   0.000084   0.000965  -0.001283  -0.021077   0.289451
     8  O   -0.023682  -0.002491  -0.000056  -0.000180   0.009757  -0.083343
     9  O    0.000849  -0.000217   0.000052   0.000896   0.022255  -0.109012
    10  O    0.002484   0.000697   0.002362  -0.055375   0.426496  -0.063122
    11  H    0.371217  -0.032411   0.002982  -0.000838   0.005481  -0.038673
    12  H   -0.030038   0.417957  -0.027657   0.003025  -0.000695   0.004875
    13  H    0.001603  -0.029431   0.415754  -0.028724   0.003620   0.000001
    14  H   -0.000574   0.004425  -0.030825   0.418334  -0.047244   0.008294
    15  H   -0.000143   0.000051  -0.000009  -0.000024  -0.002370   0.018549
    16  H    0.000036   0.000077  -0.000499   0.003912  -0.010665  -0.016254
               7          8          9         10         11         12
     1  N   -0.029194  -0.023682   0.000849   0.002484   0.371217  -0.030038
     2  C    0.000084  -0.002491  -0.000217   0.000697  -0.032411   0.417957
     3  C    0.000965  -0.000056   0.000052   0.002362   0.002982  -0.027657
     4  C   -0.001283  -0.000180   0.000896  -0.055375  -0.000838   0.003025
     5  C   -0.021077   0.009757   0.022255   0.426496   0.005481  -0.000695
     6  C    0.289451  -0.083343  -0.109012  -0.063122  -0.038673   0.004875
     7  C    4.218169   0.730058   0.435794   0.000439  -0.005499  -0.000060
     8  O    0.730058   7.716327  -0.080441  -0.000046   0.032095  -0.000005
     9  O    0.435794  -0.080441   7.723166  -0.014786   0.001127   0.000001
    10  O    0.000439  -0.000046  -0.014786   7.627387  -0.000141   0.000012
    11  H   -0.005499   0.032095   0.001127  -0.000141   0.414813  -0.004669
    12  H   -0.000060  -0.000005   0.000001   0.000012  -0.004669   0.451027
    13  H    0.000028   0.000001  -0.000000  -0.000077  -0.000176  -0.002840
    14  H   -0.000054   0.000001  -0.000005   0.004274   0.000064  -0.000086
    15  H   -0.024930   0.006382   0.306152   0.000544  -0.000187  -0.000000
    16  H    0.001111   0.000155   0.026007   0.330739  -0.000068  -0.000002
              13         14         15         16
     1  N    0.001603  -0.000574  -0.000143   0.000036
     2  C   -0.029431   0.004425   0.000051   0.000077
     3  C    0.415754  -0.030825  -0.000009  -0.000499
     4  C   -0.028724   0.418334  -0.000024   0.003912
     5  C    0.003620  -0.047244  -0.002370  -0.010665
     6  C    0.000001   0.008294   0.018549  -0.016254
     7  C    0.000028  -0.000054  -0.024930   0.001111
     8  O    0.000001   0.000001   0.006382   0.000155
     9  O   -0.000000  -0.000005   0.306152   0.026007
    10  O   -0.000077   0.004274   0.000544   0.330739
    11  H   -0.000176   0.000064  -0.000187  -0.000068
    12  H   -0.002840  -0.000086  -0.000000  -0.000002
    13  H    0.469558  -0.005348   0.000000   0.000012
    14  H   -0.005348   0.469844  -0.000001  -0.000315
    15  H    0.000000  -0.000001   0.386114  -0.000332
    16  H    0.000012  -0.000315  -0.000332   0.372924
 Mulliken charges:
               1
     1  N   -0.042302
     2  C    0.026369
     3  C   -0.063061
     4  C   -0.068892
     5  C    0.274567
     6  C   -0.057062
     7  C    0.405998
     8  O   -0.304531
     9  O   -0.311836
    10  O   -0.261888
    11  H    0.254881
    12  H    0.189157
    13  H    0.176019
    14  H    0.179215
    15  H    0.310204
    16  H    0.293163
 Sum of Mulliken charges =   1.00000
 Mulliken charges with hydrogens summed into heavy atoms:
               1
     1  N    0.212578
     2  C    0.215526
     3  C    0.112958
     4  C    0.110323
     5  C    0.274567
     6  C   -0.057062
     7  C    0.405998
     8  O   -0.304531
     9  O   -0.001632
    10  O    0.031275
 Electronic spatial extent (au):  <R**2>=           1307.2651
 Charge=              1.0000 electrons
 Dipole moment (field-independent basis, Debye):
    X=             -2.5625    Y=             -1.1678    Z=             -0.0000  Tot=              2.8160
 Quadrupole moment (field-independent basis, Debye-Ang):
   XX=            -24.9221   YY=            -43.8894   ZZ=            -55.9947
   XY=              9.4347   XZ=             -0.0004   YZ=              0.0004
 Traceless Quadrupole moment (field-independent basis, Debye-Ang):
   XX=             16.6800   YY=             -2.2873   ZZ=            -14.3927
   XY=              9.4347   XZ=             -0.0004   YZ=              0.0004
 Octapole moment (field-independent basis, Debye-Ang**2):
  XXX=             11.3169  YYY=            -14.5484  ZZZ=             -0.0005  XYY=            -13.3347
  XXY=             16.1903  XXZ=              0.0020  XZZ=              9.1640  YZZ=              0.7509
  YYZ=             -0.0005  XYZ=             -0.0013
 Hexadecapole moment (field-independent basis, Debye-Ang**3):
 XXXX=           -642.4010 YYYY=           -480.9632 ZZZZ=            -52.0411 XXXY=             66.8178
 XXXZ=              0.0078 YYYX=             47.0376 YYYZ=             -0.0090 ZZZX=              0.0126
 ZZZY=             -0.0118 XXYY=           -220.6377 XXZZ=           -183.1895 YYZZ=           -102.3935
 XXYZ=             -0.0028 YYXZ=              0.0051 ZZXY=             -0.7526
 N-N= 5.219639651550D+02 E-N=-2.228305255909D+03  KE= 5.095428133998D+02
 Calling FoFJK, ICntrl=      2127 FMM=F ISym2X=0 I1Cent= 0 IOpClX= 0 NMat=1 NMatS=1 NMatT=0.
 ***** Axes restored to original set *****
 -------------------------------------------------------------------
 Center     Atomic                   Forces (Hartrees/Bohr)
 Number     Number              X              Y              Z
 -------------------------------------------------------------------
      1        7          -0.002020010    0.000378713   -0.000000459
      2        6           0.000176856    0.001454460    0.000000129
      3        6           0.001238805    0.000825234   -0.000000113
      4        6          -0.000799033   -0.002720561    0.000000358
      5        6           0.000233542   -0.000687975   -0.000000083
      6        6          -0.003250052    0.001588284   -0.000003756
      7        6           0.003015128   -0.005341860    0.000012990
      8        8          -0.004271984    0.010335197   -0.000004718
      9        8          -0.000619037   -0.004696568   -0.000004299
     10        8           0.000011758   -0.004587776   -0.000000413
     11        1          -0.001147736    0.002342939    0.000000460
     12        1           0.002172752    0.004743446    0.000000313
     13        1           0.005369046    0.000179582   -0.000000196
     14        1           0.002752950   -0.004571194   -0.000000397
     15        1          -0.001401999    0.000575563   -0.000000047
     16        1          -0.001460986    0.000182515    0.000000230
 -------------------------------------------------------------------
 Cartesian Forces:  Max     0.010335197 RMS     0.002630934

 GradGradGradGradGradGradGradGradGradGradGradGradGradGradGradGradGradGrad
 Berny optimization.
 FormGI is forming the generalized inverse of G from B-inverse, IUseBI=4.
 Internal  Forces:  Max     0.011180439 RMS     0.002652820
 Search for a local minimum.
 Step number   1 out of a maximum of   81
 All quantities printed in internal units (Hartrees-Bohrs-Radians)
 Mixed Optimization -- RFO/linear search
 Second derivative matrix not updated -- first step.
 ITU=  0
     Eigenvalues ---    0.00833   0.01439   0.01762   0.02040   0.02132
     Eigenvalues ---    0.02180   0.02228   0.02240   0.02353   0.02419
     Eigenvalues ---    0.02503   0.02529   0.02692   0.16000   0.16000
     Eigenvalues ---    0.16000   0.16000   0.16000   0.16000   0.22000
     Eigenvalues ---    0.22479   0.24469   0.25000   0.25000   0.25000
     Eigenvalues ---    0.25000   0.32916   0.34827   0.35110   0.35167
     Eigenvalues ---    0.41315   0.43053   0.43447   0.46072   0.47523
     Eigenvalues ---    0.52748   0.52773   0.53229   0.57949   0.58298
     Eigenvalues ---    0.60850   1.05242
 RFO step:  Lambda=-9.59228524D-04 EMin= 8.33114772D-03
 Linear search not attempted -- first point.
 Iteration  1 RMS(Cart)=  0.01018233 RMS(Int)=  0.00000444
 Iteration  2 RMS(Cart)=  0.00000675 RMS(Int)=  0.00000090
 Iteration  3 RMS(Cart)=  0.00000000 RMS(Int)=  0.00000090
 Variable       Old X    -DE/DX   Delta X   Delta X   Delta X     New X
                                 (Linear)    (Quad)   (Total)
    R1        2.50925  -0.00576   0.00000  -0.00960  -0.00960   2.49965
    R2        2.55942  -0.00435   0.00000  -0.00796  -0.00796   2.55147
    R3        1.93821  -0.00259   0.00000  -0.00594  -0.00594   1.93228
    R4        2.64287  -0.00636   0.00000  -0.01395  -0.01395   2.62893
    R5        2.05405  -0.00522   0.00000  -0.01480  -0.01480   2.03925
    R6        2.60715  -0.00717   0.00000  -0.01462  -0.01462   2.59254
    R7        2.05496  -0.00537   0.00000  -0.01526  -0.01526   2.03970
    R8        2.67340  -0.00516   0.00000  -0.01186  -0.01186   2.66154
    R9        2.05957  -0.00533   0.00000  -0.01527  -0.01527   2.04430
   R10        2.63816  -0.00717   0.00000  -0.01534  -0.01534   2.62282
   R11        2.50274  -0.00460   0.00000  -0.00755  -0.00755   2.49519
   R12        2.82499  -0.00337   0.00000  -0.01021  -0.01021   2.81478
   R13        2.26610  -0.01118   0.00000  -0.01061  -0.01061   2.25548
   R14        2.52601  -0.00458   0.00000  -0.00789  -0.00789   2.51812
   R15        1.83867  -0.00149   0.00000  -0.00281  -0.00281   1.83585
   R16        1.83441  -0.00147   0.00000  -0.00275  -0.00275   1.83166
    A1        2.17734  -0.00052   0.00000  -0.00229  -0.00229   2.17505
    A2        2.10968   0.00061   0.00000   0.00331   0.00331   2.11299
    A3        1.99616  -0.00009   0.00000  -0.00102  -0.00102   1.99514
    A4        2.06676   0.00005   0.00000  -0.00008  -0.00008   2.06667
    A5        2.04938  -0.00006   0.00000  -0.00016  -0.00016   2.04922
    A6        2.16705   0.00001   0.00000   0.00024   0.00024   2.16729
    A7        2.08649   0.00010   0.00000   0.00004   0.00004   2.08653
    A8        2.08344  -0.00008   0.00000  -0.00019  -0.00019   2.08325
    A9        2.11326  -0.00002   0.00000   0.00014   0.00014   2.11340
   A10        2.10476   0.00063   0.00000   0.00273   0.00273   2.10749
   A11        2.12210  -0.00017   0.00000  -0.00046  -0.00046   2.12164
   A12        2.05633  -0.00046   0.00000  -0.00227  -0.00227   2.05406
   A13        2.05561  -0.00070   0.00000  -0.00253  -0.00253   2.05309
   A14        2.04498   0.00100   0.00000   0.00385   0.00385   2.04884
   A15        2.18259  -0.00030   0.00000  -0.00133  -0.00133   2.18126
   A16        2.07541   0.00045   0.00000   0.00213   0.00213   2.07753
   A17        1.96821   0.00007   0.00000   0.00009   0.00009   1.96830
   A18        2.23957  -0.00051   0.00000  -0.00222  -0.00222   2.23735
   A19        2.12135  -0.00009   0.00000  -0.00035  -0.00035   2.12100
   A20        1.96105   0.00031   0.00000   0.00122   0.00122   1.96227
   A21        2.20079  -0.00022   0.00000  -0.00087  -0.00087   2.19992
   A22        1.91146   0.00051   0.00000   0.00315   0.00315   1.91461
   A23        1.95513   0.00017   0.00000   0.00107   0.00107   1.95620
    D1        0.00000   0.00000   0.00000   0.00000   0.00000   0.00000
    D2        3.14159   0.00000   0.00000   0.00000   0.00000  -3.14159
    D3       -3.14159  -0.00000   0.00000  -0.00001  -0.00001   3.14159
    D4        0.00000  -0.00000   0.00000  -0.00000  -0.00000  -0.00000
    D5       -0.00000  -0.00000   0.00000  -0.00000  -0.00000  -0.00000
    D6       -3.14159  -0.00000   0.00000  -0.00001  -0.00001   3.14159
    D7        3.14159   0.00000   0.00000   0.00001   0.00001  -3.14159
    D8       -0.00000   0.00000   0.00000   0.00000   0.00000  -0.00000
    D9        0.00000  -0.00000   0.00000  -0.00000  -0.00000  -0.00000
   D10       -3.14159  -0.00000   0.00000  -0.00000  -0.00000  -3.14159
   D11       -3.14159  -0.00000   0.00000  -0.00001  -0.00001   3.14159
   D12        0.00000  -0.00000   0.00000  -0.00000  -0.00000   0.00000
   D13       -0.00000   0.00000   0.00000   0.00000   0.00000   0.00000
   D14       -3.14159   0.00000   0.00000   0.00000   0.00000  -3.14159
   D15        3.14159  -0.00000   0.00000   0.00000   0.00000   3.14159
   D16        0.00000  -0.00000   0.00000  -0.00000  -0.00000  -0.00000
   D17        0.00000  -0.00000   0.00000  -0.00000  -0.00000  -0.00000
   D18       -3.14159   0.00000   0.00000   0.00000   0.00000  -3.14159
   D19        3.14159   0.00000   0.00000   0.00000   0.00000   3.14159
   D20       -0.00000   0.00000   0.00000   0.00000   0.00000   0.00000
   D21        0.00000   0.00000   0.00000   0.00000   0.00000   0.00000
   D22        3.14159   0.00000   0.00000   0.00001   0.00001  -3.14159
   D23       -3.14159  -0.00000   0.00000  -0.00000  -0.00000   3.14159
   D24       -0.00000   0.00000   0.00000   0.00001   0.00001   0.00000
   D25        3.14159  -0.00000   0.00000  -0.00001  -0.00001   3.14158
   D26       -0.00000  -0.00000   0.00000  -0.00000  -0.00000  -0.00001
   D27       -0.00005   0.00000   0.00000   0.00021   0.00021   0.00016
   D28       -3.14155  -0.00000   0.00000  -0.00019  -0.00019   3.14145
   D29        3.14155   0.00000   0.00000   0.00020   0.00020  -3.14143
   D30        0.00005  -0.00000   0.00000  -0.00020  -0.00020  -0.00015
   D31        3.14155   0.00000   0.00000   0.00021   0.00021  -3.14142
   D32        0.00005  -0.00000   0.00000  -0.00021  -0.00021  -0.00016
         Item               Value     Threshold  Converged?
 Maximum Force            0.011180     0.000450     NO 
 RMS     Force            0.002653     0.000300     NO 
 Maximum Displacement     0.031893     0.001800     NO 
 RMS     Displacement     0.010182     0.001200     NO 
 Predicted change in Energy=-4.806183D-04
 GradGradGradGradGradGradGradGradGradGradGradGradGradGradGradGradGradGrad

                          Input orientation:                          
 ---------------------------------------------------------------------
 Center     Atomic      Atomic             Coordinates (Angstroms)
 Number     Number       Type             X           Y           Z
 ---------------------------------------------------------------------
      1          7           0       -0.506499   -1.343656   -0.000013
      2          6           0       -1.827278   -1.415955   -0.000025
      3          6           0       -2.555092   -0.230360    0.000022
      4          6           0       -1.891955    0.970635    0.000080
      5          6           0       -0.484259    1.015969    0.000093
      6          6           0        0.198728   -0.192295    0.000045
      7          6           0        1.671058   -0.417930    0.000051
      8          8           0        2.133796   -1.518129   -0.000158
      9          8           0        2.360201    0.722561   -0.000074
     10          8           0        0.085124    2.207293    0.000153
     11          1           0        0.068220   -2.189374   -0.000045
     12          1           0       -2.270988   -2.399638   -0.000071
     13          1           0       -3.633672   -0.271481    0.000013
     14          1           0       -2.425204    1.911874    0.000119
     15          1           0        3.312381    0.529819   -0.000221
     16          1           0        1.052627    2.148744    0.000165
 ---------------------------------------------------------------------
                    Distance matrix (angstroms):
                    1          2          3          4          5
     1  N    0.000000
     2  C    1.322757   0.000000
     3  C    2.331558   1.391168   0.000000
     4  C    2.697301   2.387466   1.371910   0.000000
     5  C    2.359730   2.778120   2.416957   1.408426   0.000000
     6  C    1.350177   2.366864   2.754083   2.392355   1.387938
     7  C    2.366162   3.637913   4.230310   3.824026   2.588717
     8  O    2.646053   3.962392   4.862511   4.732929   3.643606
     9  O    3.533726   4.701939   5.006811   4.259386   2.859552
    10  O    3.599897   4.096975   3.593451   2.331987   1.320398
    11  H    1.022517   2.047216   3.274065   3.718594   3.252607
    12  H    2.056336   1.079126   2.187804   3.391520   3.854708
    13  H    3.305869   2.138429   1.079364   2.139259   3.402401
    14  H    3.778876   3.381117   2.146167   1.081797   2.137735
    15  H    4.253675   5.495647   5.916511   5.222971   3.827638
    16  H    3.824622   4.582677   4.321547   3.171514   1.909240
                    6          7          8          9         10
     6  C    0.000000
     7  C    1.489519   0.000000
     8  O    2.345703   1.193551   0.000000
     9  O    2.347110   1.332531   2.252100   0.000000
    10  O    2.402275   3.067080   4.251567   2.716689   0.000000
    11  H    2.001339   2.388954   2.171905   3.705744   4.396699
    12  H    3.312380   4.412130   4.492124   5.585341   5.174464
    13  H    3.833218   5.306751   5.900663   6.075741   4.469202
    14  H    3.363412   4.712467   5.705208   4.930980   2.527651
    15  H    3.196292   1.895302   2.362870   0.971492   3.637183
    16  H    2.491908   2.640127   3.822942   1.934876   0.969273
                   11         12         13         14         15
    11  H    0.000000
    12  H    2.348639   0.000000
    13  H    4.169211   2.527046   0.000000
    14  H    4.799728   4.314269   2.495482   0.000000
    15  H    4.233036   6.305214   6.992120   5.901690   0.000000
    16  H    4.448407   5.633311   5.274361   3.485888   2.779821
                   16
    16  H    0.000000
 Stoichiometry    C6H6NO3(1+)
 Framework group  C1[X(C6H6NO3)]
 Deg. of freedom    42
 Full point group                 C1      NOp   1
 Largest Abelian subgroup         C1      NOp   1
 Largest concise Abelian subgroup C1      NOp   1
                         Standard orientation:                         
 ---------------------------------------------------------------------
 Center     Atomic      Atomic             Coordinates (Angstroms)
 Number     Number       Type             X           Y           Z
 ---------------------------------------------------------------------
      1          7           0       -0.508981   -1.341966   -0.000024
      2          6           0       -1.829991   -1.409910   -0.000036
      3          6           0       -2.553893   -0.221922    0.000010
      4          6           0       -1.886801    0.976880    0.000069
      5          6           0       -0.478963    1.017573    0.000082
      6          6           0        0.200038   -0.192935    0.000033
      7          6           0        1.671616   -0.423423    0.000039
      8          8           0        2.130724   -1.525141   -0.000169
      9          8           0        2.364514    0.714791   -0.000086
     10          8           0        0.094345    2.207014    0.000142
     11          1           0        0.062947   -2.189573   -0.000056
     12          1           0       -2.276941   -2.392126   -0.000083
     13          1           0       -3.632603   -0.259488    0.000001
     14          1           0       -2.416944    1.919871    0.000107
     15          1           0        3.316054    0.518911   -0.000232
     16          1           0        1.061649    2.145276    0.000153
 ---------------------------------------------------------------------
 Rotational constants (GHZ):      2.3124675      1.2620216      0.8164479
 Standard basis: CC-pVTZ (5D, 7F)
 There are   440 symmetry adapted cartesian basis functions of A   symmetry.
 There are   384 symmetry adapted basis functions of A   symmetry.
   384 basis functions,   622 primitive gaussians,   440 cartesian basis functions
    36 alpha electrons       36 beta electrons
       nuclear repulsion energy       524.2244272737 Hartrees.
 NAtoms=   16 NActive=   16 NUniq=   16 SFac= 1.00D+00 NAtFMM=   60 NAOKFM=F Big=F
 Integral buffers will be    131072 words long.
 Raffenetti 2 integral format.
 Two-electron integral symmetry is turned on.
 One-electron integrals computed using PRISM.
 NBasis=   384 RedAO= T EigKep=  7.61D-05  NBF=   384
 NBsUse=   384 1.00D-06 EigRej= -1.00D+00 NBFU=   384
 Initial guess from the checkpoint file:  "ccpvTZ3HPA2.chk"
 B after Tr=    -0.000000    0.000000   -0.000000
         Rot=    0.999999   -0.000002    0.000000    0.001587 Ang=  -0.18 deg.
 ExpMin= 1.03D-01 ExpMax= 1.53D+04 ExpMxC= 5.22D+02 IAcc=1 IRadAn=         1 AccDes= 0.00D+00
 Harris functional with IExCor= 1009 and IRadAn=       1 diagonalized for initial guess.
 HarFok:  IExCor= 1009 AccDes= 0.00D+00 IRadAn=         1 IDoV= 1 UseB2=F ITyADJ=14
 ICtDFT=  3500011 ScaDFX=  1.000000  1.000000  1.000000  1.000000
 FoFCou: FMM=F IPFlag=           0 FMFlag=      100000 FMFlg1=           0
         NFxFlg=           0 DoJE=T BraDBF=F KetDBF=T FulRan=T
         wScrn=  0.000000 ICntrl=     500 IOpCl=  0 I1Cent=   200000004 NGrid=           0
         NMat0=    1 NMatS0=      1 NMatT0=    0 NMatD0=    1 NMtDS0=    0 NMtDT0=    0
 Petite list used in FoFCou.
 Requested convergence on RMS density matrix=1.00D-08 within 128 cycles.
 Requested convergence on MAX density matrix=1.00D-06.
 Requested convergence on             energy=1.00D-06.
 No special actions if energy rises.
 Integral accuracy reduced to 1.0D-05 until final iterations.
 Initial convergence to 1.0D-05 achieved.  Increase integral accuracy.
 SCF Done:  E(RM062X) =  -512.447596058     A.U. after   11 cycles
            NFock= 11  Conv=0.61D-08     -V/T= 2.0053
 Calling FoFJK, ICntrl=      2127 FMM=F ISym2X=0 I1Cent= 0 IOpClX= 0 NMat=1 NMatS=1 NMatT=0.
 ***** Axes restored to original set *****
 -------------------------------------------------------------------
 Center     Atomic                   Forces (Hartrees/Bohr)
 Number     Number              X              Y              Z
 -------------------------------------------------------------------
      1        7          -0.000074640   -0.000663424    0.000001605
      2        6           0.000264606   -0.000421764   -0.000000547
      3        6          -0.000646124    0.000050054    0.000000251
      4        6          -0.000377365    0.000222443   -0.000001164
      5        6           0.000556198    0.001486166    0.000000297
      6        6          -0.000339476   -0.000394546    0.000013228
      7        6           0.000676776   -0.000507789   -0.000044320
      8        8           0.000066993    0.000326193    0.000017420
      9        8           0.000666460   -0.000413366    0.000013474
     10        8          -0.000118545   -0.000319358    0.000000968
     11        1           0.000045116    0.000030964   -0.000000599
     12        1          -0.000120189   -0.000197185   -0.000000363
     13        1          -0.000192696    0.000021682    0.000000047
     14        1          -0.000144047    0.000219384    0.000000161
     15        1          -0.000059884    0.000248283    0.000000489
     16        1          -0.000203185    0.000312263   -0.000000947
 -------------------------------------------------------------------
 Cartesian Forces:  Max     0.001486166 RMS     0.000354193

 GradGradGradGradGradGradGradGradGradGradGradGradGradGradGradGradGradGrad
 Berny optimization.
 Using GEDIIS/GDIIS optimizer.
 FormGI is forming the generalized inverse of G from B-inverse, IUseBI=4.
 Internal  Forces:  Max     0.001564410 RMS     0.000373401
 Search for a local minimum.
 Step number   2 out of a maximum of   81
 All quantities printed in internal units (Hartrees-Bohrs-Radians)
 Mixed Optimization -- En-DIIS/RFO-DIIS
 Update second derivatives using D2CorX and points    1    2
 DE= -4.40D-04 DEPred=-4.81D-04 R= 9.15D-01
 TightC=F SS=  1.41D+00  RLast= 4.57D-02 DXNew= 5.0454D-01 1.3708D-01
 Trust test= 9.15D-01 RLast= 4.57D-02 DXMaxT set to 3.00D-01
 ITU=  1  0
 Use linear search instead of GDIIS.
     Eigenvalues ---    0.00833   0.01439   0.01764   0.02040   0.02132
     Eigenvalues ---    0.02180   0.02228   0.02240   0.02353   0.02419
     Eigenvalues ---    0.02503   0.02529   0.02692   0.15894   0.16000
     Eigenvalues ---    0.16000   0.16000   0.16000   0.16014   0.21988
     Eigenvalues ---    0.22463   0.24359   0.24896   0.25000   0.25000
     Eigenvalues ---    0.25103   0.33032   0.34916   0.35134   0.35490
     Eigenvalues ---    0.41780   0.42868   0.43414   0.47251   0.48872
     Eigenvalues ---    0.52716   0.53148   0.54535   0.57997   0.58785
     Eigenvalues ---    0.60593   1.03707
 RFO step:  Lambda=-1.83698662D-05 EMin= 8.33114778D-03
 Quartic linear search produced a step of -0.07979.
 Iteration  1 RMS(Cart)=  0.00406812 RMS(Int)=  0.00000527
 Iteration  2 RMS(Cart)=  0.00000643 RMS(Int)=  0.00000015
 Iteration  3 RMS(Cart)=  0.00000000 RMS(Int)=  0.00000015
 Variable       Old X    -DE/DX   Delta X   Delta X   Delta X     New X
                                 (Linear)    (Quad)   (Total)
    R1        2.49965   0.00032   0.00077  -0.00050   0.00027   2.49992
    R2        2.55147   0.00076   0.00063   0.00051   0.00115   2.55261
    R3        1.93228  -0.00000   0.00047  -0.00060  -0.00012   1.93215
    R4        2.62893   0.00073   0.00111   0.00000   0.00112   2.63004
    R5        2.03925   0.00023   0.00118  -0.00089   0.00029   2.03954
    R6        2.59254   0.00062   0.00117  -0.00033   0.00084   2.59337
    R7        2.03970   0.00019   0.00122  -0.00103   0.00019   2.03989
    R8        2.66154   0.00090   0.00095   0.00077   0.00171   2.66325
    R9        2.04430   0.00026   0.00122  -0.00084   0.00038   2.04468
   R10        2.62282   0.00156   0.00122   0.00164   0.00287   2.62569
   R11        2.49519  -0.00014   0.00060  -0.00097  -0.00037   2.49482
   R12        2.81478   0.00139   0.00081   0.00285   0.00367   2.81845
   R13        2.25548  -0.00027   0.00085  -0.00129  -0.00045   2.25504
   R14        2.51812   0.00017   0.00063  -0.00052   0.00011   2.51822
   R15        1.83585  -0.00011   0.00022  -0.00047  -0.00024   1.83561
   R16        1.83166  -0.00022   0.00022  -0.00065  -0.00043   1.83123
    A1        2.17505   0.00015   0.00018   0.00033   0.00051   2.17557
    A2        2.11299  -0.00002  -0.00026   0.00035   0.00008   2.11307
    A3        1.99514  -0.00012   0.00008  -0.00068  -0.00060   1.99455
    A4        2.06667   0.00010   0.00001   0.00017   0.00018   2.06685
    A5        2.04922  -0.00002   0.00001   0.00008   0.00010   2.04932
    A6        2.16729  -0.00008  -0.00002  -0.00025  -0.00027   2.16701
    A7        2.08653  -0.00001  -0.00000  -0.00025  -0.00026   2.08627
    A8        2.08325   0.00004   0.00001   0.00031   0.00032   2.08357
    A9        2.11340  -0.00003  -0.00001  -0.00005  -0.00006   2.11334
   A10        2.10749   0.00017  -0.00022   0.00097   0.00075   2.10824
   A11        2.12164  -0.00010   0.00004  -0.00047  -0.00044   2.12121
   A12        2.05406  -0.00007   0.00018  -0.00050  -0.00032   2.05374
   A13        2.05309  -0.00030   0.00020  -0.00117  -0.00097   2.05212
   A14        2.04884  -0.00047  -0.00031  -0.00145  -0.00175   2.04708
   A15        2.18126   0.00077   0.00011   0.00262   0.00273   2.18399
   A16        2.07753  -0.00011  -0.00017  -0.00004  -0.00021   2.07732
   A17        1.96830  -0.00051  -0.00001  -0.00194  -0.00195   1.96635
   A18        2.23735   0.00062   0.00018   0.00198   0.00216   2.23951
   A19        2.12100  -0.00009   0.00003  -0.00038  -0.00036   2.12064
   A20        1.96227   0.00061  -0.00010   0.00236   0.00226   1.96453
   A21        2.19992  -0.00051   0.00007  -0.00197  -0.00190   2.19802
   A22        1.91461   0.00042  -0.00025   0.00272   0.00247   1.91708
   A23        1.95620   0.00055  -0.00009   0.00325   0.00316   1.95936
    D1        0.00000  -0.00000  -0.00000  -0.00001  -0.00001  -0.00001
    D2       -3.14159  -0.00000  -0.00000  -0.00001  -0.00001   3.14158
    D3        3.14159   0.00000   0.00000   0.00001   0.00001  -3.14158
    D4       -0.00000   0.00000   0.00000   0.00001   0.00001   0.00001
    D5       -0.00000   0.00000   0.00000   0.00001   0.00001   0.00000
    D6        3.14159   0.00000   0.00000   0.00002   0.00002  -3.14157
    D7       -3.14159  -0.00000  -0.00000  -0.00001  -0.00002   3.14158
    D8       -0.00000  -0.00000  -0.00000   0.00000   0.00000  -0.00000
    D9       -0.00000   0.00000   0.00000   0.00001   0.00001   0.00001
   D10       -3.14159   0.00000   0.00000   0.00000   0.00000  -3.14159
   D11        3.14159   0.00000   0.00000   0.00001   0.00001  -3.14158
   D12        0.00000   0.00000   0.00000   0.00001   0.00001   0.00001
   D13        0.00000  -0.00000  -0.00000  -0.00000  -0.00000  -0.00000
   D14       -3.14159  -0.00000  -0.00000  -0.00000  -0.00000   3.14159
   D15        3.14159   0.00000  -0.00000   0.00000   0.00000  -3.14159
   D16       -0.00000   0.00000   0.00000   0.00000   0.00000   0.00000
   D17       -0.00000   0.00000   0.00000   0.00000   0.00000  -0.00000
   D18       -3.14159  -0.00000  -0.00000  -0.00001  -0.00001   3.14159
   D19        3.14159  -0.00000  -0.00000  -0.00000  -0.00000   3.14159
   D20        0.00000  -0.00000  -0.00000  -0.00001  -0.00001  -0.00001
   D21        0.00000  -0.00000  -0.00000  -0.00000  -0.00000   0.00000
   D22       -3.14159  -0.00000  -0.00000  -0.00002  -0.00002   3.14158
   D23        3.14159   0.00000   0.00000   0.00001   0.00001  -3.14159
   D24        0.00000  -0.00000  -0.00000  -0.00001  -0.00001  -0.00001
   D25        3.14158   0.00000   0.00000   0.00003   0.00003  -3.14157
   D26       -0.00001   0.00000   0.00000   0.00002   0.00002   0.00002
   D27        0.00016  -0.00001  -0.00002  -0.00069  -0.00071  -0.00054
   D28        3.14145   0.00001   0.00002   0.00063   0.00064  -3.14110
   D29       -3.14143  -0.00001  -0.00002  -0.00067  -0.00069   3.14106
   D30       -0.00015   0.00001   0.00002   0.00065   0.00066   0.00051
   D31       -3.14142  -0.00001  -0.00002  -0.00071  -0.00073   3.14104
   D32       -0.00016   0.00001   0.00002   0.00068   0.00070   0.00054
         Item               Value     Threshold  Converged?
 Maximum Force            0.001564     0.000450     NO 
 RMS     Force            0.000373     0.000300     NO 
 Maximum Displacement     0.018476     0.001800     NO 
 RMS     Displacement     0.004069     0.001200     NO 
 Predicted change in Energy=-1.257519D-05
 GradGradGradGradGradGradGradGradGradGradGradGradGradGradGradGradGradGrad

                          Input orientation:                          
 ---------------------------------------------------------------------
 Center     Atomic      Atomic             Coordinates (Angstroms)
 Number     Number       Type             X           Y           Z
 ---------------------------------------------------------------------
      1          7           0       -0.506241   -1.343207   -0.000168
      2          6           0       -1.827114   -1.416386   -0.000002
      3          6           0       -2.556231   -0.230899    0.000167
      4          6           0       -1.893578    0.970869    0.000146
      5          6           0       -0.485037    1.018111   -0.000039
      6          6           0        0.199133   -0.191225   -0.000197
      7          6           0        1.672973   -0.419807   -0.000424
      8          8           0        2.133247   -1.520782   -0.000006
      9          8           0        2.366770    0.717925    0.000158
     10          8           0        0.080581    2.211011   -0.000055
     11          1           0        0.069069   -2.188443   -0.000305
     12          1           0       -2.270331   -2.400460   -0.000009
     13          1           0       -3.634888   -0.272583    0.000307
     14          1           0       -2.427882    1.911739    0.000272
     15          1           0        3.318516    0.523693    0.000495
     16          1           0        1.048202    2.158521   -0.000208
 ---------------------------------------------------------------------
                    Distance matrix (angstroms):
                    1          2          3          4          5
     1  N    0.000000
     2  C    1.322899   0.000000
     3  C    2.332314   1.391758   0.000000
     4  C    2.698083   2.388180   1.372354   0.000000
     5  C    2.361414   2.779919   2.418650   1.409332   0.000000
     6  C    1.350784   2.367847   2.755650   2.393721   1.389454
     7  C    2.366779   3.639201   4.233421   3.828089   2.593187
     8  O    2.645455   3.961737   4.863641   4.735361   3.647108
     9  O    3.535881   4.705736   5.013602   4.267850   2.867563
    10  O    3.602336   4.098452   3.593842   2.331363   1.320202
    11  H    1.022451   2.047336   3.274779   3.719306   3.254079
    12  H    2.056647   1.079279   2.188318   3.392315   3.856670
    13  H    3.306761   2.139236   1.079463   2.139704   3.404035
    14  H    3.779865   3.381913   2.146478   1.081997   2.138508
    15  H    4.256065   5.499220   5.923011   5.231242   3.835553
    16  H    3.831239   4.587745   4.324496   3.172473   1.910852
                    6          7          8          9         10
     6  C    0.000000
     7  C    1.491460   0.000000
     8  O    2.347024   1.193314   0.000000
     9  O    2.350575   1.332587   2.250854   0.000000
    10  O    2.405159   3.075209   4.259074   2.730561   0.000000
    11  H    2.001449   2.387589   2.169470   3.704916   4.399469
    12  H    3.313454   4.412781   4.490583   5.588115   5.176143
    13  H    3.834885   5.309903   5.901643   6.082845   4.469111
    14  H    3.365065   4.717321   5.708424   4.941041   2.526253
    15  H    3.200259   1.896841   2.363206   0.971364   3.651200
    16  H    2.498444   2.652944   3.835961   1.952931   0.969043
                   11         12         13         14         15
    11  H    0.000000
    12  H    2.348988   0.000000
    13  H    4.170111   2.527821   0.000000
    14  H    4.800652   4.315076   2.495621   0.000000
    15  H    4.232563   6.307606   6.998849   5.911664   0.000000
    16  H    4.455872   5.638880   5.276514   3.484833   2.797676
                   16
    16  H    0.000000
 Stoichiometry    C6H6NO3(1+)
 Framework group  C1[X(C6H6NO3)]
 Deg. of freedom    42
 Full point group                 C1      NOp   1
 Largest Abelian subgroup         C1      NOp   1
 Largest concise Abelian subgroup C1      NOp   1
                         Standard orientation:                         
 ---------------------------------------------------------------------
 Center     Atomic      Atomic             Coordinates (Angstroms)
 Number     Number       Type             X           Y           Z
 ---------------------------------------------------------------------
      1          7           0       -0.505820   -1.342383   -0.000141
      2          6           0       -1.826771   -1.414152    0.000025
      3          6           0       -2.554622   -0.227888    0.000193
      4          6           0       -1.890686    0.973172    0.000173
      5          6           0       -0.482096    1.018911   -0.000012
      6          6           0        0.200783   -0.191155   -0.000171
      7          6           0        1.674378   -0.421310   -0.000398
      8          8           0        2.133477   -1.522776    0.000021
      9          8           0        2.369389    0.715681    0.000185
     10          8           0        0.084796    2.211206   -0.000029
     11          1           0        0.068587   -2.188233   -0.000278
     12          1           0       -2.271038   -2.397753    0.000017
     13          1           0       -3.633323   -0.268420    0.000334
     14          1           0       -2.423986    1.914612    0.000299
     15          1           0        3.320928    0.520433    0.000521
     16          1           0        1.052360    2.157683   -0.000182
 ---------------------------------------------------------------------
 Rotational constants (GHZ):      2.3085640      1.2596888      0.8149849
 Standard basis: CC-pVTZ (5D, 7F)
 There are   440 symmetry adapted cartesian basis functions of A   symmetry.
 There are   384 symmetry adapted basis functions of A   symmetry.
   384 basis functions,   622 primitive gaussians,   440 cartesian basis functions
    36 alpha electrons       36 beta electrons
       nuclear repulsion energy       523.8597962684 Hartrees.
 NAtoms=   16 NActive=   16 NUniq=   16 SFac= 1.00D+00 NAtFMM=   60 NAOKFM=F Big=F
 Integral buffers will be    131072 words long.
 Raffenetti 2 integral format.
 Two-electron integral symmetry is turned on.
 One-electron integrals computed using PRISM.
 NBasis=   384 RedAO= T EigKep=  7.65D-05  NBF=   384
 NBsUse=   384 1.00D-06 EigRej= -1.00D+00 NBFU=   384
 Initial guess from the checkpoint file:  "ccpvTZ3HPA2.chk"
 B after Tr=     0.000000   -0.000000    0.000000
         Rot=    1.000000    0.000008   -0.000000   -0.001000 Ang=   0.11 deg.
 Requested convergence on RMS density matrix=1.00D-08 within 128 cycles.
 Requested convergence on MAX density matrix=1.00D-06.
 Requested convergence on             energy=1.00D-06.
 No special actions if energy rises.
 SCF Done:  E(RM062X) =  -512.447603959     A.U. after    8 cycles
            NFock=  8  Conv=0.85D-08     -V/T= 2.0053
 Calling FoFJK, ICntrl=      2127 FMM=F ISym2X=0 I1Cent= 0 IOpClX= 0 NMat=1 NMatS=1 NMatT=0.
 ***** Axes restored to original set *****
 -------------------------------------------------------------------
 Center     Atomic                   Forces (Hartrees/Bohr)
 Number     Number              X              Y              Z
 -------------------------------------------------------------------
      1        7          -0.000078324   -0.000013142   -0.000005609
      2        6           0.000109193   -0.000040171    0.000001888
      3        6          -0.000068645    0.000025478   -0.000000781
      4        6          -0.000029109   -0.000087743    0.000003748
      5        6           0.000268517    0.000054076   -0.000000750
      6        6          -0.000104350    0.000313420   -0.000043975
      7        6           0.000693407    0.000253547    0.000148590
      8        8          -0.000162903   -0.000286724   -0.000058223
      9        8          -0.000595868    0.000204537   -0.000045784
     10        8           0.000188954   -0.000281057   -0.000003180
     11        1           0.000087617   -0.000037588    0.000002202
     12        1          -0.000055074   -0.000106743    0.000001131
     13        1          -0.000113386    0.000004976   -0.000000231
     14        1          -0.000047865    0.000109447   -0.000000506
     15        1          -0.000112821   -0.000055769   -0.000001565
     16        1           0.000020658   -0.000056544    0.000003046
 -------------------------------------------------------------------
 Cartesian Forces:  Max     0.000693407 RMS     0.000175775

 GradGradGradGradGradGradGradGradGradGradGradGradGradGradGradGradGradGrad
 Berny optimization.
 Using GEDIIS/GDIIS optimizer.
 FormGI is forming the generalized inverse of G from B-inverse, IUseBI=4.
 Internal  Forces:  Max     0.000832902 RMS     0.000209077
 Search for a local minimum.
 Step number   3 out of a maximum of   81
 All quantities printed in internal units (Hartrees-Bohrs-Radians)
 Mixed Optimization -- En-DIIS/RFO-DIIS
 Swapping is turned off.
 Update second derivatives using D2CorX and points    1    2    3
 DE= -7.90D-06 DEPred=-1.26D-05 R= 6.28D-01
 TightC=F SS=  1.41D+00  RLast= 8.85D-03 DXNew= 5.0454D-01 2.6553D-02
 Trust test= 6.28D-01 RLast= 8.85D-03 DXMaxT set to 3.00D-01
 ITU=  1  1  0
     Eigenvalues ---    0.00833   0.01449   0.01763   0.02041   0.02132
     Eigenvalues ---    0.02181   0.02228   0.02240   0.02353   0.02419
     Eigenvalues ---    0.02503   0.02529   0.02692   0.15402   0.16000
     Eigenvalues ---    0.16000   0.16000   0.16001   0.16065   0.21942
     Eigenvalues ---    0.22451   0.24149   0.24910   0.25000   0.25000
     Eigenvalues ---    0.30082   0.34862   0.35123   0.35223   0.37223
     Eigenvalues ---    0.41311   0.43401   0.44250   0.47336   0.52088
     Eigenvalues ---    0.52251   0.53180   0.54409   0.58296   0.59705
     Eigenvalues ---    0.63791   1.04135
 En-DIIS/RFO-DIIS IScMMF=        0 using points:     3    2
 RFO step:  Lambda=-4.39838548D-06.
 DidBck=T Rises=F RFO-DIIS coefs:    0.70706    0.29294
 Iteration  1 RMS(Cart)=  0.00206643 RMS(Int)=  0.00000193
 Iteration  2 RMS(Cart)=  0.00000273 RMS(Int)=  0.00000038
 Iteration  3 RMS(Cart)=  0.00000000 RMS(Int)=  0.00000038
 Variable       Old X    -DE/DX   Delta X   Delta X   Delta X     New X
                                 (Linear)    (Quad)   (Total)
    R1        2.49992   0.00008  -0.00008   0.00024   0.00016   2.50008
    R2        2.55261   0.00005  -0.00034   0.00056   0.00023   2.55284
    R3        1.93215   0.00008   0.00004   0.00008   0.00012   1.93227
    R4        2.63004   0.00023  -0.00033   0.00090   0.00057   2.63061
    R5        2.03954   0.00012  -0.00008   0.00039   0.00031   2.03985
    R6        2.59337   0.00015  -0.00025   0.00063   0.00039   2.59376
    R7        2.03989   0.00011  -0.00005   0.00034   0.00029   2.04018
    R8        2.66325   0.00013  -0.00050   0.00096   0.00046   2.66371
    R9        2.04468   0.00012  -0.00011   0.00044   0.00033   2.04501
   R10        2.62569  -0.00053  -0.00084   0.00047  -0.00037   2.62532
   R11        2.49482  -0.00021   0.00011  -0.00038  -0.00027   2.49454
   R12        2.81845  -0.00019  -0.00107   0.00123   0.00016   2.81861
   R13        2.25504   0.00020   0.00013  -0.00004   0.00009   2.25513
   R14        2.51822  -0.00025  -0.00003  -0.00023  -0.00026   2.51797
   R15        1.83561  -0.00010   0.00007  -0.00022  -0.00015   1.83546
   R16        1.83123   0.00003   0.00013  -0.00015  -0.00002   1.83121
    A1        2.17557  -0.00010  -0.00015  -0.00008  -0.00023   2.17534
    A2        2.11307   0.00010  -0.00002   0.00038   0.00035   2.11342
    A3        1.99455   0.00000   0.00017  -0.00030  -0.00012   1.99442
    A4        2.06685  -0.00004  -0.00005   0.00007   0.00002   2.06687
    A5        2.04932   0.00003  -0.00003   0.00010   0.00007   2.04939
    A6        2.16701   0.00001   0.00008  -0.00017  -0.00009   2.16693
    A7        2.08627  -0.00005   0.00008  -0.00013  -0.00005   2.08622
    A8        2.08357   0.00004  -0.00009   0.00021   0.00012   2.08369
    A9        2.11334   0.00001   0.00002  -0.00008  -0.00007   2.11327
   A10        2.10824  -0.00007  -0.00022   0.00013  -0.00009   2.10815
   A11        2.12121   0.00005   0.00013  -0.00002   0.00011   2.12132
   A12        2.05374   0.00002   0.00009  -0.00011  -0.00002   2.05372
   A13        2.05212   0.00006   0.00028  -0.00035  -0.00006   2.05205
   A14        2.04708   0.00045   0.00051   0.00049   0.00100   2.04809
   A15        2.18399  -0.00051  -0.00080  -0.00014  -0.00094   2.18304
   A16        2.07732   0.00020   0.00006   0.00035   0.00042   2.07774
   A17        1.96635   0.00047   0.00057   0.00048   0.00105   1.96740
   A18        2.23951  -0.00067  -0.00063  -0.00083  -0.00147   2.23804
   A19        2.12064   0.00012   0.00010   0.00017   0.00027   2.12091
   A20        1.96453  -0.00083  -0.00066  -0.00128  -0.00194   1.96258
   A21        2.19802   0.00072   0.00056   0.00112   0.00167   2.19969
   A22        1.91708  -0.00015  -0.00072   0.00042  -0.00030   1.91678
   A23        1.95936  -0.00011  -0.00093   0.00093   0.00001   1.95937
    D1       -0.00001   0.00000   0.00000   0.00002   0.00003   0.00002
    D2        3.14158   0.00000   0.00000   0.00003   0.00003  -3.14157
    D3       -3.14158  -0.00000  -0.00000  -0.00003  -0.00003   3.14157
    D4        0.00001  -0.00000  -0.00000  -0.00002  -0.00002  -0.00002
    D5        0.00000  -0.00000  -0.00000  -0.00001  -0.00002  -0.00001
    D6       -3.14157  -0.00000  -0.00001  -0.00005  -0.00005   3.14156
    D7        3.14158   0.00000   0.00000   0.00003   0.00004  -3.14157
    D8       -0.00000   0.00000  -0.00000   0.00000   0.00000   0.00000
    D9        0.00001  -0.00000  -0.00000  -0.00002  -0.00002  -0.00002
   D10       -3.14159  -0.00000  -0.00000  -0.00001  -0.00001   3.14159
   D11       -3.14158  -0.00000  -0.00000  -0.00003  -0.00003   3.14157
   D12        0.00001  -0.00000  -0.00000  -0.00001  -0.00002  -0.00001
   D13       -0.00000   0.00000   0.00000   0.00001   0.00001   0.00001
   D14        3.14159   0.00000   0.00000   0.00001   0.00001  -3.14159
   D15       -3.14159  -0.00000  -0.00000  -0.00000  -0.00000   3.14159
   D16        0.00000  -0.00000  -0.00000  -0.00001  -0.00001  -0.00000
   D17       -0.00000  -0.00000  -0.00000  -0.00000  -0.00000  -0.00000
   D18        3.14159   0.00000   0.00000   0.00002   0.00002  -3.14158
   D19        3.14159   0.00000   0.00000   0.00000   0.00000  -3.14159
   D20       -0.00001   0.00000   0.00000   0.00002   0.00003   0.00002
   D21        0.00000   0.00000   0.00000   0.00000   0.00000   0.00000
   D22        3.14158   0.00000   0.00001   0.00004   0.00004  -3.14156
   D23       -3.14159  -0.00000  -0.00000  -0.00002  -0.00002   3.14158
   D24       -0.00001   0.00000   0.00000   0.00002   0.00002   0.00001
   D25       -3.14157  -0.00000  -0.00001  -0.00006  -0.00007   3.14154
   D26        0.00002  -0.00000  -0.00001  -0.00004  -0.00005  -0.00003
   D27       -0.00054   0.00004   0.00021   0.00145   0.00166   0.00112
   D28       -3.14110  -0.00003  -0.00019  -0.00135  -0.00154   3.14055
   D29        3.14106   0.00004   0.00020   0.00142   0.00162  -3.14050
   D30        0.00051  -0.00004  -0.00019  -0.00139  -0.00158  -0.00107
   D31        3.14104   0.00004   0.00021   0.00151   0.00172  -3.14043
   D32        0.00054  -0.00004  -0.00020  -0.00145  -0.00165  -0.00111
         Item               Value     Threshold  Converged?
 Maximum Force            0.000833     0.000450     NO 
 RMS     Force            0.000209     0.000300     YES
 Maximum Displacement     0.008288     0.001800     NO 
 RMS     Displacement     0.002067     0.001200     NO 
 Predicted change in Energy=-3.266718D-06
 GradGradGradGradGradGradGradGradGradGradGradGradGradGradGradGradGradGrad

                          Input orientation:                          
 ---------------------------------------------------------------------
 Center     Atomic      Atomic             Coordinates (Angstroms)
 Number     Number       Type             X           Y           Z
 ---------------------------------------------------------------------
      1          7           0       -0.506668   -1.344120    0.000200
      2          6           0       -1.827662   -1.416701   -0.000059
      3          6           0       -2.556417   -0.230638   -0.000179
      4          6           0       -1.893074    0.970985   -0.000009
      5          6           0       -0.484262    1.017413    0.000276
      6          6           0        0.199032   -0.192196    0.000378
      7          6           0        1.673143   -0.419580    0.000703
      8          8           0        2.134638   -1.520097   -0.000349
      9          8           0        2.363719    0.719949   -0.000408
     10          8           0        0.083188    2.209281    0.000444
     11          1           0        0.068590   -2.189468    0.000314
     12          1           0       -2.271461   -2.400692   -0.000161
     13          1           0       -3.635249   -0.271726   -0.000396
     14          1           0       -2.426900    1.912326   -0.000091
     15          1           0        3.315861    0.528079   -0.001214
     16          1           0        1.050713    2.155260    0.000681
 ---------------------------------------------------------------------
                    Distance matrix (angstroms):
                    1          2          3          4          5
     1  N    0.000000
     2  C    1.322986   0.000000
     3  C    2.332662   1.392059   0.000000
     4  C    2.698487   2.388581   1.372560   0.000000
     5  C    2.361639   2.780221   2.418978   1.409577   0.000000
     6  C    1.350904   2.367889   2.755717   2.393721   1.389261
     7  C    2.367773   3.640039   4.233778   3.827737   2.592170
     8  O    2.647161   3.963648   4.865048   4.735815   3.646586
     9  O    3.535463   4.704566   5.011123   4.264189   2.863474
    10  O    3.602025   4.098669   3.594540   2.332164   1.320056
    11  H    1.022515   2.047668   3.275314   3.719757   3.254187
    12  H    2.056901   1.079443   2.188683   3.392842   3.857139
    13  H    3.307272   2.139705   1.079614   2.139977   3.404496
    14  H    3.780441   3.382529   2.146874   1.082171   2.138857
    15  H    4.256390   5.498909   5.921089   5.227731   3.831499
    16  H    3.830287   4.587368   4.324800   3.173073   1.910719
                    6          7          8          9         10
     6  C    0.000000
     7  C    1.491544   0.000000
     8  O    2.347315   1.193363   0.000000
     9  O    2.349016   1.332450   2.251729   0.000000
    10  O    2.404270   3.072274   4.256372   2.723772   0.000000
    11  H    2.001527   2.388953   2.171776   3.705715   4.398774
    12  H    3.313728   4.414148   4.493234   5.587781   5.176507
    13  H    3.835106   5.310450   5.903390   6.080381   4.470142
    14  H    3.365195   4.716793   5.708691   4.936780   2.527592
    15  H    3.198972   1.896466   2.364384   0.971283   3.643710
    16  H    2.497181   2.649003   3.831858   1.945277   0.969032
                   11         12         13         14         15
    11  H    0.000000
    12  H    2.349565   0.000000
    13  H    4.170871   2.528322   0.000000
    14  H    4.801270   4.315818   2.496035   0.000000
    15  H    4.234363   6.308397   6.996972   5.907237   0.000000
    16  H    4.454350   5.638576   5.277168   3.486088   2.789017
                   16
    16  H    0.000000
 Stoichiometry    C6H6NO3(1+)
 Framework group  C1[X(C6H6NO3)]
 Deg. of freedom    42
 Full point group                 C1      NOp   1
 Largest Abelian subgroup         C1      NOp   1
 Largest concise Abelian subgroup C1      NOp   1
                         Standard orientation:                         
 ---------------------------------------------------------------------
 Center     Atomic      Atomic             Coordinates (Angstroms)
 Number     Number       Type             X           Y           Z
 ---------------------------------------------------------------------
      1          7           0       -0.507670   -1.342720    0.000136
      2          6           0       -1.828810   -1.412588   -0.000123
      3          6           0       -2.555128   -0.225032   -0.000244
      4          6           0       -1.889319    0.975226   -0.000074
      5          6           0       -0.480415    1.018762    0.000212
      6          6           0        0.200394   -0.192248    0.000314
      7          6           0        1.674035   -0.422658    0.000639
      8          8           0        2.133269   -1.524120   -0.000413
      9          8           0        2.366949    0.715451   -0.000472
     10          8           0        0.089481    2.209462    0.000380
     11          1           0        0.065852   -2.189248    0.000250
     12          1           0       -2.274629   -2.395666   -0.000225
     13          1           0       -3.634042   -0.263905   -0.000461
     14          1           0       -2.421212    1.917662   -0.000155
     15          1           0        3.318695    0.521626   -0.001279
[...]
 ! D4    D(11,1,2,12)           -0.0001         -DE/DX =    0.0                 !
 ! D5    D(2,1,6,5)              0.0            -DE/DX =    0.0                 !
 ! D6    D(2,1,6,7)           -180.0001         -DE/DX =    0.0                 !
 ! D7    D(11,1,6,5)           180.0            -DE/DX =    0.0                 !
 ! D8    D(11,1,6,7)            -0.0001         -DE/DX =    0.0                 !
 ! D9    D(1,2,3,4)              0.0            -DE/DX =    0.0                 !
 ! D10   D(1,2,3,13)          -180.0            -DE/DX =    0.0                 !
 ! D11   D(12,2,3,4)          -179.9999         -DE/DX =    0.0                 !
 ! D12   D(12,2,3,13)            0.0001         -DE/DX =    0.0                 !
 ! D13   D(2,3,4,5)              0.0            -DE/DX =    0.0                 !
 ! D14   D(2,3,4,14)          -180.0            -DE/DX =    0.0                 !
 ! D15   D(13,3,4,5)           180.0            -DE/DX =    0.0                 !
 ! D16   D(13,3,4,14)            0.0            -DE/DX =    0.0                 !
 ! D17   D(3,4,5,6)              0.0            -DE/DX =    0.0                 !
 ! D18   D(3,4,5,10)           180.0            -DE/DX =    0.0                 !
 ! D19   D(14,4,5,6)           179.9999         -DE/DX =    0.0                 !
 ! D20   D(14,4,5,10)            0.0            -DE/DX =    0.0                 !
 ! D21   D(4,5,6,1)              0.0001         -DE/DX =    0.0                 !
 ! D22   D(4,5,6,7)            180.0001         -DE/DX =    0.0                 !
 ! D23   D(10,5,6,1)          -180.0            -DE/DX =    0.0                 !
 ! D24   D(10,5,6,7)             0.0001         -DE/DX =    0.0                 !
 ! D25   D(4,5,10,16)         -179.9999         -DE/DX =    0.0                 !
 ! D26   D(6,5,10,16)            0.0001         -DE/DX =    0.0                 !
 ! D27   D(1,6,7,8)              0.0014         -DE/DX =    0.0                 !
 ! D28   D(1,6,7,9)           -180.001          -DE/DX =    0.0                 !
 ! D29   D(5,6,7,8)           -179.9986         -DE/DX =    0.0                 !
 ! D30   D(5,6,7,9)             -0.001          -DE/DX =    0.0                 !
 ! D31   D(6,7,9,15)          -179.9986         -DE/DX =    0.0                 !
 ! D32   D(8,7,9,15)            -0.0011         -DE/DX =    0.0                 !
 --------------------------------------------------------------------------------
 GradGradGradGradGradGradGradGradGradGradGradGradGradGradGradGradGradGrad

 1\1\ WCSS.PL-BEM-JP\Freq\RM062X\CC-pVTZ\C6H6N1O3(1+)\C612\19-Dec-2024\
 0\\#N Geom=AllCheck Guess=TCheck SCRF=Check GenChk RM062X/CC-pVTZ Freq
 \\[No Title]\\1,1\N,-0.5065467614,-1.3438943573,-0.0000438524\C,-1.827
 4824869,-1.4166218707,-0.0000199956\C,-2.5562689606,-0.2306444763,0.00
 00506888\C,-1.8930729118,0.9709619211,0.000093269\C,-0.4842979339,1.01
 75429412,0.0000658667\C,0.1990095422,-0.1919487484,-0.0000043229\C,1.6
 730693967,-0.4195741698,-0.0000438224\O,2.1341593959,-1.5202280965,-0.
 0001290715\O,2.3638806415,0.7197987824,-0.0000256126\O,0.082902999,2.2
 093654881,0.0001097236\H,0.0688107966,-2.1891973764,-0.0000952121\H,-2
 .2712626086,-2.4006415619,-0.0000584515\H,-3.6351110108,-0.2717992236,
 0.0000714044\H,-2.4269959464,1.9122680938,0.0001491416\H,3.3159981859,
 0.5277152319,-0.0000745163\H,1.0503966625,2.1549734224,0.000085763\\Ve
 rsion=ES64L-G09RevE.01\State=1-A\HF=-512.4476067\RMSD=2.918e-09\RMSF=8
 .714e-06\ZeroPoint=0.1233619\Thermal=0.1312165\Dipole=-0.9854136,-0.45
 62618,0.0000076\DipoleDeriv=0.1405161,0.1669025,0.0000023,0.5854453,-0
 .3060604,-0.0000241,0.0000204,-0.0000142,-0.0715432,-0.2869342,-0.1534
 001,0.0000023,0.1594799,0.2472338,0.0000049,0.0000151,0.0000116,0.0713
 861,0.187599,0.0445512,-0.000003,-0.3837732,-0.1601691,0.0000033,-0.00
 00235,-0.0000064,-0.0541903,0.2087522,-0.3158821,-0.0000206,0.0565553,
 0.1114071,0.0000059,-0.0000009,0.0000129,-0.0363523,0.0071054,0.666628
 1,0.0000366,0.6624968,1.3806239,0.0000422,0.0000313,0.0000411,0.207291
 4,-0.5229158,0.2707554,0.0000275,-0.5558134,-0.1943795,-0.0000004,-0.0
 000194,-0.0000159,0.0489021,2.0560083,-0.0663692,-0.0000457,0.0408,1.6
 27553,0.0000515,-0.0000444,0.0000568,0.381419,-0.9366276,0.2841249,0.0
 000275,0.23937,-0.9898947,-0.0000323,0.0000341,-0.00005,-0.3216136,-1.
 0587528,-0.4389085,0.,-0.3965835,-0.9121705,-0.0000159,0.0000112,-0.00
 00037,-0.3311884,-0.5485648,-0.6234246,-0.0000241,-0.432249,-1.2119388
 ,-0.0000343,-0.0000143,-0.00003,-0.3056004,0.3627774,-0.0514745,-0.000
 0049,-0.0999736,0.3834936,0.0000075,-0.0000065,0.0000062,0.2635906,0.1
 194059,0.0470738,0.0000032,0.0434846,0.1325126,-0.0000022,0.0000038,-0
 .000002,0.1600805,0.1328115,-0.004243,0.0000003,-0.0097908,0.1076481,-
 0.0000018,-0.0000005,-0.0000019,0.1504064,0.1217436,-0.0209268,-0.0000
 008,-0.0225973,0.1206878,-0.0000005,-0.0000008,0.0000007,0.1464902,0.5
 220618,0.0851006,-0.0000016,0.0910473,0.2806914,-0.0000071,-0.0000018,
 -0.0000067,0.3678892,0.495014,0.1094923,0.000001,0.0221015,0.3827619,0
 .0000032,-0.000004,0.0000013,0.3230325\Polar=106.061354,1.970742,90.04
 47747,-0.0015088,0.0023456,39.7453481\PG=C01 [X(C6H6N1O3)]\NImag=0\\0.
 87714664,-0.05207573,0.79922657,-0.00001649,0.00003036,0.14113215,-0.4
 0216890,0.02085038,0.00000769,0.73798416,-0.05525186,-0.15689352,-0.00
 000302,0.04607958,0.79740240,0.00000411,-0.00000459,-0.06835749,-0.000
 00961,0.00003038,0.15032792,-0.05045197,0.03310772,0.00000282,-0.18439
 243,0.11830657,0.00000793,0.78420398,0.09542983,0.03506179,-0.00000094
 ,0.04822875,-0.28642061,-0.00001122,0.02537961,0.70242135,0.00000581,0
 .00000053,0.01082835,0.00000450,-0.00001261,-0.07014765,-0.00001186,0.
 00002626,0.14133263,-0.05976436,-0.03252305,-0.00000040,0.07500080,-0.
 01556740,-0.00000211,-0.20115233,-0.08038548,-0.00000081,0.67523122,-0
 .03592620,-0.01780473,0.00000021,0.02487930,-0.05665065,-0.00000358,-0
 .14388441,-0.34291547,-0.00001065,0.00535154,0.80012221,-0.00000060,0.
 00000005,-0.00571124,-0.00000021,-0.00000270,0.00668795,-0.00000393,-0
 .00001171,-0.06029841,-0.00001080,0.00003006,0.14252572,0.07750974,0.0
 3020221,-0.00000021,-0.05904768,0.01824597,0.00000194,-0.01128298,-0.0
 7271388,-0.00000322,-0.29610310,0.05034075,0.00000680,0.70025274,-0.01
 578772,-0.06828538,-0.00000300,0.02881520,0.00014442,-0.00000025,-0.04
 024345,0.02134438,0.00000184,-0.00866823,-0.12130905,-0.00000225,0.030
 21500,0.77637196,-0.00000209,-0.00000388,0.00228642,0.00000229,0.00000
 004,-0.00689815,-0.00000170,0.00000233,0.00050619,0.00000382,-0.000003
 36,-0.07296068,-0.00000904,0.00002567,0.16813026,-0.17620736,-0.105399
 47,-0.00000272,-0.06387180,-0.02312199,0.00000038,0.00259228,-0.029390
 89,-0.00000159,-0.00535900,0.03724355,0.00000201,-0.21345410,0.1037018
 0,0.00000709,0.67899306,-0.04722993,-0.28540096,-0.00000932,-0.0910655
 1,0.01433849,0.00000204,0.01557745,-0.05812131,-0.00000288,0.06199461,
 0.03566414,0.00000014,0.06229651,-0.27028943,-0.00000986,-0.02451918,0
 .76413257,-0.00000004,-0.00000800,-0.06305449,-0.00000270,0.00000053,0
 .01051114,0.00000056,-0.00000186,-0.00616117,0.00000327,0.00000069,0.0
 0755871,0.00000488,-0.00001072,-0.06643365,-0.00001277,0.00002886,0.13
 639830,-0.05368244,-0.02509758,-0.00000001,0.02452733,-0.00768581,-0.0
 0000070,-0.00203039,0.01788330,0.00000088,-0.01258566,-0.00687076,0.00
 000014,0.01785270,0.03402131,0.00000144,-0.19333590,0.01262574,0.00000
 226,0.68694896,-0.02761923,0.00536741,0.00000071,-0.00822186,-0.007960
 28,-0.00000055,0.00203098,-0.00396638,-0.00000019,0.00304875,-0.004738
 23,-0.00000064,0.03115468,0.01806254,0.00000008,0.01278967,-0.09252377
 ,-0.00000072,-0.13269052,1.02725482,-0.00000018,0.00000098,-0.00121743
 ,-0.00000068,-0.00000062,0.00645680,0.00000017,-0.00000049,-0.00057689
 ,0.00000052,-0.00000031,0.00764953,0.00000110,-0.00000051,0.00427233,0
 .00000369,-0.00000062,-0.07775418,-0.00002464,0.00004735,0.20613780,-0
 .00169170,0.00748039,0.00000045,-0.00342436,0.00395111,0.00000025,-0.0
 0050762,-0.00321743,-0.00000015,0.00155434,0.00360687,0.00000005,-0.01
 130562,-0.01242040,-0.00000030,-0.03441345,0.04830626,0.00000458,-0.23
 158236,0.25589790,0.00001975,0.23927155,-0.01576409,-0.00454700,0.0000
 0022,0.00851479,0.00074113,-0.00000008,-0.00174199,0.00473899,0.000000
 26,-0.00191870,-0.00221939,0.00000005,0.00225663,0.00175705,-0.0000000
 3,0.03690722,-0.02335502,-0.00000379,0.25364128,-0.68259684,-0.0000427
 7,-0.29300094,0.80614942,-0.00000079,-0.00000055,0.00104577,0.00000051
 ,0.,-0.00073501,-0.00000010,0.00000032,-0.00006246,-0.00000015,-0.0000
 0021,-0.00176769,0.00000056,0.00000045,0.00174334,0.00000333,-0.000004
 05,0.02214801,0.00001997,-0.00004332,-0.07851397,-0.00002326,0.0000528
 1,0.03545879,-0.00648604,0.00569558,0.00000045,-0.00347669,-0.00086055
 ,0.,0.00030436,-0.00355885,-0.00000016,0.00309896,0.00110150,-0.000000
 03,-0.00379604,-0.00374473,-0.00000014,-0.03353322,-0.04076534,-0.0000
 0008,-0.20201527,-0.11182511,0.00000033,0.03719261,-0.00525134,-0.0000
 0055,0.69011061,0.00125320,0.00471475,0.00000017,-0.00175788,0.0024406
 6,0.00000015,-0.00011536,-0.00297192,-0.00000015,0.00344950,0.00225613
 ,0.00000005,-0.00893696,-0.01545444,-0.00000057,-0.01488466,0.00108193
 ,0.00000025,-0.06951470,-0.25619902,-0.00000576,-0.02769276,-0.1037093
 7,-0.00000540,0.02580112,0.43333465,0.00000040,-0.00000004,0.00139210,
 -0.00000002,0.00000016,-0.00017635,0.,-0.00000004,0.00023848,0.0000000
 6,0.00000006,-0.00047596,-0.00000022,-0.00000043,-0.00065225,0.0000003
 9,0.00000087,0.00961462,0.00000265,-0.00000325,-0.06383657,-0.00000171
 ,-0.00000665,0.02793469,-0.00002496,0.00001654,0.04147995,-0.01489433,
 -0.00411031,0.00000034,0.01156960,-0.00790138,-0.00000062,-0.00673970,
 0.01747654,0.00000107,-0.04242846,-0.06485606,-0.00000204,-0.16356831,
 -0.12551761,-0.00000303,0.02943385,0.01006653,0.00000010,-0.02012232,-
 0.01266900,-0.00000010,0.00517101,0.00374143,0.00000008,-0.00358733,0.
 01526907,0.00000079,0.68648683,-0.00268138,-0.00324626,-0.00000044,0.0
 0713109,-0.01010813,-0.00000056,0.00430076,0.01244174,0.00000031,-0.03
 012376,-0.01262639,-0.00000031,-0.08849603,-0.33802798,-0.00001055,-0.
 00529604,-0.05497987,-0.00000286,-0.02024378,-0.00501612,0.00000046,0.
 00519549,0.00020486,-0.00000012,0.01046007,0.00702087,-0.00000019,0.10
 323977,0.45342092,0.00000027,-0.00000047,0.00825978,0.00000011,-0.0000
 0029,-0.00085490,0.00000043,0.00000005,0.00428978,-0.00000038,0.000000
 38,0.00806749,-0.00000127,-0.00000962,-0.04957105,-0.00000052,-0.00000
 326,0.00884707,-0.00000058,0.00000023,-0.00340967,0.00000013,-0.000000
 12,0.00011179,0.00000063,-0.00000017,0.00184668,-0.00000999,0.00001617
 ,0.03687928,-0.16998385,0.15459989,0.00000906,-0.01633046,0.02808276,0
 .00000167,-0.00468479,-0.00362738,0.00000007,-0.00028193,-0.00052403,-
 0.00000004,-0.00193155,-0.00323992,-0.00000002,0.01752991,-0.01224991,
 -0.00000096,0.00347476,-0.01465851,-0.00000084,-0.00006513,0.00882122,
 0.00000039,0.00052367,0.00570852,0.00000022,-0.00063563,-0.00222223,-0
 .00000007,0.17107647,0.15303105,-0.30803831,-0.00001452,-0.00050622,0.
 01122739,0.00000053,-0.00271813,0.00285208,-0.00000016,-0.00099484,-0.
 00036149,0.00000005,-0.00459882,-0.00247151,-0.00000026,0.01334056,-0.
 02782043,-0.00000160,-0.00188610,-0.00232679,0.00000002,0.00383325,0.0
 0032432,0.00000006,0.00103414,-0.00009582,-0.00000007,0.00132120,0.000
 01428,-0.00000005,-0.16051211,0.32520523,0.00000893,-0.00001460,-0.034
 41459,0.00000037,-0.00000004,0.00117777,0.00000011,-0.00000013,0.00782
 718,-0.00000012,0.00000002,-0.00099580,0.,-0.00000033,0.00520197,0.000
 00035,-0.00000101,0.00144535,-0.00000033,0.00000033,-0.00229219,0.0000
 0010,-0.00000010,-0.00276342,0.00000007,-0.00000018,0.00045339,0.00000
 007,0.00000003,0.00059611,-0.00000937,0.00001570,0.02860469,-0.0186736
 6,-0.03612635,-0.00000131,-0.10471497,-0.09899660,-0.00000348,0.013508
 53,0.01555565,0.00000061,-0.00264107,0.00352737,0.00000035,-0.00023706
 ,-0.00045318,-0.00000001,-0.00357027,0.00401785,0.00000042,0.00006668,
 -0.00147276,-0.00000005,-0.00000303,0.00022926,0.00000002,-0.00057336,
 0.00007434,0.00000002,0.00048361,0.00028936,-0.00000001,0.00078616,-0.
 00084247,-0.00000016,0.11461198,0.00200270,0.00569399,0.00000018,-0.10
 945645,-0.31044520,-0.00001131,-0.01117552,-0.01156338,-0.00000062,0.0
 0258391,-0.00267936,-0.00000046,0.00147652,-0.00121866,-0.00000009,0.0
 0193854,0.00311325,-0.00000027,-0.00072531,0.00043459,-0.00000003,0.00
 022574,-0.00027413,-0.00000002,0.00035769,0.00009664,0.,0.00005745,0.0
 0071636,0.00000007,-0.00032538,0.00097723,0.00000027,0.11388853,0.3151
 3967,0.00000053,0.00000091,0.00136193,-0.00000402,-0.00001154,-0.03922
 365,-0.00000063,-0.00000112,0.00621820,0.00000025,-0.00000046,0.005832
 07,0.00000009,-0.00000003,-0.00003564,0.00000035,-0.00000030,0.0080568
 5,0.,-0.00000003,0.00166091,0.00000002,-0.00000002,-0.00005091,0.00000
 001,0.00000002,-0.00033171,-0.00000004,0.00000004,-0.00076677,-0.00000
 012,0.00000027,-0.00463269,0.00000370,0.00001208,0.02586667,0.00060673
 ,0.00248047,0.00000025,-0.00927780,-0.00276435,0.00000011,-0.35224155,
 -0.00928799,0.00000576,-0.00718572,0.00064760,0.00000026,0.00059003,-0
 .00134072,0.00000012,0.00084571,-0.00028774,-0.00000005,-0.00053374,0.
 00006128,0.,0.00013912,-0.00013981,0.,0.00014586,0.00006855,0.,-0.0003
 6353,0.00017834,0.,-0.00012036,-0.00031104,0.,0.00046458,0.00001329,-0
 .00000008,0.36625454,0.00452416,-0.00555429,-0.00000068,0.02720129,0.0
 0676823,-0.00000035,-0.01063542,-0.06021670,-0.00000073,-0.02899107,0.
 00389165,0.00000054,-0.00139548,-0.00485093,-0.00000064,-0.00098694,-0
 .00132535,0.,0.00042728,-0.00030760,0.00000002,0.00005562,0.00039896,0
 .00000001,-0.00000346,0.00012755,0.,-0.00168357,0.00029134,0.00000007,
 0.00091631,0.00055019,-0.00000001,-0.00042251,0.00057960,0.00000018,0.
 01063739,0.05900822,0.00000031,-0.00000068,0.00700973,0.00000154,0.000
 00030,0.00189589,0.00000571,-0.00000078,-0.04187194,-0.00000110,-0.000
 00002,0.00516962,0.00000011,-0.00000065,0.00953039,-0.00000007,0.,-0.0
 0076689,0.,0.00000003,-0.00097294,0.,0.00000001,0.00012747,0.,0.,-0.00
 001771,-0.00000008,0.00000002,-0.00042863,0.00000006,0.,0.00046240,-0.
 00000010,0.00000017,-0.00304337,-0.00000625,0.00000133,0.02818616,-0.0
 0100968,-0.00162416,-0.00000008,-0.00109137,-0.00398292,0.00000004,0.0
 1341756,-0.01555791,-0.00000087,-0.13263339,0.12455490,0.00000804,-0.0
 1148691,0.02884309,0.00000180,-0.00554530,-0.00050597,0.00000020,0.000
 68856,0.00139066,-0.00000001,-0.00068682,0.00029343,0.00000006,0.00002
 129,-0.00032010,0.,0.00304989,-0.00003686,-0.00000013,-0.00012674,0.00
 009725,-0.00000001,0.00067856,-0.00070109,-0.00000006,0.00069649,0.000
 37540,-0.00000011,0.13405960,-0.00092281,0.00084693,0.00000010,-0.0026
 6334,-0.00334570,-0.00000051,0.01333281,-0.01539007,-0.00000129,0.1257
 7315,-0.27394607,-0.00001244,-0.00266227,0.00652072,0.00000004,-0.0010
 0711,-0.00034552,-0.00000026,0.00016110,0.00032525,0.00000006,-0.00030
 360,0.00015301,0.00000002,-0.00017263,-0.00005412,0.,0.00003749,-0.000
 26533,0.00000012,0.00011115,-0.00010900,0.00000003,0.00075919,-0.00050
 932,0.,0.00017195,0.00096087,0.00000026,-0.13270284,0.28507290,-0.0000
 0006,0.00000010,-0.00084644,0.00000012,-0.00000054,0.00943411,0.000000
 51,-0.00000075,0.00629282,0.00000814,-0.00001231,-0.04477613,0.0000002
 2,-0.00000065,0.00822559,0.00000018,-0.00000023,0.00549893,-0.00000005
 ,0.00000004,-0.00135800,0.00000001,-0.00000001,0.00017429,0.,0.,0.0001
 0908,-0.00000011,0.00000014,-0.00311073,0.,0.00000003,-0.00088968,0.,0
 .00000002,-0.00068553,-0.00000010,0.00000027,-0.00490575,-0.00000885,0
 .00001386,0.02719341,-0.00071665,-0.00029681,0.00000005,0.00090520,-0.
 00061914,-0.00000006,-0.00000815,0.00077924,0.00000004,-0.00058068,-0.
 00020381,-0.00000002,0.00053441,-0.00015518,-0.00000004,0.00164567,-0.
 00210151,0.00000014,-0.03406909,-0.00749771,0.00000101,0.00397655,0.00
 837326,0.00000010,-0.46632225,0.07728550,0.00002211,0.00139442,-0.0002
 9680,-0.00000002,-0.00055583,-0.00020347,0.00000002,-0.00005691,-0.000
 04752,-0.00000001,-0.00003766,0.00001149,0.,-0.00001126,0.00006592,0.,
 0.49558949,-0.00143393,0.00002325,-0.00000001,0.00004385,-0.00042694,-
 0.00000001,0.00005425,0.00000674,0.,0.00011951,0.00014296,0.00000002,-
 0.00068813,-0.00113420,-0.00000001,-0.00220110,-0.00469986,-0.00000031
 ,-0.04917660,0.01405282,0.00000251,0.00723172,-0.00105763,-0.00000016,
 0.12162422,-0.07239134,-0.00000694,0.00212130,-0.00085720,-0.00000011,
 -0.00052232,0.00005381,0.,-0.00010721,0.00000620,0.,-0.00000736,0.0000
 1195,0.,-0.00002996,0.00002237,0.,-0.07664399,0.06346078,-0.00000002,-
 0.00000004,0.00084504,-0.00000005,0.00000002,-0.00025281,0.,-0.0000000
 4,0.00008508,0.00000003,0.00000002,-0.00027312,-0.00000005,0.00000002,
 -0.00054441,-0.00000012,-0.00000037,0.00469024,-0.00000033,0.00000068,
 0.00346755,-0.00000008,-0.00000005,-0.00527183,0.00002398,-0.00000515,
 -0.01506197,0.00000002,-0.00000005,0.00037183,0.,0.,0.00025301,0.,0.,-
 0.00016419,0.,0.,0.00005790,0.,0.,0.00004202,-0.00002345,0.00000491,0.
 01183670,0.00046785,0.00283681,0.00000010,-0.00219062,0.00208601,0.000
 00014,-0.00053479,-0.00299311,-0.00000010,0.00583038,0.00101190,0.0000
 0003,-0.02452626,-0.01402526,-0.00000018,-0.00175008,0.00384013,0.0000
 0018,0.01639818,0.01028079,-0.00000005,-0.00362507,-0.00496167,-0.0000
 0015,-0.01160716,-0.00568739,0.00000030,-0.48524959,0.01860199,0.00001
 139,0.00132531,-0.00008425,-0.00000004,-0.00012975,-0.00011311,0.,0.00
 001729,-0.00003049,-0.00000001,-0.00002049,0.00002182,-0.00000001,-0.0
 0168727,-0.00038425,0.00000008,0.50728209,-0.00154805,-0.00116423,0.,0
 .00192702,-0.00081168,-0.00000008,-0.00157586,0.00269878,0.00000009,-0
 .00314844,-0.00682628,-0.00000045,-0.04669669,-0.00115950,0.00000110,0
 .00088605,0.00053116,0.00000006,-0.00486885,-0.00986239,-0.00000028,0.
 00085076,0.00329165,0.00000015,0.00010768,-0.00019714,-0.00000002,0.06
 340714,-0.04898307,-0.00000299,-0.00035805,0.00001882,0.00000001,0.000
 07952,-0.00006747,0.,-0.00011988,-0.00033370,0.,-0.00009294,0.00006307
 ,0.00000003,0.00155054,0.00278630,0.00000005,-0.01039993,0.06001570,-0
 .00000009,-0.00000009,-0.00055960,0.00000015,-0.00000010,0.00015443,-0
 .00000003,0.00000013,0.00149983,-0.00000022,-0.00000053,0.00376794,-0.
 00000170,0.00000048,-0.00280062,0.00000003,-0.00000002,-0.00059886,-0.
 00000069,-0.00000075,0.00028692,0.00000017,0.00000028,0.00042114,0.000
 00048,0.00000020,-0.00251648,0.00001354,-0.00000208,-0.01112805,-0.000
 00005,0.,-0.00003351,0.,0.,-0.00006215,-0.00000002,0.,-0.00043234,0.,0
 .00000002,-0.00039798,0.00000012,0.00000012,-0.00008101,-0.00001168,0.
 00000233,0.01248035\\0.00001251,-0.00000756,-0.00000026,-0.00000614,0.
 00000325,0.00000007,-0.00001082,-0.00000720,-0.00000002,0.00001309,0.0
 0001970,0.00000017,0.00001594,0.00002124,0.00000001,0.00000294,-0.0000
 0596,-0.00000185,0.00002635,-0.00000228,0.00000604,-0.00001555,-0.0000
 0850,-0.00000241,0.00000212,0.00000442,-0.00000183,0.00000095,-0.00000
 690,-0.00000008,-0.00000442,-0.00000091,0.00000012,-0.00000602,-0.0000
 0427,0.00000004,-0.00000551,0.00000604,0.,-0.00000125,0.00000985,0.,-0
 .00001039,-0.00000801,-0.00000006,-0.00001380,-0.00001292,0.00000007\\
 \@


 LET US LEARN TO DREAM, GENTLEMEN, THEN PERHAPS WE SHALL
 DISCOVER THE TRUTH;  BUT LET US BEWARE OF PUBLISHING
 OUR DREAMS ABROAD BEFORE THEY HAVE BEEN SCRUTINIZED
 BY OUR VIGILANT INTELLECT ... LET US ALWAYS ALLOW
 THE FRUIT TO HANG UNTIL IT IS RIPE.  UNRIPE FRUIT
 BRINGS EVEN THE GROWER BUT LITTLE PROFIT; IT DAMAGES
 THE HEALTH OF THOSE WHO CONSUME IT; IT ENDANGERS
 PARTICULARLY THE YOUTH WHO CANNOT YET DISTINGUISH
 BETWEEN RIPE AND UNRIPE FRUIT.

                                  -- KEKULE, 1890
 Job cpu time:       0 days  1 hours 13 minutes 16.2 seconds.
 File lengths (MBytes):  RWF=    202 Int=      0 D2E=      0 Chk=     12 Scr=      1
 Normal termination of Gaussian 09 at Thu Dec 19 17:43:25 2024.
