 Entering Gaussian System, Link 0=g09
 Input=pvdz3HPA2.gjf
 Output=pvdz3HPA2.log
 Initial command:
 /home/c612/g09E/g09/l1.exe "/mnt/ja_sm883/scratch/Gau-3890651.inp" -scrdir="/mnt/ja_sm883/scratch/"
 Default is to use a total of  18 processors:
                               18 via shared-memory
                                1 via Linda
 Entering Link 1 = /home/c612/g09E/g09/l1.exe PID=   3890653.
  
 Copyright (c) 1988,1990,1992,1993,1995,1998,2003,2009,2015,
            Gaussian, Inc.  All Rights Reserved.
  
 This is part of the Gaussian(R) 09 program.  It is based on
 the Gaussian(R) 03 system (copyright 2003, Gaussian, Inc.),
 the Gaussian(R) 98 system (copyright 1998, Gaussian, Inc.),
 the Gaussian(R) 94 system (copyright 1995, Gaussian, Inc.),
 the Gaussian 92(TM) system (copyright 1992, Gaussian, Inc.),
 the Gaussian 90(TM) system (copyright 1990, Gaussian, Inc.),
 the Gaussian 88(TM) system (copyright 1988, Gaussian, Inc.),
 the Gaussian 86(TM) system (copyright 1986, Carnegie Mellon
 University), and the Gaussian 82(TM) system (copyright 1983,
 Carnegie Mellon University). Gaussian is a federally registered
 trademark of Gaussian, Inc.
  
 This software contains proprietary and confidential information,
 including trade secrets, belonging to Gaussian, Inc.
  
 This software is provided under written license and may be
 used, copied, transmitted, or stored only in accord with that
 written license.
  
 The following legend is applicable only to US Government
 contracts under FAR:
  
                    RESTRICTED RIGHTS LEGEND
  
 Use, reproduction and disclosure by the US Government is
 subject to restrictions as set forth in subparagraphs (a)
 and (c) of the Commercial Computer Software - Restricted
 Rights clause in FAR 52.227-19.
  
 Gaussian, Inc.
 340 Quinnipiac St., Bldg. 40, Wallingford CT 06492
  
  
 ---------------------------------------------------------------
 Warning -- This program may not be used in any manner that
 competes with the business of Gaussian, Inc. or will provide
 assistance to any competitor of Gaussian, Inc.  The licensee
 of this program is prohibited from giving any competitor of
 Gaussian, Inc. access to this program.  By using this program,
 the user acknowledges that Gaussian, Inc. is engaged in the
 business of creating and licensing software in the field of
 computational chemistry and represents and warrants to the
 licensee that it is not a competitor of Gaussian, Inc. and that
 it will not use this program in any manner prohibited above.
 ---------------------------------------------------------------
  

 Cite this work as:
 Gaussian 09, Revision E.01,
 M. J. Frisch, G. W. Trucks, H. B. Schlegel, G. E. Scuseria, 
 M. A. Robb, J. R. Cheeseman, G. Scalmani, V. Barone, B. Mennucci, 
 G. A. Petersson, H. Nakatsuji, M. Caricato, X. Li, H. P. Hratchian, 
 A. F. Izmaylov, J. Bloino, G. Zheng, J. L. Sonnenberg, M. Hada, 
 M. Ehara, K. Toyota, R. Fukuda, J. Hasegawa, M. Ishida, T. Nakajima, 
 Y. Honda, O. Kitao, H. Nakai, T. Vreven, J. A. Montgomery, Jr., 
 J. E. Peralta, F. Ogliaro, M. Bearpark, J. J. Heyd, E. Brothers, 
 K. N. Kudin, V. N. Staroverov, T. Keith, R. Kobayashi, J. Normand, 
 K. Raghavachari, A. Rendell, J. C. Burant, S. S. Iyengar, J. Tomasi, 
 M. Cossi, N. Rega, J. M. Millam, M. Klene, J. E. Knox, J. B. Cross, 
 V. Bakken, C. Adamo, J. Jaramillo, R. Gomperts, R. E. Stratmann, 
 O. Yazyev, A. J. Austin, R. Cammi, C. Pomelli, J. W. Ochterski, 
 R. L. Martin, K. Morokuma, V. G. Zakrzewski, G. A. Voth, 
 P. Salvador, J. J. Dannenberg, S. Dapprich, A. D. Daniels, 
 O. Farkas, J. B. Foresman, J. V. Ortiz, J. Cioslowski, 
 and D. J. Fox, Gaussian, Inc., Wallingford CT, 2013.
 
 ******************************************
 Gaussian 09:  ES64L-G09RevE.01 30-Nov-2015
                14-Dec-2024 
 ******************************************
 %chk=pvdz3HPA2.chk
 ----------------------------
 # opt freq m062x/aug-cc-pvdz
 ----------------------------
 1/14=-1,18=20,19=15,26=3,38=1/1,3;
 2/9=110,12=2,17=6,18=5,40=1/2;
 3/5=16,7=10,11=2,16=1,25=1,30=1,71=1,74=-55/1,2,3;
 4//1;
 5/5=2,38=5/2;
 6/7=2,8=2,9=2,10=2,28=1/1;
 7//1,2,3,16;
 1/14=-1,18=20,19=15,26=3/3(2);
 2/9=110/2;
 99//99;
 2/9=110/2;
 3/5=16,7=10,11=2,16=1,25=1,30=1,71=1,74=-55/1,2,3;
 4/5=5,16=3,69=1/1;
 5/5=2,38=5/2;
 7//1,2,3,16;
 1/14=-1,18=20,19=15,26=3/3(-5);
 2/9=110/2;
 6/7=2,8=2,9=2,10=2,19=2,28=1/1;
 99/9=1/99;
 ----------
 [No Title]
 ----------
 Symbolic Z-matrix:
 Charge =  1 Multiplicity = 1
 N                     0.50673  -1.34953   0.00015 
 C                     1.83326  -1.41998  -0.00004 
 C                     2.56341  -0.22743  -0.00023 
 C                     1.8956    0.97864  -0.00018 
 C                     0.481     1.02118   0.00004 
 C                    -0.20371  -0.19495   0.00021 
 C                    -1.68028  -0.42234   0.00048 
 O                    -2.14635  -1.52889  -0.00006 
 O                    -2.36721   0.72174  -0.00023 
 O                    -0.08549   2.21606   0.00006 
 H                    -0.06455  -2.20101   0.00031 
 H                     2.28022  -2.40666  -0.00005 
 H                     3.64614  -0.26705  -0.00039 
 H                     2.42863   1.92471  -0.00032 
 H                    -3.32442   0.54041  -0.00066 
 H                    -1.05652   2.17433   0.00023 
 

 GradGradGradGradGradGradGradGradGradGradGradGradGradGradGradGradGradGrad
 Berny optimization.
 Initialization pass.
                           ----------------------------
                           !    Initial Parameters    !
                           ! (Angstroms and Degrees)  !
 --------------------------                            --------------------------
 ! Name  Definition              Value          Derivative Info.                !
 --------------------------------------------------------------------------------
 ! R1    R(1,2)                  1.3284         estimate D2E/DX2                !
 ! R2    R(1,6)                  1.3556         estimate D2E/DX2                !
 ! R3    R(1,11)                 1.0254         estimate D2E/DX2                !
 ! R4    R(2,3)                  1.3983         estimate D2E/DX2                !
 ! R5    R(2,12)                 1.0832         estimate D2E/DX2                !
 ! R6    R(3,4)                  1.3786         estimate D2E/DX2                !
 ! R7    R(3,13)                 1.0835         estimate D2E/DX2                !
 ! R8    R(4,5)                  1.4152         estimate D2E/DX2                !
 ! R9    R(4,14)                 1.0859         estimate D2E/DX2                !
 ! R10   R(5,6)                  1.3956         estimate D2E/DX2                !
 ! R11   R(5,10)                 1.3224         estimate D2E/DX2                !
 ! R12   R(6,7)                  1.494          estimate D2E/DX2                !
 ! R13   R(7,8)                  1.2007         estimate D2E/DX2                !
 ! R14   R(7,9)                  1.3345         estimate D2E/DX2                !
 ! R15   R(9,15)                 0.9742         estimate D2E/DX2                !
 ! R16   R(10,16)                0.9719         estimate D2E/DX2                !
 ! A1    A(2,1,6)              124.6452         estimate D2E/DX2                !
 ! A2    A(2,1,11)             120.8187         estimate D2E/DX2                !
 ! A3    A(6,1,11)             114.5362         estimate D2E/DX2                !
 ! A4    A(1,2,3)              118.4375         estimate D2E/DX2                !
 ! A5    A(1,2,12)             117.4106         estimate D2E/DX2                !
 ! A6    A(3,2,12)             124.1518         estimate D2E/DX2                !
 ! A7    A(2,3,4)              119.549          estimate D2E/DX2                !
 ! A8    A(2,3,13)             119.3819         estimate D2E/DX2                !
 ! A9    A(4,3,13)             121.0691         estimate D2E/DX2                !
 ! A10   A(3,4,5)              120.696          estimate D2E/DX2                !
 ! A11   A(3,4,14)             121.6292         estimate D2E/DX2                !
 ! A12   A(5,4,14)             117.6748         estimate D2E/DX2                !
 ! A13   A(4,5,6)              117.6582         estimate D2E/DX2                !
 ! A14   A(4,5,10)             117.088          estimate D2E/DX2                !
 ! A15   A(6,5,10)             125.2538         estimate D2E/DX2                !
 ! A16   A(1,6,5)              119.0141         estimate D2E/DX2                !
 ! A17   A(1,6,7)              112.8505         estimate D2E/DX2                !
 ! A18   A(5,6,7)              128.1354         estimate D2E/DX2                !
 ! A19   A(6,7,8)              121.5948         estimate D2E/DX2                !
 ! A20   A(6,7,9)              112.2266         estimate D2E/DX2                !
 ! A21   A(8,7,9)              126.1786         estimate D2E/DX2                !
 ! A22   A(7,9,15)             110.2551         estimate D2E/DX2                !
 ! A23   A(5,10,16)            112.9045         estimate D2E/DX2                !
 ! D1    D(6,1,2,3)             -0.0009         estimate D2E/DX2                !
 ! D2    D(6,1,2,12)           179.9989         estimate D2E/DX2                !
 ! D3    D(11,1,2,3)          -179.9989         estimate D2E/DX2                !
 ! D4    D(11,1,2,12)            0.0009         estimate D2E/DX2                !
 ! D5    D(2,1,6,5)              0.0007         estimate D2E/DX2                !
 ! D6    D(2,1,6,7)           -179.9986         estimate D2E/DX2                !
 ! D7    D(11,1,6,5)           179.9988         estimate D2E/DX2                !
 ! D8    D(11,1,6,7)            -0.0005         estimate D2E/DX2                !
 ! D9    D(1,2,3,4)              0.0007         estimate D2E/DX2                !
 ! D10   D(1,2,3,13)          -179.9997         estimate D2E/DX2                !
 ! D11   D(12,2,3,4)          -179.9991         estimate D2E/DX2                !
 ! D12   D(12,2,3,13)            0.0005         estimate D2E/DX2                !
 ! D13   D(2,3,4,5)             -0.0002         estimate D2E/DX2                !
 ! D14   D(2,3,4,14)          -180.0            estimate D2E/DX2                !
 ! D15   D(13,3,4,5)          -179.9999         estimate D2E/DX2                !
 ! D16   D(13,3,4,14)            0.0004         estimate D2E/DX2                !
 ! D17   D(3,4,5,6)              0.0            estimate D2E/DX2                !
 ! D18   D(3,4,5,10)          -179.9999         estimate D2E/DX2                !
 ! D19   D(14,4,5,6)           179.9998         estimate D2E/DX2                !
 ! D20   D(14,4,5,10)           -0.0001         estimate D2E/DX2                !
 ! D21   D(4,5,6,1)             -0.0003         estimate D2E/DX2                !
 ! D22   D(4,5,6,7)            179.9989         estimate D2E/DX2                !
 ! D23   D(10,5,6,1)           179.9996         estimate D2E/DX2                !
 ! D24   D(10,5,6,7)            -0.0011         estimate D2E/DX2                !
 ! D25   D(4,5,10,16)         -179.9994         estimate D2E/DX2                !
 ! D26   D(6,5,10,16)            0.0007         estimate D2E/DX2                !
 ! D27   D(1,6,7,8)             -0.038          estimate D2E/DX2                !
 ! D28   D(1,6,7,9)           -179.9648         estimate D2E/DX2                !
 ! D29   D(5,6,7,8)            179.9628         estimate D2E/DX2                !
 ! D30   D(5,6,7,9)              0.0359         estimate D2E/DX2                !
 ! D31   D(6,7,9,15)           179.9605         estimate D2E/DX2                !
 ! D32   D(8,7,9,15)             0.0377         estimate D2E/DX2                !
 --------------------------------------------------------------------------------
 Trust Radius=3.00D-01 FncErr=1.00D-07 GrdErr=1.00D-06
 Number of steps in this run=     81 maximum allowed number of steps=    100.
 GradGradGradGradGradGradGradGradGradGradGradGradGradGradGradGradGradGrad

                          Input orientation:                          
 ---------------------------------------------------------------------
 Center     Atomic      Atomic             Coordinates (Angstroms)
 Number     Number       Type             X           Y           Z
 ---------------------------------------------------------------------
      1          7           0        0.506731   -1.349528    0.000154
      2          6           0        1.833257   -1.419977   -0.000043
      3          6           0        2.563408   -0.227430   -0.000226
      4          6           0        1.895603    0.978638   -0.000184
      5          6           0        0.481004    1.021179    0.000037
      6          6           0       -0.203712   -0.194953    0.000210
      7          6           0       -1.680283   -0.422342    0.000477
      8          8           0       -2.146345   -1.528889   -0.000057
      9          8           0       -2.367205    0.721735   -0.000229
     10          8           0       -0.085486    2.216063    0.000061
     11          1           0       -0.064552   -2.201013    0.000309
     12          1           0        2.280224   -2.406655   -0.000048
     13          1           0        3.646137   -0.267049   -0.000393
     14          1           0        2.428629    1.924710   -0.000322
     15          1           0       -3.324418    0.540414   -0.000663
     16          1           0       -1.056517    2.174330    0.000226
 ---------------------------------------------------------------------
                    Distance matrix (angstroms):
                    1          2          3          4          5
     1  N    0.000000
     2  C    1.328395   0.000000
     3  C    2.342867   1.398316   0.000000
     4  C    2.710963   2.399425   1.378609   0.000000
     5  C    2.370847   2.790669   2.428051   1.415239   0.000000
     6  C    1.355645   2.376957   2.767311   2.405086   1.395641
     7  C    2.375438   3.652429   4.248165   3.840535   2.599022
     8  O    2.659132   3.981092   4.886263   4.756578   3.661394
     9  O    3.542547   4.714956   5.021141   4.270542   2.863907
    10  O    3.614438   4.111248   3.603789   2.335794   1.322369
    11  H    1.025374   2.052242   3.286519   3.735290   3.268050
    12  H    2.064654   1.083196   2.197547   3.407072   3.871335
    13  H    3.320788   2.148436   1.083454   2.148512   3.417250
    14  H    3.796620   3.397263   2.156356   1.085895   2.147001
    15  H    4.271953   5.517676   5.937683   5.238383   3.835671
    16  H    3.855038   4.611923   4.344227   3.185073   1.921907
                    6          7          8          9         10
     6  C    0.000000
     7  C    1.493977   0.000000
     8  O    2.356525   1.200692   0.000000
     9  O    2.349685   1.334457   2.261435   0.000000
    10  O    2.413913   3.082946   4.274553   2.727500   0.000000
    11  H    2.010881   2.402968   2.187604   3.720842   4.417126
    12  H    3.325893   4.429798   4.512758   5.602269   5.192890
    13  H    3.850524   5.328683   5.928329   6.094094   4.482282
    14  H    3.379673   4.731999   5.732167   4.944408   2.530941
    15  H    3.206177   1.905277   2.381149   0.974235   3.646708
    16  H    2.518090   2.670541   3.860253   1.956511   0.971927
                   11         12         13         14         15
    11  H    0.000000
    12  H    2.353776   0.000000
    13  H    4.184427   2.538431   0.000000
    14  H    4.820533   4.333907   2.507216   0.000000
    15  H    4.259360   6.332237   7.017167   5.917248   0.000000
    16  H    4.486382   5.667386   5.298612   3.494074   2.795185
                   16
    16  H    0.000000
 Stoichiometry    C6H6NO3(1+)
 Framework group  C1[X(C6H6NO3)]
 Deg. of freedom    42
 Full point group                 C1      NOp   1
 Largest Abelian subgroup         C1      NOp   1
 Largest concise Abelian subgroup C1      NOp   1
                         Standard orientation:                         
 ---------------------------------------------------------------------
 Center     Atomic      Atomic             Coordinates (Angstroms)
 Number     Number       Type             X           Y           Z
 ---------------------------------------------------------------------
      1          7           0       -0.506731   -1.349528   -0.000154
      2          6           0       -1.833257   -1.419977    0.000043
      3          6           0       -2.563408   -0.227430    0.000226
      4          6           0       -1.895603    0.978638    0.000184
      5          6           0       -0.481004    1.021179   -0.000037
      6          6           0        0.203712   -0.194953   -0.000210
      7          6           0        1.680283   -0.422342   -0.000477
      8          8           0        2.146345   -1.528889    0.000057
      9          8           0        2.367205    0.721735    0.000229
     10          8           0        0.085486    2.216063   -0.000061
     11          1           0        0.064552   -2.201013   -0.000309
     12          1           0       -2.280224   -2.406655    0.000048
     13          1           0       -3.646137   -0.267049    0.000393
     14          1           0       -2.428629    1.924710    0.000322
     15          1           0        3.324418    0.540414    0.000663
     16          1           0        1.056517    2.174330   -0.000226
 ---------------------------------------------------------------------
 Rotational constants (GHZ):      2.2909417      1.2527788      0.8098955
 Standard basis: Aug-CC-pVDZ (5D, 7F)
 There are   304 symmetry adapted cartesian basis functions of A   symmetry.
 There are   284 symmetry adapted basis functions of A   symmetry.
   284 basis functions,   496 primitive gaussians,   304 cartesian basis functions
    36 alpha electrons       36 beta electrons
       nuclear repulsion energy       522.0839323505 Hartrees.
 NAtoms=   16 NActive=   16 NUniq=   16 SFac= 1.00D+00 NAtFMM=   60 NAOKFM=F Big=F
 Integral buffers will be    131072 words long.
 Raffenetti 2 integral format.
 Two-electron integral symmetry is turned on.
 One-electron integrals computed using PRISM.
 NBasis=   284 RedAO= T EigKep=  5.27D-06  NBF=   284
 NBsUse=   284 1.00D-06 EigRej= -1.00D+00 NBFU=   284
 ExpMin= 2.97D-02 ExpMax= 1.17D+04 ExpMxC= 4.01D+02 IAcc=3 IRadAn=         5 AccDes= 0.00D+00
 Harris functional with IExCor= 1009 and IRadAn=       5 diagonalized for initial guess.
 HarFok:  IExCor= 1009 AccDes= 0.00D+00 IRadAn=         5 IDoV= 1 UseB2=F ITyADJ=14
 ICtDFT=  3500011 ScaDFX=  1.000000  1.000000  1.000000  1.000000
 FoFCou: FMM=F IPFlag=           0 FMFlag=      100000 FMFlg1=           0
         NFxFlg=           0 DoJE=T BraDBF=F KetDBF=T FulRan=T
         wScrn=  0.000000 ICntrl=     500 IOpCl=  0 I1Cent=   200000004 NGrid=           0
         NMat0=    1 NMatS0=      1 NMatT0=    0 NMatD0=    1 NMtDS0=    0 NMtDT0=    0
 Petite list used in FoFCou.
 Keep R1 ints in memory in canonical form, NReq=833420375.
 Requested convergence on RMS density matrix=1.00D-08 within 128 cycles.
 Requested convergence on MAX density matrix=1.00D-06.
 Requested convergence on             energy=1.00D-06.
 No special actions if energy rises.
 SCF Done:  E(RM062X) =  -512.341136935     A.U. after   15 cycles
            NFock= 15  Conv=0.68D-08     -V/T= 2.0057

 **********************************************************************

            Population analysis using the SCF density.

 **********************************************************************

 Orbital symmetries:
       Occupied  (A) (A) (A) (A) (A) (A) (A) (A) (A) (A) (A) (A)
                 (A) (A) (A) (A) (A) (A) (A) (A) (A) (A) (A) (A)
                 (A) (A) (A) (A) (A) (A) (A) (A) (A) (A) (A) (A)
       Virtual   (A) (A) (A) (A) (A) (A) (A) (A) (A) (A) (A) (A)
                 (A) (A) (A) (A) (A) (A) (A) (A) (A) (A) (A) (A)
                 (A) (A) (A) (A) (A) (A) (A) (A) (A) (A) (A) (A)
                 (A) (A) (A) (A) (A) (A) (A) (A) (A) (A) (A) (A)
                 (A) (A) (A) (A) (A) (A) (A) (A) (A) (A) (A) (A)
                 (A) (A) (A) (A) (A) (A) (A) (A) (A) (A) (A) (A)
                 (A) (A) (A) (A) (A) (A) (A) (A) (A) (A) (A) (A)
                 (A) (A) (A) (A) (A) (A) (A) (A) (A) (A) (A) (A)
                 (A) (A) (A) (A) (A) (A) (A) (A) (A) (A) (A) (A)
                 (A) (A) (A) (A) (A) (A) (A) (A) (A) (A) (A) (A)
                 (A) (A) (A) (A) (A) (A) (A) (A) (A) (A) (A) (A)
                 (A) (A) (A) (A) (A) (A) (A) (A) (A) (A) (A) (A)
                 (A) (A) (A) (A) (A) (A) (A) (A) (A) (A) (A) (A)
                 (A) (A) (A) (A) (A) (A) (A) (A) (A) (A) (A) (A)
                 (A) (A) (A) (A) (A) (A) (A) (A) (A) (A) (A) (A)
                 (A) (A) (A) (A) (A) (A) (A) (A) (A) (A) (A) (A)
                 (A) (A) (A) (A) (A) (A) (A) (A) (A) (A) (A) (A)
                 (A) (A) (A) (A) (A) (A) (A) (A) (A) (A) (A) (A)
                 (A) (A) (A) (A) (A) (A) (A) (A) (A) (A) (A) (A)
                 (A) (A) (A) (A) (A) (A) (A) (A) (A) (A) (A) (A)
                 (A) (A) (A) (A) (A) (A) (A) (A)
 The electronic state is 1-A.
 Alpha  occ. eigenvalues --  -19.88209 -19.86100 -19.82591 -15.05870 -10.88477
 Alpha  occ. eigenvalues --  -10.83760 -10.81515 -10.81361 -10.77076 -10.76779
 Alpha  occ. eigenvalues --   -1.43326  -1.38917  -1.34503  -1.31962  -1.12152
 Alpha  occ. eigenvalues --   -1.09670  -0.98182  -0.94900  -0.92000  -0.86154
 Alpha  occ. eigenvalues --   -0.83023  -0.79289  -0.76693  -0.76055  -0.74938
 Alpha  occ. eigenvalues --   -0.74102  -0.70277  -0.68520  -0.67142  -0.66520
 Alpha  occ. eigenvalues --   -0.65704  -0.61366  -0.58618  -0.55404  -0.55078
 Alpha  occ. eigenvalues --   -0.49695
 Alpha virt. eigenvalues --   -0.23843  -0.18654  -0.13602  -0.11941  -0.10594
 Alpha virt. eigenvalues --   -0.10206  -0.09687  -0.09059  -0.08325  -0.08000
 Alpha virt. eigenvalues --   -0.05890  -0.05727  -0.04870  -0.04731  -0.03708
 Alpha virt. eigenvalues --   -0.02522  -0.02299  -0.01768  -0.01253  -0.00545
 Alpha virt. eigenvalues --   -0.00374  -0.00360  -0.00264   0.00456   0.00938
 Alpha virt. eigenvalues --    0.01217   0.02506   0.02744   0.03250   0.03746
 Alpha virt. eigenvalues --    0.05411   0.05866   0.05923   0.06274   0.06888
 Alpha virt. eigenvalues --    0.07121   0.08466   0.08727   0.09010   0.09559
 Alpha virt. eigenvalues --    0.10358   0.10691   0.10914   0.11601   0.11940
 Alpha virt. eigenvalues --    0.13215   0.13617   0.14010   0.14182   0.14580
 Alpha virt. eigenvalues --    0.15376   0.16120   0.16973   0.17101   0.17934
 Alpha virt. eigenvalues --    0.18191   0.19565   0.20655   0.21959   0.22154
 Alpha virt. eigenvalues --    0.22877   0.23835   0.24413   0.25194   0.26075
 Alpha virt. eigenvalues --    0.26115   0.27987   0.28404   0.29258   0.29958
 Alpha virt. eigenvalues --    0.30651   0.31612   0.31826   0.33487   0.34458
 Alpha virt. eigenvalues --    0.34939   0.35991   0.37211   0.37996   0.38621
 Alpha virt. eigenvalues --    0.39088   0.39985   0.40580   0.40698   0.41621
 Alpha virt. eigenvalues --    0.42672   0.43177   0.43273   0.44560   0.45308
 Alpha virt. eigenvalues --    0.46634   0.46716   0.48723   0.48788   0.49365
 Alpha virt. eigenvalues --    0.50565   0.51672   0.52802   0.53569   0.54763
 Alpha virt. eigenvalues --    0.55052   0.55416   0.56938   0.57471   0.58495
 Alpha virt. eigenvalues --    0.60419   0.60797   0.63046   0.63875   0.63936
 Alpha virt. eigenvalues --    0.64796   0.66378   0.66780   0.69121   0.69504
 Alpha virt. eigenvalues --    0.70869   0.71486   0.71829   0.74859   0.77655
 Alpha virt. eigenvalues --    0.78883   0.79443   0.80938   0.82012   0.82527
 Alpha virt. eigenvalues --    0.82868   0.84799   0.85884   0.87523   0.88464
 Alpha virt. eigenvalues --    0.91371   0.93541   0.94486   0.97812   0.98859
 Alpha virt. eigenvalues --    0.99724   1.00664   1.01755   1.02796   1.06251
 Alpha virt. eigenvalues --    1.07804   1.09728   1.12637   1.13027   1.15183
 Alpha virt. eigenvalues --    1.16257   1.17326   1.18275   1.20308   1.22395
 Alpha virt. eigenvalues --    1.24390   1.25901   1.27479   1.27968   1.28148
 Alpha virt. eigenvalues --    1.29199   1.30507   1.33180   1.34559   1.34787
 Alpha virt. eigenvalues --    1.37208   1.37519   1.39333   1.41180   1.42588
 Alpha virt. eigenvalues --    1.44502   1.45464   1.46547   1.48591   1.50142
 Alpha virt. eigenvalues --    1.52630   1.53130   1.53630   1.56415   1.56868
 Alpha virt. eigenvalues --    1.59819   1.62482   1.65984   1.66834   1.68625
 Alpha virt. eigenvalues --    1.68658   1.71539   1.72338   1.72630   1.76502
 Alpha virt. eigenvalues --    1.76656   1.80097   1.83120   1.83682   1.83895
 Alpha virt. eigenvalues --    1.84784   1.86993   1.89117   1.89160   1.90487
 Alpha virt. eigenvalues --    1.92975   1.93782   1.96297   2.02496   2.02729
 Alpha virt. eigenvalues --    2.05695   2.07418   2.08348   2.08451   2.11870
 Alpha virt. eigenvalues --    2.15853   2.20139   2.21943   2.24897   2.28541
 Alpha virt. eigenvalues --    2.32792   2.34124   2.38434   2.43511   2.44855
 Alpha virt. eigenvalues --    2.49774   2.51098   2.52639   2.53186   2.61068
 Alpha virt. eigenvalues --    2.65190   2.70884   2.73304   2.78669   2.81804
 Alpha virt. eigenvalues --    2.83959   2.88546   2.92794   3.00348   3.09738
 Alpha virt. eigenvalues --    3.16966   3.18946   3.20837   3.25513   3.25674
 Alpha virt. eigenvalues --    3.27584   3.30565   3.33438   3.36063   3.38725
 Alpha virt. eigenvalues --    3.42741   3.49544   3.56021   3.59176   3.72011
 Alpha virt. eigenvalues --    3.83506   3.90294   4.04635
          Condensed to atoms (all electrons):
               1          2          3          4          5          6
     1  N    6.623121   0.715124  -0.176086  -0.257774   0.028411  -0.043067
     2  C    0.715124   7.624294  -0.938502  -0.058131  -0.132885  -0.795411
     3  C   -0.176086  -0.938502   8.181328  -1.648363   0.528113  -0.670640
     4  C   -0.257774  -0.058131  -1.648363  10.928733  -2.118209  -0.164062
     5  C    0.028411  -0.132885   0.528113  -2.118209   9.766511  -2.249435
     6  C   -0.043067  -0.795411  -0.670640  -0.164062  -2.249435  12.133910
     7  C   -0.024000  -0.311811   0.259346  -0.427085  -0.843029  -3.410223
     8  O   -0.065851   0.022730  -0.023160   0.015810  -0.073066   0.180214
     9  O   -0.025315  -0.000993   0.000171  -0.002813  -0.084543   0.194953
    10  O   -0.004399  -0.037691  -0.062939  -0.101610  -0.236853   0.215069
    11  H    0.287032  -0.290314   0.062048  -0.073006   0.077491  -0.059017
    12  H   -0.066589  -0.381135   0.049560   0.015487  -0.023743   0.097849
    13  H   -0.000701   0.092898  -0.941467   0.627531  -0.037724  -0.067798
    14  H    0.001592  -0.050530   0.562310  -1.437662   0.611196  -0.153539
    15  H    0.003944  -0.000719   0.001752  -0.002226   0.005020   0.056835
    16  H   -0.002446   0.001860  -0.009930   0.027637  -0.033612   0.017559
               7          8          9         10         11         12
     1  N   -0.024000  -0.065851  -0.025315  -0.004399   0.287032  -0.066589
     2  C   -0.311811   0.022730  -0.000993  -0.037691  -0.290314  -0.381135
     3  C    0.259346  -0.023160   0.000171  -0.062939   0.062048   0.049560
     4  C   -0.427085   0.015810  -0.002813  -0.101610  -0.073006   0.015487
     5  C   -0.843029  -0.073066  -0.084543  -0.236853   0.077491  -0.023743
     6  C   -3.410223   0.180214   0.194953   0.215069  -0.059017   0.097849
     7  C   10.398546   0.196340  -0.121664   0.035250  -0.019003   0.084982
     8  O    0.196340   8.274805  -0.031152   0.002901   0.043877  -0.004798
     9  O   -0.121664  -0.031152   8.361517  -0.016829   0.006447   0.001244
    10  O    0.035250   0.002901  -0.016829   8.527047  -0.001334   0.000464
    11  H   -0.019003   0.043877   0.006447  -0.001334   1.018776  -0.102632
    12  H    0.084982  -0.004798   0.001244   0.000464  -0.102632   2.091135
    13  H   -0.018956   0.000160  -0.000578  -0.002462   0.002533  -0.122574
    14  H    0.031795   0.000008   0.001090  -0.096403   0.002331  -0.002727
    15  H   -0.103413  -0.025232   0.294851   0.000495  -0.001873   0.000528
    16  H   -0.074886   0.003489  -0.003404   0.281817  -0.000264  -0.001177
              13         14         15         16
     1  N   -0.000701   0.001592   0.003944  -0.002446
     2  C    0.092898  -0.050530  -0.000719   0.001860
     3  C   -0.941467   0.562310   0.001752  -0.009930
     4  C    0.627531  -1.437662  -0.002226   0.027637
     5  C   -0.037724   0.611196   0.005020  -0.033612
     6  C   -0.067798  -0.153539   0.056835   0.017559
     7  C   -0.018956   0.031795  -0.103413  -0.074886
     8  O    0.000160   0.000008  -0.025232   0.003489
     9  O   -0.000578   0.001090   0.294851  -0.003404
    10  O   -0.002462  -0.096403   0.000495   0.281817
    11  H    0.002533   0.002331  -0.001873  -0.000264
    12  H   -0.122574  -0.002727   0.000528  -0.001177
    13  H    2.207700  -0.149122   0.000024  -0.000005
    14  H   -0.149122   2.377510   0.000124  -0.000868
    15  H    0.000024   0.000124   0.466073  -0.000054
    16  H   -0.000005  -0.000868  -0.000054   0.561432
 Mulliken charges:
               1
     1  N    0.007004
     2  C    0.541216
     3  C    0.826460
     4  C    0.675742
     5  C    0.816356
     6  C    0.716801
     7  C    0.347813
     8  O   -0.517075
     9  O   -0.572983
    10  O   -0.502525
    11  H    0.046908
    12  H   -0.635877
    13  H   -0.589458
    14  H   -0.697106
    15  H    0.303871
    16  H    0.232853
 Sum of Mulliken charges =   1.00000
 Mulliken charges with hydrogens summed into heavy atoms:
               1
     1  N    0.053913
     2  C   -0.094661
     3  C    0.237002
     4  C   -0.021364
     5  C    0.816356
     6  C    0.716801
     7  C    0.347813
     8  O   -0.517075
     9  O   -0.269112
    10  O   -0.269672
 Electronic spatial extent (au):  <R**2>=           1306.6596
 Charge=              1.0000 electrons
 Dipole moment (field-independent basis, Debye):
    X=             -2.5709    Y=             -1.1037    Z=             -0.0004  Tot=              2.7978
 Quadrupole moment (field-independent basis, Debye-Ang):
   XX=            -24.8949   YY=            -43.8475   ZZ=            -56.2590
   XY=              9.5259   XZ=             -0.0008   YZ=              0.0016
 Traceless Quadrupole moment (field-independent basis, Debye-Ang):
   XX=             16.7723   YY=             -2.1804   ZZ=            -14.5919
   XY=              9.5259   XZ=             -0.0008   YZ=              0.0016
 Octapole moment (field-independent basis, Debye-Ang**2):
  XXX=             10.3313  YYY=            -14.2610  ZZZ=              0.0002  XYY=            -13.4287
  XXY=             16.6071  XXZ=              0.0169  XZZ=              8.9008  YZZ=              0.6387
  YYZ=             -0.0015  XYZ=              0.0013
 Hexadecapole moment (field-independent basis, Debye-Ang**3):
 XXXX=           -644.2016 YYYY=           -483.7083 ZZZZ=            -53.1698 XXXY=             68.2471
 XXXZ=              0.0413 YYYX=             47.8690 YYYZ=             -0.0040 ZZZX=              0.0176
 ZZZY=             -0.0080 XXYY=           -220.7062 XXZZ=           -183.7971 YYZZ=           -103.5687
 XXYZ=              0.0087 YYXZ=              0.0019 ZZXY=             -0.9566
 N-N= 5.220839323505D+02 E-N=-2.228034020444D+03  KE= 5.094579421377D+02
 Calling FoFJK, ICntrl=      2127 FMM=F ISym2X=0 I1Cent= 0 IOpClX= 0 NMat=1 NMatS=1 NMatT=0.
 ***** Axes restored to original set *****
 -------------------------------------------------------------------
 Center     Atomic                   Forces (Hartrees/Bohr)
 Number     Number              X              Y              Z
 -------------------------------------------------------------------
      1        7           0.000610933    0.001308106    0.000007784
      2        6          -0.001789953    0.002050085   -0.000002315
      3        6          -0.002332266   -0.000434589    0.000001524
      4        6          -0.001879700   -0.001094504   -0.000004197
      5        6           0.000470221   -0.001679380    0.000000686
      6        6          -0.000097432   -0.000966053    0.000052735
      7        6          -0.001198332   -0.003683686   -0.000178873
      8        8           0.001029575    0.002125990    0.000070462
      9        8          -0.002069186    0.002417903    0.000051474
     10        8          -0.000985536    0.002687585    0.000003951
     11        1          -0.000354369    0.000076000   -0.000002780
     12        1           0.001073905   -0.002409306   -0.000001489
     13        1           0.002756545   -0.000122394   -0.000000165
     14        1           0.001527590    0.002317952    0.000000201
     15        1           0.001649093   -0.000926514    0.000004335
     16        1           0.001588911   -0.001667195   -0.000003333
 -------------------------------------------------------------------
 Cartesian Forces:  Max     0.003683686 RMS     0.001399974

 GradGradGradGradGradGradGradGradGradGradGradGradGradGradGradGradGradGrad
 Berny optimization.
 FormGI is forming the generalized inverse of G from B-inverse, IUseBI=4.
 Internal  Forces:  Max     0.003186674 RMS     0.000897981
 Search for a local minimum.
 Step number   1 out of a maximum of   81
 All quantities printed in internal units (Hartrees-Bohrs-Radians)
 Mixed Optimization -- En-DIIS/RFO-DIIS
 Second derivative matrix not updated -- first step.
 ITU=  0
     Eigenvalues ---    0.00846   0.01458   0.01765   0.02040   0.02136
     Eigenvalues ---    0.02185   0.02228   0.02247   0.02353   0.02412
     Eigenvalues ---    0.02493   0.02559   0.02719   0.16000   0.16000
     Eigenvalues ---    0.16000   0.16000   0.16000   0.16000   0.22000
     Eigenvalues ---    0.22479   0.24469   0.25000   0.25000   0.25000
     Eigenvalues ---    0.25000   0.33017   0.35291   0.35580   0.35611
     Eigenvalues ---    0.41260   0.43086   0.43492   0.46127   0.47647
     Eigenvalues ---    0.52521   0.52554   0.52985   0.58169   0.58465
     Eigenvalues ---    0.61345   1.04476
 RFO step:  Lambda=-2.00582085D-04 EMin= 8.45618101D-03
 Linear search not attempted -- first point.
 Iteration  1 RMS(Cart)=  0.00708043 RMS(Int)=  0.00005827
 Iteration  2 RMS(Cart)=  0.00005310 RMS(Int)=  0.00000119
 Iteration  3 RMS(Cart)=  0.00000000 RMS(Int)=  0.00000119
 Variable       Old X    -DE/DX   Delta X   Delta X   Delta X     New X
                                 (Linear)    (Quad)   (Total)
    R1        2.51030  -0.00051   0.00000  -0.00097  -0.00097   2.50933
    R2        2.56180  -0.00115   0.00000  -0.00231  -0.00231   2.55949
    R3        1.93768   0.00013   0.00000   0.00031   0.00031   1.93798
    R4        2.64244   0.00024   0.00000   0.00057   0.00057   2.64300
    R5        2.04694   0.00264   0.00000   0.00740   0.00740   2.05434
    R6        2.60519   0.00074   0.00000   0.00168   0.00168   2.60688
    R7        2.04743   0.00276   0.00000   0.00775   0.00775   2.05518
    R8        2.67441  -0.00013   0.00000  -0.00015  -0.00015   2.67426
    R9        2.05205   0.00277   0.00000   0.00784   0.00784   2.05989
   R10        2.63738   0.00034   0.00000   0.00067   0.00067   2.63805
   R11        2.49891   0.00066   0.00000   0.00108   0.00108   2.50000
   R12        2.82321   0.00059   0.00000   0.00180   0.00180   2.82500
   R13        2.26898  -0.00236   0.00000  -0.00226  -0.00226   2.26672
   R14        2.52176   0.00149   0.00000   0.00255   0.00255   2.52431
   R15        1.84104  -0.00145   0.00000  -0.00275  -0.00275   1.83828
   R16        1.83668  -0.00151   0.00000  -0.00286  -0.00286   1.83382
    A1        2.17547   0.00059   0.00000   0.00199   0.00199   2.17746
    A2        2.10868   0.00003   0.00000   0.00103   0.00103   2.10971
    A3        1.99903  -0.00062   0.00000  -0.00302  -0.00302   1.99601
    A4        2.06713  -0.00000   0.00000  -0.00022  -0.00022   2.06690
    A5        2.04920  -0.00001   0.00000   0.00003   0.00003   2.04923
    A6        2.16686   0.00001   0.00000   0.00020   0.00020   2.16705
    A7        2.08652  -0.00016   0.00000  -0.00019  -0.00019   2.08633
    A8        2.08361   0.00006   0.00000  -0.00002  -0.00002   2.08359
    A9        2.11305   0.00010   0.00000   0.00021   0.00021   2.11327
   A10        2.10654  -0.00054   0.00000  -0.00174  -0.00174   2.10480
   A11        2.12283   0.00008   0.00000  -0.00035  -0.00035   2.12248
   A12        2.05381   0.00047   0.00000   0.00209   0.00209   2.05590
   A13        2.05352   0.00048   0.00000   0.00209   0.00209   2.05561
   A14        2.04357   0.00013   0.00000   0.00044   0.00044   2.04401
   A15        2.18609  -0.00061   0.00000  -0.00253  -0.00253   2.18356
   A16        2.07719  -0.00037   0.00000  -0.00193  -0.00193   2.07526
   A17        1.96961  -0.00055   0.00000  -0.00198  -0.00198   1.96763
   A18        2.23638   0.00092   0.00000   0.00391   0.00391   2.24029
   A19        2.12223  -0.00060   0.00000  -0.00240  -0.00240   2.11983
   A20        1.95872   0.00091   0.00000   0.00366   0.00365   1.96238
   A21        2.20223  -0.00031   0.00000  -0.00125  -0.00126   2.20097
   A22        1.92431  -0.00225   0.00000  -0.01402  -0.01402   1.91029
   A23        1.97056  -0.00319   0.00000  -0.01989  -0.01989   1.95066
    D1       -0.00002   0.00000   0.00000   0.00006   0.00006   0.00004
    D2        3.14157   0.00000   0.00000   0.00007   0.00007  -3.14154
    D3       -3.14157  -0.00000   0.00000  -0.00006  -0.00006   3.14155
    D4        0.00002  -0.00000   0.00000  -0.00005  -0.00005  -0.00003
    D5        0.00001  -0.00000   0.00000  -0.00004  -0.00004  -0.00003
    D6       -3.14157  -0.00000   0.00000  -0.00010  -0.00010   3.14151
    D7        3.14157   0.00000   0.00000   0.00007   0.00007  -3.14154
    D8       -0.00001   0.00000   0.00000   0.00001   0.00001   0.00000
    D9        0.00001  -0.00000   0.00000  -0.00004  -0.00004  -0.00003
   D10       -3.14159  -0.00000   0.00000  -0.00002  -0.00002   3.14158
   D11       -3.14158  -0.00000   0.00000  -0.00006  -0.00006   3.14155
   D12        0.00001  -0.00000   0.00000  -0.00003  -0.00003  -0.00002
   D13       -0.00000   0.00000   0.00000   0.00002   0.00002   0.00002
   D14       -3.14159   0.00000   0.00000   0.00001   0.00001  -3.14158
   D15       -3.14159  -0.00000   0.00000  -0.00001  -0.00001   3.14159
   D16        0.00001  -0.00000   0.00000  -0.00002  -0.00002  -0.00001
   D17        0.00000  -0.00000   0.00000  -0.00001  -0.00001  -0.00001
   D18       -3.14159   0.00000   0.00000   0.00002   0.00002  -3.14157
   D19        3.14159   0.00000   0.00000   0.00000   0.00000  -3.14159
   D20       -0.00000   0.00000   0.00000   0.00004   0.00004   0.00003
   D21       -0.00000   0.00000   0.00000   0.00002   0.00002   0.00001
   D22        3.14157   0.00000   0.00000   0.00009   0.00009  -3.14152
   D23        3.14159  -0.00000   0.00000  -0.00002  -0.00002   3.14157
   D24       -0.00002   0.00000   0.00000   0.00005   0.00005   0.00003
   D25       -3.14158  -0.00000   0.00000  -0.00012  -0.00012   3.14149
   D26        0.00001  -0.00000   0.00000  -0.00008  -0.00008  -0.00007
   D27       -0.00066   0.00005   0.00000   0.00308   0.00308   0.00242
   D28       -3.14098  -0.00004   0.00000  -0.00282  -0.00282   3.13939
   D29        3.14094   0.00004   0.00000   0.00302   0.00302  -3.13922
   D30        0.00063  -0.00004   0.00000  -0.00288  -0.00288  -0.00226
   D31        3.14090   0.00005   0.00000   0.00322   0.00322  -3.13906
   D32        0.00066  -0.00004   0.00000  -0.00301  -0.00301  -0.00235
         Item               Value     Threshold  Converged?
 Maximum Force            0.003187     0.000450     NO 
 RMS     Force            0.000898     0.000300     NO 
 Maximum Displacement     0.031581     0.001800     NO 
 RMS     Displacement     0.007075     0.001200     NO 
 Predicted change in Energy=-1.003856D-04
 GradGradGradGradGradGradGradGradGradGradGradGradGradGradGradGradGradGrad

                          Input orientation:                          
 ---------------------------------------------------------------------
 Center     Atomic      Atomic             Coordinates (Angstroms)
 Number     Number       Type             X           Y           Z
 ---------------------------------------------------------------------
      1          7           0        0.504276   -1.344307   -0.000521
      2          6           0        1.830080   -1.418547    0.000066
      3          6           0        2.563555   -0.227690    0.000409
      4          6           0        1.898297    0.980802    0.000095
      5          6           0        0.483810    1.024365   -0.000550
      6          6           0       -0.204500   -0.190144   -0.000862
      7          6           0       -1.681760   -0.419293   -0.001617
      8          8           0       -2.143494   -1.526357    0.000608
      9          8           0       -2.374804    0.722662    0.000771
     10          8           0       -0.082584    2.219928   -0.000850
     11          1           0       -0.070422   -2.193687   -0.000828
     12          1           0        2.275835   -2.410069    0.000237
     13          1           0        3.650272   -0.270372    0.000901
     14          1           0        2.436033    1.928980    0.000339
     15          1           0       -3.327017    0.523702    0.002495
     16          1           0       -1.051102    2.159260   -0.001383
 ---------------------------------------------------------------------
                    Distance matrix (angstroms):
                    1          2          3          4          5
     1  N    0.000000
     2  C    1.327880   0.000000
     3  C    2.342533   1.398616   0.000000
     4  C    2.710983   2.400319   1.379500   0.000000
     5  C    2.368760   2.789312   2.427546   1.415158   0.000000
     6  C    1.354421   2.376656   2.768310   2.406839   1.395995
     7  C    2.373691   3.651237   4.249637   3.844097   2.602661
     8  O    2.654022   3.975036   4.882914   4.756251   3.661818
     9  O    3.544216   4.718667   5.028971   4.280891   2.874491
    10  O    3.612226   4.110570   3.604565   2.336520   1.322941
    11  H    1.025536   2.052498   3.286789   3.735403   3.265430
    12  H    2.067431   1.087112   2.201264   3.411823   3.873847
    13  H    3.324249   2.152071   1.087555   2.152870   3.420939
    14  H    3.800802   3.401929   2.160437   1.090047   2.151629
    15  H    4.262426   5.510715   5.938302   5.245269   3.843575
    16  H    3.833299   4.593682   4.331660   3.176117   1.908911
                    6          7          8          9         10
     6  C    0.000000
     7  C    1.494927   0.000000
     8  O    2.354818   1.199498   0.000000
     9  O    2.354450   1.335805   2.260883   0.000000
    10  O    2.413153   3.085911   4.275746   2.737896   0.000000
    11  H    2.008024   2.396849   2.177834   3.716890   4.413631
    12  H    3.328683   4.430096   4.506819   5.607356   5.196057
    13  H    3.855607   5.334112   5.928341   6.106362   4.487294
    14  H    3.385721   4.740318   5.736848   4.959774   2.535367
    15  H    3.203076   1.896345   2.367165   0.972778   3.661084
    16  H    2.497285   2.654555   3.844099   1.953459   0.970416
                   11         12         13         14         15
    11  H    0.000000
    12  H    2.356214   0.000000
    13  H    4.188402   2.543105   0.000000
    14  H    4.824801   4.342005   2.512275   0.000000
    15  H    4.241417   6.324473   7.022329   5.931910   0.000000
    16  H    4.462049   5.652192   5.292073   3.494731   2.802651
                   16
    16  H    0.000000
 Stoichiometry    C6H6NO3(1+)
 Framework group  C1[X(C6H6NO3)]
 Deg. of freedom    42
 Full point group                 C1      NOp   1
 Largest Abelian subgroup         C1      NOp   1
 Largest concise Abelian subgroup C1      NOp   1
                         Standard orientation:                         
 ---------------------------------------------------------------------
 Center     Atomic      Atomic             Coordinates (Angstroms)
 Number     Number       Type             X           Y           Z
 ---------------------------------------------------------------------
      1          7           0       -0.502856   -1.347091    0.000351
      2          6           0       -1.828560   -1.423088   -0.000236
      3          6           0       -2.563613   -0.233203   -0.000579
      4          6           0       -1.899958    0.976169   -0.000265
      5          6           0       -0.485529    1.021606    0.000380
      6          6           0        0.204390   -0.191989    0.000692
      7          6           0        1.681952   -0.419181    0.001447
      8          8           0        2.145153   -1.525632   -0.000778
      9          8           0        2.373482    0.723692   -0.000941
     10          8           0        0.079281    2.217918    0.000680
     11          1           0        0.072967   -2.195708    0.000657
     12          1           0       -2.273001   -2.415199   -0.000407
     13          1           0       -3.650273   -0.277325   -0.001071
     14          1           0       -2.438950    1.923634   -0.000509
     15          1           0        3.325958    0.525994   -0.002665
     16          1           0        1.047878    2.158534    0.001213
 ---------------------------------------------------------------------
 Rotational constants (GHZ):      2.2918693      1.2512703      0.8093807
 Standard basis: Aug-CC-pVDZ (5D, 7F)
 There are   304 symmetry adapted cartesian basis functions of A   symmetry.
 There are   284 symmetry adapted basis functions of A   symmetry.
   284 basis functions,   496 primitive gaussians,   304 cartesian basis functions
    36 alpha electrons       36 beta electrons
       nuclear repulsion energy       522.0049355134 Hartrees.
 NAtoms=   16 NActive=   16 NUniq=   16 SFac= 1.00D+00 NAtFMM=   60 NAOKFM=F Big=F
 Integral buffers will be    131072 words long.
 Raffenetti 2 integral format.
 Two-electron integral symmetry is turned on.
 One-electron integrals computed using PRISM.
 NBasis=   284 RedAO= T EigKep=  5.30D-06  NBF=   284
 NBsUse=   284 1.00D-06 EigRej= -1.00D+00 NBFU=   284
 Initial guess from the checkpoint file:  "pvdz3HPA2.chk"
 B after Tr=     0.000000   -0.000000   -0.000000
         Rot=    1.000000   -0.000035    0.000002   -0.000784 Ang=  -0.09 deg.
 ExpMin= 2.97D-02 ExpMax= 1.17D+04 ExpMxC= 4.01D+02 IAcc=3 IRadAn=         5 AccDes= 0.00D+00
 Harris functional with IExCor= 1009 and IRadAn=       5 diagonalized for initial guess.
 HarFok:  IExCor= 1009 AccDes= 0.00D+00 IRadAn=         5 IDoV= 1 UseB2=F ITyADJ=14
 ICtDFT=  3500011 ScaDFX=  1.000000  1.000000  1.000000  1.000000
 FoFCou: FMM=F IPFlag=           0 FMFlag=      100000 FMFlg1=           0
         NFxFlg=           0 DoJE=T BraDBF=F KetDBF=T FulRan=T
         wScrn=  0.000000 ICntrl=     500 IOpCl=  0 I1Cent=   200000004 NGrid=           0
         NMat0=    1 NMatS0=      1 NMatT0=    0 NMatD0=    1 NMtDS0=    0 NMtDT0=    0
 Petite list used in FoFCou.
 Keep R1 ints in memory in canonical form, NReq=833420375.
 Requested convergence on RMS density matrix=1.00D-08 within 128 cycles.
 Requested convergence on MAX density matrix=1.00D-06.
 Requested convergence on             energy=1.00D-06.
 No special actions if energy rises.
 SCF Done:  E(RM062X) =  -512.341220499     A.U. after   12 cycles
            NFock= 12  Conv=0.27D-08     -V/T= 2.0057
 Calling FoFJK, ICntrl=      2127 FMM=F ISym2X=0 I1Cent= 0 IOpClX= 0 NMat=1 NMatS=1 NMatT=0.
 ***** Axes restored to original set *****
 -------------------------------------------------------------------
 Center     Atomic                   Forces (Hartrees/Bohr)
 Number     Number              X              Y              Z
 -------------------------------------------------------------------
      1        7           0.000218991    0.000070036   -0.000025401
      2        6          -0.000010758   -0.000144199    0.000007705
      3        6           0.000150150   -0.000038202   -0.000003225
      4        6          -0.000185042    0.000023126    0.000017538
      5        6           0.001404790   -0.001049802   -0.000006403
      6        6          -0.000030675    0.000099510   -0.000191178
      7        6           0.000314691   -0.000974608    0.000645606
      8        8          -0.000023667    0.000329602   -0.000252782
      9        8           0.000090521    0.000524299   -0.000192176
     10        8          -0.000924448    0.000625203   -0.000013641
     11        1          -0.000055753   -0.000074848    0.000009605
     12        1          -0.000056561    0.000129026    0.000005261
     13        1          -0.000116103   -0.000014588   -0.000001061
     14        1          -0.000053210   -0.000149999   -0.000002132
     15        1          -0.000250803    0.000098974   -0.000010977
     16        1          -0.000472125    0.000546471    0.000013260
 -------------------------------------------------------------------
 Cartesian Forces:  Max     0.001404790 RMS     0.000385228

 GradGradGradGradGradGradGradGradGradGradGradGradGradGradGradGradGradGrad
 Berny optimization.
 Using GEDIIS/GDIIS optimizer.
 FormGI is forming the generalized inverse of G from B-inverse, IUseBI=4.
 Internal  Forces:  Max     0.001657146 RMS     0.000298857
 Search for a local minimum.
 Step number   2 out of a maximum of   81
 All quantities printed in internal units (Hartrees-Bohrs-Radians)
 Mixed Optimization -- En-DIIS/RFO-DIIS
 Swapping is turned off.
 Update second derivatives using D2CorX and points    1    2
 DE= -8.36D-05 DEPred=-1.00D-04 R= 8.32D-01
 TightC=F SS=  1.41D+00  RLast= 3.07D-02 DXNew= 5.0454D-01 9.2040D-02
 Trust test= 8.32D-01 RLast= 3.07D-02 DXMaxT set to 3.00D-01
 ITU=  1  0
     Eigenvalues ---    0.00846   0.01490   0.01763   0.02040   0.02136
     Eigenvalues ---    0.02185   0.02228   0.02247   0.02353   0.02413
     Eigenvalues ---    0.02494   0.02559   0.02719   0.15724   0.16000
     Eigenvalues ---    0.16000   0.16000   0.16000   0.17904   0.21979
     Eigenvalues ---    0.22481   0.24260   0.24768   0.25000   0.25000
     Eigenvalues ---    0.26820   0.33062   0.34779   0.35408   0.35603
     Eigenvalues ---    0.41315   0.43051   0.43490   0.46155   0.47436
     Eigenvalues ---    0.52387   0.52553   0.53244   0.57945   0.58191
     Eigenvalues ---    0.62995   1.03634
 En-DIIS/RFO-DIIS IScMMF=        0 using points:     2    1
 RFO step:  Lambda=-1.03011189D-05.
 DidBck=F Rises=F RFO-DIIS coefs:    0.85420    0.14580
 Iteration  1 RMS(Cart)=  0.00400951 RMS(Int)=  0.00001875
 Iteration  2 RMS(Cart)=  0.00002438 RMS(Int)=  0.00001064
 Iteration  3 RMS(Cart)=  0.00000000 RMS(Int)=  0.00001064
 Variable       Old X    -DE/DX   Delta X   Delta X   Delta X     New X
                                 (Linear)    (Quad)   (Total)
    R1        2.50933  -0.00009   0.00014  -0.00035  -0.00021   2.50912
    R2        2.55949   0.00003   0.00034  -0.00049  -0.00015   2.55934
    R3        1.93798   0.00009  -0.00004   0.00025   0.00021   1.93819
    R4        2.64300   0.00000  -0.00008   0.00015   0.00007   2.64307
    R5        2.05434  -0.00014  -0.00108   0.00138   0.00030   2.05465
    R6        2.60688   0.00009  -0.00025   0.00055   0.00031   2.60718
    R7        2.05518  -0.00012  -0.00113   0.00153   0.00040   2.05558
    R8        2.67426  -0.00017   0.00002  -0.00039  -0.00036   2.67390
    R9        2.05989  -0.00016  -0.00114   0.00145   0.00031   2.06020
   R10        2.63805  -0.00015  -0.00010  -0.00013  -0.00023   2.63782
   R11        2.50000   0.00166  -0.00016   0.00256   0.00240   2.50240
   R12        2.82500  -0.00012  -0.00026   0.00009  -0.00017   2.82484
   R13        2.26672  -0.00029   0.00033  -0.00077  -0.00044   2.26629
   R14        2.52431   0.00061  -0.00037   0.00149   0.00111   2.52542
   R15        1.83828   0.00023   0.00040  -0.00027   0.00013   1.83841
   R16        1.83382   0.00044   0.00042   0.00004   0.00046   1.83428
    A1        2.17746  -0.00006  -0.00029   0.00026  -0.00003   2.17743
    A2        2.10971   0.00003  -0.00015   0.00035   0.00020   2.10992
    A3        1.99601   0.00003   0.00044  -0.00061  -0.00017   1.99584
    A4        2.06690  -0.00004   0.00003  -0.00018  -0.00014   2.06676
    A5        2.04923   0.00003  -0.00000   0.00009   0.00009   2.04932
    A6        2.16705   0.00002  -0.00003   0.00008   0.00005   2.16711
    A7        2.08633   0.00001   0.00003   0.00004   0.00006   2.08640
    A8        2.08359  -0.00002   0.00000  -0.00013  -0.00013   2.08346
    A9        2.11327   0.00001  -0.00003   0.00009   0.00006   2.11333
   A10        2.10480   0.00002   0.00025  -0.00033  -0.00008   2.10472
   A11        2.12248  -0.00004   0.00005  -0.00025  -0.00020   2.12228
   A12        2.05590   0.00002  -0.00030   0.00059   0.00028   2.05619
   A13        2.05561  -0.00006  -0.00030   0.00024  -0.00006   2.05555
   A14        2.04401   0.00046  -0.00006   0.00170   0.00163   2.04564
   A15        2.18356  -0.00040   0.00037  -0.00194  -0.00157   2.18199
   A16        2.07526   0.00013   0.00028  -0.00003   0.00025   2.07552
   A17        1.96763   0.00039   0.00029   0.00088   0.00116   1.96879
   A18        2.24029  -0.00052  -0.00057  -0.00085  -0.00142   2.23887
   A19        2.11983   0.00046   0.00035   0.00105   0.00134   2.12117
   A20        1.96238  -0.00059  -0.00053  -0.00115  -0.00173   1.96064
   A21        2.20097   0.00013   0.00018   0.00018   0.00031   2.20128
   A22        1.91029   0.00027   0.00204  -0.00185   0.00020   1.91049
   A23        1.95066   0.00105   0.00290   0.00098   0.00388   1.95455
    D1        0.00004  -0.00000  -0.00001  -0.00014  -0.00015  -0.00011
    D2       -3.14154  -0.00001  -0.00001  -0.00019  -0.00020   3.14144
    D3        3.14155   0.00001   0.00001   0.00018   0.00019  -3.14145
    D4       -0.00003   0.00000   0.00001   0.00013   0.00014   0.00010
    D5       -0.00003   0.00000   0.00001   0.00010   0.00011   0.00008
    D6        3.14151   0.00001   0.00002   0.00029   0.00030  -3.14137
    D7       -3.14154  -0.00001  -0.00001  -0.00020  -0.00021   3.14143
    D8        0.00000  -0.00000  -0.00000  -0.00002  -0.00002  -0.00002
    D9       -0.00003   0.00000   0.00001   0.00012   0.00012   0.00009
   D10        3.14158   0.00000   0.00000   0.00004   0.00004  -3.14156
   D11        3.14155   0.00000   0.00001   0.00017   0.00018  -3.14146
   D12       -0.00002   0.00000   0.00000   0.00009   0.00010   0.00008
   D13        0.00002  -0.00000  -0.00000  -0.00006  -0.00007  -0.00005
   D14       -3.14158  -0.00000  -0.00000  -0.00004  -0.00004   3.14156
   D15        3.14159   0.00000   0.00000   0.00001   0.00001  -3.14158
   D16       -0.00001   0.00000   0.00000   0.00004   0.00004   0.00003
   D17       -0.00001   0.00000   0.00000   0.00003   0.00003   0.00002
   D18       -3.14157  -0.00000  -0.00000  -0.00013  -0.00013   3.14148
   D19       -3.14159   0.00000  -0.00000  -0.00000  -0.00000   3.14159
   D20        0.00003  -0.00000  -0.00001  -0.00016  -0.00016  -0.00013
   D21        0.00001  -0.00000  -0.00000  -0.00004  -0.00004  -0.00003
   D22       -3.14152  -0.00001  -0.00001  -0.00025  -0.00027   3.14140
   D23        3.14157   0.00000   0.00000   0.00013   0.00013  -3.14148
   D24        0.00003  -0.00000  -0.00001  -0.00008  -0.00009  -0.00006
   D25        3.14149   0.00001   0.00002   0.00042   0.00044  -3.14126
   D26       -0.00007   0.00001   0.00001   0.00025   0.00027   0.00020
   D27        0.00242  -0.00016  -0.00045  -0.00890  -0.00935  -0.00693
   D28        3.13939   0.00015   0.00041   0.00820   0.00861  -3.13518
   D29       -3.13922  -0.00016  -0.00044  -0.00869  -0.00914   3.13483
   D30       -0.00226   0.00016   0.00042   0.00840   0.00882   0.00657
   D31       -3.13906  -0.00018  -0.00047  -0.00933  -0.00980   3.13433
   D32       -0.00235   0.00016   0.00044   0.00872   0.00915   0.00680
         Item               Value     Threshold  Converged?
 Maximum Force            0.001657     0.000450     NO 
 RMS     Force            0.000299     0.000300     YES
 Maximum Displacement     0.018287     0.001800     NO 
 RMS     Displacement     0.004017     0.001200     NO 
 Predicted change in Energy=-1.119429D-05
 GradGradGradGradGradGradGradGradGradGradGradGradGradGradGradGradGradGrad

                          Input orientation:                          
 ---------------------------------------------------------------------
 Center     Atomic      Atomic             Coordinates (Angstroms)
 Number     Number       Type             X           Y           Z
 ---------------------------------------------------------------------
      1          7           0        0.505211   -1.345419    0.001551
      2          6           0        1.830936   -1.419057   -0.000259
      3          6           0        2.563722   -0.227732   -0.001537
      4          6           0        1.897746    0.980549   -0.000781
      5          6           0        0.483427    1.023246    0.001210
      6          6           0       -0.204005   -0.191619    0.002391
      7          6           0       -1.681347   -0.419652    0.004749
      8          8           0       -2.145318   -1.525516   -0.001350
      9          8           0       -2.371868    0.724499   -0.002361
     10          8           0       -0.086193    2.218683    0.001960
     11          1           0       -0.069338   -2.195031    0.002660
     12          1           0        2.277292   -2.410484   -0.000612
     13          1           0        3.650669   -0.269915   -0.003056
     14          1           0        2.435252    1.929043   -0.001705
     15          1           0       -3.324661    0.528048   -0.007182
     16          1           0       -1.055051    2.159591    0.003629
 ---------------------------------------------------------------------
                    Distance matrix (angstroms):
                    1          2          3          4          5
     1  N    0.000000
     2  C    1.327770   0.000000
     3  C    2.342371   1.398654   0.000000
     4  C    2.710957   2.400536   1.379662   0.000000
     5  C    2.368766   2.789378   2.427465   1.414965   0.000000
     6  C    1.354342   2.376468   2.767966   2.406522   1.395873
     7  C    2.374467   3.651708   4.249410   3.843241   2.601579
     8  O    2.656642   3.977679   4.884598   4.756756   3.661488
     9  O    3.544313   4.717881   5.026609   4.277285   2.870883
    10  O    3.612836   4.112000   3.606524   2.338589   1.324212
    11  H    1.025646   2.052605   3.286836   3.735471   3.265404
    12  H    2.067520   1.087273   2.201465   3.412208   3.874076
    13  H    3.324249   2.152199   1.087765   2.153231   3.421068
    14  H    3.800943   3.402202   2.160599   1.090208   2.151766
    15  H    4.263552   5.511029   5.936690   5.241978   3.840159
    16  H    3.836602   4.597353   4.335304   3.179492   1.912641
                    6          7          8          9         10
     6  C    0.000000
     7  C    1.494839   0.000000
     8  O    2.355417   1.199267   0.000000
     9  O    2.353491   1.336395   2.261392   0.000000
    10  O    2.413180   3.083073   4.273059   2.730735   0.000000
    11  H    2.007933   2.398030   2.181274   3.718242   4.413747
    12  H    3.328695   4.431057   4.510282   5.607389   5.197621
    13  H    3.855473   5.334123   5.930429   6.104081   4.489686
    14  H    3.385691   4.739494   5.737212   4.955737   2.538029
    15  H    3.202577   1.897039   2.368124   0.972846   3.653218
    16  H    2.500493   2.654193   3.843009   1.947699   0.970660
                   11         12         13         14         15
    11  H    0.000000
    12  H    2.356503   0.000000
    13  H    4.188622   2.543267   0.000000
    14  H    4.825037   4.342402   2.512500   0.000000
    15  H    4.244100   6.325891   7.020825   5.927850   0.000000
    16  H    4.464792   5.655980   5.295879   3.497913   2.795206
                   16
    16  H    0.000000
 Stoichiometry    C6H6NO3(1+)
 Framework group  C1[X(C6H6NO3)]
 Deg. of freedom    42
 Full point group                 C1      NOp   1
 Largest Abelian subgroup         C1      NOp   1
 Largest concise Abelian subgroup C1      NOp   1
                         Standard orientation:                         
 ---------------------------------------------------------------------
 Center     Atomic      Atomic             Coordinates (Angstroms)
 Number     Number       Type             X           Y           Z
 ---------------------------------------------------------------------
      1          7           0       -0.505719   -1.347306   -0.001206
      2          6           0       -1.831446   -1.420896    0.000604
      3          6           0       -2.564190   -0.229545    0.001883
      4          6           0       -1.898170    0.978713    0.001126
      5          6           0       -0.483849    1.021359   -0.000865
      6          6           0        0.203539   -0.193531   -0.002045
      7          6           0        1.680873   -0.421618   -0.004403
      8          8           0        2.144804   -1.527498    0.001696
      9          8           0        2.371435    0.722508    0.002706
     10          8           0        0.085814    2.216776   -0.001615
     11          1           0        0.068800   -2.196939   -0.002314
     12          1           0       -2.277838   -2.412307    0.000957
     13          1           0       -3.651137   -0.271689    0.003401
     14          1           0       -2.435641    1.927226    0.002051
     15          1           0        3.324220    0.526024    0.007527
     16          1           0        1.054670    2.157648   -0.003284
 ---------------------------------------------------------------------
 Rotational constants (GHZ):      2.2920803      1.2515581      0.8095289
 Standard basis: Aug-CC-pVDZ (5D, 7F)
 There are   304 symmetry adapted cartesian basis functions of A   symmetry.
 There are   284 symmetry adapted basis functions of A   symmetry.
   284 basis functions,   496 primitive gaussians,   304 cartesian basis functions
    36 alpha electrons       36 beta electrons
       nuclear repulsion energy       522.0082349269 Hartrees.
 NAtoms=   16 NActive=   16 NUniq=   16 SFac= 1.00D+00 NAtFMM=   60 NAOKFM=F Big=F
 Integral buffers will be    131072 words long.
 Raffenetti 2 integral format.
 Two-electron integral symmetry is turned on.
 One-electron integrals computed using PRISM.
 NBasis=   284 RedAO= T EigKep=  5.30D-06  NBF=   284
 NBsUse=   284 1.00D-06 EigRej= -1.00D+00 NBFU=   284
 Initial guess from the checkpoint file:  "pvdz3HPA2.chk"
 B after Tr=    -0.000000   -0.000000   -0.000000
         Rot=    1.000000    0.000103   -0.000006    0.000666 Ang=   0.08 deg.
 Keep R1 ints in memory in canonical form, NReq=833420375.
 Requested convergence on RMS density matrix=1.00D-08 within 128 cycles.
 Requested convergence on MAX density matrix=1.00D-06.
 Requested convergence on             energy=1.00D-06.
 No special actions if energy rises.
 SCF Done:  E(RM062X) =  -512.341218100     A.U. after   11 cycles
            NFock= 11  Conv=0.58D-08     -V/T= 2.0057
 Calling FoFJK, ICntrl=      2127 FMM=F ISym2X=0 I1Cent= 0 IOpClX= 0 NMat=1 NMatS=1 NMatT=0.
 ***** Axes restored to original set *****
 -------------------------------------------------------------------
 Center     Atomic                   Forces (Hartrees/Bohr)
 Number     Number              X              Y              Z
 -------------------------------------------------------------------
      1        7          -0.000173356   -0.000061294    0.000072906
      2        6           0.000232678   -0.000169444   -0.000022519
      3        6           0.000186637   -0.000059541    0.000008894
      4        6          -0.000066934    0.000289474   -0.000051077
      5        6           0.000210151   -0.000051920    0.000023662
      6        6          -0.000012888    0.000039387    0.000550379
      7        6           0.000301630   -0.000401384   -0.001859813
      8        8          -0.000022467    0.000158456    0.000726548
      9        8          -0.000175027    0.000070767    0.000554765
     10        8           0.000174352    0.000096593    0.000037202
     11        1           0.000040779   -0.000031057   -0.000027609
     12        1          -0.000096422    0.000231813   -0.000014972
     13        1          -0.000264164    0.000012259    0.000003268
     14        1          -0.000109555   -0.000239095    0.000006238
     15        1          -0.000170397    0.000076148    0.000032007
     16        1          -0.000055018    0.000038836   -0.000039878
 -------------------------------------------------------------------
 Cartesian Forces:  Max     0.001859813 RMS     0.000338522

 GradGradGradGradGradGradGradGradGradGradGradGradGradGradGradGradGradGrad
 Berny optimization.
 Using GEDIIS/GDIIS optimizer.
 FormGI is forming the generalized inverse of G from B-inverse, IUseBI=4.
 Internal  Forces:  Max     0.000509737 RMS     0.000171916
 Search for a local minimum.
 Step number   3 out of a maximum of   81
 All quantities printed in internal units (Hartrees-Bohrs-Radians)
 Mixed Optimization -- En-DIIS/RFO-DIIS
 Swapping is turned off.
 Update second derivatives using D2CorX and points    1    2    3
 DE=  2.40D-06 DEPred=-1.12D-05 R=-2.14D-01
 Trust test=-2.14D-01 RLast= 2.32D-02 DXMaxT set to 1.50D-01
 ITU= -1  1  0
     Eigenvalues ---    0.00846   0.01763   0.02040   0.02136   0.02184
     Eigenvalues ---    0.02228   0.02247   0.02353   0.02411   0.02493
     Eigenvalues ---    0.02557   0.02715   0.04922   0.15290   0.16000
     Eigenvalues ---    0.16000   0.16000   0.16041   0.18045   0.21755
     Eigenvalues ---    0.22480   0.22962   0.24628   0.25000   0.25187
     Eigenvalues ---    0.27156   0.32764   0.33181   0.35394   0.35601
     Eigenvalues ---    0.41329   0.43298   0.43477   0.46190   0.46360
     Eigenvalues ---    0.50722   0.52575   0.52974   0.54834   0.58217
     Eigenvalues ---    0.60426   1.02384
 En-DIIS/RFO-DIIS IScMMF=        0 using points:     3    2    1
 RFO step:  Lambda=-6.33102283D-06.
 DidBck=T Rises=F RFO-DIIS coefs:    0.41250    0.52503    0.06247
 Iteration  1 RMS(Cart)=  0.00316313 RMS(Int)=  0.00001173
 Iteration  2 RMS(Cart)=  0.00001751 RMS(Int)=  0.00000307
 Iteration  3 RMS(Cart)=  0.00000000 RMS(Int)=  0.00000307
 Variable       Old X    -DE/DX   Delta X   Delta X   Delta X     New X
                                 (Linear)    (Quad)   (Total)
    R1        2.50912   0.00008   0.00018  -0.00026  -0.00008   2.50904
    R2        2.55934   0.00006   0.00023  -0.00033  -0.00010   2.55923
    R3        1.93819   0.00000  -0.00014   0.00025   0.00011   1.93830
    R4        2.64307  -0.00010  -0.00008   0.00004  -0.00003   2.64304
    R5        2.05465  -0.00025  -0.00064   0.00078   0.00013   2.05478
    R6        2.60718  -0.00003  -0.00029   0.00045   0.00016   2.60735
    R7        2.05558  -0.00026  -0.00072   0.00089   0.00018   2.05575
    R8        2.67390  -0.00020   0.00022  -0.00057  -0.00035   2.67355
    R9        2.06020  -0.00026  -0.00067   0.00081   0.00014   2.06033
   R10        2.63782   0.00021   0.00009   0.00001   0.00010   2.63792
   R11        2.50240   0.00007  -0.00148   0.00265   0.00117   2.50356
   R12        2.82484   0.00008  -0.00001   0.00010   0.00009   2.82492
   R13        2.26629  -0.00014   0.00040  -0.00073  -0.00033   2.26595
   R14        2.52542   0.00030  -0.00081   0.00161   0.00079   2.52621
   R15        1.83841   0.00015   0.00010  -0.00003   0.00007   1.83848
   R16        1.83428   0.00005  -0.00009   0.00023   0.00014   1.83442
    A1        2.17743  -0.00003  -0.00011   0.00014   0.00003   2.17746
    A2        2.10992  -0.00003  -0.00018   0.00020   0.00002   2.10993
    A3        1.99584   0.00007   0.00029  -0.00034  -0.00005   1.99579
    A4        2.06676   0.00000   0.00010  -0.00017  -0.00007   2.06669
    A5        2.04932   0.00001  -0.00005   0.00012   0.00006   2.04938
    A6        2.16711  -0.00001  -0.00004   0.00005   0.00000   2.16711
    A7        2.08640   0.00004  -0.00003   0.00009   0.00006   2.08646
    A8        2.08346  -0.00002   0.00008  -0.00014  -0.00006   2.08339
    A9        2.11333  -0.00003  -0.00005   0.00005   0.00000   2.11334
   A10        2.10472   0.00004   0.00015  -0.00022  -0.00007   2.10466
   A11        2.12228  -0.00004   0.00014  -0.00031  -0.00017   2.12211
   A12        2.05619   0.00000  -0.00030   0.00053   0.00024   2.05642
   A13        2.05555   0.00001  -0.00009   0.00015   0.00006   2.05561
   A14        2.04564  -0.00024  -0.00099   0.00136   0.00038   2.04602
   A15        2.18199   0.00024   0.00108  -0.00151  -0.00043   2.18156
   A16        2.07552  -0.00006  -0.00003   0.00002  -0.00001   2.07551
   A17        1.96879  -0.00020  -0.00056   0.00068   0.00012   1.96892
   A18        2.23887   0.00026   0.00059  -0.00070  -0.00011   2.23876
   A19        2.12117  -0.00000  -0.00064   0.00120   0.00055   2.12172
   A20        1.96064   0.00019   0.00079  -0.00109  -0.00032   1.96033
   A21        2.20128  -0.00018  -0.00011  -0.00003  -0.00015   2.20113
   A22        1.91049   0.00019   0.00076  -0.00072   0.00004   1.91053
   A23        1.95455   0.00008  -0.00104   0.00224   0.00120   1.95575
    D1       -0.00011   0.00001   0.00008   0.00005   0.00014   0.00003
    D2        3.14144   0.00002   0.00011   0.00007   0.00018  -3.14156
    D3       -3.14145  -0.00002  -0.00011  -0.00006  -0.00017   3.14157
    D4        0.00010  -0.00001  -0.00008  -0.00005  -0.00012  -0.00002
    D5        0.00008  -0.00001  -0.00006  -0.00004  -0.00010  -0.00002
    D6       -3.14137  -0.00002  -0.00017  -0.00010  -0.00027   3.14154
    D7        3.14143   0.00002   0.00012   0.00007   0.00018  -3.14157
    D8       -0.00002   0.00000   0.00001   0.00001   0.00002   0.00000
    D9        0.00009  -0.00001  -0.00007  -0.00004  -0.00011  -0.00002
   D10       -3.14156  -0.00000  -0.00002  -0.00001  -0.00004   3.14159
   D11       -3.14146  -0.00001  -0.00010  -0.00006  -0.00016   3.14157
   D12        0.00008  -0.00001  -0.00006  -0.00003  -0.00009  -0.00001
   D13       -0.00005   0.00000   0.00004   0.00002   0.00006   0.00001
   D14        3.14156   0.00000   0.00002   0.00001   0.00004  -3.14159
   D15       -3.14158  -0.00000  -0.00001  -0.00001  -0.00001   3.14159
   D16        0.00003  -0.00000  -0.00002  -0.00001  -0.00004  -0.00001
   D17        0.00002  -0.00000  -0.00002  -0.00001  -0.00003  -0.00001
   D18        3.14148   0.00001   0.00008   0.00006   0.00013  -3.14157
   D19        3.14159  -0.00000   0.00000  -0.00000  -0.00000   3.14159
   D20       -0.00013   0.00001   0.00009   0.00006   0.00016   0.00003
   D21       -0.00003   0.00001   0.00002   0.00002   0.00004   0.00001
   D22        3.14140   0.00002   0.00015   0.00009   0.00024  -3.14155
   D23       -3.14148  -0.00001  -0.00008  -0.00005  -0.00013   3.14157
   D24       -0.00006   0.00000   0.00005   0.00001   0.00007   0.00001
   D25       -3.14126  -0.00004  -0.00025  -0.00016  -0.00042   3.14151
   D26        0.00020  -0.00003  -0.00015  -0.00009  -0.00024  -0.00005
   D27       -0.00693   0.00047   0.00530   0.00319   0.00849   0.00157
   D28       -3.13518  -0.00044  -0.00488  -0.00294  -0.00782   3.14018
   D29        3.13483   0.00046   0.00518   0.00312   0.00831  -3.14005
   D30        0.00657  -0.00045  -0.00500  -0.00300  -0.00801  -0.00144
   D31        3.13433   0.00051   0.00556   0.00335   0.00890  -3.13996
   D32        0.00680  -0.00045  -0.00519  -0.00313  -0.00832  -0.00151
         Item               Value     Threshold  Converged?
 Maximum Force            0.000510     0.000450     NO 
 RMS     Force            0.000172     0.000300     YES
 Maximum Displacement     0.016636     0.001800     NO 
 RMS     Displacement     0.003164     0.001200     NO 
 Predicted change in Energy=-1.154102D-05
 GradGradGradGradGradGradGradGradGradGradGradGradGradGradGradGradGradGrad

                          Input orientation:                          
 ---------------------------------------------------------------------
 Center     Atomic      Atomic             Coordinates (Angstroms)
 Number     Number       Type             X           Y           Z
 ---------------------------------------------------------------------
      1          7           0        0.505458   -1.345649   -0.000332
      2          6           0        1.831148   -1.419206    0.000036
      3          6           0        2.563772   -0.227802    0.000231
      4          6           0        1.897670    0.980509    0.000017
      5          6           0        0.483529    1.023007   -0.000386
      6          6           0       -0.203836   -0.191960   -0.000565
      7          6           0       -1.681231   -0.419953   -0.001030
      8          8           0       -2.145761   -1.525407    0.000430
      9          8           0       -2.371563    0.724823    0.000494
     10          8           0       -0.086971    2.218709   -0.000603
     11          1           0       -0.069089   -2.195333   -0.000509
     12          1           0        2.277657   -2.410643    0.000160
     13          1           0        3.650815   -0.269917    0.000538
     14          1           0        2.435308    1.929013    0.000153
     15          1           0       -3.324486    0.528765    0.001622
     16          1           0       -1.055946    2.160277   -0.000947
 ---------------------------------------------------------------------
                    Distance matrix (angstroms):
                    1          2          3          4          5
     1  N    0.000000
     2  C    1.327729   0.000000
     3  C    2.342272   1.398636   0.000000
     4  C    2.710953   2.400637   1.379749   0.000000
     5  C    2.368758   2.789352   2.427331   1.414780   0.000000
     6  C    1.354288   2.376403   2.767840   2.406452   1.395928
     7  C    2.374558   3.651755   4.249350   3.843153   2.601599
     8  O    2.657306   3.978327   4.885027   4.756990   3.661637
     9  O    3.544588   4.718012   5.026433   4.276883   2.870620
    10  O    3.613257   4.112616   3.607195   2.339218   1.324829
    11  H    1.025702   2.052626   3.286812   3.735520   3.265440
    12  H    2.067584   1.087344   2.201512   3.412375   3.874126
    13  H    3.324225   2.152220   1.087859   2.153389   3.421017
    14  H    3.801018   3.402291   2.160638   1.090282   2.151811
    15  H    4.264024   5.511366   5.936664   5.241659   3.839955
    16  H    3.837904   4.598697   4.336506   3.180519   1.913992
                    6          7          8          9         10
     6  C    0.000000
     7  C    1.494884   0.000000
     8  O    2.355665   1.199092   0.000000
     9  O    2.353621   1.336814   2.261531   0.000000
    10  O    2.413500   3.082888   4.272824   2.729663   0.000000
    11  H    2.007899   2.398119   2.182056   3.718695   4.414078
    12  H    3.328718   4.431213   4.511128   5.607708   5.198304
    13  H    3.855439   5.334157   5.930982   6.103978   4.490469
    14  H    3.385795   4.739571   5.737527   4.955409   2.538861
    15  H    3.202796   1.897461   2.368336   0.972883   3.652043
    16  H    2.501822   2.654914   3.843432   1.947147   0.970735
                   11         12         13         14         15
    11  H    0.000000
    12  H    2.356603   0.000000
    13  H    4.188664   2.543279   0.000000
    14  H    4.825166   4.342519   2.512520   0.000000
    15  H    4.244799   6.326462   7.020877   5.927556   0.000000
    16  H    4.466008   5.657404   5.297117   3.498905   2.794300
                   16
    16  H    0.000000
 Stoichiometry    C6H6NO3(1+)
 Framework group  C1[X(C6H6NO3)]
 Deg. of freedom    42
 Full point group                 C1      NOp   1
 Largest Abelian subgroup         C1      NOp   1
 Largest concise Abelian subgroup C1      NOp   1
                         Standard orientation:                         
 ---------------------------------------------------------------------
 Center     Atomic      Atomic             Coordinates (Angstroms)
 Number     Number       Type             X           Y           Z
 ---------------------------------------------------------------------
      1          7           0       -0.506359   -1.347346    0.000210
      2          6           0       -1.832072   -1.420496   -0.000158
      3          6           0       -2.564330   -0.228867   -0.000353
      4          6           0       -1.897857    0.979240   -0.000139
      5          6           0       -0.483703    1.021304    0.000264
      6          6           0        0.203289   -0.193874    0.000442
      7          6           0        1.680614   -0.422320    0.000908
      8          8           0        2.144805   -1.527918   -0.000552
      9          8           0        2.371297    0.722243   -0.000616
     10          8           0        0.087164    2.216831    0.000480
     11          1           0        0.067927   -2.197205    0.000386
     12          1           0       -2.278885   -2.411796   -0.000283
     13          1           0       -3.651386   -0.270649   -0.000661
     14          1           0       -2.435204    1.927909   -0.000275
     15          1           0        3.324160    0.525893   -0.001744
     16          1           0        1.056121    2.158102    0.000825
 ---------------------------------------------------------------------
 Rotational constants (GHZ):      2.2918306      1.2515039      0.8094735
 Standard basis: Aug-CC-pVDZ (5D, 7F)
 There are   304 symmetry adapted cartesian basis functions of A   symmetry.
 There are   284 symmetry adapted basis functions of A   symmetry.
   284 basis functions,   496 primitive gaussians,   304 cartesian basis functions
    36 alpha electrons       36 beta electrons
       nuclear repulsion energy       521.9834806355 Hartrees.
 NAtoms=   16 NActive=   16 NUniq=   16 SFac= 1.00D+00 NAtFMM=   60 NAOKFM=F Big=F
 Integral buffers will be    131072 words long.
 Raffenetti 2 integral format.
 Two-electron integral symmetry is turned on.
 One-electron integrals computed using PRISM.
 NBasis=   284 RedAO= T EigKep=  5.30D-06  NBF=   284
 NBsUse=   284 1.00D-06 EigRej= -1.00D+00 NBFU=   284
 Initial guess from the checkpoint file:  "pvdz3HPA2.chk"
 B after Tr=     0.000000   -0.000000    0.000000
         Rot=    1.000000   -0.000094    0.000005    0.000138 Ang=  -0.02 deg.
 Keep R1 ints in memory in canonical form, NReq=833420375.
 Requested convergence on RMS density matrix=1.00D-08 within 128 cycles.
 Requested convergence on MAX density matrix=1.00D-06.
 Requested convergence on             energy=1.00D-06.
 No special actions if energy rises.
 SCF Done:  E(RM062X) =  -512.341226314     A.U. after   11 cycles
            NFock= 11  Conv=0.37D-08     -V/T= 2.0057
 Calling FoFJK, ICntrl=      2127 FMM=F ISym2X=0 I1Cent= 0 IOpClX= 0 NMat=1 NMatS=1 NMatT=0.
 ***** Axes restored to original set *****
 -------------------------------------------------------------------
 Center     Atomic                   Forces (Hartrees/Bohr)
 Number     Number              X              Y              Z
 -------------------------------------------------------------------
      1        7          -0.000306234   -0.000136261   -0.000016281
      2        6           0.000331646   -0.000188823    0.000005097
      3        6           0.000228362   -0.000050081   -0.000001859
      4        6           0.000059044    0.000344157    0.000011430
[...]
 ! D2    D(6,1,2,12)           179.9998         -DE/DX =    0.0                 !
 ! D3    D(11,1,2,3)          -179.9997         -DE/DX =    0.0                 !
 ! D4    D(11,1,2,12)            0.0002         -DE/DX =    0.0                 !
 ! D5    D(2,1,6,5)             -0.0001         -DE/DX =    0.0                 !
 ! D6    D(2,1,6,7)            180.0002         -DE/DX =    0.0                 !
 ! D7    D(11,1,6,5)           179.9996         -DE/DX =    0.0                 !
 ! D8    D(11,1,6,7)            -0.0001         -DE/DX =    0.0                 !
 ! D9    D(1,2,3,4)              0.0001         -DE/DX =    0.0                 !
 ! D10   D(1,2,3,13)          -179.9999         -DE/DX =    0.0                 !
 ! D11   D(12,2,3,4)          -179.9997         -DE/DX =    0.0                 !
 ! D12   D(12,2,3,13)            0.0002         -DE/DX =    0.0                 !
 ! D13   D(2,3,4,5)             -0.0001         -DE/DX =    0.0                 !
 ! D14   D(2,3,4,14)          -180.0            -DE/DX =    0.0                 !
 ! D15   D(13,3,4,5)           180.0            -DE/DX =    0.0                 !
 ! D16   D(13,3,4,14)            0.0001         -DE/DX =    0.0                 !
 ! D17   D(3,4,5,6)              0.0            -DE/DX =    0.0                 !
 ! D18   D(3,4,5,10)           180.0            -DE/DX =    0.0                 !
 ! D19   D(14,4,5,6)           179.9999         -DE/DX =    0.0                 !
 ! D20   D(14,4,5,10)           -0.0001         -DE/DX =    0.0                 !
 ! D21   D(4,5,6,1)              0.0001         -DE/DX =    0.0                 !
 ! D22   D(4,5,6,7)           -180.0002         -DE/DX =    0.0                 !
 ! D23   D(10,5,6,1)          -179.9999         -DE/DX =    0.0                 !
 ! D24   D(10,5,6,7)            -0.0003         -DE/DX =    0.0                 !
 ! D25   D(4,5,10,16)         -180.0001         -DE/DX =    0.0                 !
 ! D26   D(6,5,10,16)           -0.0001         -DE/DX =    0.0                 !
 ! D27   D(1,6,7,8)             -0.0027         -DE/DX =    0.0                 !
 ! D28   D(1,6,7,9)           -179.9975         -DE/DX =    0.0                 !
 ! D29   D(5,6,7,8)           -180.0023         -DE/DX =    0.0                 !
 ! D30   D(5,6,7,9)              0.0029         -DE/DX =    0.0                 !
 ! D31   D(6,7,9,15)           179.9975         -DE/DX =    0.0                 !
 ! D32   D(8,7,9,15)             0.0029         -DE/DX =    0.0                 !
 --------------------------------------------------------------------------------
 GradGradGradGradGradGradGradGradGradGradGradGradGradGradGradGradGradGrad

 1\1\ WCSS.PL-BEM-JP\Freq\RM062X\Aug-CC-pVDZ\C6H6N1O3(1+)\C612\14-Dec-2
 024\0\\#N Geom=AllCheck Guess=TCheck SCRF=Check GenChk RM062X/Aug-CC-p
 VDZ Freq\\[No Title]\\1,1\N,0.5051007794,-1.3453711213,0.000022608\C,1
 .8308931529,-1.419033049,-0.0000178826\C,2.5636426111,-0.2278083932,-0
 .0000999153\C,1.8978044472,0.9805310797,-0.0001343014\C,0.4837505652,1
 .0234200073,-0.0000887915\C,-0.2040253345,-0.1914605314,-0.0000092625\
 C,-1.681340116,-0.4202237552,0.0000560099\O,-2.1449183021,-1.526161220
 1,0.0000807799\O,-2.373035106,0.7236042496,-0.0000308429\O,-0.08498531
 01,2.2194776657,-0.0001255846\H,-0.0692713645,-2.1951191976,0.00008791
 04\H,2.2771663249,-2.410151929,0.0000179412\H,3.6502613572,-0.27001517
 31,-0.0001348117\H,2.4354173318,1.928584123,-0.0001982962\H,-3.3259935
 37,0.5272359635,-0.0000248967\H,-1.0539924995,2.1617242811,-0.00009166
 4\\Version=ES64L-G09RevE.01\State=1-A\HF=-512.3412285\RMSD=5.137e-09\R
 MSF=3.199e-05\ZeroPoint=0.1232998\Thermal=0.1311676\Dipole=1.0207117,-
 0.4639547,0.0000098\DipoleDeriv=0.1517933,-0.1697984,-0.0000028,-0.577
 0092,-0.2902332,0.0000313,0.0000262,0.0000176,-0.0761201,-0.2974448,0.
 1516945,0.0000121,-0.1708335,0.2429407,-0.0000008,0.000021,-0.0000107,
 0.0686389,0.1957427,-0.0418497,-0.0000192,0.3776267,-0.1543399,0.00000
 06,-0.0000234,0.0000056,-0.0468161,0.1905473,0.3308556,-0.0000195,-0.0
 495759,0.1023642,-0.0000015,0.0000016,-0.0000257,-0.0319918,0.0237077,
 -0.6761094,0.000047,-0.6573572,1.3825609,-0.0000332,0.0000386,-0.00002
 56,0.1935791,-0.5259286,-0.2745916,0.0000157,0.5458144,-0.2073887,-0.0
 00015,0.0000106,0.0000115,0.0564997,2.0310162,0.0752591,-0.0000299,-0.
 0291876,1.6276929,-0.0000768,-0.0000363,-0.0000664,0.3817997,-0.921823
 7,-0.2910904,0.000032,-0.2352513,-0.9937725,0.0000534,0.0000155,0.0000
 164,-0.3181653,-1.0365956,0.4372323,-0.0000232,0.3808791,-0.9004623,0.
 0000251,-0.0000283,0.0000484,-0.3165337,-0.5411509,0.621716,-0.0000203
 ,0.4281147,-1.2026255,0.0000273,-0.0000123,0.0000164,-0.2955742,0.3592
 241,0.0529176,-0.0000047,0.0992615,0.3775756,-0.0000129,-0.0000079,-0.
 0000091,0.2611684,0.1226023,-0.0464694,0.,-0.0421628,0.1333107,0.00000
 18,-0.000003,0.0000084,0.1619249,0.1331569,0.004455,0.0000057,0.009560
 4,0.1097389,-0.0000017,-0.0000032,0.0000023,0.1464105,0.1242157,0.0170
 078,-0.0000022,0.0215043,0.1230154,-0.0000042,-0.0000021,0.0000009,0.1
 460261,0.5089491,-0.0857764,0.000009,-0.0875276,0.2748496,0.0000072,0.
 0000044,0.0000052,0.3552192,0.4819882,-0.1054526,0.0000002,-0.013856,0
 .3747733,-0.0000006,-0.0000015,0.0000046,0.3139347\Polar=110.3195469,-
 1.9471696,93.9701703,-0.0015158,-0.0025176,45.2009832\PG=C01 [X(C6H6N1
 O3)]\NImag=0\\0.88765916,0.04801382,0.80634251,-0.00002697,-0.00003253
 ,0.13985534,-0.41155958,-0.01960874,0.00001271,0.74478633,0.05528630,-
 0.15510469,0.00000293,-0.04534627,0.80246713,0.00000827,0.00000555,-0.
 06655134,-0.00001646,-0.00003164,0.14705436,-0.04895210,-0.03232310,0.
 00000374,-0.18564392,-0.12284830,0.00000919,0.78682546,-0.09273404,0.0
 3515935,0.00000164,-0.05399340,-0.29272845,0.00001216,-0.02555420,0.71
 112881,0.00000651,-0.00000011,0.01021778,0.00000603,0.00001422,-0.0689
 9673,-0.00001992,-0.00002592,0.13930225,-0.05873189,0.03203417,0.00000
 005,0.07366661,0.01484534,-0.00000298,-0.20057006,0.08520197,0.0000007
 2,0.68223421,0.03527523,-0.01777969,-0.00000058,-0.02464786,-0.0542460
 4,0.00000376,0.14757431,-0.34976952,0.00000903,-0.00458088,0.80329013,
 0.00000023,-0.00000083,-0.00553321,-0.00000126,0.00000252,0.00701695,-
 0.00000175,0.00001060,-0.06076202,-0.00001808,-0.00002981,0.14195185,0
 .07612894,-0.02879380,-0.00000109,-0.05820635,-0.01811139,0.00000302,-
 0.01031889,0.07107809,-0.00000306,-0.30830721,-0.04924252,0.00000891,0
 .71274004,0.01490499,-0.06617223,0.00000237,-0.02780606,-0.00048138,0.
 00000087,0.03957251,0.02142216,-0.00000240,0.00759068,-0.11813585,0.00
 000168,-0.02683338,0.77492517,-0.00000349,0.00000462,0.00207675,0.0000
 0353,0.00000050,-0.00643113,-0.00000191,-0.00000358,0.00134409,0.00000
 672,0.00000349,-0.07374307,-0.00001514,-0.00002590,0.16818567,-0.17938
 211,0.10999609,-0.00000097,-0.06225209,0.02294224,0.00000127,0.0021147
 4,0.02862381,-0.00000172,-0.00345215,-0.03661294,0.00000238,-0.2159093
 5,-0.10616030,0.00000956,0.68894308,0.05327221,-0.29335765,0.00000951,
 0.08896851,0.01494633,-0.00000368,-0.01518797,-0.05768243,0.00000301,-
 0.06046931,0.03541366,0.00000092,-0.06650012,-0.27479839,0.00001053,0.
 02267508,0.77176768,0.00000243,0.00000672,-0.06239245,-0.00000256,-0.0
 0000149,0.00920957,0.00000108,0.00000162,-0.00578094,0.00000327,0.0000
 0044,0.00756090,0.00000742,0.00001243,-0.06600384,-0.00001789,-0.00002
 907,0.13711591,-0.05312122,0.02366587,0.00000037,0.02446546,0.00787513
 ,-0.00000105,-0.00215865,-0.01780618,0.00000089,-0.01238447,0.00663573
 ,-0.00000013,0.01792718,-0.03357913,0.00000124,-0.20182466,-0.01343105
 ,0.00000731,0.68893807,0.02782171,0.00581850,-0.00000158,0.00846633,-0
 .00802178,0.00000031,-0.00204580,-0.00413880,0.00000023,-0.00315420,-0
 .00476777,0.00000057,-0.03099631,0.01819282,0.00000075,-0.01385816,-0.
 09258989,0.00000149,0.13224164,1.01783038,0.00000012,-0.00000042,-0.00
 133652,-0.00000061,0.00000047,0.00655722,-0.00000071,0.00000091,-0.000
 66879,0.00000096,0.00000030,0.00790943,0.00000179,-0.00000084,0.003377
 50,0.00000440,0.00000133,-0.07640837,-0.00000321,-0.00002839,0.2013655
 1,-0.00118935,-0.00740345,0.00000040,-0.00343878,-0.00390285,0.0000002
 7,-0.00044425,0.00323825,-0.00000009,0.00154605,-0.00354914,0.00000030
 ,-0.01083701,0.01224726,-0.00000024,-0.03381228,-0.04743415,0.00000213
 ,-0.22814482,-0.25333264,0.00000559,0.23608390,0.01561226,-0.00477428,
 0.,-0.00862452,0.00070164,0.00000036,0.00182229,0.00481173,-0.00000028
 ,0.00197030,-0.00224709,0.00000017,-0.00213594,0.00188378,0.,-0.036276
 07,-0.02284162,0.00000156,-0.25148673,-0.67381404,0.00001475,0.2896226
 6,0.79512189,-0.00000039,0.00000013,0.00090425,0.00000017,0.00000002,-
 0.00065087,0.00000026,-0.00000030,-0.00006362,-0.00000023,-0.00000003,
 -0.00178115,-0.00000003,0.00000008,0.00202112,0.00000305,0.00000220,0.
 02133223,0.00000442,0.00001356,-0.07641501,-0.00000767,-0.00002194,0.0
 3458391,-0.00640953,-0.00556146,0.00000050,-0.00341324,0.00082112,0.,0
 .00031954,0.00353247,-0.00000007,0.00307112,-0.00112203,0.00000039,-0.
 00384258,0.00376624,-0.00000038,-0.03278320,0.04052845,-0.00000209,-0.
 20066776,0.11236594,-0.00000788,0.03596324,0.00499813,0.00000008,0.688
 21560,-0.00145718,0.00450893,-0.00000004,0.00171828,0.00249936,-0.0000
 0021,0.00012347,-0.00291542,0.00000023,-0.00345403,0.00211099,0.000000
 11,0.00896364,-0.01523071,0.00000019,0.01389319,0.00145143,0.00000086,
 0.06970797,-0.25676477,0.00001194,0.02689770,-0.10145377,0.00000676,-0
 .02293056,0.43351770,0.00000003,-0.00000020,0.00147384,-0.00000002,-0.
 00000013,0.00000498,0.00000007,0.00000011,0.00013365,0.00000015,-0.000
 00017,-0.00033434,-0.00000079,0.00000106,-0.00031809,0.00000028,0.0000
 0005,0.00795174,-0.00000497,0.00001377,-0.06120555,-0.00000132,0.00000
 572,0.02731598,0.00000425,-0.00002315,0.04100202,-0.01465142,0.0037987
 8,0.00000046,0.01123277,0.00777768,-0.00000078,-0.00682491,-0.01710982
 ,0.00000121,-0.04047120,0.06371838,-0.00000118,-0.16551647,0.12591914,
 -0.00000236,0.02921948,-0.00990778,-0.00000006,-0.01974193,0.01216770,
 -0.00000055,0.00502802,-0.00361327,0.00000006,-0.00330725,-0.01432618,
 0.00000099,0.68760506,0.00242091,-0.00319245,0.00000057,-0.00698595,-0
 .00982198,0.00000062,-0.00434979,0.01236547,-0.00000027,0.02863070,-0.
 01200994,-0.00000007,0.08713416,-0.33893274,0.00001008,0.00647472,-0.0
 5331916,0.00000243,0.02000745,-0.00504357,0.00000009,-0.00512406,0.000
 13598,0.,-0.01036290,0.00697154,-0.00000045,-0.09988565,0.45429938,0.0
 0000073,0.00000039,0.00811214,-0.00000013,0.00000013,-0.00094095,0.000
 00062,0.00000019,0.00418971,0.00000027,-0.00000127,0.00769740,-0.00000
 035,0.00000929,-0.04855791,-0.00000116,0.00000293,0.00840275,-0.000000
 45,-0.00000032,-0.00314045,0.00000008,0.00000001,0.00005909,0.00000059
 ,0.00000010,0.00174481,-0.00001632,-0.00001537,0.03700774,-0.17137509,
 -0.15591463,0.00001156,-0.01531024,-0.02781389,0.00000206,-0.00454854,
 0.00353731,0.00000025,-0.00046302,0.00062913,-0.00000008,-0.00184681,0
 .00322828,0.00000013,0.01759334,0.01233684,-0.00000141,0.00350095,0.01
 414548,-0.00000085,-0.00043115,-0.00832407,0.00000030,0.00053018,-0.00
 560087,0.00000044,-0.00060047,0.00220436,-0.00000006,0.17194747,-0.154
 44354,-0.31087923,0.00001717,0.00061776,0.01133518,-0.00000065,0.00255
 892,0.00282076,0.00000012,0.00109333,-0.00024351,-0.00000013,0.0043552
 4,-0.00252352,0.00000023,-0.01319237,-0.02639077,0.00000181,0.00206739
 ,-0.00223732,-0.00000006,-0.00345810,-0.00002561,-0.00000004,-0.001032
 04,-0.00008359,0.00000002,-0.00126548,-0.00003938,0.00000010,0.1613698
 1,0.32676534,0.00001169,0.00001727,-0.03417352,0.00000033,0.00000035,0
 .00089896,0.00000027,0.00000022,0.00794818,-0.00000002,-0.00000009,-0.
 00099694,0.00000006,0.00000019,0.00514463,-0.00000010,0.00000096,0.001
 29261,0.00000002,-0.00000042,-0.00220561,0.00000010,0.00000005,-0.0027
 5985,-0.00000003,0.00000016,0.00047703,0.00000009,-0.00000004,0.000686
 42,-0.00001214,-0.00001833,0.02838711,-0.01763258,0.03547732,-0.000001
 13,-0.10380573,0.10183283,-0.00000332,0.01339801,-0.01533011,0.0000005
 0,-0.00261864,-0.00356174,0.00000045,-0.00021859,0.00037770,-0.0000000
 4,-0.00369109,-0.00388954,0.00000070,0.00008046,0.00147588,-0.00000013
 ,-0.00002992,-0.00022690,0.00000005,-0.00059890,-0.00009149,0.,0.00048
 135,-0.00027118,-0.00000001,0.00044324,0.00080813,-0.00000022,0.113160
 78,-0.00337517,0.00533282,-0.00000014,0.11314771,-0.31377736,0.0000113
 6,0.01138970,-0.01019873,0.00000037,-0.00259308,-0.00258535,0.00000052
 ,-0.00140603,-0.00133765,0.00000010,-0.00206297,0.00314608,0.00000036,
 0.00069244,0.00045256,0.00000006,-0.00022948,-0.00027713,0.00000001,-0
 .00032734,0.00011589,-0.00000003,-0.00004956,0.00068079,-0.00000006,0.
 00034347,0.00095012,-0.00000029,-0.11636354,0.31755649,0.00000072,-0.0
 0000143,0.00108739,-0.00000373,0.00001194,-0.03789458,-0.00000104,0.00
 000129,0.00596294,0.00000045,0.00000037,0.00570062,0.00000021,0.000000
 06,-0.00003425,0.00000046,0.00000025,0.00796855,0.00000020,0.00000006,
 0.00168054,-0.00000005,-0.00000002,-0.00005948,-0.00000017,-0.00000008
 ,-0.00033394,-0.00000007,0.00000001,-0.00074687,-0.00000020,-0.0000002
 6,-0.00441976,0.00000324,-0.00001204,0.02474959,0.00055131,-0.00249803
 ,0.00000030,-0.00834286,0.00395003,0.00000022,-0.35557467,0.00970448,0
 .00000985,-0.00635993,-0.00173470,0.00000047,0.00074035,0.00144059,0.0
 0000022,0.00087302,0.00026357,-0.00000014,-0.00051743,-0.00009288,0.00
 000013,0.00013016,0.00014578,-0.00000007,0.00014475,-0.00006131,-0.000
 00002,-0.00033122,-0.00020958,-0.00000001,-0.00009123,0.00034346,0.,0.
 00052032,0.00001112,-0.00000009,0.36770430,-0.00452495,-0.00558230,0.0
 0000078,-0.02665616,0.00690915,0.00000062,0.01121856,-0.05904950,0.000
 00069,0.02824920,0.00407869,-0.00000090,0.00132706,-0.00478125,0.00000
 057,0.00106400,-0.00127573,0.00000010,-0.00040874,-0.00030967,-0.00000
 014,-0.00005661,0.00039218,0.00000004,-0.00000306,0.00013170,0.,0.0017
 3573,0.00026998,-0.00000007,-0.00093274,0.00054709,0.00000003,0.000480
 48,0.00045248,-0.00000019,-0.01118476,0.05761662,0.00000043,0.00000071
 ,0.00689233,0.00000157,-0.00000041,0.00172607,0.00000967,0.00000085,-0
 .04066049,-0.00000091,-0.00000003,0.00504800,0.00000028,0.00000059,0.0
 0910842,-0.00000011,0.00000003,-0.00065453,0.00000010,0.00000002,-0.00
 097912,-0.00000004,-0.00000006,0.00012651,-0.00000013,-0.00000006,-0.0
 0000767,-0.00000012,0.00000002,-0.00036281,0.00000006,0.00000003,0.000
 45482,-0.00000011,-0.00000015,-0.00279031,-0.00001063,-0.00000132,0.02
 708093,-0.00099724,0.00154578,-0.00000005,-0.00095356,0.00407487,0.000
 00013,0.01281466,0.01555911,-0.00000094,-0.13210331,-0.12793060,0.0000
 0962,-0.01045584,-0.02732279,0.00000188,-0.00545644,0.00037389,0.00000
 045,0.00068801,-0.00133701,0.,-0.00067964,-0.00027396,0.00000002,0.000
 00260,0.00029520,-0.00000002,0.00299687,-0.00007197,-0.00000021,-0.000
 11831,-0.00009515,-0.00000002,0.00068645,0.00067812,-0.00000009,0.0005
 7621,-0.00032994,-0.00000016,0.13300293,0.00091719,0.00078742,-0.00000
 008,0.00267173,-0.00337835,0.00000044,-0.01354521,-0.01389968,0.000001
 20,-0.12832008,-0.27596697,0.00001433,0.00357757,0.00634414,0.00000006
 ,0.00091328,-0.00016942,0.00000018,-0.00013626,0.00034792,-0.00000010,
 0.00030008,0.00016060,0.00000003,0.00018833,-0.00006272,0.00000002,-0.
 00019690,-0.00029813,-0.00000012,-0.00010572,-0.00012325,-0.00000003,-
 0.00074576,-0.00045402,0.00000005,-0.00021702,0.00093798,-0.00000022,0
 .13481565,0.28569994,-0.00000002,-0.00000001,-0.00085253,0.00000017,0.
 00000042,0.00915550,0.00000046,0.00000039,0.00616187,0.00000985,0.0000
 1406,-0.04359433,0.00000028,0.00000108,0.00820228,0.00000036,0.0000003
 4,0.00540047,-0.00000004,-0.00000003,-0.00131707,-0.00000005,-0.000000
 07,0.00016270,-0.00000005,-0.00000007,0.00010176,-0.00000022,-0.000000
 13,-0.00310435,-0.00000001,0.00000001,-0.00090020,0.00000003,-0.000000
 04,-0.00065017,-0.00000024,-0.00000019,-0.00460271,-0.00001060,-0.0000
 1574,0.02615034,-0.00074859,0.00025557,-0.00000004,0.00087058,0.000631
 28,0.00000002,-0.00000522,-0.00075012,-0.00000008,-0.00057882,0.000176
 26,-0.00000025,0.00062883,0.00011235,0.00000018,0.00141848,0.00234874,
 -0.00000086,-0.03285235,0.00577827,0.00000045,0.00378562,-0.00800468,0
 .00000012,-0.46596912,-0.07834932,0.00000137,0.00135951,0.00029565,-0.
 00000009,-0.00052358,0.00018859,0.,-0.00005173,0.00003671,0.00000015,-
 0.00003740,-0.00001037,0.00000010,-0.00000740,-0.00006401,0.00000006,0
 .49424443,0.00140616,0.00005088,-0.00000002,0.00002431,-0.00047449,0.0
 0000002,-0.00007639,-0.00002426,-0.00000001,-0.00014027,0.00018364,-0.
 00000012,0.00069875,-0.00117579,0.00000007,0.00240784,-0.00480477,0.00
 000053,0.04914775,0.01475929,-0.00000034,-0.00692315,-0.00096209,-0.00
 000045,-0.12447270,-0.07473996,0.00000369,-0.00215037,-0.00079442,0.00
 000009,0.00053903,0.00008973,0.,0.00011122,0.00000855,0.00000003,0.000
 00702,0.00000925,0.00000003,0.00002693,0.00002961,0.,0.07885996,0.0650
 8400,-0.00000015,0.00000004,0.00086912,0.00000008,0.00000006,-0.000322
 59,-0.00000003,-0.00000004,0.00012983,-0.00000001,-0.00000004,-0.00034
 388,0.00000005,0.00000008,-0.00056772,0.00000020,0.00000057,0.00532157
 ,-0.00000434,-0.00000070,0.00252543,0.00000054,-0.00000011,-0.00519445
 ,0.00000489,0.00000369,-0.01557047,0.00000013,0.00000003,0.00038626,-0
 .00000003,0.,0.00020623,-0.00000002,-0.00000002,-0.00015817,0.,0.,0.00
 005370,0.,0.,0.00003934,-0.00000125,-0.00000341,0.01275810,0.00041129,
 -0.00268419,0.00000015,-0.00209539,-0.00201412,0.00000014,-0.00043122,
 0.00280239,-0.00000008,0.00552271,-0.00102661,-0.00000003,-0.02270625,
 0.01254190,0.00000010,-0.00159877,-0.00394737,0.00000023,0.01581316,-0
 .00964595,0.00000051,-0.00352980,0.00479471,-0.00000015,-0.01125545,0.
 00467152,-0.00000045,-0.48647820,-0.01990687,0.00001650,0.00129326,0.0
 0008406,-0.00000004,-0.00012344,0.00010790,0.,0.00001432,0.00003230,0.
 ,0.00000401,-0.00005288,0.00000002,-0.00153324,0.00053389,-0.00000006,
 0.50669298,0.00160411,-0.00115789,-0.00000001,-0.00194567,-0.00082430,
 0.00000011,0.00167100,0.00269851,-0.00000010,0.00309616,-0.00732537,0.
 00000043,0.04688498,0.00080143,-0.00000172,-0.00082743,0.00050464,0.00
 000002,0.00480673,-0.00971385,0.00000044,-0.00089231,0.00318783,-0.000
 00007,-0.00038858,-0.00005660,-0.00000031,-0.06661241,-0.05127136,0.00
 000398,0.00035820,0.00003798,-0.00000001,-0.00008332,-0.00006552,-0.00
 000002,0.00013223,-0.00034667,-0.00000002,-0.00000814,0.00004492,-0.00
 000002,-0.00150486,0.00276082,-0.00000018,0.01370932,0.06072543,-0.000
 00014,0.00000010,-0.00064936,0.00000017,0.00000010,0.00016458,0.,-0.00
 000014,0.00154229,-0.00000021,0.00000056,0.00420380,-0.00000157,-0.000
 00061,-0.00380446,-0.00000001,0.00000010,-0.00031619,-0.00000035,0.000
 00069,0.00026085,0.00000008,-0.00000014,0.00041864,0.00000010,-0.00000
 043,-0.00243575,0.00001872,0.00000248,-0.01143298,-0.00000005,-0.00000
 002,-0.00004012,0.,0.,-0.00006211,-0.00000001,-0.00000001,-0.00043310,
 -0.00000002,-0.00000002,-0.00035290,0.00000011,-0.00000013,-0.00013229
 ,-0.00001683,-0.00000252,0.01306909\\0.00006875,0.00001074,-0.00000057
 ,-0.00007450,0.00000985,0.00000015,-0.00003892,0.00004086,-0.00000005,
 0.00001122,-0.00005880,0.00000036,0.00005292,0.00000087,0.,0.00001890,
 -0.00007778,-0.00000394,0.00006774,-0.00000665,0.00001277,-0.00002120,
 0.00001550,-0.00000497,-0.00007841,-0.00003663,-0.00000385,-0.00003222
 ,0.00005076,-0.00000021,-0.00001225,-0.00000539,0.00000030,0.00001635,
 -0.00002665,0.00000011,0.00003533,-0.00000161,-0.00000002,0.00001265,0
 .00003538,-0.00000006,-0.00002205,0.00000952,-0.00000016,-0.00000431,0
 .00004003,0.00000015\\\@


 A DANDELION FROM A LOVER MEANS MORE THAN AN ORCHID FROM A FRIEND.
 Job cpu time:       0 days  0 hours 35 minutes 29.3 seconds.
 File lengths (MBytes):  RWF=    123 Int=      0 D2E=      0 Chk=      7 Scr=      1
 Normal termination of Gaussian 09 at Sat Dec 14 18:24:02 2024.
