 Entering Gaussian System, Link 0=g09
 Input=pvdz3HPA.gjf
 Output=pvdz3HPA.log
 Initial command:
 /home/phzd/g09E/g09/l1.exe "/home/phzd/g09E/scratch/Gau-1276865.inp" -scrdir="/home/phzd/g09E/scratch/"
 Default is to use a total of  18 processors:
                               18 via shared-memory
                                1 via Linda
 Entering Link 1 = /home/phzd/g09E/g09/l1.exe PID=   1276867.
  
 Copyright (c) 1988,1990,1992,1993,1995,1998,2003,2009,2015,
            Gaussian, Inc.  All Rights Reserved.
  
 This is part of the Gaussian(R) 09 program.  It is based on
 the Gaussian(R) 03 system (copyright 2003, Gaussian, Inc.),
 the Gaussian(R) 98 system (copyright 1998, Gaussian, Inc.),
 the Gaussian(R) 94 system (copyright 1995, Gaussian, Inc.),
 the Gaussian 92(TM) system (copyright 1992, Gaussian, Inc.),
 the Gaussian 90(TM) system (copyright 1990, Gaussian, Inc.),
 the Gaussian 88(TM) system (copyright 1988, Gaussian, Inc.),
 the Gaussian 86(TM) system (copyright 1986, Carnegie Mellon
 University), and the Gaussian 82(TM) system (copyright 1983,
 Carnegie Mellon University). Gaussian is a federally registered
 trademark of Gaussian, Inc.
  
 This software contains proprietary and confidential information,
 including trade secrets, belonging to Gaussian, Inc.
  
 This software is provided under written license and may be
 used, copied, transmitted, or stored only in accord with that
 written license.
  
 The following legend is applicable only to US Government
 contracts under FAR:
  
                    RESTRICTED RIGHTS LEGEND
  
 Use, reproduction and disclosure by the US Government is
 subject to restrictions as set forth in subparagraphs (a)
 and (c) of the Commercial Computer Software - Restricted
 Rights clause in FAR 52.227-19.
  
 Gaussian, Inc.
 340 Quinnipiac St., Bldg. 40, Wallingford CT 06492
  
  
 ---------------------------------------------------------------
 Warning -- This program may not be used in any manner that
 competes with the business of Gaussian, Inc. or will provide
 assistance to any competitor of Gaussian, Inc.  The licensee
 of this program is prohibited from giving any competitor of
 Gaussian, Inc. access to this program.  By using this program,
 the user acknowledges that Gaussian, Inc. is engaged in the
 business of creating and licensing software in the field of
 computational chemistry and represents and warrants to the
 licensee that it is not a competitor of Gaussian, Inc. and that
 it will not use this program in any manner prohibited above.
 ---------------------------------------------------------------
  

 Cite this work as:
 Gaussian 09, Revision E.01,
 M. J. Frisch, G. W. Trucks, H. B. Schlegel, G. E. Scuseria, 
 M. A. Robb, J. R. Cheeseman, G. Scalmani, V. Barone, B. Mennucci, 
 G. A. Petersson, H. Nakatsuji, M. Caricato, X. Li, H. P. Hratchian, 
 A. F. Izmaylov, J. Bloino, G. Zheng, J. L. Sonnenberg, M. Hada, 
 M. Ehara, K. Toyota, R. Fukuda, J. Hasegawa, M. Ishida, T. Nakajima, 
 Y. Honda, O. Kitao, H. Nakai, T. Vreven, J. A. Montgomery, Jr., 
 J. E. Peralta, F. Ogliaro, M. Bearpark, J. J. Heyd, E. Brothers, 
 K. N. Kudin, V. N. Staroverov, T. Keith, R. Kobayashi, J. Normand, 
 K. Raghavachari, A. Rendell, J. C. Burant, S. S. Iyengar, J. Tomasi, 
 M. Cossi, N. Rega, J. M. Millam, M. Klene, J. E. Knox, J. B. Cross, 
 V. Bakken, C. Adamo, J. Jaramillo, R. Gomperts, R. E. Stratmann, 
 O. Yazyev, A. J. Austin, R. Cammi, C. Pomelli, J. W. Ochterski, 
 R. L. Martin, K. Morokuma, V. G. Zakrzewski, G. A. Voth, 
 P. Salvador, J. J. Dannenberg, S. Dapprich, A. D. Daniels, 
 O. Farkas, J. B. Foresman, J. V. Ortiz, J. Cioslowski, 
 and D. J. Fox, Gaussian, Inc., Wallingford CT, 2013.
 
 ******************************************
 Gaussian 09:  ES64L-G09RevE.01 30-Nov-2015
                14-Dec-2024 
 ******************************************
 %chk=pvdz3HPA.chk
 ----------------------------
 # opt freq m062x/aug-cc-pvdz
 ----------------------------
 1/14=-1,18=20,19=15,26=3,38=1/1,3;
 2/9=110,12=2,17=6,18=5,40=1/2;
 3/5=16,7=10,11=2,16=1,25=1,30=1,71=1,74=-55/1,2,3;
 4//1;
 5/5=2,38=5/2;
 6/7=2,8=2,9=2,10=2,28=1/1;
 7//1,2,3,16;
 1/14=-1,18=20,19=15,26=3/3(2);
 2/9=110/2;
 99//99;
 2/9=110/2;
 3/5=16,7=10,11=2,16=1,25=1,30=1,71=1,74=-55/1,2,3;
 4/5=5,16=3,69=1/1;
 5/5=2,38=5/2;
 7//1,2,3,16;
 1/14=-1,18=20,19=15,26=3/3(-5);
 2/9=110/2;
 6/7=2,8=2,9=2,10=2,19=2,28=1/1;
 99/9=1/99;
 ----------
 [No Title]
 ----------
 Symbolic Z-matrix:
 Charge =  0 Multiplicity = 1
 N                     0.42843  -1.44393  -0.00002 
 C                     1.74927  -1.48668  -0.00003 
 C                     2.54529  -0.32915  -0.00002 
 C                     1.93469   0.90826  -0.00001 
 C                     0.53356   0.97142   0.00001 
 C                    -0.17357  -0.24725  0. 
 C                    -1.65617  -0.21681  -0.00001 
 O                    -2.3016    0.8237    0.00001 
 O                    -2.24322  -1.40826   0.00002 
 O                    -0.04369   2.17854   0.00003 
 H                     2.20348  -2.4735   -0.00004 
 H                     3.62705  -0.41343  -0.00003 
 H                     2.49659   1.83621   0. 
 H                    -3.20062  -1.253     0.00003 
 H                    -1.01585   2.06063   0.00004 
 

 GradGradGradGradGradGradGradGradGradGradGradGradGradGradGradGradGradGrad
 Berny optimization.
 Initialization pass.
                           ----------------------------
                           !    Initial Parameters    !
                           ! (Angstroms and Degrees)  !
 --------------------------                            --------------------------
 ! Name  Definition              Value          Derivative Info.                !
 --------------------------------------------------------------------------------
 ! R1    R(1,2)                  1.3215         estimate D2E/DX2                !
 ! R2    R(1,6)                  1.3396         estimate D2E/DX2                !
 ! R3    R(2,3)                  1.4048         estimate D2E/DX2                !
 ! R4    R(2,11)                 1.0863         estimate D2E/DX2                !
 ! R5    R(3,4)                  1.3799         estimate D2E/DX2                !
 ! R6    R(3,12)                 1.085          estimate D2E/DX2                !
 ! R7    R(4,5)                  1.4026         estimate D2E/DX2                !
 ! R8    R(4,13)                 1.0848         estimate D2E/DX2                !
 ! R9    R(5,6)                  1.409          estimate D2E/DX2                !
 ! R10   R(5,10)                 1.338          estimate D2E/DX2                !
 ! R11   R(6,7)                  1.4829         estimate D2E/DX2                !
 ! R12   R(7,8)                  1.2244         estimate D2E/DX2                !
 ! R13   R(7,9)                  1.3282         estimate D2E/DX2                !
 ! R14   R(9,14)                 0.9699         estimate D2E/DX2                !
 ! R15   R(10,15)                0.9793         estimate D2E/DX2                !
 ! A1    A(2,1,6)              118.5586         estimate D2E/DX2                !
 ! A2    A(1,2,3)              122.6627         estimate D2E/DX2                !
 ! A3    A(1,2,11)             116.5691         estimate D2E/DX2                !
 ! A4    A(3,2,11)             120.7682         estimate D2E/DX2                !
 ! A5    A(2,3,4)              119.2197         estimate D2E/DX2                !
 ! A6    A(2,3,12)             120.0617         estimate D2E/DX2                !
 ! A7    A(4,3,12)             120.7187         estimate D2E/DX2                !
 ! A8    A(3,4,5)              118.8452         estimate D2E/DX2                !
 ! A9    A(3,4,13)             122.5398         estimate D2E/DX2                !
 ! A10   A(5,4,13)             118.6151         estimate D2E/DX2                !
 ! A11   A(4,5,6)              117.5433         estimate D2E/DX2                !
 ! A12   A(4,5,10)             118.1382         estimate D2E/DX2                !
 ! A13   A(6,5,10)             124.3185         estimate D2E/DX2                !
 ! A14   A(1,6,5)              123.1706         estimate D2E/DX2                !
 ! A15   A(1,6,7)              117.8817         estimate D2E/DX2                !
 ! A16   A(5,6,7)              118.9477         estimate D2E/DX2                !
 ! A17   A(6,7,8)              122.9883         estimate D2E/DX2                !
 ! A18   A(6,7,9)              115.0537         estimate D2E/DX2                !
 ! A19   A(8,7,9)              121.958          estimate D2E/DX2                !
 ! A20   A(7,9,14)             107.0192         estimate D2E/DX2                !
 ! A21   A(5,10,15)            108.642          estimate D2E/DX2                !
 ! D1    D(6,1,2,3)              0.0            estimate D2E/DX2                !
 ! D2    D(6,1,2,11)          -179.9999         estimate D2E/DX2                !
 ! D3    D(2,1,6,5)             -0.0001         estimate D2E/DX2                !
 ! D4    D(2,1,6,7)            179.9995         estimate D2E/DX2                !
 ! D5    D(1,2,3,4)              0.0            estimate D2E/DX2                !
 ! D6    D(1,2,3,12)          -180.0            estimate D2E/DX2                !
 ! D7    D(11,2,3,4)           180.0            estimate D2E/DX2                !
 ! D8    D(11,2,3,12)            0.0            estimate D2E/DX2                !
 ! D9    D(2,3,4,5)              0.0001         estimate D2E/DX2                !
 ! D10   D(2,3,4,13)           179.9999         estimate D2E/DX2                !
 ! D11   D(12,3,4,5)          -179.9999         estimate D2E/DX2                !
 ! D12   D(12,3,4,13)           -0.0001         estimate D2E/DX2                !
 ! D13   D(3,4,5,6)             -0.0001         estimate D2E/DX2                !
 ! D14   D(3,4,5,10)           179.9996         estimate D2E/DX2                !
 ! D15   D(13,4,5,6)          -180.0            estimate D2E/DX2                !
 ! D16   D(13,4,5,10)           -0.0003         estimate D2E/DX2                !
 ! D17   D(4,5,6,1)              0.0002         estimate D2E/DX2                !
 ! D18   D(4,5,6,7)           -179.9994         estimate D2E/DX2                !
 ! D19   D(10,5,6,1)          -179.9995         estimate D2E/DX2                !
 ! D20   D(10,5,6,7)             0.0009         estimate D2E/DX2                !
 ! D21   D(4,5,10,15)         -179.9994         estimate D2E/DX2                !
 ! D22   D(6,5,10,15)            0.0003         estimate D2E/DX2                !
 ! D23   D(1,6,7,8)            179.9996         estimate D2E/DX2                !
 ! D24   D(1,6,7,9)              0.0019         estimate D2E/DX2                !
 ! D25   D(5,6,7,8)             -0.0008         estimate D2E/DX2                !
 ! D26   D(5,6,7,9)           -179.9984         estimate D2E/DX2                !
 ! D27   D(6,7,9,14)           179.9988         estimate D2E/DX2                !
 ! D28   D(8,7,9,14)             0.0011         estimate D2E/DX2                !
 --------------------------------------------------------------------------------
 Trust Radius=3.00D-01 FncErr=1.00D-07 GrdErr=1.00D-06
 Number of steps in this run=     74 maximum allowed number of steps=    100.
 GradGradGradGradGradGradGradGradGradGradGradGradGradGradGradGradGradGrad

                          Input orientation:                          
 ---------------------------------------------------------------------
 Center     Atomic      Atomic             Coordinates (Angstroms)
 Number     Number       Type             X           Y           Z
 ---------------------------------------------------------------------
      1          7           0        0.428428   -1.443933   -0.000019
      2          6           0        1.749269   -1.486676   -0.000028
      3          6           0        2.545293   -0.329153   -0.000022
      4          6           0        1.934687    0.908262   -0.000006
      5          6           0        0.533558    0.971421    0.000005
      6          6           0       -0.173573   -0.247254   -0.000004
      7          6           0       -1.656168   -0.216805   -0.000006
      8          8           0       -2.301602    0.823696    0.000014
      9          8           0       -2.243216   -1.408256    0.000018
     10          8           0       -0.043688    2.178540    0.000029
     11          1           0        2.203484   -2.473502   -0.000041
     12          1           0        3.627053   -0.413425   -0.000030
     13          1           0        2.496586    1.836212    0.000001
     14          1           0       -3.200617   -1.253002    0.000034
     15          1           0       -1.015853    2.060634    0.000043
 ---------------------------------------------------------------------
                    Distance matrix (angstroms):
                    1          2          3          4          5
     1  N    0.000000
     2  C    1.321532   0.000000
     3  C    2.392457   1.404818   0.000000
     4  C    2.793141   2.402105   1.379868   0.000000
     5  C    2.417641   2.742297   2.395531   1.402552   0.000000
     6  C    1.339569   2.287682   2.720099   2.404158   1.408972
     7  C    2.418963   3.634498   4.202963   3.762980   2.491341
     8  O    3.548972   4.663408   4.982113   4.237133   2.839006
     9  O    2.671882   3.993255   4.908593   4.777147   3.656957
    10  O    3.653109   4.080258   3.604351   2.351079   1.338039
    11  H    2.052032   1.086341   2.171420   3.392430   3.828335
    12  H    3.360528   2.162855   1.085038   2.147314   3.389323
    13  H    3.877709   3.405887   2.165913   1.084814   2.145074
    14  H    3.634064   4.955399   5.819706   5.571572   4.346507
    15  H    3.790506   4.497700   4.288688   3.167593   1.893953
                    6          7          8          9         10
     6  C    0.000000
     7  C    1.482908   0.000000
     8  O    2.382318   1.224429   0.000000
     9  O    2.373046   1.328225   2.232716   0.000000
    10  O    2.429269   2.887520   2.633207   4.207497   0.000000
    11  H    3.256774   4.470972   5.582769   4.572515   5.166360
    12  H    3.804257   5.286878   6.056354   5.953969   4.493620
    13  H    3.386824   4.632520   4.903855   5.743892   2.563236
    14  H    3.189753   1.859846   2.262941   0.969907   4.662798
    15  H    2.456783   2.365741   1.784143   3.679622   0.979289
                   11         12         13         14         15
    11  H    0.000000
    12  H    2.504090   0.000000
    13  H    4.319669   2.517702   0.000000
    14  H    5.540210   6.879096   6.480846   0.000000
    15  H    5.560802   5.260945   3.519601   3.969052   0.000000
 Stoichiometry    C6H5NO3
 Framework group  C1[X(C6H5NO3)]
 Deg. of freedom    39
 Full point group                 C1      NOp   1
 Largest Abelian subgroup         C1      NOp   1
 Largest concise Abelian subgroup C1      NOp   1
                         Standard orientation:                         
 ---------------------------------------------------------------------
 Center     Atomic      Atomic             Coordinates (Angstroms)
 Number     Number       Type             X           Y           Z
 ---------------------------------------------------------------------
      1          7           0       -0.428428   -1.443933    0.000019
      2          6           0       -1.749269   -1.486676    0.000028
      3          6           0       -2.545293   -0.329153    0.000022
      4          6           0       -1.934687    0.908262    0.000006
      5          6           0       -0.533558    0.971421   -0.000005
      6          6           0        0.173573   -0.247254    0.000004
      7          6           0        1.656168   -0.216805    0.000006
      8          8           0        2.301602    0.823696   -0.000014
      9          8           0        2.243216   -1.408256   -0.000018
     10          8           0        0.043688    2.178540   -0.000029
     11          1           0       -2.203484   -2.473502    0.000041
     12          1           0       -3.627053   -0.413425    0.000030
     13          1           0       -2.496586    1.836212   -0.000001
     14          1           0        3.200617   -1.253002   -0.000034
     15          1           0        1.015853    2.060634   -0.000043
 ---------------------------------------------------------------------
 Rotational constants (GHZ):      2.3657717      1.2648099      0.8241797
 Standard basis: Aug-CC-pVDZ (5D, 7F)
 There are   295 symmetry adapted cartesian basis functions of A   symmetry.
 There are   275 symmetry adapted basis functions of A   symmetry.
   275 basis functions,   485 primitive gaussians,   295 cartesian basis functions
    36 alpha electrons       36 beta electrons
       nuclear repulsion energy       508.0776174991 Hartrees.
 NAtoms=   15 NActive=   15 NUniq=   15 SFac= 1.00D+00 NAtFMM=   60 NAOKFM=F Big=F
 Integral buffers will be    131072 words long.
 Raffenetti 2 integral format.
 Two-electron integral symmetry is turned on.
 One-electron integrals computed using PRISM.
 NBasis=   275 RedAO= T EigKep=  5.68D-06  NBF=   275
 NBsUse=   275 1.00D-06 EigRej= -1.00D+00 NBFU=   275
 ExpMin= 2.97D-02 ExpMax= 1.17D+04 ExpMxC= 4.01D+02 IAcc=3 IRadAn=         5 AccDes= 0.00D+00
 Harris functional with IExCor= 1009 and IRadAn=       5 diagonalized for initial guess.
 HarFok:  IExCor= 1009 AccDes= 0.00D+00 IRadAn=         5 IDoV= 1 UseB2=F ITyADJ=14
 ICtDFT=  3500011 ScaDFX=  1.000000  1.000000  1.000000  1.000000
 FoFCou: FMM=F IPFlag=           0 FMFlag=      100000 FMFlg1=           0
         NFxFlg=           0 DoJE=T BraDBF=F KetDBF=T FulRan=T
         wScrn=  0.000000 ICntrl=     500 IOpCl=  0 I1Cent=   200000004 NGrid=           0
         NMat0=    1 NMatS0=      1 NMatT0=    0 NMatD0=    1 NMtDS0=    0 NMtDT0=    0
 Petite list used in FoFCou.
 Keep R1 ints in memory in canonical form, NReq=733374370.
 Requested convergence on RMS density matrix=1.00D-08 within 128 cycles.
 Requested convergence on MAX density matrix=1.00D-06.
 Requested convergence on             energy=1.00D-06.
 No special actions if energy rises.
 SCF Done:  E(RM062X) =  -511.985981651     A.U. after   15 cycles
            NFock= 15  Conv=0.64D-08     -V/T= 2.0057

 **********************************************************************

            Population analysis using the SCF density.

 **********************************************************************

 Orbital symmetries:
       Occupied  (A) (A) (A) (A) (A) (A) (A) (A) (A) (A) (A) (A)
                 (A) (A) (A) (A) (A) (A) (A) (A) (A) (A) (A) (A)
                 (A) (A) (A) (A) (A) (A) (A) (A) (A) (A) (A) (A)
       Virtual   (A) (A) (A) (A) (A) (A) (A) (A) (A) (A) (A) (A)
                 (A) (A) (A) (A) (A) (A) (A) (A) (A) (A) (A) (A)
                 (A) (A) (A) (A) (A) (A) (A) (A) (A) (A) (A) (A)
                 (A) (A) (A) (A) (A) (A) (A) (A) (A) (A) (A) (A)
                 (A) (A) (A) (A) (A) (A) (A) (A) (A) (A) (A) (A)
                 (A) (A) (A) (A) (A) (A) (A) (A) (A) (A) (A) (A)
                 (A) (A) (A) (A) (A) (A) (A) (A) (A) (A) (A) (A)
                 (A) (A) (A) (A) (A) (A) (A) (A) (A) (A) (A) (A)
                 (A) (A) (A) (A) (A) (A) (A) (A) (A) (A) (A) (A)
                 (A) (A) (A) (A) (A) (A) (A) (A) (A) (A) (A) (A)
                 (A) (A) (A) (A) (A) (A) (A) (A) (A) (A) (A) (A)
                 (A) (A) (A) (A) (A) (A) (A) (A) (A) (A) (A) (A)
                 (A) (A) (A) (A) (A) (A) (A) (A) (A) (A) (A) (A)
                 (A) (A) (A) (A) (A) (A) (A) (A) (A) (A) (A) (A)
                 (A) (A) (A) (A) (A) (A) (A) (A) (A) (A) (A) (A)
                 (A) (A) (A) (A) (A) (A) (A) (A) (A) (A) (A) (A)
                 (A) (A) (A) (A) (A) (A) (A) (A) (A) (A) (A) (A)
                 (A) (A) (A) (A) (A) (A) (A) (A) (A) (A) (A) (A)
                 (A) (A) (A) (A) (A) (A) (A) (A) (A) (A) (A) (A)
                 (A) (A) (A) (A) (A) (A) (A) (A) (A) (A) (A)
 The electronic state is 1-A.
 Alpha  occ. eigenvalues --  -19.70693 -19.68065 -19.66041 -14.78312 -10.70984
 Alpha  occ. eigenvalues --  -10.64411 -10.60811 -10.59421 -10.58203 -10.57928
 Alpha  occ. eigenvalues --   -1.26298  -1.20682  -1.16043  -1.07431  -0.92042
 Alpha  occ. eigenvalues --   -0.88592  -0.78717  -0.73274  -0.72085  -0.64037
 Alpha  occ. eigenvalues --   -0.63021  -0.60472  -0.57518  -0.56398  -0.55454
 Alpha  occ. eigenvalues --   -0.51197  -0.50403  -0.49020  -0.47943  -0.46574
 Alpha  occ. eigenvalues --   -0.45554  -0.41509  -0.38702  -0.35639  -0.33765
 Alpha  occ. eigenvalues --   -0.30491
 Alpha virt. eigenvalues --   -0.04105  -0.00665   0.00019   0.00557   0.01218
 Alpha virt. eigenvalues --    0.02116   0.03399   0.03967   0.04968   0.06333
 Alpha virt. eigenvalues --    0.06610   0.06786   0.07020   0.07992   0.08240
 Alpha virt. eigenvalues --    0.09767   0.10006   0.10150   0.10796   0.10957
 Alpha virt. eigenvalues --    0.11938   0.12244   0.12250   0.13493   0.13516
 Alpha virt. eigenvalues --    0.14438   0.15079   0.16898   0.18990   0.19269
 Alpha virt. eigenvalues --    0.19608   0.20400   0.20533   0.21409   0.21509
 Alpha virt. eigenvalues --    0.21857   0.22144   0.23431   0.24130   0.24540
 Alpha virt. eigenvalues --    0.25380   0.26113   0.26360   0.26465   0.27040
 Alpha virt. eigenvalues --    0.27635   0.28196   0.28968   0.29048   0.30066
 Alpha virt. eigenvalues --    0.30823   0.32464   0.32723   0.33928   0.34338
 Alpha virt. eigenvalues --    0.34514   0.36604   0.37037   0.37754   0.38856
 Alpha virt. eigenvalues --    0.39909   0.40366   0.41612   0.42235   0.42912
 Alpha virt. eigenvalues --    0.44458   0.45479   0.45833   0.46459   0.47159
 Alpha virt. eigenvalues --    0.48617   0.49317   0.50232   0.51000   0.52818
 Alpha virt. eigenvalues --    0.53999   0.55059   0.55538   0.55607   0.56862
 Alpha virt. eigenvalues --    0.57503   0.58433   0.59081   0.59274   0.60018
 Alpha virt. eigenvalues --    0.61095   0.61409   0.62681   0.63581   0.65167
 Alpha virt. eigenvalues --    0.65689   0.67678   0.68673   0.69471   0.70586
 Alpha virt. eigenvalues --    0.71269   0.72140   0.72808   0.75060   0.75077
 Alpha virt. eigenvalues --    0.76981   0.77273   0.77966   0.78841   0.80012
 Alpha virt. eigenvalues --    0.81608   0.81979   0.81996   0.84049   0.85389
 Alpha virt. eigenvalues --    0.86486   0.87583   0.91458   0.91579   0.93242
 Alpha virt. eigenvalues --    0.93436   0.93710   0.96193   0.98255   1.00836
 Alpha virt. eigenvalues --    1.00878   1.01839   1.03040   1.06230   1.06467
 Alpha virt. eigenvalues --    1.09010   1.09083   1.12618   1.13941   1.14245
 Alpha virt. eigenvalues --    1.16490   1.17614   1.19699   1.20714   1.23412
 Alpha virt. eigenvalues --    1.23895   1.25847   1.28845   1.30819   1.32927
 Alpha virt. eigenvalues --    1.33514   1.34869   1.36120   1.37630   1.39377
 Alpha virt. eigenvalues --    1.40912   1.41341   1.44378   1.44968   1.45360
 Alpha virt. eigenvalues --    1.45836   1.47526   1.50800   1.51356   1.52184
 Alpha virt. eigenvalues --    1.53559   1.55053   1.56423   1.57563   1.58533
 Alpha virt. eigenvalues --    1.62813   1.64438   1.64907   1.65358   1.69699
 Alpha virt. eigenvalues --    1.70654   1.71066   1.71349   1.75634   1.76093
 Alpha virt. eigenvalues --    1.79461   1.83026   1.83119   1.85161   1.85944
 Alpha virt. eigenvalues --    1.87118   1.88335   1.90327   1.90884   1.93230
 Alpha virt. eigenvalues --    1.93600   1.93843   2.01408   2.01759   2.02201
 Alpha virt. eigenvalues --    2.02351   2.04385   2.07861   2.09265   2.10278
 Alpha virt. eigenvalues --    2.13737   2.17830   2.20368   2.20913   2.24749
 Alpha virt. eigenvalues --    2.25613   2.27599   2.31898   2.34442   2.37654
 Alpha virt. eigenvalues --    2.41024   2.44434   2.47664   2.49733   2.54411
 Alpha virt. eigenvalues --    2.58888   2.62894   2.68591   2.69567   2.70095
 Alpha virt. eigenvalues --    2.75064   2.78434   2.83192   2.85198   2.88688
 Alpha virt. eigenvalues --    2.95539   2.97370   3.01218   3.08447   3.11876
 Alpha virt. eigenvalues --    3.20001   3.25829   3.36197   3.38237   3.42195
 Alpha virt. eigenvalues --    3.43453   3.46028   3.46214   3.48025   3.50083
 Alpha virt. eigenvalues --    3.57462   3.61991   3.66423   3.68131   3.75138
 Alpha virt. eigenvalues --    3.86526   3.93491   4.10792   4.12768
          Condensed to atoms (all electrons):
               1          2          3          4          5          6
     1  N    6.993855   0.373617   0.094134  -0.351572   0.170964   0.285432
     2  C    0.373617   8.728352  -1.194766   0.576984  -0.352593  -1.407047
     3  C    0.094134  -1.194766   8.403423  -2.349488   0.921873  -0.622075
     4  C   -0.351572   0.576984  -2.349488  12.641239  -3.674203   0.199210
     5  C    0.170964  -0.352593   0.921873  -3.674203  10.642310  -1.906903
     6  C    0.285432  -1.407047  -0.622075   0.199210  -1.906903  11.033814
     7  C   -0.124231  -0.594156   0.368959  -0.780318  -0.733150  -2.449132
     8  O   -0.020990   0.002331   0.002543  -0.004040  -0.102458   0.107857
     9  O   -0.036387   0.027681  -0.013643   0.014298   0.006030   0.114789
    10  O   -0.020667  -0.067432  -0.034609   0.041146  -0.323245   0.102788
    11  H   -0.212369  -0.319051  -0.045230   0.129485  -0.213119   0.344667
    12  H   -0.059651   0.134741  -1.050731   0.709649  -0.063193  -0.068921
    13  H    0.029521  -0.105115   0.582829  -2.003939   1.155431  -0.286911
    14  H    0.014888  -0.003710   0.004955  -0.009503   0.024005   0.018923
    15  H   -0.001564   0.011865  -0.017733   0.061915  -0.009289  -0.007128
               7          8          9         10         11         12
     1  N   -0.124231  -0.020990  -0.036387  -0.020667  -0.212369  -0.059651
     2  C   -0.594156   0.002331   0.027681  -0.067432  -0.319051   0.134741
     3  C    0.368959   0.002543  -0.013643  -0.034609  -0.045230  -1.050731
     4  C   -0.780318  -0.004040   0.014298   0.041146   0.129485   0.709649
     5  C   -0.733150  -0.102458   0.006030  -0.323245  -0.213119  -0.063193
     6  C   -2.449132   0.107857   0.114789   0.102788   0.344667  -0.068921
     7  C    9.760715   0.283566  -0.123772   0.079350   0.053270  -0.021221
     8  O    0.283566   8.450406  -0.032033  -0.039855   0.000835  -0.000208
     9  O   -0.123772  -0.032033   8.277179  -0.001429   0.001639  -0.000138
    10  O    0.079350  -0.039855  -0.001429   8.635161   0.003514  -0.003967
    11  H    0.053270   0.000835   0.001639   0.003514   1.996493  -0.111706
    12  H   -0.021221  -0.000208  -0.000138  -0.003967  -0.111706   2.365143
    13  H    0.066404   0.001479   0.000328  -0.111045  -0.002055  -0.166242
    14  H   -0.107443  -0.040938   0.293386  -0.002242  -0.000218  -0.000100
    15  H   -0.206100   0.043883   0.004865   0.298145  -0.000995   0.000208
              13         14         15
     1  N    0.029521   0.014888  -0.001564
     2  C   -0.105115  -0.003710   0.011865
     3  C    0.582829   0.004955  -0.017733
     4  C   -2.003939  -0.009503   0.061915
     5  C    1.155431   0.024005  -0.009289
     6  C   -0.286911   0.018923  -0.007128
     7  C    0.066404  -0.107443  -0.206100
     8  O    0.001479  -0.040938   0.043883
     9  O    0.000328   0.293386   0.004865
    10  O   -0.111045  -0.002242   0.298145
    11  H   -0.002055  -0.000218  -0.000995
    12  H   -0.166242  -0.000100   0.000208
    13  H    2.603383   0.000681  -0.000997
    14  H    0.000681   0.552029   0.000892
    15  H   -0.000997   0.000892   0.610514
 Mulliken charges:
               1
     1  N   -0.134979
     2  C    0.188298
     3  C    0.949561
     4  C    0.799137
     5  C    0.457538
     6  C    0.540637
     7  C    0.527259
     8  O   -0.652380
     9  O   -0.532795
    10  O   -0.555614
    11  H   -0.625161
    12  H   -0.663662
    13  H   -0.763754
    14  H    0.254395
    15  H    0.211518
 Sum of Mulliken charges =  -0.00000
 Mulliken charges with hydrogens summed into heavy atoms:
               1
     1  N   -0.134979
     2  C   -0.436863
     3  C    0.285899
     4  C    0.035384
     5  C    0.457538
     6  C    0.540637
     7  C    0.527259
     8  O   -0.652380
     9  O   -0.278400
    10  O   -0.344095
 Electronic spatial extent (au):  <R**2>=           1307.0481
 Charge=             -0.0000 electrons
 Dipole moment (field-independent basis, Debye):
    X=             -1.1931    Y=             -0.4378    Z=             -0.0000  Tot=              1.2709
 Quadrupole moment (field-independent basis, Debye-Ang):
   XX=            -43.5869   YY=            -61.4221   ZZ=            -58.3760
   XY=             -2.2918   XZ=             -0.0002   YZ=              0.0000
 Traceless Quadrupole moment (field-independent basis, Debye-Ang):
   XX=             10.8747   YY=             -6.9604   ZZ=             -3.9143
   XY=             -2.2918   XZ=             -0.0002   YZ=              0.0000
 Octapole moment (field-independent basis, Debye-Ang**2):
  XXX=             17.4522  YYY=              2.9707  ZZZ=             -0.0004  XYY=             -0.2439
  XXY=            -17.8315  XXZ=             -0.0002  XZZ=             10.7716  YZZ=              1.7922
  YYZ=             -0.0001  XYZ=              0.0002
 Hexadecapole moment (field-independent basis, Debye-Ang**3):
 XXXX=           -854.2701 YYYY=           -585.6422 ZZZZ=            -59.2567 XXXY=            -74.1155
 XXXZ=              0.0013 YYYX=             17.3340 YYYZ=              0.0022 ZZZX=              0.0039
 ZZZY=              0.0025 XXYY=           -231.8446 XXZZ=           -194.0838 YYZZ=           -108.7206
 XXYZ=              0.0010 YYXZ=              0.0003 ZZXY=             -2.7885
 N-N= 5.080776174991D+02 E-N=-2.213359272040D+03  KE= 5.091063679493D+02
 Calling FoFJK, ICntrl=      2127 FMM=F ISym2X=0 I1Cent= 0 IOpClX= 0 NMat=1 NMatS=1 NMatT=0.
 ***** Axes restored to original set *****
 -------------------------------------------------------------------
 Center     Atomic                   Forces (Hartrees/Bohr)
 Number     Number              X              Y              Z
 -------------------------------------------------------------------
      1        7          -0.000529301   -0.000163174   -0.000000463
      2        6          -0.000900342    0.001573136    0.000000341
      3        6          -0.002321402   -0.000238132   -0.000000139
      4        6          -0.001320508   -0.000798666    0.000000260
      5        6          -0.000229287   -0.000645414    0.000000410
      6        6          -0.000140276   -0.000055420   -0.000002154
      7        6          -0.001261625    0.004637548    0.000006238
      8        8           0.001068289   -0.001384532   -0.000001940
      9        8          -0.001335809   -0.002802050   -0.000001791
     10        8          -0.000693468    0.001669558    0.000000040
     11        1           0.001289633   -0.002265563    0.000000009
     12        1           0.002640689   -0.000220724   -0.000000067
     13        1           0.001508608    0.002111055   -0.000000017
     14        1           0.001252390    0.000422992   -0.000000116
     15        1           0.000972408   -0.001840613   -0.000000611
 -------------------------------------------------------------------
 Cartesian Forces:  Max     0.004637548 RMS     0.001313210

 GradGradGradGradGradGradGradGradGradGradGradGradGradGradGradGradGradGrad
 Berny optimization.
 FormGI is forming the generalized inverse of G from B-inverse, IUseBI=4.
 Internal  Forces:  Max     0.003598501 RMS     0.000931383
 Search for a local minimum.
 Step number   1 out of a maximum of   74
 All quantities printed in internal units (Hartrees-Bohrs-Radians)
 Mixed Optimization -- En-DIIS/RFO-DIIS
 Second derivative matrix not updated -- first step.
 ITU=  0
     Eigenvalues ---    0.00992   0.01533   0.01747   0.02032   0.02124
     Eigenvalues ---    0.02154   0.02192   0.02220   0.02284   0.02500
     Eigenvalues ---    0.02511   0.02641   0.16000   0.16000   0.16000
     Eigenvalues ---    0.16000   0.16000   0.22081   0.23322   0.24912
     Eigenvalues ---    0.25000   0.25000   0.25000   0.25000   0.34239
     Eigenvalues ---    0.35239   0.35392   0.35419   0.41208   0.43854
     Eigenvalues ---    0.44557   0.47798   0.51523   0.53396   0.55749
     Eigenvalues ---    0.57647   0.59879   0.59927   0.93447
 RFO step:  Lambda=-2.02150124D-04 EMin= 9.92046563D-03
 Linear search not attempted -- first point.
 Iteration  1 RMS(Cart)=  0.00930339 RMS(Int)=  0.00010232
 Iteration  2 RMS(Cart)=  0.00009816 RMS(Int)=  0.00000019
 Iteration  3 RMS(Cart)=  0.00000000 RMS(Int)=  0.00000019
 Variable       Old X    -DE/DX   Delta X   Delta X   Delta X     New X
                                 (Linear)    (Quad)   (Total)
    R1        2.49733   0.00069   0.00000   0.00114   0.00114   2.49848
    R2        2.53142   0.00027   0.00000   0.00042   0.00042   2.53184
    R3        2.65472   0.00069   0.00000   0.00164   0.00164   2.65636
    R4        2.05289   0.00260   0.00000   0.00737   0.00737   2.06025
    R5        2.60757   0.00098   0.00000   0.00207   0.00207   2.60964
    R6        2.05042   0.00265   0.00000   0.00748   0.00748   2.05791
    R7        2.65044   0.00020   0.00000   0.00041   0.00041   2.65085
    R8        2.05000   0.00259   0.00000   0.00730   0.00730   2.05730
    R9        2.66257  -0.00038   0.00000  -0.00097  -0.00097   2.66160
   R10        2.52853  -0.00027   0.00000  -0.00048  -0.00048   2.52805
   R11        2.80229   0.00029   0.00000   0.00086   0.00086   2.80315
   R12        2.31384  -0.00174   0.00000  -0.00186  -0.00186   2.31197
   R13        2.50998   0.00217   0.00000   0.00362   0.00362   2.51360
   R14        1.83286  -0.00117   0.00000  -0.00219  -0.00219   1.83067
   R15        1.85059  -0.00074   0.00000  -0.00144  -0.00144   1.84915
    A1        2.06924  -0.00029   0.00000  -0.00121  -0.00121   2.06803
    A2        2.14087  -0.00011   0.00000  -0.00017  -0.00017   2.14069
    A3        2.03451   0.00028   0.00000   0.00153   0.00153   2.03604
    A4        2.10780  -0.00018   0.00000  -0.00135  -0.00135   2.10645
    A5        2.08078   0.00023   0.00000   0.00148   0.00148   2.08226
    A6        2.09547  -0.00013   0.00000  -0.00083  -0.00083   2.09464
    A7        2.10694  -0.00010   0.00000  -0.00065  -0.00065   2.10629
    A8        2.07424  -0.00071   0.00000  -0.00309  -0.00309   2.07115
    A9        2.13872   0.00015   0.00000   0.00029   0.00029   2.13901
   A10        2.07022   0.00056   0.00000   0.00280   0.00280   2.07302
   A11        2.05152   0.00062   0.00000   0.00228   0.00228   2.05380
   A12        2.06190   0.00126   0.00000   0.00516   0.00516   2.06706
   A13        2.16977  -0.00189   0.00000  -0.00744  -0.00744   2.16233
   A14        2.14973   0.00025   0.00000   0.00071   0.00071   2.15044
   A15        2.05742   0.00063   0.00000   0.00267   0.00267   2.06010
   A16        2.07603  -0.00088   0.00000  -0.00338  -0.00338   2.07265
   A17        2.14655   0.00017   0.00000   0.00067   0.00067   2.14722
   A18        2.00807  -0.00074   0.00000  -0.00298  -0.00298   2.00509
   A19        2.12857   0.00058   0.00000   0.00231   0.00231   2.13088
   A20        1.86784  -0.00113   0.00000  -0.00706  -0.00706   1.86077
   A21        1.89616  -0.00360   0.00000  -0.02246  -0.02246   1.87370
    D1        0.00000  -0.00000   0.00000  -0.00000  -0.00000  -0.00000
    D2       -3.14159  -0.00000   0.00000  -0.00000  -0.00000   3.14159
    D3       -0.00000   0.00000   0.00000   0.00001   0.00001   0.00000
    D4        3.14158   0.00000   0.00000   0.00002   0.00002  -3.14158
    D5        0.00000   0.00000   0.00000   0.00000   0.00000   0.00000
    D6       -3.14159   0.00000   0.00000   0.00000   0.00000  -3.14159
    D7        3.14159  -0.00000   0.00000  -0.00000  -0.00000   3.14159
    D8       -0.00000   0.00000   0.00000   0.00000   0.00000   0.00000
    D9        0.00000  -0.00000   0.00000  -0.00000  -0.00000  -0.00000
   D10        3.14159   0.00000   0.00000   0.00000   0.00000  -3.14159
   D11       -3.14159  -0.00000   0.00000  -0.00000  -0.00000   3.14159
   D12       -0.00000   0.00000   0.00000   0.00000   0.00000   0.00000
   D13       -0.00000   0.00000   0.00000   0.00000   0.00000   0.00000
   D14        3.14159   0.00000   0.00000   0.00001   0.00001  -3.14159
   D15       -3.14159  -0.00000   0.00000  -0.00000  -0.00000   3.14159
   D16       -0.00000   0.00000   0.00000   0.00001   0.00001   0.00000
   D17        0.00000  -0.00000   0.00000  -0.00001  -0.00001  -0.00000
   D18       -3.14158  -0.00000   0.00000  -0.00002  -0.00002   3.14158
   D19       -3.14158  -0.00000   0.00000  -0.00002  -0.00002   3.14158
   D20        0.00002  -0.00000   0.00000  -0.00003  -0.00003  -0.00002
   D21       -3.14158  -0.00000   0.00000  -0.00002  -0.00002   3.14158
   D22        0.00000  -0.00000   0.00000  -0.00002  -0.00002  -0.00001
   D23        3.14159   0.00000   0.00000   0.00006   0.00006  -3.14154
   D24        0.00003  -0.00000   0.00000  -0.00011  -0.00011  -0.00008
   D25       -0.00001   0.00000   0.00000   0.00008   0.00008   0.00007
   D26       -3.14157  -0.00000   0.00000  -0.00010  -0.00010   3.14152
   D27        3.14157   0.00000   0.00000   0.00009   0.00009  -3.14152
   D28        0.00002  -0.00000   0.00000  -0.00009  -0.00009  -0.00007
         Item               Value     Threshold  Converged?
 Maximum Force            0.003599     0.000450     NO 
 RMS     Force            0.000931     0.000300     NO 
 Maximum Displacement     0.062545     0.001800     NO 
 RMS     Displacement     0.009283     0.001200     NO 
 Predicted change in Energy=-1.011661D-04
 GradGradGradGradGradGradGradGradGradGradGradGradGradGradGradGradGradGrad

                          Input orientation:                          
 ---------------------------------------------------------------------
 Center     Atomic      Atomic             Coordinates (Angstroms)
 Number     Number       Type             X           Y           Z
 ---------------------------------------------------------------------
      1          7           0        0.427579   -1.444116    0.000005
      2          6           0        1.749035   -1.486542   -0.000020
      3          6           0        2.545053   -0.327965   -0.000030
      4          6           0        1.935265    0.911075   -0.000012
      5          6           0        0.533793    0.971392    0.000015
      6          6           0       -0.173379   -0.246666    0.000025
      7          6           0       -1.656308   -0.210828    0.000070
      8          8           0       -2.298143    0.830741    0.000032
      9          8           0       -2.244981   -1.403615   -0.000010
     10          8           0       -0.052009    2.174101    0.000025
     11          1           0        2.206643   -2.476095   -0.000035
     12          1           0        3.630727   -0.412983   -0.000053
     13          1           0        2.499877    1.841898   -0.000020
     14          1           0       -3.200014   -1.241175   -0.000034
     15          1           0       -1.019496    2.027537    0.000030
 ---------------------------------------------------------------------
                    Distance matrix (angstroms):
                    1          2          3          4          5
     1  N    0.000000
     2  C    1.322137   0.000000
     3  C    2.393636   1.405683   0.000000
     4  C    2.796434   2.404839   1.380964   0.000000
     5  C    2.417842   2.741943   2.394472   1.402769   0.000000
     6  C    1.339790   2.287568   2.719648   2.405565   1.408459
     7  C    2.421484   3.636455   4.202994   3.762720   2.488813
     8  O    3.550286   4.663630   4.979874   4.234169   2.835426
     9  O    2.672866   3.994876   4.909323   4.778310   3.655440
    10  O    3.649863   4.079714   3.606254   2.354675   1.337787
    11  H    2.056709   1.090239   2.174622   3.398024   3.831917
    12  H    3.365025   2.166401   1.088997   2.151214   3.392269
    13  H    3.884882   3.412078   2.170334   1.088678   2.150179
    14  H    3.633265   4.955127   5.817194   5.568058   4.340134
    15  H    3.761170   4.473647   4.272517   3.158655   1.878337
                    6          7          8          9         10
     6  C    0.000000
     7  C    1.483362   0.000000
     8  O    2.382315   1.223444   0.000000
     9  O    2.372776   1.330142   2.234988   0.000000
    10  O    2.423808   2.874311   2.617199   4.196330   0.000000
    11  H    3.261114   4.478150   5.588225   4.578992   5.169704
    12  H    3.807740   5.290899   6.057915   5.958632   4.500616
    13  H    3.392403   4.635468   4.903410   5.748655   2.573419
    14  H    3.185838   1.855974   2.259691   0.968749   4.644787
    15  H    2.426502   2.327189   1.751359   3.643435   0.978526
                   11         12         13         14         15
    11  H    0.000000
    12  H    2.506880   0.000000
    13  H    4.327938   2.522560   0.000000
    14  H    5.545897   6.880765   6.480285   0.000000
    15  H    5.539917   5.251734   3.524266   3.929266   0.000000
 Stoichiometry    C6H5NO3
 Framework group  C1[X(C6H5NO3)]
 Deg. of freedom    39
 Full point group                 C1      NOp   1
 Largest Abelian subgroup         C1      NOp   1
 Largest concise Abelian subgroup C1      NOp   1
                         Standard orientation:                         
 ---------------------------------------------------------------------
 Center     Atomic      Atomic             Coordinates (Angstroms)
 Number     Number       Type             X           Y           Z
 ---------------------------------------------------------------------
      1          7           0       -0.432628   -1.444247    0.000003
      2          6           0       -1.754206   -1.482684    0.000028
      3          6           0       -2.546724   -0.321710    0.000038
      4          6           0       -1.933198    0.915484    0.000020
      5          6           0       -0.531551    0.971570   -0.000007
      6          6           0        0.171942   -0.248616   -0.000016
      7          6           0        1.654972   -0.217254   -0.000062
      8          8           0        2.299947    0.822372   -0.000024
      9          8           0        2.240042   -1.411813    0.000018
     10          8           0        0.057879    2.172506   -0.000017
     11          1           0       -2.214799   -2.470851    0.000043
     12          1           0       -3.632649   -0.403450    0.000061
     13          1           0       -2.494999    1.848007    0.000028
     14          1           0        3.195561   -1.252256    0.000043
     15          1           0        1.024919    2.023022   -0.000022
 ---------------------------------------------------------------------
 Rotational constants (GHZ):      2.3707005      1.2650039      0.8248595
 Standard basis: Aug-CC-pVDZ (5D, 7F)
 There are   295 symmetry adapted cartesian basis functions of A   symmetry.
 There are   275 symmetry adapted basis functions of A   symmetry.
   275 basis functions,   485 primitive gaussians,   295 cartesian basis functions
    36 alpha electrons       36 beta electrons
       nuclear repulsion energy       508.2316758031 Hartrees.
 NAtoms=   15 NActive=   15 NUniq=   15 SFac= 1.00D+00 NAtFMM=   60 NAOKFM=F Big=F
 Integral buffers will be    131072 words long.
 Raffenetti 2 integral format.
 Two-electron integral symmetry is turned on.
 One-electron integrals computed using PRISM.
 NBasis=   275 RedAO= T EigKep=  5.71D-06  NBF=   275
 NBsUse=   275 1.00D-06 EigRej= -1.00D+00 NBFU=   275
 Initial guess from the checkpoint file:  "pvdz3HPA.chk"
 B after Tr=     0.000000   -0.000000    0.000000
         Rot=    0.999999   -0.000000   -0.000001    0.001335 Ang=  -0.15 deg.
 ExpMin= 2.97D-02 ExpMax= 1.17D+04 ExpMxC= 4.01D+02 IAcc=3 IRadAn=         5 AccDes= 0.00D+00
 Harris functional with IExCor= 1009 and IRadAn=       5 diagonalized for initial guess.
 HarFok:  IExCor= 1009 AccDes= 0.00D+00 IRadAn=         5 IDoV= 1 UseB2=F ITyADJ=14
 ICtDFT=  3500011 ScaDFX=  1.000000  1.000000  1.000000  1.000000
 FoFCou: FMM=F IPFlag=           0 FMFlag=      100000 FMFlg1=           0
         NFxFlg=           0 DoJE=T BraDBF=F KetDBF=T FulRan=T
         wScrn=  0.000000 ICntrl=     500 IOpCl=  0 I1Cent=   200000004 NGrid=           0
         NMat0=    1 NMatS0=      1 NMatT0=    0 NMatD0=    1 NMtDS0=    0 NMtDT0=    0
 Petite list used in FoFCou.
 Keep R1 ints in memory in canonical form, NReq=733374370.
 Requested convergence on RMS density matrix=1.00D-08 within 128 cycles.
 Requested convergence on MAX density matrix=1.00D-06.
 Requested convergence on             energy=1.00D-06.
 No special actions if energy rises.
 SCF Done:  E(RM062X) =  -511.986047325     A.U. after   12 cycles
            NFock= 12  Conv=0.43D-08     -V/T= 2.0057
 Calling FoFJK, ICntrl=      2127 FMM=F ISym2X=0 I1Cent= 0 IOpClX= 0 NMat=1 NMatS=1 NMatT=0.
 ***** Axes restored to original set *****
 -------------------------------------------------------------------
 Center     Atomic                   Forces (Hartrees/Bohr)
 Number     Number              X              Y              Z
 -------------------------------------------------------------------
      1        7          -0.000010921   -0.000175042    0.000001236
      2        6          -0.000225402    0.000042033   -0.000000799
      3        6          -0.000103172    0.000061294    0.000000093
      4        6           0.000189850   -0.000077353   -0.000000610
      5        6           0.001109526    0.000282743   -0.000000020
      6        6          -0.000071704   -0.000421732    0.000006320
      7        6           0.000820144    0.000566367   -0.000020206
      8        8          -0.000294396   -0.000674090    0.000007411
      9        8          -0.000437822   -0.000355124    0.000005924
     10        8           0.001002609    0.000150742    0.000000097
     11        1           0.000013473    0.000112181   -0.000000102
     12        1          -0.000079444   -0.000033394    0.000000182
     13        1          -0.000005719   -0.000187674    0.000000063
     14        1          -0.000239114   -0.000143109    0.000000166
     15        1          -0.001667910    0.000852158    0.000000245
 -------------------------------------------------------------------
 Cartesian Forces:  Max     0.001667910 RMS     0.000425721

 GradGradGradGradGradGradGradGradGradGradGradGradGradGradGradGradGradGrad
 Berny optimization.
 Using GEDIIS/GDIIS optimizer.
 FormGI is forming the generalized inverse of G from B-inverse, IUseBI=4.
 Internal  Forces:  Max     0.002018724 RMS     0.000512381
 Search for a local minimum.
 Step number   2 out of a maximum of   74
 All quantities printed in internal units (Hartrees-Bohrs-Radians)
 Mixed Optimization -- En-DIIS/RFO-DIIS
 Swapping is turned off.
 Update second derivatives using D2CorX and points    1    2
 DE= -6.57D-05 DEPred=-1.01D-04 R= 6.49D-01
 TightC=F SS=  1.41D+00  RLast= 3.00D-02 DXNew= 5.0454D-01 8.9963D-02
 Trust test= 6.49D-01 RLast= 3.00D-02 DXMaxT set to 3.00D-01
 ITU=  1  0
     Eigenvalues ---    0.00992   0.01534   0.01747   0.02032   0.02124
     Eigenvalues ---    0.02154   0.02192   0.02220   0.02284   0.02500
     Eigenvalues ---    0.02511   0.02641   0.15816   0.16000   0.16000
     Eigenvalues ---    0.16000   0.18308   0.21935   0.23265   0.24234
     Eigenvalues ---    0.24914   0.25000   0.25000   0.29534   0.33348
     Eigenvalues ---    0.34377   0.35298   0.35418   0.42855   0.43957
     Eigenvalues ---    0.45029   0.47727   0.52864   0.54243   0.55761
     Eigenvalues ---    0.58653   0.59337   0.61186   0.92692
 En-DIIS/RFO-DIIS IScMMF=        0 using points:     2    1
 RFO step:  Lambda=-2.51828945D-05.
 DidBck=T Rises=F RFO-DIIS coefs:    0.73489    0.26511
 Iteration  1 RMS(Cart)=  0.00501020 RMS(Int)=  0.00001245
 Iteration  2 RMS(Cart)=  0.00001652 RMS(Int)=  0.00000008
 Iteration  3 RMS(Cart)=  0.00000000 RMS(Int)=  0.00000008
 Variable       Old X    -DE/DX   Delta X   Delta X   Delta X     New X
                                 (Linear)    (Quad)   (Total)
    R1        2.49848  -0.00037  -0.00030  -0.00006  -0.00037   2.49811
    R2        2.53184  -0.00001  -0.00011   0.00017   0.00006   2.53190
    R3        2.65636  -0.00022  -0.00043   0.00013  -0.00030   2.65606
    R4        2.06025  -0.00010  -0.00195   0.00247   0.00052   2.06077
    R5        2.60964  -0.00018  -0.00055   0.00044  -0.00011   2.60953
    R6        2.05791  -0.00008  -0.00198   0.00256   0.00057   2.05848
    R7        2.65085   0.00016  -0.00011   0.00046   0.00035   2.65120
    R8        2.05730  -0.00016  -0.00194   0.00231   0.00038   2.05768
    R9        2.66160   0.00135   0.00026   0.00199   0.00225   2.66385
   R10        2.52805   0.00119   0.00013   0.00135   0.00147   2.52953
   R11        2.80315   0.00014  -0.00023   0.00060   0.00037   2.80352
   R12        2.31197  -0.00042   0.00049  -0.00101  -0.00051   2.31146
   R13        2.51360   0.00075  -0.00096   0.00223   0.00127   2.51488
   R14        1.83067   0.00021   0.00058  -0.00050   0.00008   1.83075
   R15        1.84915   0.00152   0.00038   0.00165   0.00203   1.85118
    A1        2.06803   0.00011   0.00032  -0.00017   0.00015   2.06818
    A2        2.14069   0.00009   0.00005  -0.00007  -0.00003   2.14067
    A3        2.03604   0.00002  -0.00040   0.00085   0.00045   2.03649
    A4        2.10645  -0.00011   0.00036  -0.00078  -0.00042   2.10603
    A5        2.08226   0.00018  -0.00039   0.00082   0.00043   2.08269
    A6        2.09464  -0.00013   0.00022  -0.00062  -0.00040   2.09424
    A7        2.10629  -0.00005   0.00017  -0.00020  -0.00003   2.10626
    A8        2.07115   0.00020   0.00082  -0.00046   0.00036   2.07151
    A9        2.13901  -0.00019  -0.00008  -0.00065  -0.00073   2.13828
   A10        2.07302  -0.00001  -0.00074   0.00112   0.00037   2.07340
   A11        2.05380  -0.00052  -0.00060  -0.00043  -0.00104   2.05276
   A12        2.06706  -0.00055  -0.00137   0.00014  -0.00123   2.06583
   A13        2.16233   0.00106   0.00197   0.00030   0.00227   2.16460
   A14        2.15044  -0.00006  -0.00019   0.00032   0.00013   2.15057
   A15        2.06010  -0.00122  -0.00071  -0.00273  -0.00344   2.05666
   A16        2.07265   0.00128   0.00090   0.00242   0.00331   2.07596
   A17        2.14722   0.00072  -0.00018   0.00237   0.00219   2.14941
   A18        2.00509  -0.00005   0.00079  -0.00122  -0.00043   2.00466
   A19        2.13088  -0.00068  -0.00061  -0.00115  -0.00176   2.12912
   A20        1.86077   0.00034   0.00187  -0.00102   0.00085   1.86162
   A21        1.87370   0.00202   0.00595   0.00112   0.00707   1.88077
    D1       -0.00000   0.00000   0.00000   0.00001   0.00001   0.00000
    D2        3.14159   0.00000   0.00000   0.00000   0.00000  -3.14159
    D3        0.00000  -0.00000  -0.00000  -0.00001  -0.00001  -0.00000
    D4       -3.14158  -0.00000  -0.00001  -0.00002  -0.00002   3.14158
    D5        0.00000  -0.00000  -0.00000  -0.00000  -0.00000  -0.00000
    D6       -3.14159  -0.00000  -0.00000  -0.00000  -0.00001   3.14159
    D7        3.14159   0.00000   0.00000   0.00000   0.00000   3.14159
    D8        0.00000  -0.00000  -0.00000  -0.00000  -0.00000  -0.00000
    D9       -0.00000   0.00000   0.00000   0.00000   0.00000   0.00000
   D10       -3.14159  -0.00000  -0.00000  -0.00000  -0.00000  -3.14159
   D11        3.14159   0.00000   0.00000   0.00000   0.00000  -3.14159
   D12        0.00000  -0.00000  -0.00000   0.00000   0.00000   0.00000
   D13        0.00000  -0.00000  -0.00000  -0.00000  -0.00000  -0.00000
   D14       -3.14159  -0.00000  -0.00000   0.00000  -0.00000  -3.14159
   D15        3.14159  -0.00000   0.00000  -0.00000   0.00000   3.14159
   D16        0.00000   0.00000  -0.00000   0.00000   0.00000   0.00000
   D17       -0.00000   0.00000   0.00000   0.00000   0.00001   0.00000
   D18        3.14158   0.00000   0.00001   0.00001   0.00002  -3.14158
   D19        3.14158   0.00000   0.00000   0.00000   0.00000   3.14159
   D20       -0.00002   0.00000   0.00001   0.00001   0.00002   0.00000
   D21        3.14158   0.00000   0.00001  -0.00000   0.00000   3.14158
   D22       -0.00001   0.00000   0.00000   0.00000   0.00000  -0.00001
   D23       -3.14154  -0.00000  -0.00002  -0.00021  -0.00022   3.14143
   D24       -0.00008   0.00000   0.00003   0.00019   0.00022   0.00014
   D25        0.00007  -0.00001  -0.00002  -0.00022  -0.00024  -0.00017
   D26        3.14152   0.00000   0.00003   0.00018   0.00021  -3.14146
   D27       -3.14152  -0.00000  -0.00002  -0.00020  -0.00022   3.14144
   D28       -0.00007   0.00000   0.00002   0.00019   0.00021   0.00015
         Item               Value     Threshold  Converged?
 Maximum Force            0.002019     0.000450     NO 
 RMS     Force            0.000512     0.000300     NO 
 Maximum Displacement     0.027275     0.001800     NO 
 RMS     Displacement     0.005021     0.001200     NO 
 Predicted change in Energy=-1.953263D-05
 GradGradGradGradGradGradGradGradGradGradGradGradGradGradGradGradGradGrad

                          Input orientation:                          
 ---------------------------------------------------------------------
 Center     Atomic      Atomic             Coordinates (Angstroms)
 Number     Number       Type             X           Y           Z
 ---------------------------------------------------------------------
      1          7           0        0.425917   -1.442804   -0.000069
      2          6           0        1.747136   -1.486566   -0.000047
      3          6           0        2.544208   -0.328906   -0.000001
      4          6           0        1.936204    0.910945    0.000018
      5          6           0        0.534654    0.973759   -0.000008
      6          6           0       -0.174017   -0.244803   -0.000053
      7          6           0       -1.657231   -0.212779   -0.000091
      8          8           0       -2.303881    0.825487    0.000090
      9          8           0       -2.242610   -1.407937    0.000030
     10          8           0       -0.047868    2.178927    0.000006
     11          1           0        2.204295   -2.476629   -0.000064
     12          1           0        3.630065   -0.415455    0.000019
     13          1           0        2.502919    1.840723    0.000053
     14          1           0       -3.198302   -1.249173    0.000132
     15          1           0       -1.017848    2.041970   -0.000026
 ---------------------------------------------------------------------
                    Distance matrix (angstroms):
                    1          2          3          4          5
     1  N    0.000000
     2  C    1.321943   0.000000
     3  C    2.393308   1.405525   0.000000
     4  C    2.796623   2.404955   1.380906   0.000000
     5  C    2.419008   2.742866   2.394837   1.402956   0.000000
     6  C    1.339823   2.287532   2.719526   2.405990   1.409649
     7  C    2.419188   3.634866   4.203044   3.765041   2.492436
     8  O    3.549217   4.664368   4.983633   4.240946   2.842406
     9  O    2.668755   3.990521   4.906928   4.779090   3.658644
    10  O    3.652590   4.081407   3.606673   2.354638   1.338568
    11  H    2.057042   1.090513   2.174456   3.398166   3.833130
    12  H    3.364819   2.166264   1.089300   2.151395   3.392857
    13  H    3.885291   3.412046   2.170022   1.088877   2.150742
    14  H    3.629389   4.951133   5.815782   5.570392   4.344698
    15  H    3.772016   4.482823   4.278936   3.163169   1.884499
                    6          7          8          9         10
     6  C    0.000000
     7  C    1.483560   0.000000
     8  O    2.383662   1.223173   0.000000
     9  O    2.373174   1.330815   2.234263   0.000000
    10  O    2.427012   2.882761   2.630855   4.205055   0.000000
    11  H    3.261505   4.476204   5.588168   4.573519   5.171697
    12  H    3.807908   5.291180   6.062314   5.955950   4.500890
    13  H    3.393436   4.639367   4.912844   5.750986   2.573111
    14  H    3.186701   1.857152   2.259248   0.968790   4.655868
    15  H    2.437495   2.343652   1.770230   3.660860   0.979601
                   11         12         13         14         15
    11  H    0.000000
    12  H    2.506244   0.000000
    13  H    4.327668   2.522062   0.000000
    14  H    5.540281   6.879076   6.484704   0.000000
    15  H    5.549770   5.257569   3.526514   3.947912   0.000000
 Stoichiometry    C6H5NO3
 Framework group  C1[X(C6H5NO3)]
 Deg. of freedom    39
 Full point group                 C1      NOp   1
 Largest Abelian subgroup         C1      NOp   1
 Largest concise Abelian subgroup C1      NOp   1
                         Standard orientation:                         
 ---------------------------------------------------------------------
 Center     Atomic      Atomic             Coordinates (Angstroms)
 Number     Number       Type             X           Y           Z
 ---------------------------------------------------------------------
      1          7           0       -0.427693   -1.443712    0.000063
      2          6           0       -1.748938   -1.486696    0.000041
      3          6           0       -2.545327   -0.328566   -0.000005
      4          6           0       -1.936593    0.910926   -0.000025
      5          6           0       -0.535006    0.972915    0.000001
      6          6           0        0.172947   -0.246065    0.000047
      7          6           0        1.656180   -0.214915    0.000085
      8          8           0        2.303442    0.822969   -0.000096
      9          8           0        2.240854   -1.410417   -0.000036
     10          8           0        0.048227    2.177739   -0.000012
     11          1           0       -2.206680   -2.476490    0.000058
     12          1           0       -3.631235   -0.414475   -0.000025
     13          1           0       -2.502760    1.841038   -0.000059
     14          1           0        3.196640   -1.252217   -0.000139
     15          1           0        1.018125    2.040210    0.000020
 ---------------------------------------------------------------------
 Rotational constants (GHZ):      2.3654049      1.2644583      0.8239858
 Standard basis: Aug-CC-pVDZ (5D, 7F)
 There are   295 symmetry adapted cartesian basis functions of A   symmetry.
 There are   275 symmetry adapted basis functions of A   symmetry.
   275 basis functions,   485 primitive gaussians,   295 cartesian basis functions
    36 alpha electrons       36 beta electrons
       nuclear repulsion energy       507.9705888483 Hartrees.
 NAtoms=   15 NActive=   15 NUniq=   15 SFac= 1.00D+00 NAtFMM=   60 NAOKFM=F Big=F
 Integral buffers will be    131072 words long.
 Raffenetti 2 integral format.
 Two-electron integral symmetry is turned on.
 One-electron integrals computed using PRISM.
 NBasis=   275 RedAO= T EigKep=  5.72D-06  NBF=   275
 NBsUse=   275 1.00D-06 EigRej= -1.00D+00 NBFU=   275
 Initial guess from the checkpoint file:  "pvdz3HPA.chk"
 B after Tr=     0.000000    0.000000   -0.000000
         Rot=    0.999999    0.000003    0.000000   -0.001041 Ang=   0.12 deg.
 ExpMin= 2.97D-02 ExpMax= 1.17D+04 ExpMxC= 4.01D+02 IAcc=3 IRadAn=         5 AccDes= 0.00D+00
 Harris functional with IExCor= 1009 and IRadAn=       5 diagonalized for initial guess.
 HarFok:  IExCor= 1009 AccDes= 0.00D+00 IRadAn=         5 IDoV= 1 UseB2=F ITyADJ=14
 ICtDFT=  3500011 ScaDFX=  1.000000  1.000000  1.000000  1.000000
 FoFCou: FMM=F IPFlag=           0 FMFlag=      100000 FMFlg1=           0
         NFxFlg=           0 DoJE=T BraDBF=F KetDBF=T FulRan=T
         wScrn=  0.000000 ICntrl=     500 IOpCl=  0 I1Cent=   200000004 NGrid=           0
         NMat0=    1 NMatS0=      1 NMatT0=    0 NMatD0=    1 NMtDS0=    0 NMtDT0=    0
 Petite list used in FoFCou.
 Keep R1 ints in memory in canonical form, NReq=733374370.
 Requested convergence on RMS density matrix=1.00D-08 within 128 cycles.
 Requested convergence on MAX density matrix=1.00D-06.
 Requested convergence on             energy=1.00D-06.
 No special actions if energy rises.
 SCF Done:  E(RM062X) =  -511.986063047     A.U. after   11 cycles
            NFock= 11  Conv=0.56D-08     -V/T= 2.0057
 Calling FoFJK, ICntrl=      2127 FMM=F ISym2X=0 I1Cent= 0 IOpClX= 0 NMat=1 NMatS=1 NMatT=0.
 ***** Axes restored to original set *****
 -------------------------------------------------------------------
 Center     Atomic                   Forces (Hartrees/Bohr)
 Number     Number              X              Y              Z
 -------------------------------------------------------------------
      1        7           0.000024817    0.000047441   -0.000002565
      2        6           0.000173297   -0.000090524    0.000001775
      3        6           0.000202477   -0.000115569   -0.000000030
      4        6          -0.000101544    0.000230002    0.000001119
      5        6           0.000295195   -0.000401617   -0.000001317
      6        6           0.000126250    0.000056477   -0.000013034
      7        6          -0.000049291    0.000736091    0.000044653
      8        8           0.000438422   -0.000103841   -0.000018181
      9        8          -0.000061901   -0.000406777   -0.000012858
     10        8          -0.000543885   -0.000101578   -0.000001205
     11        1          -0.000102270    0.000258337    0.000000120
     12        1          -0.000283696    0.000018078   -0.000000287
     13        1          -0.000134234   -0.000271369   -0.000000091
     14        1          -0.000076276    0.000029241   -0.000000322
     15        1           0.000092639    0.000115608    0.000002223
 -------------------------------------------------------------------
 Cartesian Forces:  Max     0.000736091 RMS     0.000207090

 GradGradGradGradGradGradGradGradGradGradGradGradGradGradGradGradGradGrad
 Berny optimization.
 Using GEDIIS/GDIIS optimizer.
 FormGI is forming the generalized inverse of G from B-inverse, IUseBI=4.
 Internal  Forces:  Max     0.000778546 RMS     0.000209768
 Search for a local minimum.
 Step number   3 out of a maximum of   74
 All quantities printed in internal units (Hartrees-Bohrs-Radians)
 Mixed Optimization -- En-DIIS/RFO-DIIS
 Swapping is turned off.
 Update second derivatives using D2CorX and points    1    2    3
 DE= -1.57D-05 DEPred=-1.95D-05 R= 8.05D-01
 TightC=F SS=  1.41D+00  RLast= 1.03D-02 DXNew= 5.0454D-01 3.0846D-02
 Trust test= 8.05D-01 RLast= 1.03D-02 DXMaxT set to 3.00D-01
 ITU=  1  1  0
     Eigenvalues ---    0.00992   0.01533   0.01747   0.02032   0.02124
     Eigenvalues ---    0.02154   0.02192   0.02220   0.02284   0.02500
     Eigenvalues ---    0.02511   0.02641   0.15427   0.16000   0.16000
     Eigenvalues ---    0.16001   0.17455   0.21973   0.23296   0.24271
     Eigenvalues ---    0.24983   0.25000   0.25189   0.33154   0.34145
     Eigenvalues ---    0.35294   0.35414   0.36948   0.43400   0.43944
     Eigenvalues ---    0.47509   0.48861   0.52870   0.54205   0.55812
     Eigenvalues ---    0.57194   0.59769   0.65696   0.91900
 En-DIIS/RFO-DIIS IScMMF=        0 using points:     3    2    1
 RFO step:  Lambda=-4.00023425D-06.
 DidBck=T Rises=F RFO-DIIS coefs:    0.70353    0.21138    0.08509
 Iteration  1 RMS(Cart)=  0.00165666 RMS(Int)=  0.00000099
 Iteration  2 RMS(Cart)=  0.00000133 RMS(Int)=  0.00000006
 Iteration  3 RMS(Cart)=  0.00000000 RMS(Int)=  0.00000006
 Variable       Old X    -DE/DX   Delta X   Delta X   Delta X     New X
                                 (Linear)    (Quad)   (Total)
    R1        2.49811   0.00002   0.00001  -0.00003  -0.00002   2.49809
    R2        2.53190  -0.00008  -0.00005  -0.00005  -0.00011   2.53179
    R3        2.65606  -0.00011  -0.00005  -0.00014  -0.00019   2.65586
    R4        2.06077  -0.00028  -0.00078   0.00030  -0.00048   2.06029
    R5        2.60953  -0.00002  -0.00014   0.00012  -0.00003   2.60951
    R6        2.05848  -0.00028  -0.00081   0.00032  -0.00048   2.05799
    R7        2.65120  -0.00026  -0.00014  -0.00024  -0.00038   2.65082
    R8        2.05768  -0.00030  -0.00073   0.00018  -0.00055   2.05713
    R9        2.66385  -0.00058  -0.00058  -0.00005  -0.00064   2.66322
   R10        2.52953   0.00021  -0.00040   0.00088   0.00049   2.53001
   R11        2.80352  -0.00025  -0.00018  -0.00028  -0.00046   2.80306
   R12        2.31146  -0.00032   0.00031  -0.00064  -0.00033   2.31113
   R13        2.51488   0.00040  -0.00069   0.00136   0.00068   2.51556
   R14        1.83075   0.00008   0.00016  -0.00005   0.00012   1.83086
   R15        1.85118  -0.00011  -0.00048   0.00064   0.00016   1.85133
    A1        2.06818  -0.00019   0.00006  -0.00056  -0.00050   2.06768
    A2        2.14067   0.00000   0.00002   0.00007   0.00009   2.14076
    A3        2.03649   0.00002  -0.00026   0.00036   0.00009   2.03658
    A4        2.10603  -0.00002   0.00024  -0.00043  -0.00019   2.10585
    A5        2.08269  -0.00001  -0.00025   0.00036   0.00011   2.08280
    A6        2.09424   0.00000   0.00019  -0.00029  -0.00010   2.09414
    A7        2.10626   0.00001   0.00006  -0.00007  -0.00001   2.10625
    A8        2.07151  -0.00008   0.00016  -0.00036  -0.00021   2.07130
    A9        2.13828   0.00001   0.00019  -0.00030  -0.00010   2.13818
   A10        2.07340   0.00006  -0.00035   0.00066   0.00031   2.07371
   A11        2.05276   0.00010   0.00011  -0.00008   0.00004   2.05280
   A12        2.06583   0.00037  -0.00007   0.00099   0.00092   2.06674
   A13        2.16460  -0.00046  -0.00004  -0.00091  -0.00095   2.16365
   A14        2.15057   0.00018  -0.00010   0.00057   0.00047   2.15104
   A15        2.05666   0.00060   0.00079   0.00045   0.00124   2.05790
   A16        2.07596  -0.00078  -0.00069  -0.00102  -0.00171   2.07425
   A17        2.14941  -0.00046  -0.00071  -0.00029  -0.00100   2.14841
   A18        2.00466   0.00019   0.00038   0.00010   0.00048   2.00514
   A19        2.12912   0.00027   0.00033   0.00019   0.00052   2.12963
   A20        1.86162  -0.00003   0.00035  -0.00036  -0.00001   1.86162
   A21        1.88077   0.00019  -0.00019   0.00208   0.00190   1.88267
    D1        0.00000  -0.00000  -0.00000  -0.00002  -0.00002  -0.00001
    D2       -3.14159  -0.00000  -0.00000  -0.00000  -0.00001   3.14159
    D3       -0.00000   0.00000   0.00000   0.00001   0.00001   0.00001
    D4        3.14158   0.00000   0.00000   0.00001   0.00001  -3.14159
    D5       -0.00000   0.00000   0.00000   0.00001   0.00001   0.00001
    D6        3.14159   0.00000   0.00000   0.00001   0.00001  -3.14158
    D7        3.14159  -0.00000  -0.00000  -0.00000  -0.00000   3.14159
    D8       -0.00000  -0.00000   0.00000  -0.00000  -0.00000  -0.00000
    D9        0.00000  -0.00000  -0.00000  -0.00000  -0.00000  -0.00000
   D10       -3.14159  -0.00000   0.00000  -0.00001  -0.00001   3.14158
   D11       -3.14159   0.00000  -0.00000   0.00000   0.00000  -3.14159
   D12        0.00000  -0.00000  -0.00000  -0.00001  -0.00001  -0.00001
   D13       -0.00000  -0.00000   0.00000  -0.00000  -0.00000  -0.00000
   D14       -3.14159  -0.00000  -0.00000  -0.00003  -0.00003   3.14157
   D15        3.14159   0.00000   0.00000   0.00000   0.00000  -3.14159
   D16        0.00000  -0.00000  -0.00000  -0.00002  -0.00002  -0.00002
   D17        0.00000  -0.00000  -0.00000   0.00000  -0.00000   0.00000
   D18       -3.14158  -0.00000  -0.00000   0.00000   0.00000  -3.14158
   D19        3.14159   0.00000  -0.00000   0.00003   0.00003  -3.14157
   D20        0.00000   0.00000  -0.00000   0.00003   0.00003   0.00003
   D21        3.14158   0.00000   0.00000   0.00007   0.00007  -3.14153
   D22       -0.00001   0.00000  -0.00000   0.00004   0.00004   0.00004
   D23        3.14143   0.00001   0.00006   0.00052   0.00058  -3.14118
   D24        0.00014  -0.00001  -0.00006  -0.00034  -0.00039  -0.00025
   D25       -0.00017   0.00001   0.00006   0.00051   0.00058   0.00040
   D26       -3.14146  -0.00001  -0.00005  -0.00034  -0.00040   3.14133
   D27        3.14144   0.00001   0.00006   0.00043   0.00049  -3.14126
   D28        0.00015  -0.00001  -0.00006  -0.00042  -0.00047  -0.00032
         Item               Value     Threshold  Converged?
 Maximum Force            0.000779     0.000450     NO 
 RMS     Force            0.000210     0.000300     YES
 Maximum Displacement     0.006123     0.001800     NO 
 RMS     Displacement     0.001657     0.001200     NO 
 Predicted change in Energy=-2.990543D-06
 GradGradGradGradGradGradGradGradGradGradGradGradGradGradGradGradGradGrad

                          Input orientation:                          
 ---------------------------------------------------------------------
 Center     Atomic      Atomic             Coordinates (Angstroms)
 Number     Number       Type             X           Y           Z
 ---------------------------------------------------------------------
      1          7           0        0.426723   -1.443853    0.000110
      2          6           0        1.747958   -1.486782    0.000021
      3          6           0        2.544349   -0.328779   -0.000076
      4          6           0        1.935820    0.910800   -0.000066
      5          6           0        0.534433    0.972716    0.000040
      6          6           0       -0.173341   -0.245980    0.000124
      7          6           0       -1.656275   -0.212312    0.000226
      8          8           0       -2.300641    0.827169   -0.000174
      9          8           0       -2.243719   -1.406857   -0.000014
     10          8           0       -0.050069    2.177211    0.000081
     11          1           0        2.205728   -2.476282    0.000015
     12          1           0        3.629988   -0.414833   -0.000155
     13          1           0        2.502081    1.840513   -0.000131
     14          1           0       -3.199216   -1.246551   -0.000225
     15          1           0       -1.020178    2.040580    0.000211
 ---------------------------------------------------------------------
                    Distance matrix (angstroms):
                    1          2          3          4          5
     1  N    0.000000
     2  C    1.321932   0.000000
     3  C    2.393268   1.405422   0.000000
     4  C    2.796741   2.404930   1.380892   0.000000
     5  C    2.418968   2.742585   2.394504   1.402754   0.000000
     6  C    1.339768   2.287133   2.718951   2.405556   1.409313
     7  C    2.419830   3.634979   4.202239   3.763579   2.490681
     8  O    3.549093   4.663209   4.980979   4.237287   2.838808
     9  O    2.670698   3.992476   4.907937   4.779129   3.657935
    10  O    3.652319   4.081390   3.607075   2.355324   1.338824
    11  H    2.056882   1.090258   2.174037   3.397819   3.832598
    12  H    3.364489   2.165898   1.089044   2.151164   3.392308
    13  H    3.885122   3.411685   2.169704   1.088586   2.150515
    14  H    3.631303   4.953003   5.816429   5.569808   4.343418
    15  H    3.772903   4.483844   4.280154   3.164542   1.886041
                    6          7          8          9         10
     6  C    0.000000
     7  C    1.483316   0.000000
     8  O    2.382657   1.223000   0.000000
     9  O    2.373626   1.331175   2.234751   0.000000
    10  O    2.426324   2.879187   2.624441   4.202099   0.000000
    11  H    3.261014   4.476676   5.587499   4.576160   5.171422
    12  H    3.807075   5.290141   6.059285   5.956890   4.501279
    13  H    3.392836   4.637458   4.908463   5.750481   2.574264
    14  H    3.187015   1.857503   2.260034   0.968852   4.651803
    15  H    2.438338   2.340970   1.764073   3.658124   0.979684
                   11         12         13         14         15
    11  H    0.000000
    12  H    2.505612   0.000000
    13  H    4.326956   2.521658   0.000000
    14  H    5.543073   6.879665   6.483422   0.000000
    15  H    5.550541   5.258621   3.527937   3.943785   0.000000
 Stoichiometry    C6H5NO3
 Framework group  C1[X(C6H5NO3)]
 Deg. of freedom    39
 Full point group                 C1      NOp   1
 Largest Abelian subgroup         C1      NOp   1
 Largest concise Abelian subgroup C1      NOp   1
                         Standard orientation:                         
 ---------------------------------------------------------------------
 Center     Atomic      Atomic             Coordinates (Angstroms)
 Number     Number       Type             X           Y           Z
 ---------------------------------------------------------------------
      1          7           0       -0.429710   -1.444219   -0.000093
      2          6           0       -1.751010   -1.485080   -0.000004
      3          6           0       -2.545589   -0.325831    0.000093
      4          6           0       -1.935120    0.912793    0.000083
      5          6           0       -0.533638    0.972516   -0.000022
      6          6           0        0.172228   -0.247286   -0.000107
      7          6           0        1.655213   -0.215939   -0.000209
      8          8           0        2.301205    0.822532    0.000191
      9          8           0        2.240786   -1.411402    0.000031
     10          8           0        0.052748    2.176094   -0.000063
     11          1           0       -2.210328   -2.473862    0.000003
     12          1           0       -3.631361   -0.410187    0.000173
     13          1           0       -2.499926    1.843392    0.000148
     14          1           0        3.196533   -1.252592    0.000243
     15          1           0        1.022642    2.037946   -0.000193
 ---------------------------------------------------------------------
 Rotational constants (GHZ):      2.3666505      1.2649356      0.8243397
 Standard basis: Aug-CC-pVDZ (5D, 7F)
 There are   295 symmetry adapted cartesian basis functions of A   symmetry.
 There are   275 symmetry adapted basis functions of A   symmetry.
   275 basis functions,   485 primitive gaussians,   295 cartesian basis functions
    36 alpha electrons       36 beta electrons
       nuclear repulsion energy       508.0537884724 Hartrees.
 NAtoms=   15 NActive=   15 NUniq=   15 SFac= 1.00D+00 NAtFMM=   60 NAOKFM=F Big=F
 Integral buffers will be    131072 words long.
 Raffenetti 2 integral format.
 Two-electron integral symmetry is turned on.
 One-electron integrals computed using PRISM.
 NBasis=   275 RedAO= T EigKep=  5.71D-06  NBF=   275
 NBsUse=   275 1.00D-06 EigRej= -1.00D+00 NBFU=   275
 Initial guess from the checkpoint file:  "pvdz3HPA.chk"
 B after Tr=    -0.000000   -0.000000    0.000000
         Rot=    1.000000   -0.000011    0.000004    0.000440 Ang=  -0.05 deg.
 Keep R1 ints in memory in canonical form, NReq=733374370.
 Requested convergence on RMS density matrix=1.00D-08 within 128 cycles.
 Requested convergence on MAX density matrix=1.00D-06.
 Requested convergence on             energy=1.00D-06.
 No special actions if energy rises.
 SCF Done:  E(RM062X) =  -511.986064732     A.U. after   10 cycles
            NFock= 10  Conv=0.44D-08     -V/T= 2.0057
 Calling FoFJK, ICntrl=      2127 FMM=F ISym2X=0 I1Cent= 0 IOpClX= 0 NMat=1 NMatS=1 NMatT=0.
 ***** Axes restored to original set *****
 -------------------------------------------------------------------
 Center     Atomic                   Forces (Hartrees/Bohr)
 Number     Number              X              Y              Z
 -------------------------------------------------------------------
      1        7          -0.000045380    0.000029399    0.000005527
      2        6           0.000102954   -0.000053039   -0.000003994
      3        6           0.000086801   -0.000052337    0.000000015
      4        6          -0.000040295    0.000171689   -0.000002111
      5        6          -0.000134254    0.000088076    0.000003975
      6        6          -0.000007206   -0.000071961    0.000027394
      7        6           0.000052552    0.000189248   -0.000096572
      8        8          -0.000161442   -0.000121191    0.000041068
      9        8          -0.000002380   -0.000055621    0.000027592
     10        8           0.000166501    0.000031544    0.000003546
     11        1          -0.000042246    0.000091149   -0.000000131
     12        1          -0.000107350    0.000010073    0.000000507
     13        1          -0.000035106   -0.000096269    0.000000109
     14        1          -0.000021556    0.000011438    0.000000627
     15        1           0.000188408   -0.000172199   -0.000007553
 -------------------------------------------------------------------
 Cartesian Forces:  Max     0.000189248 RMS     0.000083065

 GradGradGradGradGradGradGradGradGradGradGradGradGradGradGradGradGradGrad
 Berny optimization.
 Using GEDIIS/GDIIS optimizer.
 FormGI is forming the generalized inverse of G from B-inverse, IUseBI=4.
 Internal  Forces:  Max     0.000365026 RMS     0.000097160
 Search for a local minimum.
 Step number   4 out of a maximum of   74
 All quantities printed in internal units (Hartrees-Bohrs-Radians)
 Mixed Optimization -- En-DIIS/RFO-DIIS
 Swapping is turned off.
 Update second derivatives using D2CorX and points    1    2    3    4
 DE= -1.69D-06 DEPred=-2.99D-06 R= 5.64D-01
 TightC=F SS=  1.41D+00  RLast= 3.98D-03 DXNew= 5.0454D-01 1.1953D-02
 Trust test= 5.64D-01 RLast= 3.98D-03 DXMaxT set to 3.00D-01
 ITU=  1  1  1  0
     Eigenvalues ---    0.00992   0.01561   0.01747   0.02032   0.02124
     Eigenvalues ---    0.02154   0.02192   0.02220   0.02284   0.02499
     Eigenvalues ---    0.02512   0.02641   0.15409   0.15999   0.16000
     Eigenvalues ---    0.16008   0.20930   0.21964   0.23260   0.24098
     Eigenvalues ---    0.24934   0.24985   0.27304   0.33613   0.34052
     Eigenvalues ---    0.35294   0.35394   0.38676   0.42964   0.43613
     Eigenvalues ---    0.47278   0.51148   0.52384   0.53380   0.55725
     Eigenvalues ---    0.59657   0.63229   0.69467   0.90823
 En-DIIS/RFO-DIIS IScMMF=        0 using points:     4    3    2    1
 RFO step:  Lambda=-8.53378930D-07.
 DidBck=T Rises=F RFO-DIIS coefs:    0.62763    0.28102    0.07386    0.01749
 Iteration  1 RMS(Cart)=  0.00056105 RMS(Int)=  0.00000030
 Iteration  2 RMS(Cart)=  0.00000034 RMS(Int)=  0.00000012
 Variable       Old X    -DE/DX   Delta X   Delta X   Delta X     New X
                                 (Linear)    (Quad)   (Total)
    R1        2.49809   0.00004   0.00002   0.00001   0.00003   2.49812
    R2        2.53179  -0.00002   0.00003  -0.00006  -0.00003   2.53176
    R3        2.65586  -0.00006   0.00007  -0.00019  -0.00012   2.65574
    R4        2.06029  -0.00010   0.00000  -0.00030  -0.00030   2.05999
    R5        2.60951  -0.00001  -0.00002  -0.00001  -0.00003   2.60948
    R6        2.05799  -0.00011  -0.00000  -0.00031  -0.00031   2.05769
    R7        2.65082  -0.00007   0.00010  -0.00027  -0.00017   2.65065
    R8        2.05713  -0.00010   0.00004  -0.00034  -0.00030   2.05683
    R9        2.66322   0.00011   0.00005  -0.00002   0.00003   2.66325
   R10        2.53001  -0.00028  -0.00031   0.00005  -0.00025   2.52976
   R11        2.80306   0.00013   0.00012   0.00004   0.00016   2.80323
   R12        2.31113  -0.00002   0.00020  -0.00025  -0.00005   2.31109
   R13        2.51556   0.00005  -0.00043   0.00055   0.00012   2.51568
   R14        1.83086   0.00002  -0.00001   0.00007   0.00005   1.83092
   R15        1.85133  -0.00016  -0.00022   0.00002  -0.00020   1.85113
    A1        2.06768   0.00004   0.00019  -0.00014   0.00005   2.06773
    A2        2.14076   0.00001  -0.00003   0.00006   0.00003   2.14079
    A3        2.03658  -0.00000  -0.00010   0.00010  -0.00000   2.03658
[...]
   R11        2.80306   0.00013   0.00000   0.00019   0.00019   2.80325
   R12        2.31113  -0.00002   0.00000  -0.00011  -0.00011   2.31103
   R13        2.51556   0.00005   0.00000   0.00024   0.00024   2.51579
   R14        1.83086   0.00002   0.00000   0.00004   0.00004   1.83090
   R15        1.85133  -0.00016   0.00000  -0.00030  -0.00030   1.85103
    A1        2.06768   0.00004   0.00000   0.00007   0.00007   2.06775
    A2        2.14076   0.00001   0.00000   0.00001   0.00001   2.14077
    A3        2.03658  -0.00000   0.00000  -0.00005  -0.00005   2.03653
    A4        2.10585  -0.00000   0.00000   0.00004   0.00004   2.10588
    A5        2.08280  -0.00000   0.00000  -0.00003  -0.00003   2.08276
    A6        2.09414   0.00001   0.00000   0.00004   0.00004   2.09418
    A7        2.10625  -0.00000   0.00000  -0.00001  -0.00001   2.10624
    A8        2.07130   0.00001   0.00000  -0.00003  -0.00003   2.07127
    A9        2.13818  -0.00002   0.00000  -0.00014  -0.00014   2.13803
   A10        2.07371   0.00002   0.00000   0.00018   0.00018   2.07388
   A11        2.05280   0.00005   0.00000   0.00017   0.00017   2.05296
   A12        2.06674  -0.00017   0.00000  -0.00033  -0.00033   2.06641
   A13        2.16365   0.00012   0.00000   0.00017   0.00017   2.16381
   A14        2.15104  -0.00010   0.00000  -0.00019  -0.00019   2.15085
   A15        2.05790  -0.00015   0.00000  -0.00014  -0.00014   2.05776
   A16        2.07425   0.00025   0.00000   0.00033   0.00033   2.07458
   A17        2.14841   0.00031   0.00000   0.00066   0.00066   2.14907
   A18        2.00514  -0.00015   0.00000  -0.00041  -0.00041   2.00473
   A19        2.12963  -0.00016   0.00000  -0.00025  -0.00025   2.12938
   A20        1.86162  -0.00001   0.00000  -0.00016  -0.00016   1.86145
   A21        1.88267  -0.00037   0.00000  -0.00119  -0.00119   1.88148
    D1       -0.00001   0.00000   0.00000   0.00001   0.00001  -0.00000
    D2        3.14159   0.00000   0.00000   0.00000   0.00000  -3.14159
    D3        0.00001  -0.00000   0.00000  -0.00001  -0.00001   0.00000
    D4       -3.14159   0.00000   0.00000  -0.00001  -0.00001   3.14159
    D5        0.00001  -0.00000   0.00000  -0.00001  -0.00001   0.00000
    D6       -3.14158  -0.00000   0.00000  -0.00001  -0.00001  -3.14159
    D7        3.14159  -0.00000   0.00000   0.00000   0.00000   3.14159
    D8       -0.00000   0.00000   0.00000   0.00000   0.00000   0.00000
    D9       -0.00000   0.00000   0.00000   0.00000   0.00000   0.00000
   D10        3.14158   0.00000   0.00000   0.00001   0.00001  -3.14159
   D11       -3.14159  -0.00000   0.00000  -0.00000  -0.00000   3.14159
   D12       -0.00001   0.00000   0.00000   0.00001   0.00001  -0.00000
   D13       -0.00000   0.00000   0.00000   0.00000   0.00000  -0.00000
   D14        3.14157   0.00000   0.00000   0.00003   0.00003   3.14159
   D15       -3.14159  -0.00000   0.00000  -0.00000  -0.00000   3.14159
   D16       -0.00002   0.00000   0.00000   0.00002   0.00002  -0.00000
   D17        0.00000  -0.00000   0.00000  -0.00000  -0.00000   0.00000
   D18       -3.14158  -0.00000   0.00000   0.00000   0.00000  -3.14158
   D19       -3.14157  -0.00000   0.00000  -0.00003  -0.00003   3.14159
   D20        0.00003  -0.00000   0.00000  -0.00002  -0.00002   0.00001
   D21       -3.14153  -0.00001   0.00000  -0.00006  -0.00006  -3.14159
   D22        0.00004  -0.00001   0.00000  -0.00003  -0.00003   0.00001
   D23       -3.14118  -0.00003   0.00000  -0.00042  -0.00042   3.14158
   D24       -0.00025   0.00002   0.00000   0.00024   0.00024  -0.00002
   D25        0.00040  -0.00003   0.00000  -0.00042  -0.00042  -0.00002
   D26        3.14133   0.00002   0.00000   0.00024   0.00024   3.14157
   D27       -3.14126  -0.00002   0.00000  -0.00032  -0.00032  -3.14158
   D28       -0.00032   0.00002   0.00000   0.00033   0.00033   0.00001
         Item               Value     Threshold  Converged?
 Maximum Force            0.000365     0.000450     YES
 RMS     Force            0.000097     0.000300     YES
 Maximum Displacement     0.001923     0.001800     NO 
 RMS     Displacement     0.000497     0.001200     YES
 Predicted change in Energy=-6.457740D-07
 GradGradGradGradGradGradGradGradGradGradGradGradGradGradGradGradGradGrad

 1\1\ WCSS.PL-BEM-C612-X99\Freq\RM062X\Aug-CC-pVDZ\C6H5N1O3\PHZD\14-Dec
 -2024\0\\#N Geom=AllCheck Guess=TCheck SCRF=Check GenChk RM062X/Aug-CC
 -pVDZ Freq\\[No Title]\\0,1\N,0.4267232285,-1.4438532642,0.0001103463\
 C,1.7479576601,-1.4867819727,0.0000210146\C,2.5443493753,-0.3287786498
 ,-0.0000755749\C,1.9358198668,0.9107995468,-0.000065867\C,0.5344328359
 ,0.9727155142,0.0000398263\C,-0.1733408362,-0.2459800883,0.0001244535\
 C,-1.6562751816,-0.2123120838,0.0002262632\O,-2.3006412607,0.827169071
 5,-0.0001738551\O,-2.2437185945,-1.4068566205,-0.0000135987\O,-0.05006
 88047,2.177210672,0.0000807508\H,2.2057275887,-2.47628185,0.0000145552
 \H,3.6299880867,-0.4148330095,-0.0001551094\H,2.502081191,1.8405131507
 ,-0.0001305717\H,-3.1992161328,-1.2465513147,-0.0002254886\H,-1.020178
 0225,2.0405798983,0.0002108554\\Version=ES64L-G09RevE.01\State=1-A\HF=
 -511.9860647\RMSD=2.547e-09\RMSF=8.307e-05\ZeroPoint=0.1097586\Thermal
 =0.1173851\Dipole=0.4723947,-0.1782621,0.0001134\DipoleDeriv=0.0971581
 ,0.0472439,-0.0000459,-0.4258257,-0.3918852,0.0000494,0.0000581,0.0000
 215,-0.2393996,-0.3590346,-0.0976507,0.0000585,-0.2897997,0.2764556,-0
 .0000807,0.0000146,0.0000102,-0.0314397,0.1522225,-0.0604273,-0.000155
 3,0.3656749,0.0316573,0.0000455,-0.0000304,0.0000113,-0.0774664,0.0664
 509,0.3890038,-0.0000693,-0.0444384,-0.01887,0.0001099,-0.0000162,-0.0
 000134,-0.1443049,0.190828,-0.627151,0.0001348,-0.4805374,1.1457008,0.
 0001607,0.0000443,0.0000536,0.1517765,-0.5201692,-0.2351765,-0.0000136
 ,0.4360523,-0.1294051,-0.0000601,0.0000644,-0.0000095,0.0268171,2.1020
 141,0.2128987,-0.0000024,0.2293667,1.678036,-0.0000949,0.0001485,-0.00
 00103,0.3268369,-1.1622538,0.2779392,-0.0000166,0.209796,-1.0456583,-0
 .0000204,-0.0001934,0.0001755,-0.3560796,-0.8630852,-0.5618858,0.00000
 38,-0.5941032,-1.0277552,0.0000127,-0.0001462,-0.0002128,-0.3366646,-0
 .6523297,0.486441,0.0000556,0.3688651,-1.2502897,-0.0000918,0.0000041,
 -0.0000595,-0.3221525,0.0176749,0.0504151,-0.0000076,0.0771234,-0.0402
 677,0.0000197,0.0000043,0.0000026,0.1205304,-0.0472253,0.0154585,0.000
 1145,0.0166188,0.0872586,0.0000192,0.0000144,-0.0000159,0.1281725,0.06
 53604,-0.0324802,-0.0000874,-0.0424163,0.0130411,-0.0001226,-0.0000013
 ,-0.0000187,0.1441553,0.3569959,0.097997,0.0000066,0.1171638,0.2866332
 ,0.000024,-0.0000007,0.0000175,0.3296178,0.5553928,0.0373742,0.0000242
 ,0.0564595,0.3853487,0.0000292,0.0000357,0.0000478,0.2796007\Polar=118
 .0435727,-3.7714739,97.459798,-0.000894,-0.001373,50.1877902\PG=C01 [X
 (C6H5N1O3)]\NImag=0\\0.65886259,-0.11618835,0.46935485,-0.00003759,-0.
 00000309,0.10003806,-0.39781490,-0.01110936,0.00002369,0.72332987,0.03
 182879,-0.12376932,-0.00000069,-0.05674270,0.74781131,0.00002101,0.000
 00578,-0.06747573,-0.00003915,-0.00001290,0.15214490,-0.05556713,-0.02
 074060,0.00000539,-0.18268899,-0.12154440,0.00001270,0.76370107,-0.099
 67047,0.05412276,0.00000808,-0.03916800,-0.27015108,0.00000849,-0.0368
 1220,0.70253897,0.00000669,0.00000377,0.02482945,0.00001354,0.00001189
 ,-0.07216949,-0.00005053,-0.00001261,0.14017828,-0.06453496,0.03911779
 ,0.00000215,0.07930678,0.01847457,-0.00000624,-0.18658163,0.07060489,0
 .00000392,0.69788646,0.04152727,-0.02163820,-0.00000078,-0.03438702,-0
 .05603888,0.00000398,0.14074557,-0.35461141,0.00000372,0.00811429,0.79
 611444,0.00000126,-0.00000096,-0.00798588,-0.00000061,-0.00000307,0.00
 987394,-0.00000312,0.00000555,-0.06128491,-0.00004398,-0.00000884,0.13
 479927,0.08952711,-0.03480659,-0.00000189,-0.07448070,-0.03068790,0.00
 000576,-0.00899741,0.09115851,0.00000559,-0.32847694,-0.05221782,0.000
 02579,0.73428519,0.02998500,-0.06945417,-0.00000166,-0.03810354,-0.007
 61713,0.00000328,0.04087790,0.02826128,0.00000127,0.01629873,-0.121280
 92,0.00000690,-0.02803629,0.71463849,-0.00000760,0.00000460,0.01665925
 ,0.00000573,0.00000485,-0.01058796,0.00000384,-0.00001004,0.00040163,0
 .00001846,0.00000168,-0.07400993,-0.00005006,-0.00000978,0.17301385,-0
 .14247656,0.08980813,0.00000589,-0.06757667,0.03533268,0.00000646,-0.0
 0110399,0.02098805,-0.00000161,-0.00852248,-0.02903200,0.00000244,-0.2
 0519927,-0.09821266,0.00001641,0.67205950,0.07188951,-0.30311239,0.000
 00234,0.09727342,0.00953455,-0.00000966,-0.01777976,-0.07365969,-0.000
 00033,-0.06787720,0.04148761,0.00000194,-0.04223802,-0.23604776,0.0000
 0824,-0.01564944,0.71654214,0.00001013,-0.00000171,-0.06366988,0.00000
 164,-0.00000433,0.00566966,-0.00000033,0.00000030,-0.00905716,0.000002
 96,0.00000289,0.01069286,0.00001347,0.00001139,-0.07446404,-0.00002386
 ,-0.00001296,0.15046692,-0.04185909,0.03260379,0.00000085,0.02550430,0
 .01014183,-0.00000340,0.00005804,-0.01778363,0.,-0.01212098,0.00271384
 ,-0.00000103,0.00013072,-0.03942340,-0.00000095,-0.21438683,-0.0149844
 0,0.00002361,0.75993130,0.03475829,-0.00452015,-0.00000626,0.00620038,
 -0.00674739,0.00000067,-0.00039700,-0.00225746,-0.00000263,-0.00266006
 ,-0.00607635,-0.00000298,-0.03689388,0.02630714,0.00000708,-0.02576589
 ,-0.09424798,-0.00000333,-0.12817352,0.88516488,0.00000219,-0.00000352
 ,-0.01218983,0.00000087,-0.00000027,0.01287683,-0.00000115,-0.00000021
 ,0.00030628,0.00000129,0.00000252,0.00733316,0.00000373,-0.00000669,0.
 00223490,-0.00001234,0.00000362,-0.08156317,0.00014909,-0.00009654,0.2
 1580307,-0.00545632,-0.00364552,-0.00000145,-0.00644661,-0.00081884,0.
 00000207,-0.00017668,0.00455179,-0.00000082,0.00297624,-0.00017176,-0.
 00000122,-0.00067738,0.00386522,0.00000069,-0.02233090,0.04415582,-0.0
 0001892,-0.29885914,0.25939344,-0.00010706,0.31381220,-0.00363642,0.00
 670245,0.00000122,0.00763580,0.00454531,-0.00000191,-0.00009568,-0.007
 02057,0.00000062,-0.00681765,0.00438932,0.00000072,0.01331735,-0.03011
 026,-0.00000408,0.03322044,-0.00632680,0.00001237,0.24982845,-0.503540
 81,0.00013347,-0.29484158,0.62240569,-0.00000371,0.00000092,0.00532798
 ,-0.00000055,0.00000043,-0.00252598,0.00000040,0.00000019,-0.00002735,
 -0.00000026,-0.00000056,-0.00068934,-0.00000089,0.00000417,-0.00094379
 ,0.00000393,0.00000766,0.02060896,-0.00012354,0.00014481,-0.07914409,0
 .00012133,-0.00015902,0.03816641,-0.00123828,-0.00398703,-0.00000004,-
 0.00300495,-0.00266610,-0.00000008,-0.00033429,0.00241556,-0.00000011,
 0.00056951,-0.00282268,0.00000089,-0.00849769,0.00941374,0.00000053,-0
 .03035441,-0.04261391,-0.00000820,-0.18065533,-0.10059272,-0.00003261,
 0.03852142,0.00862987,0.00000381,0.67079137,0.00549077,-0.00174611,0.0
 0000138,-0.00486596,-0.00088567,0.00000060,0.00033136,0.00263409,-0.00
 000031,0.00094491,0.00031115,0.00000009,0.00225108,-0.00139882,-0.0000
 0005,-0.01419904,-0.00315894,-0.00000533,-0.06983118,-0.27255798,-0.00
 002405,-0.00709782,-0.11348267,0.00000529,0.02294966,0.44818205,-0.000
 00016,0.00000063,0.00131151,-0.00000156,-0.00000005,-0.00119877,0.0000
 0062,0.00000069,-0.00010024,0.00000035,-0.00000140,-0.00104668,-0.0000
 0162,0.00000109,0.00167596,0.00000286,-0.00000616,0.01123668,-0.000032
 53,-0.00004057,-0.06572072,0.00000211,0.00001595,0.02823047,0.00012493
 ,0.00001453,0.04119159,-0.01444362,0.00348558,0.00000095,0.01191236,0.
 00966344,-0.00000141,-0.00623957,-0.01771669,0.00000341,-0.03898497,0.
 06316084,0.00000673,-0.15476418,0.10836584,0.00000745,0.03019232,-0.00
 969247,-0.00000119,-0.02973078,0.02304150,-0.00000495,-0.01109903,-0.0
 3985840,0.00000079,0.00304741,-0.00764061,-0.00000036,0.62392363,0.000
 90793,-0.00551175,0.00000081,-0.00406500,-0.00719187,0.00000050,-0.004
 25297,0.00825482,-0.00000193,0.02547415,-0.00847792,-0.00000563,0.0712
 5147,-0.31224215,0.00000052,0.00721059,-0.04611311,0.00000026,0.023307
 06,-0.00731911,0.00000229,-0.01576704,0.00925453,-0.00000442,-0.003581
 15,-0.00065398,-0.00000079,-0.05433874,0.43372445,0.00000228,0.0000006
 5,0.00741456,-0.00000067,-0.00000233,-0.00021746,-0.00000094,0.0000029
 1,0.00570657,0.00000302,-0.00000419,0.00806646,0.00001325,-0.00000275,
 -0.05057978,-0.00000433,-0.00000131,0.00870791,0.00000248,-0.00000288,
 -0.00140442,-0.00000192,0.00000144,0.00454351,-0.00000060,-0.00000076,
 -0.00062639,-0.00006558,-0.00000203,0.04029855,-0.02430936,0.03192544,
 0.00000017,-0.09374834,0.09826755,0.00000103,0.01066451,-0.01723265,-0
 .00000028,-0.00209808,-0.00318561,0.00000021,-0.00109947,-0.00029072,0
 .00000024,-0.00435202,0.00105682,0.00000164,0.00081820,0.00119250,0.00
 000019,-0.00086849,0.00024411,-0.00000026,-0.00030690,-0.00021828,-0.0
 0000006,0.00041096,0.00035820,-0.00000025,0.11395630,0.00480118,0.0047
 2303,-0.00000047,0.10027174,-0.29529812,-0.00000052,0.01291144,-0.0154
 4584,0.00000035,-0.00373649,-0.00272214,0.00000131,-0.00116079,-0.0002
 6271,-0.00000019,-0.00169962,0.00326552,0.00000021,-0.00016334,0.00027
 873,0.00000025,0.00010211,-0.00000488,-0.00000014,0.00011591,-0.000010
 16,-0.00000007,0.00007760,0.00022261,0.00000025,-0.11186086,0.30575722
 ,0.00000056,-0.00000341,-0.00644389,0.00000146,0.00000038,-0.03793048,
 0.00000014,0.00000165,0.00489714,0.00000171,-0.00000059,0.00572914,-0.
 00000128,0.00000005,0.00113975,0.00000084,0.00000033,0.01116860,0.0000
 0016,0.00000047,0.00068094,0.00000030,-0.00000010,-0.00041362,0.000000
 07,-0.00000001,0.00003100,-0.00000027,-0.00000013,-0.00165823,-0.00000
 316,0.00000056,0.02540120,-0.00170216,-0.00365691,0.00000256,-0.010483
 15,0.00758888,0.00000015,-0.34466267,0.02139991,0.00002479,-0.00760243
 ,-0.00230209,0.00000655,0.00168460,0.00165157,-0.00000247,0.00148757,-
 0.00044122,0.00000004,-0.00014047,-0.00006649,-0.00000001,-0.00011665,
 -0.00000764,-0.00000021,-0.00009441,-0.00001773,-0.00000032,-0.0008798
 3,0.00010428,0.00000187,0.00046000,-0.00031827,-0.00000115,0.36125716,
 -0.00577646,-0.00393670,0.00000117,-0.02414541,0.01023846,0.00000123,0
 .02139667,-0.06082750,-0.00000008,0.02831665,0.00337397,-0.00000088,0.
 00151495,-0.00467717,-0.00000037,0.00130999,-0.00234446,0.00000005,-0.
 00043650,-0.00017758,0.00000005,0.00003210,0.00018036,-0.00000009,0.00
 006982,0.00021233,-0.00000002,0.00189148,0.00023936,0.00000013,0.00075
 670,0.00030221,-0.00000034,-0.02428770,0.05673310,0.00000218,-0.000001
 30,0.00639690,-0.00000080,0.00000117,0.00249060,0.00002437,-0.00000201
 ,-0.03953107,0.00000150,-0.00000308,0.00472500,-0.00000354,-0.00000336
 ,0.00923112,-0.00000011,0.00000221,-0.00021849,0.00000069,0.00000188,-
 0.00202870,0.00000035,-0.00000014,0.00033721,-0.00000007,0.00000003,0.
 00027567,-0.00000155,0.00000145,-0.00006355,0.00000003,-0.00000048,-0.
 00254355,-0.00002511,0.00000042,0.02589036,-0.00084726,0.00110510,-0.0
 0000173,-0.00044342,0.00364169,0.00000090,0.01254104,0.01340216,-0.000
 00508,-0.13932106,-0.12968050,0.00000589,-0.01036308,-0.02853401,0.000
 00433,-0.00541360,0.00138807,0.00000116,0.00035638,-0.00185971,0.00000
 020,0.00004768,0.00056437,0.00000003,-0.00076619,0.00006496,0.00000014
 ,0.00326021,0.00031641,-0.00000214,0.00052503,0.00070063,0.00000076,0.
 00057259,-0.00060942,0.00000231,0.14008989,0.00046701,0.00020770,-0.00
 000241,0.00423189,-0.00297100,0.00000037,-0.01635771,-0.01554466,-0.00
 000397,-0.13115670,-0.26541491,0.00000608,0.00331296,0.00396885,0.0000
 0324,0.00052499,0.00117398,0.00000024,0.00061660,0.00005575,-0.0000002
 8,-0.00011766,0.00016876,0.00000020,0.00001796,0.00000795,0.00000045,-
 0.00067865,0.00056708,-0.00000217,-0.00087215,-0.00077122,0.00000129,0
 .00011703,0.00108133,0.00000333,0.13984681,0.27742105,0.00000178,-0.00
 000212,-0.00318296,-0.00000288,0.00000307,0.00896423,0.00000610,-0.000
 00190,0.00441672,0.00001406,0.00000704,-0.03905050,-0.00000595,-0.0000
 0362,0.00696821,0.00000140,0.00000324,0.00590918,0.00000074,0.00000284
 ,-0.00068865,0.00000056,-0.00000035,0.00009468,-0.00000009,0.00000008,
 0.00002333,-0.00000265,0.00000222,-0.00363491,0.00000035,-0.00000069,-
 0.00011566,-0.00000475,-0.00000089,-0.00464977,-0.00000830,-0.00000873
 ,0.02535592,0.00058694,0.00003045,0.00000010,0.00057274,0.00043486,0.0
 0000004,0.00009094,-0.00043693,0.00000005,-0.00020909,-0.00027948,0.00
 000013,-0.00068828,0.00055286,-0.00000024,0.00199800,-0.00268226,-0.00
 000292,-0.03440629,-0.00734704,-0.00000475,0.00326101,0.00985589,0.000
 00043,-0.48602575,0.06221104,-0.00009333,0.00109908,0.00030227,0.00000
 008,0.00002507,-0.00001874,-0.00000006,0.00003159,0.00000193,0.0000000
 2,-0.00005615,0.00001873,0.00000004,0.51497820,0.00154828,0.00019925,0
 .,0.00013520,0.00042480,-0.00000009,0.00018153,-0.00014396,0.00000048,
 -0.00019330,-0.00055146,0.00000069,-0.00169177,0.00119941,-0.00000019,
 -0.00101012,-0.00692238,-0.00000065,-0.05690529,0.00724611,-0.00001260
 ,0.00740681,0.00089464,0.00000242,0.11242218,-0.06347935,0.00001528,0.
 00118266,-0.00000600,0.00000015,0.00004731,-0.00002546,-0.00000012,0.0
 0004045,0.00003000,-0.00000032,-0.00013269,0.00002168,-0.00000039,-0.0
 6174402,0.06191394,0.00000066,0.00000011,-0.00018757,0.00000015,0.0000
 0033,0.00002572,0.00000013,-0.00000013,0.00003521,-0.00000008,-0.00000
 030,-0.00043758,-0.00000047,0.00000022,0.00079071,0.00000276,-0.000000
 55,0.00504824,-0.00001904,-0.00000348,0.00339375,0.00000298,0.00000137
 ,-0.00587238,-0.00008782,0.00000672,-0.01687383,0.00000022,0.00000009,
 -0.00004840,0.,-0.00000003,0.00000412,0.00000001,0.,-0.00000760,-0.000
 00004,0.00000004,0.00001445,0.00010074,-0.00000419,0.01411152,0.001272
 99,-0.00394191,0.00000096,-0.00393832,-0.00291436,0.00000017,-0.000703
 25,0.00429970,0.00000043,0.00771361,-0.00218283,0.00000007,-0.03238321
 ,0.02158977,0.00000364,-0.00402065,-0.00180496,0.00000075,0.02535996,-
 0.02082982,0.00000533,-0.01258735,0.02196108,-0.00000130,-0.00165153,0
 .00962684,-0.00000106,-0.41770400,-0.04722748,0.00005345,-0.00007739,-
 0.00002251,-0.00000008,0.00018825,-0.00003480,-0.00000028,-0.00018207,
 0.00002889,-0.00000040,-0.00125799,-0.00128720,-0.00000020,0.43997094,
 0.00206766,-0.00162125,0.00000037,-0.00316143,-0.00188395,0.00000017,0
 .00153585,0.00385025,-0.00000023,0.00509543,-0.00886431,-0.00000092,0.
 04492674,0.00871593,-0.00000551,-0.00282610,-0.00007028,0.00000060,0.0
 0848969,-0.02160779,0.00000196,0.00295293,0.01194493,-0.00000185,0.000
 22889,0.00602611,0.00000044,-0.08094338,-0.06474698,0.00001289,-0.0001
 8835,-0.00000881,-0.00000003,0.00019592,-0.00042770,0.00000019,-0.0002
 1388,0.00002768,0.00000018,-0.00089957,-0.00080121,-0.00000020,0.02273
 959,0.06946738,0.00000032,-0.00000036,-0.00084196,-0.00000086,0.000001
 53,0.00005999,0.00000238,-0.00000095,0.00139893,0.00000114,-0.00000209
 ,0.00328500,-0.00000187,-0.00000051,-0.00152987,-0.00000074,0.00000141
 ,-0.00053627,0.00000286,0.00000091,0.00011066,0.00000100,-0.00000157,-
 0.00769266,-0.00000061,0.00000179,0.00159042,0.00005842,0.00000680,-0.
 01650441,0.00000013,-0.00000035,0.00005355,-0.00000193,-0.00000038,-0.
 00030412,0.00000157,0.00000232,-0.00042427,-0.00000035,-0.00000047,0.0
 0000363,-0.00006147,-0.00000806,0.02133139\\0.00004523,-0.00002945,-0.
 00000553,-0.00010282,0.00005313,0.00000400,-0.00008684,0.00005236,-0.0
 0000002,0.00004028,-0.00017175,0.00000211,0.00013433,-0.00008796,-0.00
 000397,0.00000718,0.00007197,-0.00002740,-0.00005250,-0.00018932,0.000
 09657,0.00016144,0.00012122,-0.00004107,0.00000238,0.00005563,-0.00002
 759,-0.00016653,-0.00003158,-0.00000355,0.00004226,-0.00009118,0.00000
 013,0.00010733,-0.00001008,-0.00000051,0.00003509,0.00009625,-0.000000
 11,0.00002156,-0.00001144,-0.00000063,-0.00018839,0.00017220,0.0000075
 5\\\@


 WE ARE REACHING THE STAGE WHERE THE PROBLEMS WE MUST SOLVE ARE 
 GOING TO BECOME INSOLUBLE WITHOUT COMPUTERS.
 I DO NOT FEAR COMPUTERS.  I FEAR THE LACK OF THEM.

                                   -- ISSAC ASIMOV
 Job cpu time:       0 days  0 hours 56 minutes 46.8 seconds.
 File lengths (MBytes):  RWF=    112 Int=      0 D2E=      0 Chk=      7 Scr=      1
 Normal termination of Gaussian 09 at Sat Dec 14 17:52:37 2024.
