 Entering Gaussian System, Link 0=g09
 Input=m062x6311THAPyang.gjf
 Output=m062x6311THAPyang.log
 Initial command:
 /home/phzd/g09E/g09/l1.exe "/home/phzd/g09E/scratch/Gau-97665.inp" -scrdir="/home/phzd/g09E/scratch/"
 Default is to use a total of  18 processors:
                               18 via shared-memory
                                1 via Linda
 Entering Link 1 = /home/phzd/g09E/g09/l1.exe PID=     97667.
  
 Copyright (c) 1988,1990,1992,1993,1995,1998,2003,2009,2015,
            Gaussian, Inc.  All Rights Reserved.
  
 This is part of the Gaussian(R) 09 program.  It is based on
 the Gaussian(R) 03 system (copyright 2003, Gaussian, Inc.),
 the Gaussian(R) 98 system (copyright 1998, Gaussian, Inc.),
 the Gaussian(R) 94 system (copyright 1995, Gaussian, Inc.),
 the Gaussian 92(TM) system (copyright 1992, Gaussian, Inc.),
 the Gaussian 90(TM) system (copyright 1990, Gaussian, Inc.),
 the Gaussian 88(TM) system (copyright 1988, Gaussian, Inc.),
 the Gaussian 86(TM) system (copyright 1986, Carnegie Mellon
 University), and the Gaussian 82(TM) system (copyright 1983,
 Carnegie Mellon University). Gaussian is a federally registered
 trademark of Gaussian, Inc.
  
 This software contains proprietary and confidential information,
 including trade secrets, belonging to Gaussian, Inc.
  
 This software is provided under written license and may be
 used, copied, transmitted, or stored only in accord with that
 written license.
  
 The following legend is applicable only to US Government
 contracts under FAR:
  
                    RESTRICTED RIGHTS LEGEND
  
 Use, reproduction and disclosure by the US Government is
 subject to restrictions as set forth in subparagraphs (a)
 and (c) of the Commercial Computer Software - Restricted
 Rights clause in FAR 52.227-19.
  
 Gaussian, Inc.
 340 Quinnipiac St., Bldg. 40, Wallingford CT 06492
  
  
 ---------------------------------------------------------------
 Warning -- This program may not be used in any manner that
 competes with the business of Gaussian, Inc. or will provide
 assistance to any competitor of Gaussian, Inc.  The licensee
 of this program is prohibited from giving any competitor of
 Gaussian, Inc. access to this program.  By using this program,
 the user acknowledges that Gaussian, Inc. is engaged in the
 business of creating and licensing software in the field of
 computational chemistry and represents and warrants to the
 licensee that it is not a competitor of Gaussian, Inc. and that
 it will not use this program in any manner prohibited above.
 ---------------------------------------------------------------
  

 Cite this work as:
 Gaussian 09, Revision E.01,
 M. J. Frisch, G. W. Trucks, H. B. Schlegel, G. E. Scuseria, 
 M. A. Robb, J. R. Cheeseman, G. Scalmani, V. Barone, B. Mennucci, 
 G. A. Petersson, H. Nakatsuji, M. Caricato, X. Li, H. P. Hratchian, 
 A. F. Izmaylov, J. Bloino, G. Zheng, J. L. Sonnenberg, M. Hada, 
 M. Ehara, K. Toyota, R. Fukuda, J. Hasegawa, M. Ishida, T. Nakajima, 
 Y. Honda, O. Kitao, H. Nakai, T. Vreven, J. A. Montgomery, Jr., 
 J. E. Peralta, F. Ogliaro, M. Bearpark, J. J. Heyd, E. Brothers, 
 K. N. Kudin, V. N. Staroverov, T. Keith, R. Kobayashi, J. Normand, 
 K. Raghavachari, A. Rendell, J. C. Burant, S. S. Iyengar, J. Tomasi, 
 M. Cossi, N. Rega, J. M. Millam, M. Klene, J. E. Knox, J. B. Cross, 
 V. Bakken, C. Adamo, J. Jaramillo, R. Gomperts, R. E. Stratmann, 
 O. Yazyev, A. J. Austin, R. Cammi, C. Pomelli, J. W. Ochterski, 
 R. L. Martin, K. Morokuma, V. G. Zakrzewski, G. A. Voth, 
 P. Salvador, J. J. Dannenberg, S. Dapprich, A. D. Daniels, 
 O. Farkas, J. B. Foresman, J. V. Ortiz, J. Cioslowski, 
 and D. J. Fox, Gaussian, Inc., Wallingford CT, 2013.
 
 ******************************************
 Gaussian 09:  ES64L-G09RevE.01 30-Nov-2015
                16-Jun-2024 
 ******************************************
 %chk=m062x6311THAPyang.chk
 -----------------------------
 # opt freq m062x/6-311+g(d,p)
 -----------------------------
 1/14=-1,18=20,19=15,26=3,38=1/1,3;
 2/9=110,12=2,17=6,18=5,40=1/2;
 3/5=4,6=6,7=111,11=2,16=1,25=1,30=1,71=1,74=-55/1,2,3;
 4//1;
 5/5=2,38=5/2;
 6/7=2,8=2,9=2,10=2,28=1/1;
 7//1,2,3,16;
 1/14=-1,18=20,19=15,26=3/3(2);
 2/9=110/2;
 99//99;
 2/9=110/2;
 3/5=4,6=6,7=111,11=2,16=1,25=1,30=1,71=1,74=-55/1,2,3;
 4/5=5,16=3,69=1/1;
 5/5=2,38=5/2;
 7//1,2,3,16;
 1/14=-1,18=20,19=15,26=3/3(-5);
 2/9=110/2;
 6/7=2,8=2,9=2,10=2,19=2,28=1/1;
 99/9=1/99;
 ----------
 [No Title]
 ----------
 Symbolic Z-matrix:
 Charge =  1 Multiplicity = 1
 C                    -1.54806  -1.26665  -0.00029 
 C                    -2.28376  -0.07663  -0.00083 
 C                    -1.63579   1.17441   0.00004 
 C                    -0.25986   1.2116    0.00105 
 C                     0.55836   0.02496   0.00089 
 C                    -0.16531  -1.22503   0.00096 
 O                     0.55773  -2.3567    0.00206 
 C                     1.9811    0.08289  -0.00068 
 C                     2.90915  -1.0815   -0.00096 
 O                     2.62767   1.21757  -0.00265 
 O                     0.40314   2.40157   0.00303 
 O                    -3.61273  -0.1989   -0.00181 
 H                    -2.08148  -2.21096  -0.00061 
 H                    -2.2118    2.09492   0.00038 
 H                    -0.01495  -3.13862   0.00187 
 H                     2.73548  -1.71264   0.87483 
 H                     2.73327  -1.71402  -0.87533 
 H                     3.93323  -0.71004  -0.00259 
 H                     2.02248   1.99418  -0.0024 
 H                    -0.18847   3.1687    0.00002 
 H                    -4.06915   0.65585  -0.00226 
 

 GradGradGradGradGradGradGradGradGradGradGradGradGradGradGradGradGradGrad
 Berny optimization.
 Initialization pass.
                           ----------------------------
                           !    Initial Parameters    !
                           ! (Angstroms and Degrees)  !
 --------------------------                            --------------------------
 ! Name  Definition              Value          Derivative Info.                !
 --------------------------------------------------------------------------------
 ! R1    R(1,2)                  1.3991         estimate D2E/DX2                !
 ! R2    R(1,6)                  1.3834         estimate D2E/DX2                !
 ! R3    R(1,13)                 1.0846         estimate D2E/DX2                !
 ! R4    R(2,3)                  1.4089         estimate D2E/DX2                !
 ! R5    R(2,12)                 1.3346         estimate D2E/DX2                !
 ! R6    R(3,4)                  1.3764         estimate D2E/DX2                !
 ! R7    R(3,14)                 1.0859         estimate D2E/DX2                !
 ! R8    R(4,5)                  1.4414         estimate D2E/DX2                !
 ! R9    R(4,11)                 1.3622         estimate D2E/DX2                !
 ! R10   R(5,6)                  1.4444         estimate D2E/DX2                !
 ! R11   R(5,8)                  1.4239         estimate D2E/DX2                !
 ! R12   R(6,7)                  1.3429         estimate D2E/DX2                !
 ! R13   R(7,15)                 0.9692         estimate D2E/DX2                !
 ! R14   R(8,9)                  1.489          estimate D2E/DX2                !
 ! R15   R(8,10)                 1.306          estimate D2E/DX2                !
 ! R16   R(9,16)                 1.0934         estimate D2E/DX2                !
 ! R17   R(9,17)                 1.0934         estimate D2E/DX2                !
 ! R18   R(9,18)                 1.0894         estimate D2E/DX2                !
 ! R19   R(10,19)                0.9846         estimate D2E/DX2                !
 ! R20   R(11,20)                0.9688         estimate D2E/DX2                !
 ! R21   R(12,21)                0.969          estimate D2E/DX2                !
 ! A1    A(2,1,6)              120.0012         estimate D2E/DX2                !
 ! A2    A(2,1,13)             118.8136         estimate D2E/DX2                !
 ! A3    A(6,1,13)             121.1852         estimate D2E/DX2                !
 ! A4    A(1,2,3)              120.8929         estimate D2E/DX2                !
 ! A5    A(1,2,12)             116.4686         estimate D2E/DX2                !
 ! A6    A(3,2,12)             122.6384         estimate D2E/DX2                !
 ! A7    A(2,3,4)              118.93           estimate D2E/DX2                !
 ! A8    A(2,3,14)             120.5821         estimate D2E/DX2                !
 ! A9    A(4,3,14)             120.4879         estimate D2E/DX2                !
 ! A10   A(3,4,5)              123.0389         estimate D2E/DX2                !
 ! A11   A(3,4,11)             120.673          estimate D2E/DX2                !
 ! A12   A(5,4,11)             116.288          estimate D2E/DX2                !
 ! A13   A(4,5,6)              115.3445         estimate D2E/DX2                !
 ! A14   A(4,5,8)              122.2554         estimate D2E/DX2                !
 ! A15   A(6,5,8)              122.4            estimate D2E/DX2                !
 ! A16   A(1,6,5)              121.7924         estimate D2E/DX2                !
 ! A17   A(1,6,7)              120.8511         estimate D2E/DX2                !
 ! A18   A(5,6,7)              117.3566         estimate D2E/DX2                !
 ! A19   A(6,7,15)             111.206          estimate D2E/DX2                !
 ! A20   A(5,8,9)              126.2241         estimate D2E/DX2                !
 ! A21   A(5,8,10)             122.0075         estimate D2E/DX2                !
 ! A22   A(9,8,10)             111.7684         estimate D2E/DX2                !
 ! A23   A(8,9,16)             110.6244         estimate D2E/DX2                !
 ! A24   A(8,9,17)             110.6262         estimate D2E/DX2                !
 ! A25   A(8,9,18)             108.6188         estimate D2E/DX2                !
 ! A26   A(16,9,17)            106.3234         estimate D2E/DX2                !
 ! A27   A(16,9,18)            110.3249         estimate D2E/DX2                !
 ! A28   A(17,9,18)            110.321          estimate D2E/DX2                !
 ! A29   A(8,10,19)            112.3958         estimate D2E/DX2                !
 ! A30   A(4,11,20)            113.2354         estimate D2E/DX2                !
 ! A31   A(2,12,21)            112.8446         estimate D2E/DX2                !
 ! D1    D(6,1,2,3)             -0.0068         estimate D2E/DX2                !
 ! D2    D(6,1,2,12)          -179.989          estimate D2E/DX2                !
 ! D3    D(13,1,2,3)           179.9767         estimate D2E/DX2                !
 ! D4    D(13,1,2,12)           -0.0055         estimate D2E/DX2                !
 ! D5    D(2,1,6,5)             -0.0403         estimate D2E/DX2                !
 ! D6    D(2,1,6,7)            179.9718         estimate D2E/DX2                !
 ! D7    D(13,1,6,5)           179.9765         estimate D2E/DX2                !
 ! D8    D(13,1,6,7)            -0.0113         estimate D2E/DX2                !
 ! D9    D(1,2,3,4)              0.0181         estimate D2E/DX2                !
 ! D10   D(1,2,3,14)          -179.9531         estimate D2E/DX2                !
 ! D11   D(12,2,3,4)           179.9991         estimate D2E/DX2                !
 ! D12   D(12,2,3,14)            0.0279         estimate D2E/DX2                !
 ! D13   D(1,2,12,21)         -179.9929         estimate D2E/DX2                !
 ! D14   D(3,2,12,21)            0.0253         estimate D2E/DX2                !
 ! D15   D(2,3,4,5)              0.0179         estimate D2E/DX2                !
 ! D16   D(2,3,4,11)          -179.945          estimate D2E/DX2                !
 ! D17   D(14,3,4,5)           179.9891         estimate D2E/DX2                !
 ! D18   D(14,3,4,11)            0.0263         estimate D2E/DX2                !
 ! D19   D(3,4,5,6)             -0.0605         estimate D2E/DX2                !
 ! D20   D(3,4,5,8)            179.875          estimate D2E/DX2                !
 ! D21   D(11,4,5,6)           179.9039         estimate D2E/DX2                !
 ! D22   D(11,4,5,8)            -0.1606         estimate D2E/DX2                !
 ! D23   D(3,4,11,20)           -0.2303         estimate D2E/DX2                !
 ! D24   D(5,4,11,20)          179.8044         estimate D2E/DX2                !
 ! D25   D(4,5,6,1)              0.0714         estimate D2E/DX2                !
 ! D26   D(4,5,6,7)           -179.9404         estimate D2E/DX2                !
 ! D27   D(8,5,6,1)           -179.8641         estimate D2E/DX2                !
 ! D28   D(8,5,6,7)              0.1242         estimate D2E/DX2                !
 ! D29   D(4,5,8,9)            179.9995         estimate D2E/DX2                !
 ! D30   D(4,5,8,10)            -0.0299         estimate D2E/DX2                !
 ! D31   D(6,5,8,9)             -0.0695         estimate D2E/DX2                !
 ! D32   D(6,5,8,10)           179.9011         estimate D2E/DX2                !
 ! D33   D(1,6,7,15)            -0.0023         estimate D2E/DX2                !
 ! D34   D(5,6,7,15)          -179.9906         estimate D2E/DX2                !
 ! D35   D(5,8,9,16)           -58.7899         estimate D2E/DX2                !
 ! D36   D(5,8,9,17)            58.7609         estimate D2E/DX2                !
 ! D37   D(5,8,9,18)           179.9837         estimate D2E/DX2                !
 ! D38   D(10,8,9,16)          121.237          estimate D2E/DX2                !
 ! D39   D(10,8,9,17)         -121.2122         estimate D2E/DX2                !
 ! D40   D(10,8,9,18)            0.0106         estimate D2E/DX2                !
 ! D41   D(5,8,10,19)            0.0304         estimate D2E/DX2                !
 ! D42   D(9,8,10,19)         -179.9952         estimate D2E/DX2                !
 --------------------------------------------------------------------------------
 Trust Radius=3.00D-01 FncErr=1.00D-07 GrdErr=1.00D-06
 Number of steps in this run=    104 maximum allowed number of steps=    126.
 GradGradGradGradGradGradGradGradGradGradGradGradGradGradGradGradGradGrad

                          Input orientation:                          
 ---------------------------------------------------------------------
 Center     Atomic      Atomic             Coordinates (Angstroms)
 Number     Number       Type             X           Y           Z
 ---------------------------------------------------------------------
      1          6           0       -1.548063   -1.266650   -0.000293
      2          6           0       -2.283760   -0.076630   -0.000828
      3          6           0       -1.635788    1.174409    0.000039
      4          6           0       -0.259863    1.211598    0.001049
      5          6           0        0.558355    0.024956    0.000889
      6          6           0       -0.165312   -1.225029    0.000962
      7          8           0        0.557727   -2.356696    0.002059
      8          6           0        1.981100    0.082889   -0.000681
      9          6           0        2.909153   -1.081501   -0.000963
     10          8           0        2.627673    1.217569   -0.002648
     11          8           0        0.403142    2.401573    0.003033
     12          8           0       -3.612734   -0.198901   -0.001814
     13          1           0       -2.081480   -2.210958   -0.000606
     14          1           0       -2.211797    2.094923    0.000383
     15          1           0       -0.014948   -3.138617    0.001867
     16          1           0        2.735480   -1.712636    0.874829
     17          1           0        2.733271   -1.714018   -0.875326
     18          1           0        3.933226   -0.710042   -0.002591
     19          1           0        2.022480    1.994178   -0.002403
     20          1           0       -0.188469    3.168702    0.000021
     21          1           0       -4.069150    0.655847   -0.002256
 ---------------------------------------------------------------------
                    Distance matrix (angstroms):
                    1          2          3          4          5
     1  C    0.000000
     2  C    1.399070   0.000000
     3  C    2.442635   1.408889   0.000000
     4  C    2.793058   2.399103   1.376428   0.000000
     5  C    2.470879   2.843930   2.476995   1.441388   0.000000
     6  C    1.383378   2.409698   2.814179   2.438461   1.444353
     7  O    2.371193   3.643180   4.156948   3.660762   2.381652
     8  C    3.778392   4.267842   3.778001   2.509164   1.423925
     9  C    4.461060   5.289245   5.074014   3.911645   2.598173
    10  O    4.858819   5.079087   4.263680   2.887545   2.388392
    11  O    4.154885   3.655263   2.379743   1.362211   2.381681
    12  O    2.324426   1.334587   2.407135   3.637480   4.177093
    13  H    1.084551   2.143892   3.414579   3.877136   3.459486
    14  H    3.426473   2.172745   1.085879   2.142501   3.458107
    15  H    2.419650   3.810942   4.607529   4.357104   3.215101
    16  H    4.394711   5.351267   5.311146   4.276297   2.919396
    17  H    4.392680   5.349429   5.310174   4.276227   2.919254
    18  H    5.509478   6.249170   5.879207   4.612452   3.453982
    19  H    4.835471   4.778279   3.748993   2.412785   2.453876
    20  H    4.639056   3.862955   2.464130   1.958406   3.231236
    21  H    3.170470   1.929804   2.488004   3.849615   4.670314
                    6          7          8          9         10
     6  C    0.000000
     7  O    1.342928   0.000000
     8  C    2.513511   2.824460   0.000000
     9  C    3.077814   2.674946   1.488988   0.000000
    10  O    3.710399   4.130384   1.305971   2.316238   0.000000
    11  O    3.670884   4.760779   2.804685   4.290910   2.520007
    12  O    3.596897   4.695619   5.600927   6.581337   6.399146
    13  H    2.154938   2.643229   4.665436   5.116844   5.825026
    14  H    3.900023   5.242822   4.650663   6.026093   4.918356
    15  H    1.919487   0.969204   3.789765   3.575206   5.095078
    16  H    3.068550   2.432930   2.135303   1.093392   3.060668
    17  H    3.067373   2.432248   2.135331   1.093400   3.060542
    18  H    4.130767   3.755727   2.107021   1.089362   2.328122
    19  H    3.892267   4.590820   1.911738   3.200936   0.984571
    20  H    4.393792   5.575557   3.772171   5.259229   3.426016
    21  H    4.333319   5.521180   6.077319   7.191321   6.720340
                   11         12         13         14         15
    11  O    0.000000
    12  O    4.784323   0.000000
    13  H    5.239160   2.528461   0.000000
    14  H    2.632859   2.687798   4.307853   0.000000
    15  H    5.555943   4.646074   2.265196   5.675922   0.000000
    16  H    4.809007   6.584810   4.921160   6.303785   3.218748
    17  H    4.810312   6.582582   4.918731   6.303062   3.217399
    18  H    4.705706   7.563252   6.199148   6.754935   4.635307
    19  H    1.669807   6.046919   5.875854   4.235476   5.522383
    20  H    0.968762   4.802743   5.703002   2.290602   6.309706
    21  H    4.800936   0.968974   3.488468   2.349618   5.552885
                   16         17         18         19         20
    16  H    0.000000
    17  H    1.750157   0.000000
    18  H    1.791551   1.791515   0.000000
    19  H    3.875355   3.875298   3.311156   0.000000
    20  H    5.756929   5.757061   5.659773   2.503559   0.000000
    21  H    7.258235   7.256131   8.118108   6.236913   4.623216
                   21
    21  H    0.000000
 Stoichiometry    C8H9O4(1+)
 Framework group  C1[X(C8H9O4)]
 Deg. of freedom    57
 Full point group                 C1      NOp   1
 Largest Abelian subgroup         C1      NOp   1
 Largest concise Abelian subgroup C1      NOp   1
                         Standard orientation:                         
 ---------------------------------------------------------------------
 Center     Atomic      Atomic             Coordinates (Angstroms)
 Number     Number       Type             X           Y           Z
 ---------------------------------------------------------------------
      1          6           0        1.548063   -1.266650    0.000293
      2          6           0        2.283760   -0.076630    0.000828
      3          6           0        1.635788    1.174409   -0.000039
      4          6           0        0.259863    1.211598   -0.001049
      5          6           0       -0.558355    0.024956   -0.000889
      6          6           0        0.165312   -1.225029   -0.000962
      7          8           0       -0.557727   -2.356696   -0.002059
      8          6           0       -1.981100    0.082889    0.000681
      9          6           0       -2.909153   -1.081501    0.000963
     10          8           0       -2.627673    1.217569    0.002648
     11          8           0       -0.403142    2.401573   -0.003033
     12          8           0        3.612734   -0.198901    0.001814
     13          1           0        2.081480   -2.210958    0.000606
     14          1           0        2.211797    2.094923   -0.000383
     15          1           0        0.014948   -3.138617   -0.001867
     16          1           0       -2.735480   -1.712636   -0.874829
     17          1           0       -2.733271   -1.714018    0.875326
     18          1           0       -3.933226   -0.710042    0.002591
     19          1           0       -2.022480    1.994178    0.002403
     20          1           0        0.188469    3.168702   -0.000021
     21          1           0        4.069150    0.655847    0.002256
 ---------------------------------------------------------------------
 Rotational constants (GHZ):      1.5200905      0.7583146      0.5074959
 Standard basis: 6-311+G(d,p) (5D, 7F)
 There are   330 symmetry adapted cartesian basis functions of A   symmetry.
 There are   318 symmetry adapted basis functions of A   symmetry.
   318 basis functions,   504 primitive gaussians,   330 cartesian basis functions
    44 alpha electrons       44 beta electrons
       nuclear repulsion energy       712.8601112192 Hartrees.
 NAtoms=   21 NActive=   21 NUniq=   21 SFac= 1.00D+00 NAtFMM=   60 NAOKFM=F Big=F
 Integral buffers will be    131072 words long.
 Raffenetti 2 integral format.
 Two-electron integral symmetry is turned on.
 One-electron integrals computed using PRISM.
 NBasis=   318 RedAO= T EigKep=  3.33D-06  NBF=   318
 NBsUse=   317 1.00D-06 EigRej=  9.08D-07 NBFU=   317
 ExpMin= 4.38D-02 ExpMax= 8.59D+03 ExpMxC= 1.30D+03 IAcc=2 IRadAn=         4 AccDes= 0.00D+00
 Harris functional with IExCor= 1009 and IRadAn=       4 diagonalized for initial guess.
 HarFok:  IExCor= 1009 AccDes= 0.00D+00 IRadAn=         4 IDoV= 1 UseB2=F ITyADJ=14
 ICtDFT=  3500011 ScaDFX=  1.000000  1.000000  1.000000  1.000000
 FoFCou: FMM=F IPFlag=           0 FMFlag=      100000 FMFlg1=           0
         NFxFlg=           0 DoJE=T BraDBF=F KetDBF=T FulRan=T
         wScrn=  0.000000 ICntrl=     500 IOpCl=  0 I1Cent=   200000004 NGrid=           0
         NMat0=    1 NMatS0=      1 NMatT0=    0 NMatD0=    1 NMtDS0=    0 NMtDT0=    0
 Petite list used in FoFCou.
 Requested convergence on RMS density matrix=1.00D-08 within 128 cycles.
 Requested convergence on MAX density matrix=1.00D-06.
 Requested convergence on             energy=1.00D-06.
 No special actions if energy rises.
 SCF Done:  E(RM062X) =  -610.863905555     A.U. after   14 cycles
            NFock= 14  Conv=0.71D-08     -V/T= 2.0038

 **********************************************************************

            Population analysis using the SCF density.

 **********************************************************************

 Orbital symmetries:
       Occupied  (A) (A) (A) (A) (A) (A) (A) (A) (A) (A) (A) (A)
                 (A) (A) (A) (A) (A) (A) (A) (A) (A) (A) (A) (A)
                 (A) (A) (A) (A) (A) (A) (A) (A) (A) (A) (A) (A)
                 (A) (A) (A) (A) (A) (A) (A) (A)
       Virtual   (A) (A) (A) (A) (A) (A) (A) (A) (A) (A) (A) (A)
                 (A) (A) (A) (A) (A) (A) (A) (A) (A) (A) (A) (A)
                 (A) (A) (A) (A) (A) (A) (A) (A) (A) (A) (A) (A)
                 (A) (A) (A) (A) (A) (A) (A) (A) (A) (A) (A) (A)
                 (A) (A) (A) (A) (A) (A) (A) (A) (A) (A) (A) (A)
                 (A) (A) (A) (A) (A) (A) (A) (A) (A) (A) (A) (A)
                 (A) (A) (A) (A) (A) (A) (A) (A) (A) (A) (A) (A)
                 (A) (A) (A) (A) (A) (A) (A) (A) (A) (A) (A) (A)
                 (A) (A) (A) (A) (A) (A) (A) (A) (A) (A) (A) (A)
                 (A) (A) (A) (A) (A) (A) (A) (A) (A) (A) (A) (A)
                 (A) (A) (A) (A) (A) (A) (A) (A) (A) (A) (A) (A)
                 (A) (A) (A) (A) (A) (A) (A) (A) (A) (A) (A) (A)
                 (A) (A) (A) (A) (A) (A) (A) (A) (A) (A) (A) (A)
                 (A) (A) (A) (A) (A) (A) (A) (A) (A) (A) (A) (A)
                 (A) (A) (A) (A) (A) (A) (A) (A) (A) (A) (A) (A)
                 (A) (A) (A) (A) (A) (A) (A) (A) (A) (A) (A) (A)
                 (A) (A) (A) (A) (A) (A) (A) (A) (A) (A) (A) (A)
                 (A) (A) (A) (A) (A) (A) (A) (A) (A) (A) (A) (A)
                 (A) (A) (A) (A) (A) (A) (A) (A) (A) (A) (A) (A)
                 (A) (A) (A) (A) (A) (A) (A) (A) (A) (A) (A) (A)
                 (A) (A) (A) (A) (A) (A) (A) (A) (A) (A) (A) (A)
                 (A) (A) (A) (A) (A) (A) (A) (A) (A) (A) (A) (A)
                 (A) (A) (A) (A) (A) (A) (A) (A) (A)
 The electronic state is 1-A.
 Alpha  occ. eigenvalues --  -19.85653 -19.85106 -19.83229 -19.82898 -10.84136
 Alpha  occ. eigenvalues --  -10.81688 -10.80913 -10.80603 -10.74048 -10.71860
 Alpha  occ. eigenvalues --  -10.70646 -10.69015  -1.40727  -1.38105  -1.37271
 Alpha  occ. eigenvalues --   -1.36810  -1.13902  -1.06514  -1.02372  -1.00716
 Alpha  occ. eigenvalues --   -0.92299  -0.90605  -0.88051  -0.84386  -0.82201
 Alpha  occ. eigenvalues --   -0.79946  -0.75864  -0.73477  -0.71671  -0.69453
 Alpha  occ. eigenvalues --   -0.69300  -0.68708  -0.67955  -0.66807  -0.64968
 Alpha  occ. eigenvalues --   -0.64938  -0.62787  -0.60895  -0.60601  -0.59133
 Alpha  occ. eigenvalues --   -0.58622  -0.54572  -0.46745  -0.45815
 Alpha virt. eigenvalues --   -0.21837  -0.13412  -0.12955  -0.10997  -0.10825
 Alpha virt. eigenvalues --   -0.10294  -0.09345  -0.07503  -0.07275  -0.06475
 Alpha virt. eigenvalues --   -0.05413  -0.04689  -0.04270  -0.03528  -0.03136
 Alpha virt. eigenvalues --   -0.02325  -0.01272  -0.00820  -0.00175   0.00382
 Alpha virt. eigenvalues --    0.01031   0.01976   0.02591   0.03166   0.03196
 Alpha virt. eigenvalues --    0.03645   0.04216   0.04472   0.05124   0.05559
 Alpha virt. eigenvalues --    0.05805   0.06933   0.07616   0.08235   0.09288
 Alpha virt. eigenvalues --    0.09476   0.09955   0.10171   0.10987   0.11206
 Alpha virt. eigenvalues --    0.12388   0.12596   0.13106   0.14150   0.14464
 Alpha virt. eigenvalues --    0.14992   0.15236   0.15929   0.16544   0.16791
 Alpha virt. eigenvalues --    0.17154   0.17764   0.18428   0.19012   0.19770
 Alpha virt. eigenvalues --    0.20604   0.21413   0.21488   0.23400   0.24715
 Alpha virt. eigenvalues --    0.25092   0.26541   0.27603   0.28930   0.29715
 Alpha virt. eigenvalues --    0.30380   0.31024   0.31856   0.32087   0.34382
 Alpha virt. eigenvalues --    0.35569   0.38298   0.39702   0.42610   0.44097
 Alpha virt. eigenvalues --    0.44385   0.44796   0.46276   0.46448   0.47503
 Alpha virt. eigenvalues --    0.47779   0.48727   0.49568   0.50490   0.50822
 Alpha virt. eigenvalues --    0.51705   0.52302   0.52704   0.54189   0.55995
 Alpha virt. eigenvalues --    0.58390   0.59240   0.60214   0.61463   0.62067
 Alpha virt. eigenvalues --    0.63990   0.64672   0.66067   0.69790   0.71465
 Alpha virt. eigenvalues --    0.72690   0.74144   0.75422   0.77872   0.79393
 Alpha virt. eigenvalues --    0.80269   0.82625   0.84278   0.86216   0.87003
 Alpha virt. eigenvalues --    0.87089   0.87901   0.91516   0.92855   0.95095
 Alpha virt. eigenvalues --    0.95686   0.95832   0.96963   0.99766   1.01003
 Alpha virt. eigenvalues --    1.01428   1.04128   1.04616   1.08000   1.08479
 Alpha virt. eigenvalues --    1.09251   1.10925   1.13634   1.14307   1.16295
 Alpha virt. eigenvalues --    1.20028   1.21787   1.23210   1.28304   1.30542
 Alpha virt. eigenvalues --    1.30697   1.32044   1.33871   1.34628   1.35994
 Alpha virt. eigenvalues --    1.39046   1.39538   1.40749   1.40968   1.44144
 Alpha virt. eigenvalues --    1.46124   1.46809   1.47984   1.48384   1.49193
 Alpha virt. eigenvalues --    1.49600   1.51404   1.52758   1.56578   1.60472
 Alpha virt. eigenvalues --    1.61854   1.65211   1.65927   1.66002   1.68247
 Alpha virt. eigenvalues --    1.70327   1.72068   1.74327   1.76362   1.77068
 Alpha virt. eigenvalues --    1.78049   1.81205   1.81830   1.82356   1.86140
 Alpha virt. eigenvalues --    1.87070   1.90820   1.91642   1.93432   1.94472
 Alpha virt. eigenvalues --    1.96675   1.96872   1.98884   2.00117   2.03576
 Alpha virt. eigenvalues --    2.09907   2.11934   2.14941   2.15730   2.19672
 Alpha virt. eigenvalues --    2.26402   2.29568   2.35520   2.38610   2.39867
 Alpha virt. eigenvalues --    2.41285   2.42164   2.45748   2.48387   2.49067
 Alpha virt. eigenvalues --    2.51552   2.53105   2.54378   2.56695   2.57647
 Alpha virt. eigenvalues --    2.59629   2.60103   2.61327   2.62833   2.65290
 Alpha virt. eigenvalues --    2.66696   2.70082   2.73925   2.78910   2.88384
 Alpha virt. eigenvalues --    2.92804   2.93354   2.94932   2.97002   2.97960
 Alpha virt. eigenvalues --    2.98630   2.98955   3.01044   3.05792   3.06259
 Alpha virt. eigenvalues --    3.07467   3.09186   3.10516   3.11115   3.11638
 Alpha virt. eigenvalues --    3.20572   3.21286   3.29994   3.33194   3.36168
 Alpha virt. eigenvalues --    3.37930   3.44192   3.47886   3.50617   3.54506
 Alpha virt. eigenvalues --    3.66892   3.67961   3.70639   3.79049   3.80868
 Alpha virt. eigenvalues --    3.82754   3.88057   3.96139   4.01274   4.03480
 Alpha virt. eigenvalues --    4.07066   4.08787   4.29387   4.65535   4.92398
 Alpha virt. eigenvalues --    4.93755   4.95459   4.96872   5.34943   5.37318
 Alpha virt. eigenvalues --    5.42473   5.44829   5.63629   5.70714   5.72168
 Alpha virt. eigenvalues --    5.73513  23.45116  23.70058  23.72418  23.82437
 Alpha virt. eigenvalues --   23.85223  23.91201  23.99630  24.05583  49.86104
 Alpha virt. eigenvalues --   49.87640  49.88858  49.90837
          Condensed to atoms (all electrons):
               1          2          3          4          5          6
     1  C    9.220126   0.116610  -1.689477   0.673936  -1.336010  -1.537170
     2  C    0.116610   7.114478   0.390593  -0.530685  -1.709938   0.855007
     3  C   -1.689477   0.390593  10.198404  -1.108528   0.037867   0.573558
     4  C    0.673936  -0.530685  -1.108528   9.119120  -0.822301  -2.436739
     5  C   -1.336010  -1.709938   0.037867  -0.822301  18.592954  -3.953598
     6  C   -1.537170   0.855007   0.573558  -2.436739  -3.953598  15.014255
     7  O   -0.062262  -0.004349   0.020319  -0.026199   0.090358   0.133126
     8  C    0.333272  -0.053186  -1.990860   0.730823  -6.267747   0.212878
     9  C    0.255139  -0.129190  -0.269908  -0.673907  -0.648531  -0.717046
    10  O    0.005462  -0.002642   0.055944   0.119470   0.100170  -0.193592
    11  O    0.026565   0.078471   0.155967   0.174793   0.001975  -0.082381
    12  O   -0.188662   0.254234  -0.017329  -0.004461   0.026288   0.032699
    13  H    0.395898   0.135982  -0.018741  -0.006027  -0.045250  -0.105782
    14  H   -0.031346   0.023495   0.401417  -0.024749  -0.009537  -0.015696
    15  H   -0.178929  -0.014063   0.005753  -0.021405   0.017494   0.188160
    16  H   -0.003652  -0.000210   0.003286   0.041037  -0.000942  -0.056852
    17  H   -0.004199  -0.000319   0.003341   0.041594  -0.002630  -0.057397
    18  H    0.003071   0.000185  -0.002660  -0.025029   0.016918   0.030184
    19  H    0.001344  -0.000864  -0.013009  -0.025898  -0.167783   0.006776
    20  H    0.011824  -0.060504  -0.244483   0.196798   0.024499  -0.030943
    21  H    0.045929   0.078234  -0.118877   0.022475  -0.009997  -0.009759
               7          8          9         10         11         12
     1  C   -0.062262   0.333272   0.255139   0.005462   0.026565  -0.188662
     2  C   -0.004349  -0.053186  -0.129190  -0.002642   0.078471   0.254234
     3  C    0.020319  -1.990860  -0.269908   0.055944   0.155967  -0.017329
     4  C   -0.026199   0.730823  -0.673907   0.119470   0.174793  -0.004461
     5  C    0.090358  -6.267747  -0.648531   0.100170   0.001975   0.026288
     6  C    0.133126   0.212878  -0.717046  -0.193592  -0.082381   0.032699
     7  O    8.059001  -0.216434   0.004040   0.000303  -0.000930  -0.001263
     8  C   -0.216434  13.211064  -0.290383   0.302210  -0.397907   0.004441
     9  C    0.004040  -0.290383   7.994427  -0.331504  -0.001333   0.000056
    10  O    0.000303   0.302210  -0.331504   7.772798   0.063604  -0.000047
    11  O   -0.000930  -0.397907  -0.001333   0.063604   8.097531  -0.001966
    12  O   -0.001263   0.004441   0.000056  -0.000047  -0.001966   7.840456
    13  H   -0.010481   0.012906   0.000224   0.000012   0.000052  -0.006114
    14  H    0.000066   0.017778  -0.000430   0.000003  -0.010799  -0.006093
    15  H    0.230246   0.035510  -0.009550  -0.000677  -0.000116   0.000146
    16  H   -0.006804   0.030643   0.350752   0.006554  -0.000210  -0.000002
    17  H   -0.006906   0.036025   0.347834   0.006457  -0.000161  -0.000002
    18  H    0.004008  -0.069736   0.429848  -0.009008   0.000194  -0.000000
    19  H    0.000434   0.138006   0.091717   0.262914   0.004609  -0.000017
    20  H   -0.000137   0.111067   0.009004  -0.001485   0.226639   0.000535
    21  H   -0.000042   0.000180  -0.000052   0.000002  -0.000117   0.268405
              13         14         15         16         17         18
     1  C    0.395898  -0.031346  -0.178929  -0.003652  -0.004199   0.003071
     2  C    0.135982   0.023495  -0.014063  -0.000210  -0.000319   0.000185
     3  C   -0.018741   0.401417   0.005753   0.003286   0.003341  -0.002660
     4  C   -0.006027  -0.024749  -0.021405   0.041037   0.041594  -0.025029
     5  C   -0.045250  -0.009537   0.017494  -0.000942  -0.002630   0.016918
     6  C   -0.105782  -0.015696   0.188160  -0.056852  -0.057397   0.030184
     7  O   -0.010481   0.000066   0.230246  -0.006804  -0.006906   0.004008
     8  C    0.012906   0.017778   0.035510   0.030643   0.036025  -0.069736
     9  C    0.000224  -0.000430  -0.009550   0.350752   0.347834   0.429848
    10  O    0.000012   0.000003  -0.000677   0.006554   0.006457  -0.009008
    11  O    0.000052  -0.010799  -0.000116  -0.000210  -0.000161   0.000194
    12  O   -0.006114  -0.006093   0.000146  -0.000002  -0.000002  -0.000000
    13  H    0.457086  -0.000054   0.004624   0.000010   0.000010  -0.000000
    14  H   -0.000054   0.480579  -0.000005   0.000000   0.000000  -0.000000
    15  H    0.004624  -0.000005   0.430848  -0.000598  -0.000615   0.000041
    16  H    0.000010   0.000000  -0.000598   0.440230  -0.018385  -0.016633
    17  H    0.000010   0.000000  -0.000615  -0.018385   0.440309  -0.016562
    18  H   -0.000000  -0.000000   0.000041  -0.016633  -0.016562   0.418359
    19  H    0.000004   0.000144   0.000006  -0.000163  -0.000205   0.000636
    20  H   -0.000006   0.005751   0.000000  -0.000005  -0.000004  -0.000006
    21  H    0.000394   0.003574  -0.000001   0.000000   0.000000   0.000000
              19         20         21
     1  C    0.001344   0.011824   0.045929
     2  C   -0.000864  -0.060504   0.078234
     3  C   -0.013009  -0.244483  -0.118877
     4  C   -0.025898   0.196798   0.022475
     5  C   -0.167783   0.024499  -0.009997
     6  C    0.006776  -0.030943  -0.009759
     7  O    0.000434  -0.000137  -0.000042
     8  C    0.138006   0.111067   0.000180
     9  C    0.091717   0.009004  -0.000052
    10  O    0.262914  -0.001485   0.000002
    11  O    0.004609   0.226639  -0.000117
    12  O   -0.000017   0.000535   0.268405
    13  H    0.000004  -0.000006   0.000394
    14  H    0.000144   0.005751   0.003574
    15  H    0.000006   0.000000  -0.000001
    16  H   -0.000163  -0.000005   0.000000
    17  H   -0.000205  -0.000004   0.000000
    18  H    0.000636  -0.000006   0.000000
    19  H    0.313486   0.001949  -0.000002
    20  H    0.001949   0.420618  -0.000003
    21  H   -0.000002  -0.000003   0.428663
 Mulliken charges:
               1
     1  C   -0.057468
     2  C   -0.541338
     3  C   -0.372577
     4  C    0.585882
     5  C    2.065740
     6  C   -1.849689
     7  O   -0.206096
     8  C    0.109450
     9  C   -0.411208
    10  O   -0.156949
    11  O   -0.334481
    12  O   -0.201306
    13  H    0.185254
    14  H    0.165901
    15  H    0.313132
    16  H    0.231943
    17  H    0.231815
    18  H    0.236193
    19  H    0.385917
    20  H    0.328892
    21  H    0.290993
 Sum of Mulliken charges =   1.00000
 Mulliken charges with hydrogens summed into heavy atoms:
               1
     1  C    0.127787
     2  C   -0.541338
     3  C   -0.206676
     4  C    0.585882
     5  C    2.065740
     6  C   -1.849689
     7  O    0.107035
     8  C    0.109450
     9  C    0.288743
    10  O    0.228968
    11  O   -0.005589
    12  O    0.089687
 Electronic spatial extent (au):  <R**2>=           2072.8642
 Charge=              1.0000 electrons
 Dipole moment (field-independent basis, Debye):
    X=              1.5657    Y=              1.6530    Z=              0.0073  Tot=              2.2768
 Quadrupole moment (field-independent basis, Debye-Ang):
   XX=            -42.8957   YY=            -36.5242   ZZ=            -70.2004
   XY=              9.1424   XZ=              0.0003   YZ=              0.0221
 Traceless Quadrupole moment (field-independent basis, Debye-Ang):
   XX=              6.9777   YY=             13.3492   ZZ=            -20.3269
   XY=              9.1424   XZ=              0.0003   YZ=              0.0221
 Octapole moment (field-independent basis, Debye-Ang**2):
  XXX=             27.4612  YYY=             13.7721  ZZZ=              0.0012  XYY=             16.1156
  XXY=             19.5837  XXZ=              0.0360  XZZ=             -5.3549  YZZ=             -0.0163
  YYZ=              0.0446  XYZ=              0.0092
 Hexadecapole moment (field-independent basis, Debye-Ang**3):
 XXXX=          -1312.9576 YYYY=           -479.2758 ZZZZ=            -75.2049 XXXY=            157.7593
 XXXZ=              0.1546 YYYX=            -14.2742 YYYZ=              0.2080 ZZZX=              0.0093
 ZZZY=              0.0168 XXYY=           -351.3902 XXZZ=           -292.3029 YYZZ=           -154.4163
 XXYZ=              0.0535 YYXZ=             -0.0492 ZZXY=              1.5162
 N-N= 7.128601112192D+02 E-N=-2.840144584551D+03  KE= 6.085638078683D+02
 Calling FoFJK, ICntrl=      2127 FMM=F ISym2X=0 I1Cent= 0 IOpClX= 0 NMat=1 NMatS=1 NMatT=0.
 ***** Axes restored to original set *****
 -------------------------------------------------------------------
 Center     Atomic                   Forces (Hartrees/Bohr)
 Number     Number              X              Y              Z
 -------------------------------------------------------------------
      1        6           0.002215024    0.002756380    0.000016656
      2        6          -0.003570420   -0.000522690   -0.000003708
      3        6           0.002392949   -0.002326461    0.000000393
      4        6           0.000684355    0.002521838    0.000038974
      5        6          -0.004137444   -0.000192963   -0.000003778
      6        6           0.001626918   -0.002769612   -0.000007311
      7        8          -0.005906840    0.004336263   -0.000014445
      8        6           0.005961290    0.010330312   -0.000042120
      9        6           0.000593740   -0.000597249   -0.000002928
     10        8          -0.010258574   -0.008932448    0.000039598
     11        8          -0.006377790   -0.003522122   -0.000055314
     12        8           0.007504630    0.004332981   -0.000000415
     13        1           0.000340082    0.000948632    0.000003373
     14        1           0.000667408   -0.000910677    0.000001690
     15        1           0.002380306    0.003520903   -0.000001438
     16        1          -0.000649825    0.001173119   -0.000775054
     17        1          -0.000647318    0.001176917    0.000780189
     18        1          -0.001701864    0.000173113    0.000005486
     19        1           0.003875988   -0.004041764    0.000003071
     20        1           0.002124911   -0.003533311    0.000012609
     21        1           0.002882474   -0.003921160    0.000004473
 -------------------------------------------------------------------
 Cartesian Forces:  Max     0.010330312 RMS     0.003287702

 GradGradGradGradGradGradGradGradGradGradGradGradGradGradGradGradGradGrad
 Berny optimization.
 FormGI is forming the generalized inverse of G from B-inverse, IUseBI=4.
 Internal  Forces:  Max     0.014434216 RMS     0.002972337
 Search for a local minimum.
 Step number   1 out of a maximum of  104
 All quantities printed in internal units (Hartrees-Bohrs-Radians)
 Mixed Optimization -- RFO/linear search
 Second derivative matrix not updated -- first step.
 ITU=  0
     Eigenvalues ---    0.00912   0.01530   0.01566   0.01711   0.01772
     Eigenvalues ---    0.01951   0.02025   0.02078   0.02112   0.02166
     Eigenvalues ---    0.02192   0.02212   0.02237   0.02447   0.02557
     Eigenvalues ---    0.02936   0.07506   0.07538   0.16000   0.16000
     Eigenvalues ---    0.16000   0.16000   0.16000   0.16000   0.16000
     Eigenvalues ---    0.16000   0.16000   0.23480   0.23491   0.25000
     Eigenvalues ---    0.25000   0.25000   0.25000   0.25000   0.25000
     Eigenvalues ---    0.25000   0.33561   0.34423   0.34424   0.34886
     Eigenvalues ---    0.35293   0.35450   0.37535   0.38420   0.41875
     Eigenvalues ---    0.43032   0.44357   0.46877   0.49265   0.50507
     Eigenvalues ---    0.52503   0.53540   0.53587   0.53631   0.56554
     Eigenvalues ---    0.58435   0.65562
 RFO step:  Lambda=-1.71985591D-03 EMin= 9.11609498D-03
 Linear search not attempted -- first point.
 Iteration  1 RMS(Cart)=  0.02757529 RMS(Int)=  0.00015533
 Iteration  2 RMS(Cart)=  0.00025394 RMS(Int)=  0.00000580
 Iteration  3 RMS(Cart)=  0.00000003 RMS(Int)=  0.00000580
 Variable       Old X    -DE/DX   Delta X   Delta X   Delta X     New X
                                 (Linear)    (Quad)   (Total)
    R1        2.64386  -0.00516   0.00000  -0.01125  -0.01125   2.63261
    R2        2.61421  -0.00628   0.00000  -0.01295  -0.01295   2.60125
    R3        2.04950  -0.00099   0.00000  -0.00279  -0.00279   2.04671
    R4        2.66241  -0.00466   0.00000  -0.01049  -0.01049   2.65193
    R5        2.52200  -0.01038   0.00000  -0.01771  -0.01771   2.50429
    R6        2.60107  -0.00615   0.00000  -0.01229  -0.01229   2.58879
    R7        2.05201  -0.00113   0.00000  -0.00317  -0.00317   2.04884
    R8        2.72383  -0.00485   0.00000  -0.01224  -0.01224   2.71159
    R9        2.57421  -0.00823   0.00000  -0.01563  -0.01563   2.55858
   R10        2.72943  -0.00656   0.00000  -0.01677  -0.01677   2.71266
   R11        2.69083  -0.00286   0.00000  -0.00679  -0.00679   2.68404
   R12        2.53777  -0.00852   0.00000  -0.01502  -0.01502   2.52274
   R13        1.83153  -0.00425   0.00000  -0.00790  -0.00790   1.82363
   R14        2.81378  -0.00300   0.00000  -0.00889  -0.00889   2.80489
   R15        2.46793  -0.01443   0.00000  -0.02196  -0.02196   2.44597
   R16        2.06621  -0.00119   0.00000  -0.00345  -0.00345   2.06276
   R17        2.06623  -0.00120   0.00000  -0.00347  -0.00347   2.06276
   R18        2.05860  -0.00154   0.00000  -0.00440  -0.00440   2.05420
   R19        1.86057  -0.00557   0.00000  -0.01100  -0.01100   1.84957
   R20        1.83069  -0.00410   0.00000  -0.00761  -0.00761   1.82308
   R21        1.83109  -0.00481   0.00000  -0.00895  -0.00895   1.82214
    A1        2.09442  -0.00103   0.00000  -0.00460  -0.00460   2.08981
    A2        2.07369   0.00034   0.00000   0.00121   0.00121   2.07490
    A3        2.11508   0.00069   0.00000   0.00340   0.00340   2.11848
    A4        2.10998   0.00119   0.00000   0.00486   0.00485   2.11483
    A5        2.03276  -0.00063   0.00000  -0.00257  -0.00257   2.03019
    A6        2.14044  -0.00056   0.00000  -0.00228  -0.00228   2.13816
    A7        2.07572  -0.00065   0.00000  -0.00266  -0.00266   2.07306
    A8        2.10455   0.00041   0.00000   0.00187   0.00187   2.10642
    A9        2.10291   0.00024   0.00000   0.00079   0.00079   2.10370
   A10        2.14743  -0.00069   0.00000  -0.00246  -0.00246   2.14497
   A11        2.10614  -0.00045   0.00000  -0.00191  -0.00191   2.10424
   A12        2.02961   0.00113   0.00000   0.00437   0.00437   2.03398
   A13        2.01314   0.00095   0.00000   0.00393   0.00393   2.01707
   A14        2.13376   0.00335   0.00000   0.01322   0.01322   2.14698
   A15        2.13628  -0.00430   0.00000  -0.01715  -0.01715   2.11914
   A16        2.12568   0.00023   0.00000   0.00094   0.00094   2.12662
   A17        2.10925   0.00133   0.00000   0.00527   0.00527   2.11452
   A18        2.04826  -0.00156   0.00000  -0.00621  -0.00621   2.04205
   A19        1.94091  -0.00030   0.00000  -0.00183  -0.00183   1.93908
   A20        2.20303  -0.00291   0.00000  -0.01156  -0.01156   2.19147
   A21        2.12943   0.00308   0.00000   0.01222   0.01222   2.14165
   A22        1.95073  -0.00017   0.00000  -0.00066  -0.00066   1.95006
   A23        1.93076  -0.00109   0.00000  -0.00710  -0.00712   1.92364
   A24        1.93079  -0.00109   0.00000  -0.00708  -0.00710   1.92369
   A25        1.89576  -0.00053   0.00000  -0.00257  -0.00258   1.89318
   A26        1.85569   0.00084   0.00000   0.00378   0.00374   1.85944
   A27        1.92553   0.00095   0.00000   0.00656   0.00655   1.93209
   A28        1.92546   0.00095   0.00000   0.00660   0.00659   1.93205
   A29        1.96168   0.00107   0.00000   0.00660   0.00660   1.96827
   A30        1.97633  -0.00087   0.00000  -0.00535  -0.00535   1.97098
   A31        1.96951  -0.00128   0.00000  -0.00790  -0.00790   1.96161
    D1       -0.00012  -0.00000   0.00000  -0.00003  -0.00003  -0.00015
    D2       -3.14140  -0.00000   0.00000  -0.00020  -0.00020   3.14158
    D3        3.14119   0.00000   0.00000   0.00012   0.00012   3.14131
    D4       -0.00010  -0.00000   0.00000  -0.00005  -0.00005  -0.00015
    D5       -0.00070   0.00001   0.00000   0.00032   0.00032  -0.00038
    D6        3.14110   0.00001   0.00000   0.00025   0.00025   3.14135
    D7        3.14118   0.00000   0.00000   0.00017   0.00017   3.14135
    D8       -0.00020   0.00000   0.00000   0.00010   0.00010  -0.00010
    D9        0.00032  -0.00000   0.00000  -0.00011  -0.00011   0.00020
   D10       -3.14077  -0.00000   0.00000  -0.00025  -0.00025  -3.14102
   D11        3.14158   0.00000   0.00000   0.00007   0.00007  -3.14154
   D12        0.00049  -0.00000   0.00000  -0.00006  -0.00006   0.00042
   D13       -3.14147   0.00000   0.00000   0.00004   0.00004  -3.14143
   D14        0.00044  -0.00000   0.00000  -0.00014  -0.00014   0.00030
   D15        0.00031  -0.00000   0.00000  -0.00003  -0.00003   0.00028
   D16       -3.14063  -0.00001   0.00000  -0.00064  -0.00064  -3.14127
   D17        3.14140   0.00000   0.00000   0.00010   0.00010   3.14150
   D18        0.00046  -0.00001   0.00000  -0.00051  -0.00050  -0.00005
   D19       -0.00106   0.00001   0.00000   0.00030   0.00030  -0.00076
   D20        3.13941   0.00001   0.00000   0.00050   0.00050   3.13991
   D21        3.13991   0.00002   0.00000   0.00088   0.00088   3.14079
   D22       -0.00280   0.00002   0.00000   0.00108   0.00108  -0.00172
   D23       -0.00402   0.00001   0.00000   0.00034   0.00034  -0.00368
   D24        3.13818  -0.00000   0.00000  -0.00023  -0.00023   3.13795
   D25        0.00125  -0.00001   0.00000  -0.00044  -0.00044   0.00081
   D26       -3.14055  -0.00001   0.00000  -0.00037  -0.00037  -3.14092
   D27       -3.13922  -0.00001   0.00000  -0.00066  -0.00066  -3.13988
   D28        0.00217  -0.00001   0.00000  -0.00059  -0.00059   0.00158
   D29        3.14158   0.00000   0.00000   0.00003   0.00003  -3.14157
   D30       -0.00052   0.00001   0.00000   0.00076   0.00076   0.00024
   D31       -0.00121   0.00001   0.00000   0.00026   0.00026  -0.00095
   D32        3.13987   0.00002   0.00000   0.00099   0.00099   3.14086
   D33       -0.00004   0.00000   0.00000   0.00011   0.00011   0.00007
   D34       -3.14143   0.00000   0.00000   0.00005   0.00005  -3.14138
   D35       -1.02608   0.00016   0.00000   0.00248   0.00246  -1.02361
   D36        1.02557  -0.00015   0.00000  -0.00166  -0.00165   1.02392
   D37        3.14131   0.00001   0.00000   0.00044   0.00044  -3.14144
   D38        2.11598   0.00015   0.00000   0.00181   0.00180   2.11778
   D39       -2.11555  -0.00016   0.00000  -0.00233  -0.00232  -2.11787
   D40        0.00018  -0.00000   0.00000  -0.00023  -0.00023  -0.00005
   D41        0.00053   0.00000   0.00000  -0.00015  -0.00016   0.00037
   D42       -3.14151   0.00001   0.00000   0.00048   0.00048  -3.14103
         Item               Value     Threshold  Converged?
 Maximum Force            0.014434     0.000450     NO 
 RMS     Force            0.002972     0.000300     NO 
 Maximum Displacement     0.100478     0.001800     NO 
 RMS     Displacement     0.027557     0.001200     NO 
 Predicted change in Energy=-8.634171D-04
 GradGradGradGradGradGradGradGradGradGradGradGradGradGradGradGradGradGrad

                          Input orientation:                          
 ---------------------------------------------------------------------
 Center     Atomic      Atomic             Coordinates (Angstroms)
 Number     Number       Type             X           Y           Z
 ---------------------------------------------------------------------
      1          6           0       -1.529332   -1.261611   -0.000055
      2          6           0       -2.267539   -0.080159   -0.000438
      3          6           0       -1.634138    1.172103    0.000104
      4          6           0       -0.265003    1.218651    0.000778
      5          6           0        0.554844    0.041016    0.000622
      6          6           0       -0.153880   -1.207307    0.000689
      7          8           0        0.581266   -2.321635    0.001344
      8          6           0        1.974449    0.086428   -0.000684
      9          6           0        2.875848   -1.092797   -0.000937
     10          8           0        2.638675    1.197350   -0.001578
     11          8           0        0.383463    2.407200    0.001688
     12          8           0       -3.586252   -0.211253   -0.001168
     13          1           0       -2.056381   -2.207798   -0.000225
     14          1           0       -2.216364    2.086708    0.000333
     15          1           0        0.021075   -3.107417    0.001145
     16          1           0        2.682309   -1.715710    0.874300
     17          1           0        2.680984   -1.716418   -0.875373
     18          1           0        3.904132   -0.740273   -0.001879
     19          1           0        2.058540    1.985639   -0.000916
     20          1           0       -0.216494    3.162680   -0.001484
     21          1           0       -4.039959    0.639570   -0.001545
 ---------------------------------------------------------------------
                    Distance matrix (angstroms):
                    1          2          3          4          5
     1  C    0.000000
     2  C    1.393118   0.000000
     3  C    2.435970   1.403338   0.000000
     4  C    2.783923   2.386851   1.369927   0.000000
     5  C    2.457769   2.824984   2.463941   1.434912   0.000000
     6  C    1.376524   2.395416   2.802277   2.428501   1.435479
     7  O    2.361838   3.624901   4.136935   3.640027   2.362799
     8  C    3.754157   4.245258   3.768368   2.509398   1.420332
     9  C    4.408413   5.242124   5.046756   3.899710   2.583136
    10  O    4.839295   5.069809   4.272888   2.903757   2.383162
    11  O    4.137507   3.635213   2.365625   1.353942   2.372383
    12  O    2.309582   1.325213   2.392577   3.615981   4.148773
    13  H    1.083075   2.138092   3.406174   3.866470   3.446108
    14  H    3.418077   2.167472   1.084199   2.135728   3.444481
    15  H    2.410553   3.795003   4.588467   4.335516   3.193359
    16  H    4.325347   5.285943   5.266442   4.249725   2.894047
    17  H    4.324326   5.284954   5.265957   4.249837   2.894204
    18  H    5.458419   6.206874   5.859149   4.606417   3.439208
    19  H    4.839159   4.794005   3.781232   2.446861   2.458183
    20  H    4.614965   3.837030   2.443791   1.944636   3.215549
    21  H    3.149243   1.912977   2.464055   3.819114   4.633625
                    6          7          8          9         10
     6  C    0.000000
     7  O    1.334979   0.000000
     8  C    2.490690   2.782038   0.000000
     9  C    3.031892   2.602913   1.484282   0.000000
    10  O    3.685206   4.076297   1.294351   2.302395   0.000000
    11  O    3.654231   4.732971   2.813757   4.296740   2.559244
    12  O    3.573976   4.671394   5.568663   6.521951   6.382309
    13  H    2.149533   2.640102   4.638002   5.056689   5.799878
    14  H    3.886435   5.221133   4.643709   6.003322   4.935825
    15  H    1.908147   0.965021   3.743838   3.494056   5.038140
    16  H    3.010920   2.354481   2.124704   1.091566   3.042201
    17  H    3.010504   2.354514   2.124742   1.091565   3.042262
    18  H    4.084800   3.679967   2.099313   1.087034   2.314253
    19  H    3.884548   4.553565   1.901072   3.185084   0.978752
    20  H    4.370437   5.542035   3.776713   5.260386   3.466196
    21  H    4.302623   5.488575   6.039790   7.129479   6.701885
                   11         12         13         14         15
    11  O    0.000000
    12  O    4.755517   0.000000
    13  H    5.220254   2.515293   0.000000
    14  H    2.619507   2.675298   4.297485   0.000000
    15  H    5.526512   4.626076   2.263876   5.655534   0.000000
    16  H    4.800473   6.505743   4.843772   6.262524   3.127525
    17  H    4.801257   6.504460   4.842516   6.262160   3.127024
    18  H    4.722469   7.509042   6.138514   6.741833   4.547693
    19  H    1.727311   6.057228   5.875159   4.276099   5.485480
    20  H    0.964732   4.768511   5.676903   2.270947   6.274597
    21  H    4.763527   0.964235   3.470171   2.328027   5.525568
                   16         17         18         19         20
    16  H    0.000000
    17  H    1.749673   0.000000
    18  H    1.792210   1.792190   0.000000
    19  H    3.854229   3.854522   3.291931   0.000000
    20  H    5.741842   5.741486   5.675615   2.561485   0.000000
    21  H    7.176582   7.175328   8.063036   6.245286   4.580936
                   21
    21  H    0.000000
 Stoichiometry    C8H9O4(1+)
 Framework group  C1[X(C8H9O4)]
 Deg. of freedom    57
 Full point group                 C1      NOp   1
 Largest Abelian subgroup         C1      NOp   1
 Largest concise Abelian subgroup C1      NOp   1
                         Standard orientation:                         
 ---------------------------------------------------------------------
 Center     Atomic      Atomic             Coordinates (Angstroms)
 Number     Number       Type             X           Y           Z
 ---------------------------------------------------------------------
      1          6           0        1.526412   -1.271470    0.000023
      2          6           0        2.270332   -0.093608    0.000406
      3          6           0        1.643004    1.161708   -0.000136
      4          6           0        0.274110    1.214885   -0.000811
      5          6           0       -0.551431    0.041235   -0.000655
      6          6           0        0.151239   -1.210506   -0.000722
      7          8           0       -0.589295   -2.321261   -0.001376
      8          6           0       -1.970800    0.093522    0.000652
      9          6           0       -2.877899   -1.081324    0.000905
     10          8           0       -2.629637    1.207648    0.001545
     11          8           0       -0.368593    2.406562   -0.001720
     12          8           0        3.588394   -0.231087    0.001135
     13          1           0        2.048872   -2.220199    0.000193
     14          1           0        2.229652    2.073482   -0.000366
     15          1           0       -0.032917   -3.109746   -0.001178
     16          1           0       -2.687380   -1.705167   -0.874332
     17          1           0       -2.686058   -1.705882    0.875341
     18          1           0       -3.904464   -0.723824    0.001847
     19          1           0       -2.045692    1.993118    0.000884
     20          1           0        0.235016    3.159127    0.001452
     21          1           0        4.046216    0.617529    0.001513
 ---------------------------------------------------------------------
 Rotational constants (GHZ):      1.5352651      0.7667369      0.5129584
 Standard basis: 6-311+G(d,p) (5D, 7F)
 There are   330 symmetry adapted cartesian basis functions of A   symmetry.
 There are   318 symmetry adapted basis functions of A   symmetry.
   318 basis functions,   504 primitive gaussians,   330 cartesian basis functions
    44 alpha electrons       44 beta electrons
       nuclear repulsion energy       716.4847561108 Hartrees.
 NAtoms=   21 NActive=   21 NUniq=   21 SFac= 1.00D+00 NAtFMM=   60 NAOKFM=F Big=F
 Integral buffers will be    131072 words long.
 Raffenetti 2 integral format.
 Two-electron integral symmetry is turned on.
 One-electron integrals computed using PRISM.
 NBasis=   318 RedAO= T EigKep=  3.20D-06  NBF=   318
 NBsUse=   317 1.00D-06 EigRej=  8.66D-07 NBFU=   317
 Initial guess from the checkpoint file:  "m062x6311THAPyang.chk"
 B after Tr=     0.000000    0.000000    0.000000
         Rot=    0.999995   -0.000015   -0.000013    0.003070 Ang=  -0.35 deg.
 ExpMin= 4.38D-02 ExpMax= 8.59D+03 ExpMxC= 1.30D+03 IAcc=2 IRadAn=         4 AccDes= 0.00D+00
 Harris functional with IExCor= 1009 and IRadAn=       4 diagonalized for initial guess.
 HarFok:  IExCor= 1009 AccDes= 0.00D+00 IRadAn=         4 IDoV= 1 UseB2=F ITyADJ=14
 ICtDFT=  3500011 ScaDFX=  1.000000  1.000000  1.000000  1.000000
 FoFCou: FMM=F IPFlag=           0 FMFlag=      100000 FMFlg1=           0
         NFxFlg=           0 DoJE=T BraDBF=F KetDBF=T FulRan=T
         wScrn=  0.000000 ICntrl=     500 IOpCl=  0 I1Cent=   200000004 NGrid=           0
         NMat0=    1 NMatS0=      1 NMatT0=    0 NMatD0=    1 NMtDS0=    0 NMtDT0=    0
 Petite list used in FoFCou.
 Requested convergence on RMS density matrix=1.00D-08 within 128 cycles.
 Requested convergence on MAX density matrix=1.00D-06.
 Requested convergence on             energy=1.00D-06.
 No special actions if energy rises.
 SCF Done:  E(RM062X) =  -610.864408762     A.U. after   12 cycles
            NFock= 12  Conv=0.39D-08     -V/T= 2.0033
 Calling FoFJK, ICntrl=      2127 FMM=F ISym2X=0 I1Cent= 0 IOpClX= 0 NMat=1 NMatS=1 NMatT=0.
 ***** Axes restored to original set *****
 -------------------------------------------------------------------
 Center     Atomic                   Forces (Hartrees/Bohr)
 Number     Number              X              Y              Z
 -------------------------------------------------------------------
      1        6           0.000278137   -0.000876051    0.000010195
      2        6          -0.002033276   -0.000622556   -0.000007443
      3        6          -0.000560974   -0.000530065    0.000006485
      4        6           0.002260807    0.003134261   -0.000011651
      5        6          -0.000854903    0.000764150   -0.000013768
      6        6           0.001478571   -0.001513943   -0.000001246
      7        8          -0.003841088   -0.001350433   -0.000003767
      8        6           0.001345369    0.001873606    0.000050386
      9        6           0.002312696   -0.000656490   -0.000022716
     10        8          -0.004338957    0.001681955    0.000012859
     11        8           0.001470261   -0.002328104   -0.000019035
     12        8           0.000512745    0.001107702   -0.000000229
     13        1          -0.000155007    0.000085520    0.000001507
     14        1          -0.000093377    0.000060034    0.000000183
     15        1           0.000159649   -0.000301238    0.000000045
     16        1           0.000580422    0.000301668   -0.000336951
     17        1           0.000579526    0.000292923    0.000336412
     18        1          -0.000037989    0.000164153    0.000000196
     19        1           0.001153055   -0.000834992   -0.000014162
     20        1           0.000343370   -0.000113400    0.000010311
     21        1          -0.000559038   -0.000338700    0.000002388
 -------------------------------------------------------------------
 Cartesian Forces:  Max     0.004338957 RMS     0.001188227

 GradGradGradGradGradGradGradGradGradGradGradGradGradGradGradGradGradGrad
 Berny optimization.
 Using GEDIIS/GDIIS optimizer.
 FormGI is forming the generalized inverse of G from B-inverse, IUseBI=4.
 Internal  Forces:  Max     0.011847195 RMS     0.002403632
 Search for a local minimum.
 Step number   2 out of a maximum of  104
 All quantities printed in internal units (Hartrees-Bohrs-Radians)
 Mixed Optimization -- RFO/linear search
 Update second derivatives using D2CorX and points    1    2
 DE= -5.03D-04 DEPred=-8.63D-04 R= 5.83D-01
 TightC=F SS=  1.41D+00  RLast= 6.38D-02 DXNew= 5.0454D-01 1.9149D-01
 Trust test= 5.83D-01 RLast= 6.38D-02 DXMaxT set to 3.00D-01
 ITU=  1  0
 Use linear search instead of GDIIS.
     Eigenvalues ---    0.00912   0.01538   0.01566   0.01710   0.01772
     Eigenvalues ---    0.01952   0.02026   0.02077   0.02111   0.02165
     Eigenvalues ---    0.02192   0.02212   0.02237   0.02447   0.02557
     Eigenvalues ---    0.02936   0.07582   0.07600   0.15371   0.16000
     Eigenvalues ---    0.16000   0.16000   0.16000   0.16000   0.16000
     Eigenvalues ---    0.16000   0.16051   0.22813   0.23500   0.24304
     Eigenvalues ---    0.25000   0.25000   0.25000   0.25000   0.25000
     Eigenvalues ---    0.26714   0.33784   0.34423   0.34513   0.34975
     Eigenvalues ---    0.35335   0.35495   0.37792   0.38744   0.41948
     Eigenvalues ---    0.43666   0.45672   0.46890   0.49682   0.51193
     Eigenvalues ---    0.53033   0.53557   0.53612   0.55193   0.57429
     Eigenvalues ---    0.62790   0.77021
 RFO step:  Lambda=-8.86831620D-04 EMin= 9.11610021D-03
 Quartic linear search produced a step of -0.29401.
 Iteration  1 RMS(Cart)=  0.03689282 RMS(Int)=  0.00030275
 Iteration  2 RMS(Cart)=  0.00054060 RMS(Int)=  0.00000212
 Iteration  3 RMS(Cart)=  0.00000004 RMS(Int)=  0.00000212
 Variable       Old X    -DE/DX   Delta X   Delta X   Delta X     New X
                                 (Linear)    (Quad)   (Total)
    R1        2.63261   0.00132   0.00331  -0.00710  -0.00380   2.62881
    R2        2.60125   0.00155   0.00381  -0.00818  -0.00437   2.59688
    R3        2.04671   0.00000   0.00082  -0.00228  -0.00146   2.04525
    R4        2.65193   0.00052   0.00308  -0.00783  -0.00474   2.64718
    R5        2.50429  -0.00003   0.00521  -0.01445  -0.00924   2.49505
    R6        2.58879   0.00109   0.00361  -0.00858  -0.00496   2.58382
    R7        2.04884   0.00010   0.00093  -0.00239  -0.00146   2.04738
    R8        2.71159  -0.00184   0.00360  -0.01332  -0.00972   2.70187
    R9        2.55858  -0.00127   0.00459  -0.01443  -0.00984   2.54874
   R10        2.71266   0.00484   0.00493  -0.00485   0.00008   2.71274
   R11        2.68404   0.00168   0.00200  -0.00271  -0.00072   2.68332
   R12        2.52274  -0.00065   0.00442  -0.01304  -0.00862   2.51412
   R13        1.82363   0.00015   0.00232  -0.00623  -0.00391   1.81972
   R14        2.80489   0.00201   0.00262  -0.00307  -0.00045   2.80444
   R15        2.44597  -0.00091   0.00646  -0.01883  -0.01237   2.43359
   R16        2.06276  -0.00054   0.00101  -0.00393  -0.00292   2.05984
   R17        2.06276  -0.00054   0.00102  -0.00394  -0.00292   2.05984
   R18        2.05420   0.00002   0.00129  -0.00356  -0.00227   2.05193
   R19        1.84957  -0.00136   0.00323  -0.01085  -0.00762   1.84196
   R20        1.82308  -0.00030   0.00224  -0.00660  -0.00436   1.81872
   R21        1.82214  -0.00003   0.00263  -0.00734  -0.00470   1.81744
    A1        2.08981   0.00110   0.00135  -0.00002   0.00134   2.09115
    A2        2.07490  -0.00073  -0.00035  -0.00170  -0.00206   2.07284
    A3        2.11848  -0.00037  -0.00100   0.00172   0.00072   2.11920
    A4        2.11483  -0.00052  -0.00143   0.00235   0.00092   2.11576
    A5        2.03019   0.00064   0.00076  -0.00023   0.00052   2.03071
    A6        2.13816  -0.00012   0.00067  -0.00211  -0.00144   2.13672
    A7        2.07306   0.00006   0.00078  -0.00253  -0.00175   2.07131
    A8        2.10642  -0.00008  -0.00055   0.00151   0.00096   2.10739
    A9        2.10370   0.00001  -0.00023   0.00102   0.00079   2.10449
   A10        2.14497   0.00113   0.00072   0.00080   0.00152   2.14650
   A11        2.10424   0.00315   0.00056   0.00748   0.00804   2.11228
   A12        2.03398  -0.00428  -0.00128  -0.00828  -0.00957   2.02441
   A13        2.01707   0.00005  -0.00116   0.00343   0.00227   2.01935
   A14        2.14698  -0.01185  -0.00389  -0.02249  -0.02637   2.12060
   A15        2.11914   0.01180   0.00504   0.01906   0.02410   2.14324
   A16        2.12662  -0.00183  -0.00028  -0.00403  -0.00431   2.12231
   A17        2.11452  -0.00384  -0.00155  -0.00663  -0.00818   2.10634
   A18        2.04205   0.00566   0.00182   0.01066   0.01249   2.05454
   A19        1.93908   0.00055   0.00054   0.00090   0.00144   1.94052
   A20        2.19147   0.00851   0.00340   0.01444   0.01784   2.20931
   A21        2.14165  -0.00773  -0.00359  -0.01169  -0.01528   2.12637
   A22        1.95006  -0.00079   0.00020  -0.00275  -0.00256   1.94750
   A23        1.92364   0.00053   0.00209  -0.00315  -0.00106   1.92258
   A24        1.92369   0.00054   0.00209  -0.00308  -0.00099   1.92270
   A25        1.89318  -0.00056   0.00076  -0.00552  -0.00476   1.88842
   A26        1.85944  -0.00005  -0.00110   0.00465   0.00356   1.86299
   A27        1.93209  -0.00022  -0.00193   0.00360   0.00167   1.93375
   A28        1.93205  -0.00022  -0.00194   0.00365   0.00171   1.93376
   A29        1.96827   0.00080  -0.00194   0.00899   0.00705   1.97532
   A30        1.97098   0.00036   0.00157  -0.00284  -0.00127   1.96971
   A31        1.96161   0.00119   0.00232  -0.00135   0.00097   1.96258
    D1       -0.00015  -0.00000   0.00001  -0.00001  -0.00000  -0.00015
    D2        3.14158   0.00000   0.00006  -0.00016  -0.00010   3.14148
    D3        3.14131   0.00000  -0.00004   0.00014   0.00010   3.14141
    D4       -0.00015   0.00000   0.00002  -0.00001   0.00001  -0.00014
    D5       -0.00038   0.00000  -0.00009   0.00044   0.00034  -0.00004
    D6        3.14135   0.00000  -0.00007   0.00025   0.00017   3.14153
    D7        3.14135   0.00000  -0.00005   0.00028   0.00023   3.14158
    D8       -0.00010   0.00000  -0.00003   0.00010   0.00007  -0.00003
    D9        0.00020  -0.00000   0.00003  -0.00012  -0.00009   0.00011
   D10       -3.14102   0.00000   0.00007  -0.00028  -0.00021  -3.14123
   D11       -3.14154  -0.00000  -0.00002   0.00003   0.00001  -3.14153
   D12        0.00042  -0.00000   0.00002  -0.00013  -0.00011   0.00031
   D13       -3.14143  -0.00000  -0.00001  -0.00003  -0.00004  -3.14147
   D14        0.00030  -0.00000   0.00004  -0.00018  -0.00014   0.00016
   D15        0.00028  -0.00000   0.00001  -0.00016  -0.00015   0.00012
   D16       -3.14127   0.00000   0.00019  -0.00065  -0.00046   3.14145
   D17        3.14150  -0.00000  -0.00003  -0.00000  -0.00003   3.14147
   D18       -0.00005   0.00000   0.00015  -0.00049  -0.00034  -0.00039
   D19       -0.00076   0.00001  -0.00009   0.00054   0.00046  -0.00030
   D20        3.13991   0.00002  -0.00015   0.00094   0.00079   3.14070
   D21        3.14079   0.00000  -0.00026   0.00101   0.00075   3.14154
   D22       -0.00172   0.00001  -0.00032   0.00141   0.00108  -0.00064
   D23       -0.00368   0.00001  -0.00010   0.00052   0.00042  -0.00326
   D24        3.13795   0.00001   0.00007   0.00007   0.00013   3.13809
   D25        0.00081  -0.00001   0.00013  -0.00068  -0.00055   0.00026
   D26       -3.14092  -0.00000   0.00011  -0.00050  -0.00039  -3.14131
   D27       -3.13988  -0.00000   0.00019  -0.00105  -0.00086  -3.14074
   D28        0.00158  -0.00000   0.00017  -0.00087  -0.00070   0.00088
   D29       -3.14157   0.00000  -0.00001   0.00017   0.00016  -3.14141
   D30        0.00024  -0.00001  -0.00022   0.00052   0.00029   0.00053
   D31       -0.00095   0.00001  -0.00008   0.00058   0.00050  -0.00045
   D32        3.14086  -0.00000  -0.00029   0.00093   0.00064   3.14149
   D33        0.00007   0.00000  -0.00003   0.00018   0.00014   0.00022
   D34       -3.14138  -0.00000  -0.00001  -0.00000  -0.00002  -3.14140
   D35       -1.02361  -0.00030  -0.00072  -0.00085  -0.00157  -1.02518
   D36        1.02392   0.00029   0.00048   0.00108   0.00156   1.02548
   D37       -3.14144  -0.00000  -0.00013   0.00017   0.00004  -3.14140
   D38        2.11778  -0.00029  -0.00053  -0.00116  -0.00169   2.11609
   D39       -2.11787   0.00029   0.00068   0.00076   0.00143  -2.11643
   D40       -0.00005   0.00000   0.00007  -0.00015  -0.00008  -0.00013
   D41        0.00037  -0.00001   0.00005  -0.00025  -0.00020   0.00017
   D42       -3.14103  -0.00002  -0.00014   0.00005  -0.00009  -3.14112
         Item               Value     Threshold  Converged?
 Maximum Force            0.011847     0.000450     NO 
 RMS     Force            0.002404     0.000300     NO 
 Maximum Displacement     0.125103     0.001800     NO 
 RMS     Displacement     0.036864     0.001200     NO 
 Predicted change in Energy=-5.509353D-04
 GradGradGradGradGradGradGradGradGradGradGradGradGradGradGradGradGradGrad

                          Input orientation:                          
 ---------------------------------------------------------------------
 Center     Atomic      Atomic             Coordinates (Angstroms)
 Number     Number       Type             X           Y           Z
 ---------------------------------------------------------------------
      1          6           0       -1.544744   -1.264195    0.000105
      2          6           0       -2.268486   -0.076180   -0.000115
      3          6           0       -1.623257    1.167201    0.000085
      4          6           0       -0.256283    1.197057    0.000367
      5          6           0        0.548115    0.015034    0.000319
      6          6           0       -0.171028   -1.227366    0.000343
      7          8           0        0.538311   -2.352909    0.000628
      8          6           0        1.966451    0.082780   -0.000461
      9          6           0        2.906790   -1.065326   -0.000807
     10          8           0        2.592707    1.208052   -0.000580
     11          8           0        0.413458    2.367756    0.000404
     12          8           0       -3.583786   -0.191225   -0.000465
     13          1           0       -2.084016   -2.202579    0.000111
     14          1           0       -2.194648    2.087705    0.000246
     15          1           0       -0.035778   -3.126019    0.000442
     16          1           0        2.734436   -1.692243    0.874074
     17          1           0        2.733786   -1.692408   -0.875441
     18          1           0        3.919682   -0.674071   -0.001215
     19          1           0        1.996306    1.979017    0.000066
     20          1           0       -0.170700    3.132617   -0.002674
     21          1           0       -4.027073    0.662269   -0.000710
 ---------------------------------------------------------------------
                    Distance matrix (angstroms):
                    1          2          3          4          5
     1  C    0.000000
     2  C    1.391108   0.000000
     3  C    2.432664   1.400828   0.000000
     4  C    2.778110   2.381197   1.367300   0.000000
     5  C    2.452853   2.818078   2.458118   1.429768   0.000000
     6  C    1.374209   2.392605   2.800521   2.425922   1.435523
     7  O    2.350408   3.614084   4.130805   3.637807   2.367964
     8  C    3.760696   4.237919   3.749929   2.486395   1.419953
     9  C    4.455974   5.268955   5.050297   3.888883   2.594325
    10  O    4.819804   5.027967   4.216162   2.849011   2.367202
    11  O    4.126212   3.628450   2.364221   1.348736   2.356572
    12  O    2.304118   1.320322   2.385161   3.605497   4.137046
    13  H    1.082302   2.134385   3.401134   3.859810   3.441790
    14  H    3.414324   2.165144   1.083427   2.133193   3.437836
    15  H    2.396532   3.779749   4.577317   4.328697   3.194863
    16  H    4.388443   5.329643   5.284862   4.249214   2.908306
    17  H    4.388139   5.329270   5.284670   4.249301   2.908517
    18  H    5.496199   6.216985   5.840759   4.576004   3.441269
    19  H    4.801818   4.734161   3.709485   2.384453   2.440181
    20  H    4.606513   3.833679   2.443929   1.937453   3.199379
    21  H    3.142169   1.907338   2.456276   3.808525   4.620743
                    6          7          8          9         10
     6  C    0.000000
     7  O    1.330417   0.000000
     8  C    2.507050   2.823502   0.000000
     9  C    3.082081   2.695842   1.484043   0.000000
    10  O    3.683679   4.111081   1.287802   2.294972   0.000000
    11  O    3.642324   4.722316   2.762771   4.242966   2.468611
    12  O    3.566582   4.654521   5.556996   6.549170   6.333012
    13  H    2.147222   2.626632   4.650714   5.118739   5.788276
    14  H    3.883906   5.214222   4.618925   5.997188   4.867500
    15  H    1.903465   0.962952   3.782237   3.592376   5.068837
    16  H    3.069404   2.454049   2.122574   1.090022   3.032626
    17  H    3.069399   2.454358   2.122660   1.090021   3.032813
    18  H    4.127960   3.775205   2.094740   1.085832   2.302879
    19  H    3.870171   4.570704   1.896472   3.177579   0.974721
    20  H    4.359984   5.531158   3.724100   5.205158   3.367546
    21  H    4.294160   5.471201   6.021473   7.145841   6.642241
                   11         12         13         14         15
    11  O    0.000000
    12  O    4.746193   0.000000
    13  H    5.208199   2.508955   0.000000
    14  H    2.623099   2.668937   4.291709   0.000000
    15  H    5.512112   4.604496   2.246780   5.643016   0.000000
    16  H    4.757503   6.552695   4.923590   6.272755   3.239295
    17  H    4.757726   6.552164   4.923219   6.272602   3.239275
    18  H    4.641802   7.518988   6.195218   6.709131   4.653786
    19  H    1.629885   5.987267   5.842496   4.192363   5.494612
    20  H    0.962425   4.764146   5.667901   2.277766   6.260091
    21  H    4.756785   0.961746   3.461622   2.321562   5.502869
                   16         17         18         19         20
    16  H    0.000000
    17  H    1.749514   0.000000
    18  H    1.790981   1.790985   0.000000
    19  H    3.845371   3.845744   3.276928   0.000000
    20  H    5.699805   5.699002   5.587674   2.454936   0.000000
    21  H    7.212974   7.212412   8.058333   6.165624   4.579764
                   21
    21  H    0.000000
 Stoichiometry    C8H9O4(1+)
 Framework group  C1[X(C8H9O4)]
 Deg. of freedom    57
 Full point group                 C1      NOp   1
 Largest Abelian subgroup         C1      NOp   1
 Largest concise Abelian subgroup C1      NOp   1
                         Standard orientation:                         
 ---------------------------------------------------------------------
 Center     Atomic      Atomic             Coordinates (Angstroms)
 Number     Number       Type             X           Y           Z
 ---------------------------------------------------------------------
      1          6           0        1.546986   -1.256751   -0.000174
      2          6           0        2.267580   -0.066823    0.000045
      3          6           0        1.619060    1.174845   -0.000154
      4          6           0        0.252011    1.201081   -0.000436
      5          6           0       -0.549254    0.016931   -0.000389
      6          6           0        0.173178   -1.223560   -0.000413
      7          8           0       -0.533178   -2.350978   -0.000698
      8          6           0       -1.967763    0.080920    0.000392
      9          6           0       -2.905058   -1.069672    0.000738
     10          8           0       -2.596998    1.204530    0.000510
     11          8           0       -0.420828    2.370001   -0.000474
     12          8           0        3.583180   -0.178384    0.000396
     13          1           0        2.088742   -2.193703   -0.000180
     14          1           0        2.188011    2.096858   -0.000316
     15          1           0        0.042957   -3.122565   -0.000512
     16          1           0       -2.731045   -1.696131   -0.874143
     17          1           0       -2.730395   -1.696294    0.875371
     18          1           0       -3.918984   -0.681102    0.001146
     19          1           0       -2.002640    1.977071   -0.000136
     20          1           0        0.161302    3.136407    0.002604
     21          1           0        4.024205    0.676281    0.000640
 ---------------------------------------------------------------------
 Rotational constants (GHZ):      1.5432692      0.7692722      0.5149858
 Standard basis: 6-311+G(d,p) (5D, 7F)
 There are   330 symmetry adapted cartesian basis functions of A   symmetry.
 There are   318 symmetry adapted basis functions of A   symmetry.
   318 basis functions,   504 primitive gaussians,   330 cartesian basis functions
    44 alpha electrons       44 beta electrons
       nuclear repulsion energy       718.1177410886 Hartrees.
 NAtoms=   21 NActive=   21 NUniq=   21 SFac= 1.00D+00 NAtFMM=   60 NAOKFM=F Big=F
 Integral buffers will be    131072 words long.
 Raffenetti 2 integral format.
 Two-electron integral symmetry is turned on.
 One-electron integrals computed using PRISM.
 NBasis=   318 RedAO= T EigKep=  3.11D-06  NBF=   318
 NBsUse=   317 1.00D-06 EigRej=  8.75D-07 NBFU=   317
 Initial guess from the checkpoint file:  "m062x6311THAPyang.chk"
 B after Tr=    -0.000000    0.000000   -0.000000
         Rot=    0.999988   -0.000010   -0.000009   -0.004810 Ang=  -0.55 deg.
 ExpMin= 4.38D-02 ExpMax= 8.59D+03 ExpMxC= 1.30D+03 IAcc=2 IRadAn=         4 AccDes= 0.00D+00
 Harris functional with IExCor= 1009 and IRadAn=       4 diagonalized for initial guess.
 HarFok:  IExCor= 1009 AccDes= 0.00D+00 IRadAn=         4 IDoV= 1 UseB2=F ITyADJ=14
 ICtDFT=  3500011 ScaDFX=  1.000000  1.000000  1.000000  1.000000
 FoFCou: FMM=F IPFlag=           0 FMFlag=      100000 FMFlg1=           0
         NFxFlg=           0 DoJE=T BraDBF=F KetDBF=T FulRan=T
         wScrn=  0.000000 ICntrl=     500 IOpCl=  0 I1Cent=   200000004 NGrid=           0
         NMat0=    1 NMatS0=      1 NMatT0=    0 NMatD0=    1 NMtDS0=    0 NMtDT0=    0
 Petite list used in FoFCou.
 Requested convergence on RMS density matrix=1.00D-08 within 128 cycles.
 Requested convergence on MAX density matrix=1.00D-06.
 Requested convergence on             energy=1.00D-06.
[...]
 0095,0.00951156,-0.00284440,0.00000270,-0.00254528,-0.00043626,0.00000
 157,0.00364026,-0.03825954,-0.00000235,-0.06205161,-0.00679874,0.00002
 102,0.01183760,0.01900192,-0.00000135,0.00062414,-0.00614586,0.0000010
 7,-0.13002603,-0.37783906,0.00010109,-0.01493934,-0.06233716,0.0000123
 3,-0.03972755,0.74646314,-0.00000013,0.00000214,-0.00156518,-0.0000025
 6,-0.00000266,0.00017283,0.00000384,0.00000220,0.00003432,-0.00000516,
 0.00000580,-0.00335300,0.00002162,0.00002332,0.01891384,0.00000719,-0.
 00000749,0.00860231,-0.00000205,0.00000204,0.00008924,0.00007931,0.000
 09674,-0.05973457,-0.00000099,0.00000578,0.01029938,-0.00015964,-0.000
 07304,0.05061590,0.01032584,-0.00805294,0.00000044,-0.00530261,0.02017
 681,-0.00000784,-0.03610540,-0.06196735,-0.00002565,-0.17388220,-0.058
 01556,-0.00013907,0.03279061,0.01678992,0.00000788,-0.01851761,-0.0033
 0014,0.00000386,0.00385748,0.00033118,0.00000096,-0.02088897,-0.014786
 85,0.00001258,0.00095075,0.00152966,-0.00000023,-0.01709256,0.03282738
 ,-0.00000264,0.46613469,0.00597353,-0.00770233,-0.00000101,0.00369094,
 0.01475115,0.00000403,-0.02859080,-0.01966900,-0.00002919,-0.11053948,
 -0.27342698,-0.00003529,-0.00070710,-0.04682123,-0.00000087,-0.0037169
 9,-0.00388339,0.00000284,0.00008796,-0.00299296,-0.00000009,-0.0226685
 2,-0.00625434,0.00000721,0.00053645,-0.00224775,-0.00000100,0.01920815
 ,0.01030397,-0.00002099,-0.12785371,0.67744681,0.00000439,-0.00000586,
 -0.00170168,0.00000148,0.00001154,0.01077266,-0.00002183,-0.00001083,0
 .01240230,-0.00007822,0.00007418,-0.04330839,0.00003498,0.00001276,0.0
 0319971,-0.00001311,0.00000462,0.00299777,0.00000052,0.00000505,0.0003
 3206,0.00000406,0.00000329,-0.00108670,0.00000034,-0.00000369,0.000277
 89,-0.00002128,-0.00000919,0.00289972,0.00093578,-0.00103542,0.0238843
 0,-0.06510010,0.02092093,-0.00001164,-0.37825154,-0.05066121,-0.000038
 00,-0.04898880,-0.01769267,-0.00000202,0.01398812,-0.00464885,-0.00000
 279,-0.02313728,-0.00160324,0.00000159,0.02171067,0.00624069,0.0000014
 2,-0.00376885,0.00289988,-0.00000102,0.02004597,0.00460565,-0.00000480
 ,-0.00059566,0.00251881,-0.00000034,-0.00594208,-0.00931819,0.00000271
 ,-0.00120839,-0.00189480,0.00000118,0.60822546,0.05263390,0.00790790,0
 .00000640,-0.00268254,-0.12283854,0.00000459,-0.04827553,0.00129748,-0
 .00000421,0.00871343,-0.00759756,-0.00000229,-0.00070528,0.00415858,0.
 00000108,-0.00731988,-0.00872228,0.00000019,0.00425542,-0.00157548,0.0
 0000097,-0.00019235,0.00037615,0.00000040,-0.00000594,0.00011443,-0.00
 000049,0.00005205,0.00091927,0.00000006,-0.00415734,-0.00122587,0.0000
 0014,-0.16533827,0.55565795,-0.00001442,0.00000451,0.00782449,-0.00004
 518,-0.00000366,-0.05023002,-0.00000556,-0.00000395,0.01291467,-0.0000
 0203,-0.00000398,0.00877437,-0.00000335,-0.00000023,-0.00114075,0.0000
 0373,0.00000271,0.00514845,-0.00000067,0.00000018,-0.00078687,0.000003
 28,0.00000077,-0.00041281,-0.00000017,0.00000039,0.00010725,-0.0000008
 6,-0.00000162,0.00002002,0.00000188,0.00000092,-0.00184623,0.00009047,
 -0.00006448,0.03285517,-0.12605087,-0.12289579,-0.00000117,0.01348601,
 0.01594879,-0.00000080,-0.00195950,0.00300271,-0.00000053,-0.00134435,
 0.00066499,-0.00000006,-0.00410501,0.00177059,-0.00000128,-0.01056961,
 -0.02716163,0.00000123,0.00289193,-0.00085182,0.00000128,0.00006186,-0
 .00143877,-0.00000085,0.00005304,0.00000361,0.00000014,-0.00054320,-0.
 00015472,0.00000067,0.00053784,0.00019846,0.00000032,0.00015538,-0.000
 86543,0.00000060,0.12865921,-0.12169308,-0.27594543,0.00001107,-0.0153
 2213,-0.01918798,0.00000058,0.00353371,-0.00229919,0.00000094,0.001156
 30,-0.00007982,-0.00000035,0.00076617,0.00092331,0.00000091,0.00322513
 ,0.00292759,0.00000023,0.00098798,0.00218833,-0.00000053,0.00025441,0.
 00024704,0.00000005,0.00003855,0.00006020,-0.00000010,0.00007657,0.000
 11097,-0.00000017,-0.00021409,0.00024470,0.00000025,-0.00141698,0.0018
 2544,-0.00000079,0.12986624,0.28902214,-0.00000192,0.00001310,-0.02830
 688,0.00000456,0.00000337,0.00322854,-0.00000192,-0.00000017,0.0048280
 7,-0.00000076,0.00000014,-0.00153038,0.00000004,0.00000204,0.00595814,
 -0.00000095,-0.00000531,0.00229749,0.00000055,0.00000009,-0.00491895,-
 0.00000058,-0.00000082,0.00108703,0.,-0.00000017,-0.00010207,-0.000000
 17,0.00000025,-0.00066051,0.00000110,-0.00000074,-0.00014883,-0.000000
 53,-0.00000076,-0.00304251,0.00000057,-0.00001145,0.02049566,-0.001286
 33,-0.00302471,0.00000011,0.01083146,-0.01372978,-0.00000276,-0.139109
 96,0.12721099,0.00002661,-0.01239182,0.02793829,0.00000437,-0.00420423
 ,-0.00237332,-0.00000073,-0.00111110,-0.00076088,-0.00000026,0.0004101
 3,-0.00007893,0.00000013,-0.00009636,0.00183517,-0.00000084,-0.0003625
 7,-0.00029975,0.00000043,0.00015191,-0.00042748,-0.00000022,0.00313691
 ,0.00075091,-0.00000202,0.00225704,0.00010210,0.00000066,0.00062872,-0
 .00066227,0.00000051,0.14355250,-0.00365863,-0.00269676,-0.00000167,0.
 01832711,-0.01789106,-0.00000222,0.12765980,-0.26287531,-0.00004332,-0
 .00326008,0.00322380,0.00000078,-0.00102472,0.00100723,-0.00000162,-0.
 00137070,-0.00025991,0.00000042,0.00027620,0.00016003,0.,-0.00038394,0
 .00007332,-0.00000022,-0.00005081,0.00000936,0.00000015,0.00001192,0.0
 0035658,-0.00000007,-0.00110733,0.00210177,-0.00000220,0.00053509,0.00
 262508,0.00000161,0.00088835,-0.00081550,0.00000032,-0.13588680,0.2754
 3653,0.00000073,0.00000009,0.00427118,0.00000498,0.00000188,0.00190572
 ,0.00002819,-0.00005456,-0.02740581,-0.00000233,0.00000711,0.00317251,
 -0.00000190,-0.00000209,0.00566613,-0.00000117,0.00000039,-0.00138775,
 0.00000093,-0.00000112,-0.00010263,-0.00000108,0.00000068,0.00107978,-
 0.00000047,-0.00000045,-0.00040462,0.00000058,0.00000050,-0.00003813,0
 .00000343,-0.00000451,-0.00517661,-0.00000187,0.00000089,-0.00340991,0
 .00000008,0.00000009,0.00040504,-0.00003077,0.00004539,0.01962724,-0.0
 0069679,0.00548705,-0.00000019,-0.00048567,-0.00128257,0.00000013,0.00
 037580,0.00035359,0.00000006,0.00041680,0.00087955,-0.00000054,-0.0014
 0966,0.00379460,-0.00000038,0.01793010,0.02430904,0.00000244,-0.225891
 54,-0.25849394,-0.00004130,-0.00072250,0.00035181,-0.00000048,-0.00150
 042,-0.00004164,0.00000030,0.00022350,0.00038529,-0.00000004,-0.000446
 44,-0.00003989,-0.00000051,-0.00016349,-0.00003390,-0.00000007,-0.0016
 3583,-0.00073984,-0.00000028,-0.00008404,-0.00014156,0.00000002,0.2144
 9798,-0.00457524,0.00592841,-0.00000186,0.00125297,-0.00356428,0.00000
 093,0.00136175,0.00151222,-0.00000016,-0.00302363,-0.00044925,0.000000
 09,0.00643078,-0.00099245,-0.00000075,-0.01872715,-0.04077399,-0.00000
 059,-0.20855826,-0.34068526,-0.00003557,-0.00192745,-0.00068489,0.0000
 0055,0.00040428,0.00007493,0.00000040,0.00073438,0.00108708,-0.0000004
 4,0.00082229,0.00054055,0.00000097,-0.00161298,0.00069495,-0.00000025,
 0.00113523,0.00048178,-0.00000020,0.00008238,0.00007465,0.00000015,0.2
 2647233,0.37711852,0.00000046,0.00000022,-0.00178930,0.00000003,-0.000
 00028,-0.00131370,0.00000051,-0.00000004,-0.00006231,0.00000045,0.0000
 0079,0.00146516,-0.00000258,0.00000059,0.00277625,0.00000417,0.0000108
 8,-0.00168205,-0.00004340,-0.00004941,-0.00664651,-0.00000070,0.000000
 06,-0.00056955,0.00000035,-0.00000052,0.00015263,-0.00000018,-0.000000
 84,-0.00020054,0.00000027,0.00000058,0.00004537,0.00000005,0.00000007,
 0.00002752,-0.00000027,-0.00000017,0.00089041,0.,-0.00000001,0.0000630
 9,0.00003957,0.00003739,0.00632482,-0.00003091,-0.00005917,0.00019751,
 0.00061287,0.00071418,0.00013806,-0.00071421,-0.00087621,-0.00029700,0
 .00125452,-0.00131756,0.00088895,-0.00435684,-0.00029719,0.00151461,-0
 .00126833,0.00427020,-0.00056730,-0.00238633,-0.00339503,-0.00110119,0
 .00790889,0.00681994,-0.02089214,-0.05541441,-0.02287036,0.03958456,-0
 .00114318,0.00249477,0.00088586,0.00002041,0.00044992,0.00017008,-0.00
 070000,-0.00010273,-0.00000197,-0.00003565,-0.00003395,-0.00006002,-0.
 00000074,-0.00000333,-0.00007354,-0.00026472,-0.00025652,0.00000801,0.
 05739916,-0.00017062,0.00000110,0.00019596,0.00038924,0.00007419,0.000
 04782,-0.00015636,-0.00026820,0.00020717,0.00030960,-0.00079383,-0.000
 74390,-0.00132006,0.00013444,-0.00168731,0.00020512,0.00165960,0.00054
 340,-0.00147707,-0.00187370,-0.00114042,-0.00404612,-0.01859515,0.0215
 1852,-0.02563174,-0.12822851,0.13198517,0.00323084,-0.00314019,-0.0004
 5369,0.00030902,0.00033851,-0.00014183,-0.00042431,-0.00002768,-0.0000
 4239,-0.00003147,0.00000619,-0.00003010,-0.00001669,-0.00000096,0.0000
 5567,-0.00045965,0.00006928,-0.00029617,0.02815137,0.14586378,0.000686
 17,-0.00050761,-0.00025367,-0.00035118,0.00041356,-0.00004917,-0.00004
 984,-0.00004848,0.00001331,-0.00007825,0.00033313,0.00013577,0.0005461
 5,0.00019271,0.00065069,-0.00089566,0.00118752,0.00012719,0.00155091,-
 0.00020405,0.00040399,-0.00180863,-0.00139749,0.00106815,0.03777881,0.
 13011197,-0.21511991,-0.00006862,-0.00221849,-0.00093230,-0.00002107,-
 0.00033214,-0.00008460,0.00037197,-0.00006964,0.00000623,-0.00002547,-
 0.00001995,0.00004548,-0.00000466,-0.00000786,-0.00000288,0.00039976,-
 0.00010169,0.00002403,-0.04145044,-0.13959335,0.23412507,-0.00003257,-
 0.00005866,-0.00019689,0.00061297,0.00071235,-0.00013812,-0.00071309,-
 0.00087512,0.00029748,0.00125184,-0.00131869,-0.00089033,-0.00435616,-
 0.00029681,-0.00151175,-0.00126625,0.00426840,0.00056596,-0.00239421,-
 0.00340062,0.00110322,0.00792171,0.00682185,0.02088422,-0.05547836,-0.
 02296716,-0.03967495,-0.00114328,0.00249541,-0.00088605,0.00002072,0.0
 0045037,-0.00016720,-0.00070006,-0.00010259,0.00000175,-0.00003574,-0.
 00003388,0.00006027,-0.00000084,-0.00000336,0.00007356,-0.00026569,-0.
 00025669,-0.00000637,-0.00032139,0.00155810,0.00370334,0.05747446,-0.0
 0017084,0.00000151,-0.00019509,0.00038972,0.00007414,-0.00004834,-0.00
 015663,-0.00026876,-0.00020584,0.00031099,-0.00079276,0.00074153,-0.00
 131912,0.00013245,0.00168984,0.00020491,0.00165836,-0.00054477,-0.0014
 8130,-0.00187722,0.00114223,-0.00406106,-0.01860141,-0.02150969,-0.025
 73458,-0.12831151,-0.13200148,0.00323133,-0.00313918,0.00045127,0.0003
 0921,0.00033855,0.00014235,-0.00042472,-0.00002760,0.00004227,-0.00003
 146,0.00000622,0.00003013,-0.00001657,-0.00000092,-0.00005573,-0.00045
 994,0.00006925,0.00029666,0.00156677,0.01028646,0.01534852,0.02826599,
 0.14595864,-0.00068634,0.00050764,-0.00025403,0.00035060,-0.00041461,-
 0.00004877,0.00005083,0.00004936,0.00001293,0.00007647,-0.00033116,0.0
 0013651,-0.00054223,-0.00019417,0.00065015,0.00089757,-0.00119111,0.00
 012794,-0.00154755,0.00020933,0.00040371,0.00180551,0.00139888,0.00105
 990,-0.03787259,-0.13013073,-0.21502406,0.00006793,0.00221836,-0.00093
 251,0.00002050,0.00033182,-0.00008361,-0.00037129,0.00006974,0.0000060
 8,0.00002545,0.00001999,0.00004546,0.00000469,0.00000787,-0.00000285,-
 0.00039900,0.00010165,0.00002445,-0.00371809,-0.01535839,-0.02136278,0
 .04155251,0.13960848,0.23402145,-0.00003365,-0.00002466,-0.00000009,0.
 00009001,-0.00002658,0.00000006,-0.00003084,0.00035423,-0.00000007,-0.
 00084744,-0.00083268,0.00000040,0.00035728,0.00312674,0.00000047,0.000
 47816,0.00001066,-0.00000030,0.00003777,-0.00032994,0.00000038,-0.0239
 3924,-0.00667952,0.00000817,-0.29724817,-0.08791657,0.00009023,0.00251
 708,-0.00300041,-0.00000078,0.00054354,0.00009403,-0.00000047,-0.00005
 290,0.00000037,0.,-0.00000692,-0.00000233,-0.00000001,-0.00007262,-0.0
 0000427,-0.00000008,-0.00002715,0.00014806,0.00000011,-0.00116192,-0.0
 0013779,-0.00019062,-0.00117677,-0.00014170,0.00019269,0.32045171,-0.0
 0039123,0.00042823,-0.00000008,-0.00011072,-0.00046686,-0.00000020,0.0
 0034863,-0.00025975,0.00000015,0.00109313,0.00082271,-0.00000071,0.001
 43906,-0.00477371,0.00000034,0.00039737,-0.00185739,0.00000023,-0.0021
 2197,0.00019539,0.00000079,0.03121238,0.00839753,-0.00001166,-0.097271
 09,-0.08401264,0.00003236,0.00082232,0.00010861,-0.00000060,-0.0002148
 5,-0.00003214,0.00000073,0.00007193,0.00008038,0.,0.00005353,0.0000163
 8,0.,0.00013929,0.00002550,0.00000011,-0.00031845,0.00016264,0.0000000
 5,-0.01537108,-0.00490394,-0.00300300,-0.01537466,-0.00490521,0.003013
 92,0.09519343,0.09105723,0.,0.,-0.00022704,0.00000013,0.,0.00003205,-0
 .00000004,-0.00000034,-0.00020170,0.00000059,0.00000053,0.00080673,-0.
 00000045,-0.00000087,0.00184504,-0.00000002,0.00000045,-0.00025308,0.0
 0000024,0.00000098,0.00097089,0.00000399,-0.00000001,-0.00248203,0.000
 09152,0.00002938,-0.04871116,-0.00000171,0.00000087,-0.00085879,-0.000
 00056,-0.00000019,-0.00016678,-0.00000015,0.,0.00000248,-0.00000002,0.
 ,0.00002297,0.00000007,0.00000003,-0.00006010,0.00000033,-0.00000027,0
 .00017374,0.02387750,0.00620691,0.00190056,-0.02387143,-0.00620577,0.0
 0191570,-0.00010030,-0.00003186,0.04537685,-0.00348517,0.00301813,0.00
 000039,0.00159758,-0.00408894,0.00000074,0.00323702,0.00347302,0.00000
 358,-0.00818562,-0.02514143,-0.00000071,-0.01415741,-0.00111116,0.0000
 0267,0.00414212,0.00393444,-0.00000191,-0.00059511,0.00012128,0.000000
 04,0.04020703,-0.00920710,-0.00001578,-0.00257594,-0.00449087,0.000004
 63,-0.21121766,0.20292153,0.00005153,0.00155901,0.00694041,0.00003905,
 -0.00140528,0.00084409,-0.00000053,-0.00015204,0.00005079,0.,-0.000377
 86,0.00024995,0.00000011,0.00010457,0.00002427,-0.00000015,0.00050938,
 -0.00038487,-0.00005256,0.00050931,-0.00038435,0.00005219,0.00004455,0
 .00046289,0.00000028,0.18635707,0.00304553,-0.00180544,0.00000110,-0.0
 0284822,0.00249306,-0.00000132,-0.00103022,-0.00266262,-0.00000192,-0.
 00503659,0.01743254,0.00000278,0.01166555,0.00221945,-0.00000007,-0.00
 274043,-0.00528178,-0.00000140,0.00008036,0.00142838,-0.00000023,0.004
 38803,-0.04710496,0.00000361,-0.00280587,0.00017741,0.00000455,0.17790
 518,-0.28472841,-0.00003790,-0.00483965,-0.01553699,0.00000299,0.00247
 152,-0.00059649,0.00000045,0.00020102,-0.00005559,-0.00000001,0.000375
 91,-0.00006961,0.,-0.00010441,-0.00023604,0.00000035,0.00026066,-0.000
 53828,-0.00018006,0.00026020,-0.00053753,0.00017931,0.00013626,-0.0000
 9941,-0.00000007,-0.18251034,0.33641844,0.00000163,-0.00000180,0.00010
 900,-0.00000103,0.00000155,0.00028136,-0.00000110,-0.00000187,0.000203
 32,-0.00000195,0.00000851,0.00053832,0.00000415,0.00000052,-0.00337704
 ,-0.00000320,-0.00000161,-0.00077446,0.00000095,-0.00000049,-0.0001478
 5,-0.00002134,0.00000745,-0.00125738,0.00000445,0.00000200,0.01183852,
 0.00006023,-0.00004486,-0.02430179,0.00003434,0.00001792,-0.00144994,0
 .00000055,-0.00000059,-0.00008811,0.00000002,-0.00000001,0.00011498,0.
 00000060,0.00000004,0.00003630,-0.00000011,-0.00000002,0.00009670,0.00
 100407,-0.00136486,-0.00075751,-0.00100548,0.00136551,-0.00075771,0.00
 000007,-0.00000022,-0.00015623,-0.00005891,0.00002723,0.02075103,0.000
 51691,-0.00035517,0.00000202,-0.00057420,0.00129663,-0.00000086,-0.000
 13459,-0.00502909,0.00000133,0.01956796,-0.01747564,0.00006461,-0.0004
 9390,-0.00403906,0.00000093,0.00024001,-0.00108230,-0.00000404,-0.0003
 5603,0.00001277,-0.00000026,-0.00221605,-0.00185922,0.00000113,0.00010
 272,0.00009887,-0.00000154,-0.00279359,0.00282840,0.00000784,-0.247532
 50,0.25667037,-0.00088701,-0.00029137,0.00003692,0.00000012,-0.0000798
 3,0.00012813,-0.00000065,-0.00148697,0.00060153,0.00000159,0.00003559,
 -0.00006405,-0.00000023,0.00003515,0.00006257,-0.00000068,0.00003517,0
 .00006248,0.00000076,0.00006370,-0.00003291,0.00000003,0.00409302,0.00
 124035,-0.00001814,0.23138883,-0.00123497,0.00126863,0.00000158,-0.000
 77002,-0.00315633,-0.00001146,0.00353382,0.00558282,0.00000059,0.02079
 717,-0.03589867,0.00006798,-0.00590077,-0.00118455,0.00000419,0.003015
 56,-0.00063631,-0.00000087,-0.00090856,0.00055730,0.00000006,0.0008800
 4,-0.00079010,-0.00000431,-0.00007175,0.00042786,0.00000099,-0.0030242
 3,0.00263746,0.00000737,0.21141208,-0.32587032,0.00095081,0.00135625,0
 .00061702,0.00000196,-0.00010991,0.00004325,0.00000049,-0.00127862,0.0
 0029716,0.00000655,0.00007068,-0.00030554,-0.00000018,-0.00006762,-0.0
 0002426,0.00006041,-0.00006738,-0.00002459,-0.00006029,0.00003196,0.00
 001848,0.00000027,0.00559037,-0.00126915,-0.00001462,-0.23283494,0.357
 59010,-0.00000077,0.00000204,-0.00006842,-0.00000062,-0.00000385,-0.00
 121430,0.00000191,-0.00000612,-0.00162523,0.00000445,-0.00005728,-0.00
 170252,-0.00001951,-0.00001159,0.00203565,0.00000641,-0.00000200,0.001
 52859,0.00000021,-0.00000474,0.00003572,0.00000199,0.00000262,-0.00098
 192,-0.00000070,0.00000083,-0.00025390,0.00002191,-0.00000722,0.000921
 20,-0.00082620,0.00109604,-0.00199022,-0.00000208,-0.00000084,0.000248
 74,-0.00000006,-0.00000032,0.00005783,0.00000464,0.00000341,0.00094021
 ,0.00000030,-0.00000031,0.00001243,-0.00007885,0.00010220,0.00003596,0
 .00007757,-0.00010252,0.00003565,0.00000014,-0.00000037,0.00005552,-0.
 00002469,0.00000055,-0.00095565,0.00083322,-0.00101093,0.00280809,-0.0
 0395536,-0.00384731,-0.00000052,-0.02910884,0.04321918,-0.00000738,0.0
 0418440,0.00140899,0.00000004,-0.00240867,0.00012480,0.00000156,0.0021
 2278,-0.00040765,-0.00000064,-0.00115482,0.00209813,-0.00000085,-0.000
 05986,-0.00082049,0.00000028,-0.00196240,-0.00062015,0.00000048,0.0001
 0430,-0.00023684,0.00000006,0.00070245,0.00077477,-0.00000033,0.001098
 87,0.00095978,-0.00000054,-0.13607683,0.16314346,-0.00002768,0.0000445
 6,0.00003458,0.00000019,-0.00038325,-0.00165445,-0.00000097,0.00000961
 ,0.00013324,-0.00000010,0.00005824,0.00004088,-0.00003945,0.00005822,0
 .00004089,0.00003937,0.00001382,-0.00002701,0.,-0.00020857,-0.00011484
 ,0.00000020,-0.00012003,-0.00041914,0.00000071,0.16704138,-0.00387235,
 0.00247804,-0.00000024,-0.00126741,0.00614468,-0.00000083,-0.00586693,
 0.00191140,-0.00000011,0.00099094,-0.00105478,0.00000017,-0.00235293,-
 0.00026061,0.00000025,0.00234168,0.00093046,0.00000015,-0.00035015,0.0
 0011536,-0.00000011,0.00222259,0.00051496,-0.00000057,-0.00002086,0.00
 026815,-0.00000009,-0.00061940,-0.00117391,0.00000034,0.00000228,-0.00
 040271,-0.00000065,0.21341546,-0.43366312,0.00006557,-0.00019253,0.000
 27998,-0.00000019,0.00012076,-0.00078099,-0.00000103,0.00001186,-0.000
 12256,0.,-0.00007707,-0.00003884,0.00003598,-0.00007707,-0.00003889,-0
 .00003590,0.00000071,-0.00000204,-0.00000002,-0.00031211,0.00035301,0.
 00000022,-0.00026664,0.00011972,0.00000040,-0.20383082,0.42442267,-0.0
 0000153,0.00000024,0.00420907,-0.00000104,0.00000427,-0.00381529,0.000
 00049,0.00000099,-0.00163482,-0.00000011,0.00000060,-0.00137233,0.0000
 0042,-0.00000033,-0.00022963,-0.00000007,0.00000062,0.00273507,0.00000
 015,-0.00000021,-0.00093191,-0.00000027,-0.00000020,0.00017927,0.00000
 004,-0.00000002,-0.00012825,0.00000010,0.00000015,0.00000854,0.0000002
 2,0.00000007,0.00023183,-0.00003343,0.00005879,-0.00697823,0.00000012,
 -0.00000027,-0.00076700,-0.00000055,-0.00000084,0.00082410,0.,-0.00000
 002,0.00018735,-0.00002868,-0.00001042,0.00002639,0.00002868,0.0000104
 2,0.00002639,0.00000002,0.,0.00001438,0.00000004,0.00000006,0.00005416
 ,-0.00000017,-0.00000060,0.00007656,0.00003556,-0.00006331,0.00728435\
 \-0.00001112,-0.00003506,-0.00000138,-0.00000944,-0.00000157,0.0000003
 5,-0.00002345,0.00002774,0.00000035,0.00001633,0.00001482,-0.00000238,
 0.00005236,0.00004126,0.00000122,-0.00000910,-0.00001873,-0.00000012,-
 0.00000512,-0.00000669,0.00000182,-0.00003375,-0.00002120,-0.00000398,
 0.00001922,0.00003051,-0.00000036,-0.00000443,0.00003745,-0.00000122,0
 .00001436,0.00001336,0.00001196,-0.00000564,0.00000093,0.00000031,-0.0
 0000575,0.00000429,0.00000009,0.00000278,-0.00000234,0.00000154,-0.000
 00186,0.00000176,-0.00000089,-0.00000195,-0.00000972,-0.00000284,-0.00
 000133,-0.00001009,0.00000314,0.00000158,-0.00000081,-0.00000024,0.000
 00771,-0.00005920,0.00000118,-0.00000396,-0.00000496,-0.00000799,0.000
 00258,-0.00000176,-0.00000057\\\@


 EDUCATION IS NOT TRAINING BUT RATHER THE PROCESS THAT EQUIPS YOU TO
 ENTERTAIN YOURSELF, A FRIEND, OR AN IDEA.  -- WALLACE STERLING
 Job cpu time:       0 days  1 hours 36 minutes 53.9 seconds.
 File lengths (MBytes):  RWF=    205 Int=      0 D2E=      0 Chk=      9 Scr=      1
 Normal termination of Gaussian 09 at Sun Jun 16 17:31:49 2024.
