 Entering Gaussian System, Link 0=g09
 Input=APFDTHAPyang.gjf
 Output=APFDTHAPyang.log
 Initial command:
 /home/phzd/g09E/g09/l1.exe "/home/phzd/g09E/scratch/Gau-93873.inp" -scrdir="/home/phzd/g09E/scratch/"
 Default is to use a total of  18 processors:
                               18 via shared-memory
                                1 via Linda
 Entering Link 1 = /home/phzd/g09E/g09/l1.exe PID=     93875.
  
 Copyright (c) 1988,1990,1992,1993,1995,1998,2003,2009,2015,
            Gaussian, Inc.  All Rights Reserved.
  
 This is part of the Gaussian(R) 09 program.  It is based on
 the Gaussian(R) 03 system (copyright 2003, Gaussian, Inc.),
 the Gaussian(R) 98 system (copyright 1998, Gaussian, Inc.),
 the Gaussian(R) 94 system (copyright 1995, Gaussian, Inc.),
 the Gaussian 92(TM) system (copyright 1992, Gaussian, Inc.),
 the Gaussian 90(TM) system (copyright 1990, Gaussian, Inc.),
 the Gaussian 88(TM) system (copyright 1988, Gaussian, Inc.),
 the Gaussian 86(TM) system (copyright 1986, Carnegie Mellon
 University), and the Gaussian 82(TM) system (copyright 1983,
 Carnegie Mellon University). Gaussian is a federally registered
 trademark of Gaussian, Inc.
  
 This software contains proprietary and confidential information,
 including trade secrets, belonging to Gaussian, Inc.
  
 This software is provided under written license and may be
 used, copied, transmitted, or stored only in accord with that
 written license.
  
 The following legend is applicable only to US Government
 contracts under FAR:
  
                    RESTRICTED RIGHTS LEGEND
  
 Use, reproduction and disclosure by the US Government is
 subject to restrictions as set forth in subparagraphs (a)
 and (c) of the Commercial Computer Software - Restricted
 Rights clause in FAR 52.227-19.
  
 Gaussian, Inc.
 340 Quinnipiac St., Bldg. 40, Wallingford CT 06492
  
  
 ---------------------------------------------------------------
 Warning -- This program may not be used in any manner that
 competes with the business of Gaussian, Inc. or will provide
 assistance to any competitor of Gaussian, Inc.  The licensee
 of this program is prohibited from giving any competitor of
 Gaussian, Inc. access to this program.  By using this program,
 the user acknowledges that Gaussian, Inc. is engaged in the
 business of creating and licensing software in the field of
 computational chemistry and represents and warrants to the
 licensee that it is not a competitor of Gaussian, Inc. and that
 it will not use this program in any manner prohibited above.
 ---------------------------------------------------------------
  

 Cite this work as:
 Gaussian 09, Revision E.01,
 M. J. Frisch, G. W. Trucks, H. B. Schlegel, G. E. Scuseria, 
 M. A. Robb, J. R. Cheeseman, G. Scalmani, V. Barone, B. Mennucci, 
 G. A. Petersson, H. Nakatsuji, M. Caricato, X. Li, H. P. Hratchian, 
 A. F. Izmaylov, J. Bloino, G. Zheng, J. L. Sonnenberg, M. Hada, 
 M. Ehara, K. Toyota, R. Fukuda, J. Hasegawa, M. Ishida, T. Nakajima, 
 Y. Honda, O. Kitao, H. Nakai, T. Vreven, J. A. Montgomery, Jr., 
 J. E. Peralta, F. Ogliaro, M. Bearpark, J. J. Heyd, E. Brothers, 
 K. N. Kudin, V. N. Staroverov, T. Keith, R. Kobayashi, J. Normand, 
 K. Raghavachari, A. Rendell, J. C. Burant, S. S. Iyengar, J. Tomasi, 
 M. Cossi, N. Rega, J. M. Millam, M. Klene, J. E. Knox, J. B. Cross, 
 V. Bakken, C. Adamo, J. Jaramillo, R. Gomperts, R. E. Stratmann, 
 O. Yazyev, A. J. Austin, R. Cammi, C. Pomelli, J. W. Ochterski, 
 R. L. Martin, K. Morokuma, V. G. Zakrzewski, G. A. Voth, 
 P. Salvador, J. J. Dannenberg, S. Dapprich, A. D. Daniels, 
 O. Farkas, J. B. Foresman, J. V. Ortiz, J. Cioslowski, 
 and D. J. Fox, Gaussian, Inc., Wallingford CT, 2013.
 
 ******************************************
 Gaussian 09:  ES64L-G09RevE.01 30-Nov-2015
                16-Jun-2024 
 ******************************************
 %chk=APFDTHAPyang.chk
 ---------------------------
 # opt freq apfd/6-31+g(d,p)
 ---------------------------
 1/14=-1,18=20,19=15,26=3,38=1/1,3;
 2/9=110,12=2,17=6,18=5,40=1/2;
 3/5=1,6=6,7=111,11=2,16=1,25=1,30=1,71=1,74=-44/1,2,3;
 4//1;
 5/5=2,38=5/2;
 6/7=2,8=2,9=2,10=2,28=1/1;
 7//1,2,3,16;
 1/14=-1,18=20,19=15,26=3/3(2);
 2/9=110/2;
 99//99;
 2/9=110/2;
 3/5=1,6=6,7=111,11=2,16=1,25=1,30=1,71=1,74=-44/1,2,3;
 4/5=5,16=3,69=1/1;
 5/5=2,38=5/2;
 7//1,2,3,16;
 1/14=-1,18=20,19=15,26=3/3(-5);
 2/9=110/2;
 6/7=2,8=2,9=2,10=2,19=2,28=1/1;
 99/9=1/99;
 ----------
 [No Title]
 ----------
 Symbolic Z-matrix:
 Charge =  1 Multiplicity = 1
 C                    -1.54806  -1.26665  -0.00029 
 C                    -2.28376  -0.07663  -0.00083 
 C                    -1.63579   1.17441   0.00004 
 C                    -0.25986   1.2116    0.00105 
 C                     0.55836   0.02496   0.00089 
 C                    -0.16531  -1.22503   0.00096 
 O                     0.55773  -2.3567    0.00206 
 C                     1.9811    0.08289  -0.00068 
 C                     2.90915  -1.0815   -0.00096 
 O                     2.62767   1.21757  -0.00265 
 O                     0.40314   2.40157   0.00303 
 O                    -3.61273  -0.1989   -0.00181 
 H                    -2.08148  -2.21096  -0.00061 
 H                    -2.2118    2.09492   0.00038 
 H                    -0.01495  -3.13862   0.00187 
 H                     2.73548  -1.71264   0.87483 
 H                     2.73327  -1.71402  -0.87533 
 H                     3.93323  -0.71004  -0.00259 
 H                     2.02248   1.99418  -0.0024 
 H                    -0.18847   3.1687    0.00002 
 H                    -4.06915   0.65585  -0.00226 
 

 GradGradGradGradGradGradGradGradGradGradGradGradGradGradGradGradGradGrad
 Berny optimization.
 Initialization pass.
                           ----------------------------
                           !    Initial Parameters    !
                           ! (Angstroms and Degrees)  !
 --------------------------                            --------------------------
 ! Name  Definition              Value          Derivative Info.                !
 --------------------------------------------------------------------------------
 ! R1    R(1,2)                  1.3991         estimate D2E/DX2                !
 ! R2    R(1,6)                  1.3834         estimate D2E/DX2                !
 ! R3    R(1,13)                 1.0846         estimate D2E/DX2                !
 ! R4    R(2,3)                  1.4089         estimate D2E/DX2                !
 ! R5    R(2,12)                 1.3346         estimate D2E/DX2                !
 ! R6    R(3,4)                  1.3764         estimate D2E/DX2                !
 ! R7    R(3,14)                 1.0859         estimate D2E/DX2                !
 ! R8    R(4,5)                  1.4414         estimate D2E/DX2                !
 ! R9    R(4,11)                 1.3622         estimate D2E/DX2                !
 ! R10   R(5,6)                  1.4444         estimate D2E/DX2                !
 ! R11   R(5,8)                  1.4239         estimate D2E/DX2                !
 ! R12   R(6,7)                  1.3429         estimate D2E/DX2                !
 ! R13   R(7,15)                 0.9692         estimate D2E/DX2                !
 ! R14   R(8,9)                  1.489          estimate D2E/DX2                !
 ! R15   R(8,10)                 1.306          estimate D2E/DX2                !
 ! R16   R(9,16)                 1.0934         estimate D2E/DX2                !
 ! R17   R(9,17)                 1.0934         estimate D2E/DX2                !
 ! R18   R(9,18)                 1.0894         estimate D2E/DX2                !
 ! R19   R(10,19)                0.9846         estimate D2E/DX2                !
 ! R20   R(11,20)                0.9688         estimate D2E/DX2                !
 ! R21   R(12,21)                0.969          estimate D2E/DX2                !
 ! A1    A(2,1,6)              120.0012         estimate D2E/DX2                !
 ! A2    A(2,1,13)             118.8136         estimate D2E/DX2                !
 ! A3    A(6,1,13)             121.1852         estimate D2E/DX2                !
 ! A4    A(1,2,3)              120.8929         estimate D2E/DX2                !
 ! A5    A(1,2,12)             116.4686         estimate D2E/DX2                !
 ! A6    A(3,2,12)             122.6384         estimate D2E/DX2                !
 ! A7    A(2,3,4)              118.93           estimate D2E/DX2                !
 ! A8    A(2,3,14)             120.5821         estimate D2E/DX2                !
 ! A9    A(4,3,14)             120.4879         estimate D2E/DX2                !
 ! A10   A(3,4,5)              123.0389         estimate D2E/DX2                !
 ! A11   A(3,4,11)             120.673          estimate D2E/DX2                !
 ! A12   A(5,4,11)             116.288          estimate D2E/DX2                !
 ! A13   A(4,5,6)              115.3445         estimate D2E/DX2                !
 ! A14   A(4,5,8)              122.2554         estimate D2E/DX2                !
 ! A15   A(6,5,8)              122.4            estimate D2E/DX2                !
 ! A16   A(1,6,5)              121.7924         estimate D2E/DX2                !
 ! A17   A(1,6,7)              120.8511         estimate D2E/DX2                !
 ! A18   A(5,6,7)              117.3566         estimate D2E/DX2                !
 ! A19   A(6,7,15)             111.206          estimate D2E/DX2                !
 ! A20   A(5,8,9)              126.2241         estimate D2E/DX2                !
 ! A21   A(5,8,10)             122.0075         estimate D2E/DX2                !
 ! A22   A(9,8,10)             111.7684         estimate D2E/DX2                !
 ! A23   A(8,9,16)             110.6244         estimate D2E/DX2                !
 ! A24   A(8,9,17)             110.6262         estimate D2E/DX2                !
 ! A25   A(8,9,18)             108.6188         estimate D2E/DX2                !
 ! A26   A(16,9,17)            106.3234         estimate D2E/DX2                !
 ! A27   A(16,9,18)            110.3249         estimate D2E/DX2                !
 ! A28   A(17,9,18)            110.321          estimate D2E/DX2                !
 ! A29   A(8,10,19)            112.3958         estimate D2E/DX2                !
 ! A30   A(4,11,20)            113.2354         estimate D2E/DX2                !
 ! A31   A(2,12,21)            112.8446         estimate D2E/DX2                !
 ! D1    D(6,1,2,3)             -0.0068         estimate D2E/DX2                !
 ! D2    D(6,1,2,12)          -179.989          estimate D2E/DX2                !
 ! D3    D(13,1,2,3)           179.9767         estimate D2E/DX2                !
 ! D4    D(13,1,2,12)           -0.0055         estimate D2E/DX2                !
 ! D5    D(2,1,6,5)             -0.0403         estimate D2E/DX2                !
 ! D6    D(2,1,6,7)            179.9718         estimate D2E/DX2                !
 ! D7    D(13,1,6,5)           179.9765         estimate D2E/DX2                !
 ! D8    D(13,1,6,7)            -0.0113         estimate D2E/DX2                !
 ! D9    D(1,2,3,4)              0.0181         estimate D2E/DX2                !
 ! D10   D(1,2,3,14)          -179.9531         estimate D2E/DX2                !
 ! D11   D(12,2,3,4)           179.9991         estimate D2E/DX2                !
 ! D12   D(12,2,3,14)            0.0279         estimate D2E/DX2                !
 ! D13   D(1,2,12,21)         -179.9929         estimate D2E/DX2                !
 ! D14   D(3,2,12,21)            0.0253         estimate D2E/DX2                !
 ! D15   D(2,3,4,5)              0.0179         estimate D2E/DX2                !
 ! D16   D(2,3,4,11)          -179.945          estimate D2E/DX2                !
 ! D17   D(14,3,4,5)           179.9891         estimate D2E/DX2                !
 ! D18   D(14,3,4,11)            0.0263         estimate D2E/DX2                !
 ! D19   D(3,4,5,6)             -0.0605         estimate D2E/DX2                !
 ! D20   D(3,4,5,8)            179.875          estimate D2E/DX2                !
 ! D21   D(11,4,5,6)           179.9039         estimate D2E/DX2                !
 ! D22   D(11,4,5,8)            -0.1606         estimate D2E/DX2                !
 ! D23   D(3,4,11,20)           -0.2303         estimate D2E/DX2                !
 ! D24   D(5,4,11,20)          179.8044         estimate D2E/DX2                !
 ! D25   D(4,5,6,1)              0.0714         estimate D2E/DX2                !
 ! D26   D(4,5,6,7)           -179.9404         estimate D2E/DX2                !
 ! D27   D(8,5,6,1)           -179.8641         estimate D2E/DX2                !
 ! D28   D(8,5,6,7)              0.1242         estimate D2E/DX2                !
 ! D29   D(4,5,8,9)            179.9995         estimate D2E/DX2                !
 ! D30   D(4,5,8,10)            -0.0299         estimate D2E/DX2                !
 ! D31   D(6,5,8,9)             -0.0695         estimate D2E/DX2                !
 ! D32   D(6,5,8,10)           179.9011         estimate D2E/DX2                !
 ! D33   D(1,6,7,15)            -0.0023         estimate D2E/DX2                !
 ! D34   D(5,6,7,15)          -179.9906         estimate D2E/DX2                !
 ! D35   D(5,8,9,16)           -58.7899         estimate D2E/DX2                !
 ! D36   D(5,8,9,17)            58.7609         estimate D2E/DX2                !
 ! D37   D(5,8,9,18)           179.9837         estimate D2E/DX2                !
 ! D38   D(10,8,9,16)          121.237          estimate D2E/DX2                !
 ! D39   D(10,8,9,17)         -121.2122         estimate D2E/DX2                !
 ! D40   D(10,8,9,18)            0.0106         estimate D2E/DX2                !
 ! D41   D(5,8,10,19)            0.0304         estimate D2E/DX2                !
 ! D42   D(9,8,10,19)         -179.9952         estimate D2E/DX2                !
 --------------------------------------------------------------------------------
 Trust Radius=3.00D-01 FncErr=1.00D-07 GrdErr=1.00D-06
 Number of steps in this run=    104 maximum allowed number of steps=    126.
 GradGradGradGradGradGradGradGradGradGradGradGradGradGradGradGradGradGrad

                          Input orientation:                          
 ---------------------------------------------------------------------
 Center     Atomic      Atomic             Coordinates (Angstroms)
 Number     Number       Type             X           Y           Z
 ---------------------------------------------------------------------
      1          6           0       -1.548063   -1.266650   -0.000293
      2          6           0       -2.283760   -0.076630   -0.000828
      3          6           0       -1.635788    1.174409    0.000039
      4          6           0       -0.259863    1.211598    0.001049
      5          6           0        0.558355    0.024956    0.000889
      6          6           0       -0.165312   -1.225029    0.000962
      7          8           0        0.557727   -2.356696    0.002059
      8          6           0        1.981100    0.082889   -0.000681
      9          6           0        2.909153   -1.081501   -0.000963
     10          8           0        2.627673    1.217569   -0.002648
     11          8           0        0.403142    2.401573    0.003033
     12          8           0       -3.612734   -0.198901   -0.001814
     13          1           0       -2.081480   -2.210958   -0.000606
     14          1           0       -2.211797    2.094923    0.000383
     15          1           0       -0.014948   -3.138617    0.001867
     16          1           0        2.735480   -1.712636    0.874829
     17          1           0        2.733271   -1.714018   -0.875326
     18          1           0        3.933226   -0.710042   -0.002591
     19          1           0        2.022480    1.994178   -0.002403
     20          1           0       -0.188469    3.168702    0.000021
     21          1           0       -4.069150    0.655847   -0.002256
 ---------------------------------------------------------------------
                    Distance matrix (angstroms):
                    1          2          3          4          5
     1  C    0.000000
     2  C    1.399070   0.000000
     3  C    2.442635   1.408889   0.000000
     4  C    2.793058   2.399103   1.376428   0.000000
     5  C    2.470879   2.843930   2.476995   1.441388   0.000000
     6  C    1.383378   2.409698   2.814179   2.438461   1.444353
     7  O    2.371193   3.643180   4.156948   3.660762   2.381652
     8  C    3.778392   4.267842   3.778001   2.509164   1.423925
     9  C    4.461060   5.289245   5.074014   3.911645   2.598173
    10  O    4.858819   5.079087   4.263680   2.887545   2.388392
    11  O    4.154885   3.655263   2.379743   1.362211   2.381681
    12  O    2.324426   1.334587   2.407135   3.637480   4.177093
    13  H    1.084551   2.143892   3.414579   3.877136   3.459486
    14  H    3.426473   2.172745   1.085879   2.142501   3.458107
    15  H    2.419650   3.810942   4.607529   4.357104   3.215101
    16  H    4.394711   5.351267   5.311146   4.276297   2.919396
    17  H    4.392680   5.349429   5.310174   4.276227   2.919254
    18  H    5.509478   6.249170   5.879207   4.612452   3.453982
    19  H    4.835471   4.778279   3.748993   2.412785   2.453876
    20  H    4.639056   3.862955   2.464130   1.958406   3.231236
    21  H    3.170470   1.929804   2.488004   3.849615   4.670314
                    6          7          8          9         10
     6  C    0.000000
     7  O    1.342928   0.000000
     8  C    2.513511   2.824460   0.000000
     9  C    3.077814   2.674946   1.488988   0.000000
    10  O    3.710399   4.130384   1.305971   2.316238   0.000000
    11  O    3.670884   4.760779   2.804685   4.290910   2.520007
    12  O    3.596897   4.695619   5.600927   6.581337   6.399146
    13  H    2.154938   2.643229   4.665436   5.116844   5.825026
    14  H    3.900023   5.242822   4.650663   6.026093   4.918356
    15  H    1.919487   0.969204   3.789765   3.575206   5.095078
    16  H    3.068550   2.432930   2.135303   1.093392   3.060668
    17  H    3.067373   2.432248   2.135331   1.093400   3.060542
    18  H    4.130767   3.755727   2.107021   1.089362   2.328122
    19  H    3.892267   4.590820   1.911738   3.200936   0.984571
    20  H    4.393792   5.575557   3.772171   5.259229   3.426016
    21  H    4.333319   5.521180   6.077319   7.191321   6.720340
                   11         12         13         14         15
    11  O    0.000000
    12  O    4.784323   0.000000
    13  H    5.239160   2.528461   0.000000
    14  H    2.632859   2.687798   4.307853   0.000000
    15  H    5.555943   4.646074   2.265196   5.675922   0.000000
    16  H    4.809007   6.584810   4.921160   6.303785   3.218748
    17  H    4.810312   6.582582   4.918731   6.303062   3.217399
    18  H    4.705706   7.563252   6.199148   6.754935   4.635307
    19  H    1.669807   6.046919   5.875854   4.235476   5.522383
    20  H    0.968762   4.802743   5.703002   2.290602   6.309706
    21  H    4.800936   0.968974   3.488468   2.349618   5.552885
                   16         17         18         19         20
    16  H    0.000000
    17  H    1.750157   0.000000
    18  H    1.791551   1.791515   0.000000
    19  H    3.875355   3.875298   3.311156   0.000000
    20  H    5.756929   5.757061   5.659773   2.503559   0.000000
    21  H    7.258235   7.256131   8.118108   6.236913   4.623216
                   21
    21  H    0.000000
 Stoichiometry    C8H9O4(1+)
 Framework group  C1[X(C8H9O4)]
 Deg. of freedom    57
 Full point group                 C1      NOp   1
 Largest Abelian subgroup         C1      NOp   1
 Largest concise Abelian subgroup C1      NOp   1
                         Standard orientation:                         
 ---------------------------------------------------------------------
 Center     Atomic      Atomic             Coordinates (Angstroms)
 Number     Number       Type             X           Y           Z
 ---------------------------------------------------------------------
      1          6           0        1.548063   -1.266650    0.000293
      2          6           0        2.283760   -0.076630    0.000828
      3          6           0        1.635788    1.174409   -0.000039
      4          6           0        0.259863    1.211598   -0.001049
      5          6           0       -0.558355    0.024956   -0.000889
      6          6           0        0.165312   -1.225029   -0.000962
      7          8           0       -0.557727   -2.356696   -0.002059
      8          6           0       -1.981100    0.082889    0.000681
      9          6           0       -2.909153   -1.081501    0.000963
     10          8           0       -2.627673    1.217569    0.002648
     11          8           0       -0.403142    2.401573   -0.003033
     12          8           0        3.612734   -0.198901    0.001814
     13          1           0        2.081480   -2.210958    0.000606
     14          1           0        2.211797    2.094923   -0.000383
     15          1           0        0.014948   -3.138617   -0.001867
     16          1           0       -2.735480   -1.712636   -0.874829
     17          1           0       -2.733271   -1.714018    0.875326
     18          1           0       -3.933226   -0.710042    0.002591
     19          1           0       -2.022480    1.994178    0.002403
     20          1           0        0.188469    3.168702   -0.000021
     21          1           0        4.069150    0.655847    0.002256
 ---------------------------------------------------------------------
 Rotational constants (GHZ):      1.5200905      0.7583146      0.5074959
 Standard basis: 6-31+G(d,p) (6D, 7F)
 There are   273 symmetry adapted cartesian basis functions of A   symmetry.
 There are   273 symmetry adapted basis functions of A   symmetry.
   273 basis functions,   447 primitive gaussians,   273 cartesian basis functions
    44 alpha electrons       44 beta electrons
       nuclear repulsion energy       712.8601112192 Hartrees.
 NAtoms=   21 NActive=   21 NUniq=   21 SFac= 1.00D+00 NAtFMM=   60 NAOKFM=F Big=F
 Integral buffers will be    131072 words long.
 Raffenetti 2 integral format.
 Two-electron integral symmetry is turned on.
 R6APFD:  NTU= -4 IXU= 1 FactS= 1.050
 Nuclear repulsion after empirical dispersion term =      712.8451111688 Hartrees.
 One-electron integrals computed using PRISM.
 NBasis=   273 RedAO= T EigKep=  1.39D-06  NBF=   273
 NBsUse=   273 1.00D-06 EigRej= -1.00D+00 NBFU=   273
 ExpMin= 4.38D-02 ExpMax= 5.48D+03 ExpMxC= 8.25D+02 IAcc=2 IRadAn=         4 AccDes= 0.00D+00
 Harris functional with IExCor= 3731 and IRadAn=       4 diagonalized for initial guess.
 HarFok:  IExCor= 3731 AccDes= 0.00D+00 IRadAn=         4 IDoV= 1 UseB2=F ITyADJ=14
 ICtDFT=  3500011 ScaDFX=  1.000000  1.000000  1.000000  1.000000
 FoFCou: FMM=F IPFlag=           0 FMFlag=      100000 FMFlg1=           0
         NFxFlg=           0 DoJE=T BraDBF=F KetDBF=T FulRan=T
         wScrn=  0.000000 ICntrl=     500 IOpCl=  0 I1Cent=   200000004 NGrid=           0
         NMat0=    1 NMatS0=      1 NMatT0=    0 NMatD0=    1 NMtDS0=    0 NMtDT0=    0
 Petite list used in FoFCou.
 Keep R1 ints in memory in canonical form, NReq=709970467.
 Requested convergence on RMS density matrix=1.00D-08 within 128 cycles.
 Requested convergence on MAX density matrix=1.00D-06.
 Requested convergence on             energy=1.00D-06.
 No special actions if energy rises.
 SCF Done:  E(RAPFD) =  -610.490221901     A.U. after   15 cycles
            NFock= 15  Conv=0.66D-08     -V/T= 2.0089

 **********************************************************************

            Population analysis using the SCF density.

 **********************************************************************

 Orbital symmetries:
       Occupied  (A) (A) (A) (A) (A) (A) (A) (A) (A) (A) (A) (A)
                 (A) (A) (A) (A) (A) (A) (A) (A) (A) (A) (A) (A)
                 (A) (A) (A) (A) (A) (A) (A) (A) (A) (A) (A) (A)
                 (A) (A) (A) (A) (A) (A) (A) (A)
       Virtual   (A) (A) (A) (A) (A) (A) (A) (A) (A) (A) (A) (A)
                 (A) (A) (A) (A) (A) (A) (A) (A) (A) (A) (A) (A)
                 (A) (A) (A) (A) (A) (A) (A) (A) (A) (A) (A) (A)
                 (A) (A) (A) (A) (A) (A) (A) (A) (A) (A) (A) (A)
                 (A) (A) (A) (A) (A) (A) (A) (A) (A) (A) (A) (A)
                 (A) (A) (A) (A) (A) (A) (A) (A) (A) (A) (A) (A)
                 (A) (A) (A) (A) (A) (A) (A) (A) (A) (A) (A) (A)
                 (A) (A) (A) (A) (A) (A) (A) (A) (A) (A) (A) (A)
                 (A) (A) (A) (A) (A) (A) (A) (A) (A) (A) (A) (A)
                 (A) (A) (A) (A) (A) (A) (A) (A) (A) (A) (A) (A)
                 (A) (A) (A) (A) (A) (A) (A) (A) (A) (A) (A) (A)
                 (A) (A) (A) (A) (A) (A) (A) (A) (A) (A) (A) (A)
                 (A) (A) (A) (A) (A) (A) (A) (A) (A) (A) (A) (A)
                 (A) (A) (A) (A) (A) (A) (A) (A) (A) (A) (A) (A)
                 (A) (A) (A) (A) (A) (A) (A) (A) (A) (A) (A) (A)
                 (A) (A) (A) (A) (A) (A) (A) (A) (A) (A) (A) (A)
                 (A) (A) (A) (A) (A) (A) (A) (A) (A) (A) (A) (A)
                 (A) (A) (A) (A) (A) (A) (A) (A) (A) (A) (A) (A)
                 (A) (A) (A) (A) (A) (A) (A) (A) (A) (A) (A) (A)
                 (A)
 The electronic state is 1-A.
 Alpha  occ. eigenvalues --  -19.43147 -19.42234 -19.40622 -19.40339 -10.50516
 Alpha  occ. eigenvalues --  -10.48403 -10.47604 -10.47324 -10.41288 -10.39111
 Alpha  occ. eigenvalues --  -10.37887 -10.36083  -1.30261  -1.27811  -1.27015
 Alpha  occ. eigenvalues --   -1.26598  -1.05163  -0.98089  -0.94225  -0.92643
 Alpha  occ. eigenvalues --   -0.84889  -0.83217  -0.80682  -0.77602  -0.75250
 Alpha  occ. eigenvalues --   -0.73062  -0.69293  -0.67080  -0.64421  -0.63083
 Alpha  occ. eigenvalues --   -0.62304  -0.61918  -0.60944  -0.59469  -0.58434
 Alpha  occ. eigenvalues --   -0.57777  -0.56721  -0.54812  -0.54549  -0.52995
 Alpha  occ. eigenvalues --   -0.52457  -0.48433  -0.42149  -0.41026
 Alpha virt. eigenvalues --   -0.24510  -0.16347  -0.13784  -0.13529  -0.11847
 Alpha virt. eigenvalues --   -0.11455  -0.09926  -0.07501  -0.06862  -0.06661
 Alpha virt. eigenvalues --   -0.06445  -0.04697  -0.03690  -0.03577  -0.02893
 Alpha virt. eigenvalues --   -0.02440  -0.00662  -0.00493   0.00107   0.00273
 Alpha virt. eigenvalues --    0.01334   0.01747   0.01949   0.02404   0.03183
 Alpha virt. eigenvalues --    0.03393   0.04203   0.05010   0.05016   0.05783
 Alpha virt. eigenvalues --    0.06577   0.06582   0.07370   0.08330   0.09017
 Alpha virt. eigenvalues --    0.09090   0.09266   0.09833   0.10481   0.10792
 Alpha virt. eigenvalues --    0.11968   0.12297   0.12752   0.13732   0.14421
 Alpha virt. eigenvalues --    0.14681   0.15352   0.15609   0.16107   0.16816
 Alpha virt. eigenvalues --    0.17329   0.17930   0.18253   0.18960   0.19582
 Alpha virt. eigenvalues --    0.20297   0.20503   0.21613   0.23122   0.23251
 Alpha virt. eigenvalues --    0.24412   0.24895   0.27070   0.27635   0.28973
 Alpha virt. eigenvalues --    0.29648   0.29961   0.30796   0.32697   0.33794
 Alpha virt. eigenvalues --    0.39484   0.44202   0.46094   0.50518   0.52649
 Alpha virt. eigenvalues --    0.53848   0.55712   0.56293   0.57293   0.58526
 Alpha virt. eigenvalues --    0.59319   0.60456   0.60893   0.61791   0.63220
 Alpha virt. eigenvalues --    0.66838   0.69190   0.71696   0.71903   0.74206
 Alpha virt. eigenvalues --    0.78050   0.78920   0.80952   0.85976   0.87543
 Alpha virt. eigenvalues --    0.88840   0.90364   0.90893   0.93931   0.94180
 Alpha virt. eigenvalues --    0.95648   0.96041   0.99136   0.99867   1.01769
 Alpha virt. eigenvalues --    1.03126   1.03589   1.03933   1.05140   1.05683
 Alpha virt. eigenvalues --    1.06433   1.07253   1.08156   1.10427   1.11391
 Alpha virt. eigenvalues --    1.11931   1.13941   1.15269   1.15433   1.17201
 Alpha virt. eigenvalues --    1.18494   1.19443   1.21251   1.21733   1.22529
 Alpha virt. eigenvalues --    1.23471   1.23663   1.28223   1.31236   1.32193
 Alpha virt. eigenvalues --    1.36132   1.36437   1.43112   1.43835   1.44054
 Alpha virt. eigenvalues --    1.45094   1.48516   1.54401   1.55179   1.57367
 Alpha virt. eigenvalues --    1.59158   1.64599   1.64925   1.67563   1.69591
 Alpha virt. eigenvalues --    1.70933   1.72991   1.73342   1.74759   1.76716
 Alpha virt. eigenvalues --    1.77786   1.79590   1.80807   1.83491   1.84662
 Alpha virt. eigenvalues --    1.86649   1.89367   1.89536   1.92270   1.98446
 Alpha virt. eigenvalues --    1.99771   2.01703   2.03984   2.04072   2.10270
 Alpha virt. eigenvalues --    2.10589   2.14663   2.15093   2.17792   2.21468
 Alpha virt. eigenvalues --    2.22757   2.25799   2.25922   2.29869   2.29887
 Alpha virt. eigenvalues --    2.30768   2.32385   2.34301   2.35052   2.36870
 Alpha virt. eigenvalues --    2.37291   2.38944   2.40306   2.45574   2.47657
 Alpha virt. eigenvalues --    2.48436   2.49763   2.50386   2.53591   2.55372
 Alpha virt. eigenvalues --    2.57076   2.57707   2.58183   2.61238   2.63293
 Alpha virt. eigenvalues --    2.67580   2.71978   2.72129   2.78531   2.86783
 Alpha virt. eigenvalues --    2.88600   2.91367   2.95942   2.98084   3.00864
 Alpha virt. eigenvalues --    3.05652   3.09234   3.17490   3.24937   3.30935
 Alpha virt. eigenvalues --    3.31126   3.32535   3.36396   3.39727   3.41116
 Alpha virt. eigenvalues --    3.50169   3.61427   4.10419   4.12296   4.15146
 Alpha virt. eigenvalues --    4.20480   4.26190   4.30518   4.34100   4.39893
 Alpha virt. eigenvalues --    4.50945   4.62333   4.66568   4.76959
          Condensed to atoms (all electrons):
               1          2          3          4          5          6
     1  C   13.067441  -2.460871   1.326885  -4.650019   0.002432  -4.852182
     2  C   -2.460871   7.638738  -1.139624   2.645508  -2.118912   3.239842
     3  C    1.326885  -1.139624  11.741827  -4.758480   0.407244  -2.382141
     4  C   -4.650019   2.645508  -4.758480  18.197221  -2.920121   2.942779
     5  C    0.002432  -2.118912   0.407244  -2.920121  15.622353  -4.832576
     6  C   -4.852182   3.239842  -2.382141   2.942779  -4.832576  16.372912
     7  O    0.173865  -0.024403   0.034274   0.017070  -0.166832   0.049442
     8  C    2.292474  -1.045962  -0.301996  -4.049680  -2.523093  -0.973214
     9  C   -0.194626  -0.040861  -0.369988  -0.095641  -0.128064  -0.972170
    10  O    0.004000   0.000759   0.011851  -0.139622   0.216118   0.054718
    11  O    0.061151   0.001079   0.443782  -0.108061  -0.076320  -0.069202
    12  O   -0.151392   0.137806  -0.048145   0.053783  -0.016717   0.065674
    13  H    0.133577   0.150376   0.026910  -0.011470  -0.005967   0.041735
    14  H    0.002288   0.100621   0.119992   0.111388   0.004852  -0.022815
    15  H   -0.105247   0.008633   0.001068   0.001058   0.106285  -0.012954
    16  H    0.004626   0.000041   0.000120  -0.000171  -0.001052   0.015511
    17  H    0.004408  -0.000006   0.000025  -0.001099  -0.002323   0.016087
    18  H    0.001063   0.000294  -0.002235  -0.018208   0.038446   0.019870
    19  H   -0.000581  -0.000830  -0.000186   0.058161  -0.189774  -0.059036
    20  H    0.003400  -0.001173  -0.111363  -0.018720   0.083037  -0.003165
    21  H    0.081072  -0.042683  -0.020135  -0.007237   0.025255  -0.037430
               7          8          9         10         11         12
     1  C    0.173865   2.292474  -0.194626   0.004000   0.061151  -0.151392
     2  C   -0.024403  -1.045962  -0.040861   0.000759   0.001079   0.137806
     3  C    0.034274  -0.301996  -0.369988   0.011851   0.443782  -0.048145
     4  C    0.017070  -4.049680  -0.095641  -0.139622  -0.108061   0.053783
     5  C   -0.166832  -2.523093  -0.128064   0.216118  -0.076320  -0.016717
     6  C    0.049442  -0.973214  -0.972170   0.054718  -0.069202   0.065674
     7  O    8.349762  -0.054602  -0.090686   0.001162  -0.000547  -0.000434
     8  C   -0.054602  12.770512  -0.716872   0.393358  -0.299827   0.002105
     9  C   -0.090686  -0.716872   8.067061  -0.473041  -0.010789   0.000194
    10  O    0.001162   0.393358  -0.473041   8.038781   0.047231  -0.000033
    11  O   -0.000547  -0.299827  -0.010789   0.047231   8.350800  -0.000628
    12  O   -0.000434   0.002105   0.000194  -0.000033  -0.000628   8.196730
    13  H   -0.015814   0.007475   0.000884   0.000013   0.000042  -0.008448
    14  H    0.000030   0.023668  -0.000367  -0.000059  -0.018333  -0.013255
    15  H    0.220525  -0.002996   0.011039  -0.000009   0.000012  -0.000067
    16  H   -0.003898  -0.022114   0.354447   0.004231  -0.000091   0.000001
    17  H   -0.003904  -0.019080   0.353439   0.004149  -0.000067   0.000001
    18  H    0.001318  -0.094626   0.419676  -0.008484   0.000086  -0.000000
    19  H    0.000033   0.089927   0.098812   0.204593   0.035923   0.000003
    20  H    0.000015   0.041017   0.004691   0.000897   0.235653  -0.000062
    21  H    0.000026   0.002720  -0.000043  -0.000000  -0.000099   0.225683
              13         14         15         16         17         18
     1  C    0.133577   0.002288  -0.105247   0.004626   0.004408   0.001063
     2  C    0.150376   0.100621   0.008633   0.000041  -0.000006   0.000294
     3  C    0.026910   0.119992   0.001068   0.000120   0.000025  -0.002235
     4  C   -0.011470   0.111388   0.001058  -0.000171  -0.001099  -0.018208
     5  C   -0.005967   0.004852   0.106285  -0.001052  -0.002323   0.038446
     6  C    0.041735  -0.022815  -0.012954   0.015511   0.016087   0.019870
     7  O   -0.015814   0.000030   0.220525  -0.003898  -0.003904   0.001318
     8  C    0.007475   0.023668  -0.002996  -0.022114  -0.019080  -0.094626
     9  C    0.000884  -0.000367   0.011039   0.354447   0.353439   0.419676
    10  O    0.000013  -0.000059  -0.000009   0.004231   0.004149  -0.008484
    11  O    0.000042  -0.018333   0.000012  -0.000091  -0.000067   0.000086
    12  O   -0.008448  -0.013255  -0.000067   0.000001   0.000001  -0.000000
    13  H    0.483940  -0.000105   0.006681  -0.000000  -0.000000  -0.000000
    14  H   -0.000105   0.511584  -0.000000   0.000000   0.000000  -0.000000
    15  H    0.006681  -0.000000   0.346699   0.000246   0.000247  -0.000021
    16  H   -0.000000   0.000000   0.000246   0.450376  -0.018589  -0.018389
    17  H   -0.000000   0.000000   0.000247  -0.018589   0.450449  -0.018383
    18  H   -0.000000  -0.000000  -0.000021  -0.018389  -0.018383   0.452368
    19  H   -0.000000  -0.000001  -0.000000  -0.000249  -0.000252   0.000225
    20  H   -0.000000   0.007727  -0.000000  -0.000000  -0.000000  -0.000000
    21  H   -0.000043   0.005246   0.000000   0.000000   0.000000  -0.000000
              19         20         21
     1  C   -0.000581   0.003400   0.081072
     2  C   -0.000830  -0.001173  -0.042683
     3  C   -0.000186  -0.111363  -0.020135
     4  C    0.058161  -0.018720  -0.007237
     5  C   -0.189774   0.083037   0.025255
     6  C   -0.059036  -0.003165  -0.037430
     7  O    0.000033   0.000015   0.000026
     8  C    0.089927   0.041017   0.002720
     9  C    0.098812   0.004691  -0.000043
    10  O    0.204593   0.000897  -0.000000
    11  O    0.035923   0.235653  -0.000099
    12  O    0.000003  -0.000062   0.225683
    13  H   -0.000000  -0.000000  -0.000043
    14  H   -0.000001   0.007727   0.005246
    15  H   -0.000000  -0.000000   0.000000
    16  H   -0.000249  -0.000000   0.000000
    17  H   -0.000252  -0.000000   0.000000
    18  H    0.000225  -0.000000  -0.000000
    19  H    0.298494   0.000762  -0.000000
    20  H    0.000762   0.321470   0.000012
    21  H   -0.000000   0.000012   0.376721
 Mulliken charges:
               1
     1  C    1.256239
     2  C   -1.048373
     3  C    1.020314
     4  C   -1.248441
     5  C    2.475728
     6  C   -2.601686
     7  O   -0.486402
     8  C    0.480803
     9  C   -0.217097
    10  O   -0.360614
    11  O   -0.591796
    12  O   -0.442800
    13  H    0.190216
    14  H    0.167540
    15  H    0.418800
    16  H    0.234955
    17  H    0.234899
    18  H    0.227001
    19  H    0.463977
    20  H    0.435803
    21  H    0.390934
 Sum of Mulliken charges =   1.00000
 Mulliken charges with hydrogens summed into heavy atoms:
               1
     1  C    1.446454
     2  C   -1.048373
     3  C    1.187854
     4  C   -1.248441
     5  C    2.475728
     6  C   -2.601686
     7  O   -0.067602
     8  C    0.480803
     9  C    0.479758
    10  O    0.103363
    11  O   -0.155992
    12  O   -0.051866
 Electronic spatial extent (au):  <R**2>=           2071.3219
 Charge=              1.0000 electrons
 Dipole moment (field-independent basis, Debye):
    X=              1.6647    Y=              1.6676    Z=              0.0071  Tot=              2.3563
 Quadrupole moment (field-independent basis, Debye-Ang):
   XX=            -42.2198   YY=            -35.7789   ZZ=            -69.5472
   XY=              8.9391   XZ=              0.0008   YZ=              0.0219
 Traceless Quadrupole moment (field-independent basis, Debye-Ang):
   XX=              6.9622   YY=             13.4031   ZZ=            -20.3653
   XY=              8.9391   XZ=              0.0008   YZ=              0.0219
 Octapole moment (field-independent basis, Debye-Ang**2):
  XXX=             30.0732  YYY=             13.8241  ZZZ=              0.0013  XYY=             15.6590
  XXY=             19.9121  XXZ=              0.0368  XZZ=             -5.1877  YZZ=             -0.0435
  YYZ=              0.0424  XYZ=              0.0094
 Hexadecapole moment (field-independent basis, Debye-Ang**3):
 XXXX=          -1295.8282 YYYY=           -471.8199 ZZZZ=            -73.9805 XXXY=            154.4070
 XXXZ=              0.1583 YYYX=            -14.3420 YYYZ=              0.2066 ZZZX=              0.0078
 ZZZY=              0.0167 XXYY=           -349.2254 XXZZ=           -290.3247 YYZZ=           -153.4826
 XXYZ=              0.0556 YYXZ=             -0.0472 ZZXY=              1.5823
 N-N= 7.128451111688D+02 E-N=-2.836715997873D+03  KE= 6.051297145927D+02
 R6APFD:  NTU= -4 IXU= 1 FactS= 1.050
 Calling FoFJK, ICntrl=      2127 FMM=F ISym2X=0 I1Cent= 0 IOpClX= 0 NMat=1 NMatS=1 NMatT=0.
 ***** Axes restored to original set *****
 -------------------------------------------------------------------
 Center     Atomic                   Forces (Hartrees/Bohr)
 Number     Number              X              Y              Z
 -------------------------------------------------------------------
      1        6           0.000838702    0.002024670    0.000015931
      2        6          -0.004203919    0.000158725   -0.000004411
      3        6           0.002217085   -0.001000899   -0.000002156
      4        6           0.002729571    0.003565660    0.000036504
      5        6          -0.001008666   -0.000454202   -0.000000350
      6        6           0.002624136   -0.003439571   -0.000003643
      7        8          -0.004551601    0.003777283   -0.000013268
      8        6           0.002215074    0.003972252   -0.000027330
      9        6          -0.002035181    0.003208527   -0.000001367
     10        8          -0.003656971   -0.004297268    0.000023859
     11        8          -0.003276558   -0.004226467   -0.000069800
     12        8           0.004274684    0.001106037   -0.000003532
     13        1          -0.000671511   -0.000618588    0.000002133
     14        1          -0.000446124    0.000663007    0.000002952
     15        1           0.001235384    0.002499375   -0.000001330
     16        1          -0.000046725   -0.000130648    0.000239965
     17        1          -0.000047303   -0.000129372   -0.000236098
     18        1           0.000440150   -0.000104527    0.000002923
     19        1           0.000220719   -0.001945244    0.000016782
     20        1           0.001279503   -0.002365852    0.000018372
     21        1           0.001869551   -0.002262901    0.000003864
 -------------------------------------------------------------------
 Cartesian Forces:  Max     0.004551601 RMS     0.001983496

 GradGradGradGradGradGradGradGradGradGradGradGradGradGradGradGradGradGrad
 Berny optimization.
 FormGI is forming the generalized inverse of G from B-inverse, IUseBI=4.
 Internal  Forces:  Max     0.007126612 RMS     0.001774958
 Search for a local minimum.
 Step number   1 out of a maximum of  104
 All quantities printed in internal units (Hartrees-Bohrs-Radians)
 Mixed Optimization -- RFO/linear search
 Second derivative matrix not updated -- first step.
 ITU=  0
     Eigenvalues ---    0.00912   0.01530   0.01566   0.01711   0.01772
     Eigenvalues ---    0.01951   0.02025   0.02078   0.02112   0.02166
     Eigenvalues ---    0.02192   0.02212   0.02237   0.02447   0.02557
     Eigenvalues ---    0.02936   0.07506   0.07538   0.16000   0.16000
     Eigenvalues ---    0.16000   0.16000   0.16000   0.16000   0.16000
     Eigenvalues ---    0.16000   0.16000   0.23480   0.23491   0.25000
     Eigenvalues ---    0.25000   0.25000   0.25000   0.25000   0.25000
     Eigenvalues ---    0.25000   0.33561   0.34423   0.34424   0.34886
     Eigenvalues ---    0.35293   0.35450   0.37535   0.38420   0.41875
     Eigenvalues ---    0.43032   0.44357   0.46877   0.49265   0.50507
     Eigenvalues ---    0.52503   0.53540   0.53587   0.53631   0.56554
     Eigenvalues ---    0.58435   0.65562
 RFO step:  Lambda=-6.43521349D-04 EMin= 9.11609498D-03
 Linear search not attempted -- first point.
 Iteration  1 RMS(Cart)=  0.01445022 RMS(Int)=  0.00005538
 Iteration  2 RMS(Cart)=  0.00008181 RMS(Int)=  0.00000099
 Iteration  3 RMS(Cart)=  0.00000000 RMS(Int)=  0.00000099
 Variable       Old X    -DE/DX   Delta X   Delta X   Delta X     New X
                                 (Linear)    (Quad)   (Total)
    R1        2.64386  -0.00216   0.00000  -0.00458  -0.00459   2.63927
    R2        2.61421  -0.00194   0.00000  -0.00404  -0.00404   2.61016
    R3        2.04950   0.00087   0.00000   0.00244   0.00244   2.05195
    R4        2.66241  -0.00047   0.00000  -0.00089  -0.00089   2.66152
    R5        2.52200  -0.00601   0.00000  -0.01028  -0.01028   2.51173
    R6        2.60107  -0.00194   0.00000  -0.00385  -0.00385   2.59722
    R7        2.05201   0.00080   0.00000   0.00226   0.00226   2.05427
    R8        2.72383  -0.00391   0.00000  -0.01006  -0.01006   2.71377
    R9        2.57421  -0.00673   0.00000  -0.01280  -0.01280   2.56141
   R10        2.72943  -0.00305   0.00000  -0.00802  -0.00802   2.72142
   R11        2.69083  -0.00289   0.00000  -0.00688  -0.00688   2.68395
   R12        2.53777  -0.00708   0.00000  -0.01250  -0.01250   2.52527
   R13        1.83153  -0.00275   0.00000  -0.00512  -0.00512   1.82641
   R14        2.81378  -0.00327   0.00000  -0.00973  -0.00973   2.80405
   R15        2.46793  -0.00713   0.00000  -0.01086  -0.01086   2.45707
   R16        2.06621   0.00028   0.00000   0.00080   0.00080   2.06701
   R17        2.06623   0.00027   0.00000   0.00079   0.00079   2.06702
   R18        2.05860   0.00038   0.00000   0.00108   0.00108   2.05967
   R19        1.86057  -0.00167   0.00000  -0.00331  -0.00331   1.85726
   R20        1.83069  -0.00266   0.00000  -0.00495  -0.00495   1.82575
   R21        1.83109  -0.00287   0.00000  -0.00536  -0.00536   1.82574
    A1        2.09442  -0.00030   0.00000  -0.00106  -0.00106   2.09335
    A2        2.07369  -0.00014   0.00000  -0.00127  -0.00127   2.07242
    A3        2.11508   0.00044   0.00000   0.00233   0.00233   2.11741
    A4        2.10998   0.00015   0.00000   0.00125   0.00124   2.11122
    A5        2.03276  -0.00170   0.00000  -0.00709  -0.00708   2.02568
    A6        2.14044   0.00154   0.00000   0.00584   0.00584   2.14628
    A7        2.07572  -0.00083   0.00000  -0.00322  -0.00322   2.07250
    A8        2.10455   0.00039   0.00000   0.00145   0.00145   2.10601
    A9        2.10291   0.00044   0.00000   0.00176   0.00176   2.10468
   A10        2.14743   0.00025   0.00000   0.00095   0.00096   2.14839
   A11        2.10614   0.00137   0.00000   0.00549   0.00549   2.11163
   A12        2.02961  -0.00162   0.00000  -0.00644  -0.00645   2.02316
   A13        2.01314   0.00086   0.00000   0.00293   0.00293   2.01607
   A14        2.13376  -0.00251   0.00000  -0.00977  -0.00977   2.12399
   A15        2.13628   0.00165   0.00000   0.00684   0.00684   2.14312
   A16        2.12568  -0.00013   0.00000  -0.00085  -0.00085   2.12483
   A17        2.10925   0.00036   0.00000   0.00161   0.00161   2.11085
   A18        2.04826  -0.00023   0.00000  -0.00076  -0.00076   2.04750
   A19        1.94091  -0.00088   0.00000  -0.00549  -0.00549   1.93542
   A20        2.20303   0.00101   0.00000   0.00404   0.00404   2.20707
   A21        2.12943  -0.00132   0.00000  -0.00528  -0.00528   2.12416
   A22        1.95073   0.00031   0.00000   0.00123   0.00123   1.95196
   A23        1.93076  -0.00010   0.00000  -0.00071  -0.00071   1.93005
   A24        1.93079  -0.00010   0.00000  -0.00069  -0.00069   1.93010
   A25        1.89576   0.00039   0.00000   0.00262   0.00262   1.89837
   A26        1.85569   0.00003   0.00000  -0.00018  -0.00018   1.85552
   A27        1.92553  -0.00012   0.00000  -0.00059  -0.00059   1.92494
   A28        1.92546  -0.00012   0.00000  -0.00055  -0.00055   1.92491
   A29        1.96168  -0.00190   0.00000  -0.01183  -0.01183   1.94985
   A30        1.97633  -0.00079   0.00000  -0.00490  -0.00490   1.97143
   A31        1.96951  -0.00107   0.00000  -0.00667  -0.00667   1.96284
    D1       -0.00012  -0.00000   0.00000   0.00004   0.00004  -0.00008
    D2       -3.14140  -0.00000   0.00000  -0.00020  -0.00019   3.14159
    D3        3.14119   0.00000   0.00000   0.00019   0.00018   3.14137
    D4       -0.00010  -0.00000   0.00000  -0.00005  -0.00005  -0.00015
    D5       -0.00070   0.00001   0.00000   0.00040   0.00040  -0.00031
    D6        3.14110   0.00000   0.00000   0.00020   0.00020   3.14130
    D7        3.14118   0.00000   0.00000   0.00025   0.00025   3.14144
    D8       -0.00020   0.00000   0.00000   0.00005   0.00005  -0.00015
    D9        0.00032  -0.00000   0.00000  -0.00018  -0.00018   0.00014
   D10       -3.14077  -0.00001   0.00000  -0.00037  -0.00037  -3.14115
   D11        3.14158   0.00000   0.00000   0.00008   0.00008  -3.14153
   D12        0.00049  -0.00000   0.00000  -0.00012  -0.00012   0.00037
   D13       -3.14147   0.00000   0.00000   0.00005   0.00005  -3.14142
   D14        0.00044  -0.00000   0.00000  -0.00019  -0.00019   0.00025
   D15        0.00031  -0.00000   0.00000  -0.00013  -0.00013   0.00018
   D16       -3.14063  -0.00002   0.00000  -0.00087  -0.00088  -3.14151
   D17        3.14140   0.00000   0.00000   0.00006   0.00007   3.14147
   D18        0.00046  -0.00001   0.00000  -0.00068  -0.00068  -0.00022
   D19       -0.00106   0.00001   0.00000   0.00053   0.00053  -0.00053
   D20        3.13941   0.00001   0.00000   0.00076   0.00076   3.14017
   D21        3.13991   0.00002   0.00000   0.00124   0.00124   3.14116
   D22       -0.00280   0.00003   0.00000   0.00148   0.00147  -0.00133
   D23       -0.00402   0.00002   0.00000   0.00077   0.00077  -0.00324
   D24        3.13818   0.00000   0.00000   0.00008   0.00008   3.13826
   D25        0.00125  -0.00001   0.00000  -0.00066  -0.00066   0.00059
   D26       -3.14055  -0.00001   0.00000  -0.00047  -0.00047  -3.14102
   D27       -3.13922  -0.00001   0.00000  -0.00088  -0.00088  -3.14010
   D28        0.00217  -0.00001   0.00000  -0.00069  -0.00069   0.00148
   D29        3.14158   0.00001   0.00000   0.00044   0.00044  -3.14116
   D30       -0.00052   0.00002   0.00000   0.00139   0.00139   0.00086
   D31       -0.00121   0.00001   0.00000   0.00068   0.00068  -0.00053
   D32        3.13987   0.00003   0.00000   0.00163   0.00163   3.14150
   D33       -0.00004   0.00000   0.00000   0.00015   0.00015   0.00011
   D34       -3.14143  -0.00000   0.00000  -0.00004  -0.00005  -3.14147
   D35       -1.02608   0.00005   0.00000   0.00105   0.00105  -1.02502
   D36        1.02557  -0.00003   0.00000  -0.00004  -0.00004   1.02554
   D37        3.14131   0.00001   0.00000   0.00054   0.00054  -3.14134
   D38        2.11598   0.00003   0.00000   0.00019   0.00019   2.11617
   D39       -2.11555  -0.00005   0.00000  -0.00090  -0.00090  -2.11645
   D40        0.00018  -0.00000   0.00000  -0.00033  -0.00033  -0.00015
   D41        0.00053   0.00001   0.00000   0.00003   0.00003   0.00056
   D42       -3.14151   0.00002   0.00000   0.00086   0.00086  -3.14065
         Item               Value     Threshold  Converged?
 Maximum Force            0.007127     0.000450     NO 
 RMS     Force            0.001775     0.000300     NO 
 Maximum Displacement     0.070086     0.001800     NO 
 RMS     Displacement     0.014438     0.001200     NO 
 Predicted change in Energy=-3.222961D-04
 GradGradGradGradGradGradGradGradGradGradGradGradGradGradGradGradGradGrad

                          Input orientation:                          
 ---------------------------------------------------------------------
 Center     Atomic      Atomic             Coordinates (Angstroms)
 Number     Number       Type             X           Y           Z
 ---------------------------------------------------------------------
      1          6           0       -1.549411   -1.264815    0.000074
      2          6           0       -2.279201   -0.074008   -0.000342
      3          6           0       -1.628134    1.174892   -0.000048
      4          6           0       -0.254050    1.203962    0.000492
      5          6           0        0.555328    0.017713    0.000554
      6          6           0       -0.168685   -1.227166    0.000694
      7          8           0        0.549414   -2.354140    0.001437
      8          6           0        1.974138    0.082388   -0.000598
      9          6           0        2.909271   -1.069698   -0.001167
     10          8           0        2.606387    1.218541   -0.000808
     11          8           0        0.419065    2.380452    0.000892
     12          8           0       -3.602363   -0.200003   -0.000932
     13          1           0       -2.088340   -2.207478    0.000039
     14          1           0       -2.200990    2.098779    0.000042
     15          1           0       -0.026886   -3.130020    0.001361
     16          1           0        2.739637   -1.703115    0.874298
     17          1           0        2.738616   -1.703145   -0.876415
     18          1           0        3.931526   -0.691615   -0.001791
     19          1           0        1.985392    1.980316    0.000428
     20          1           0       -0.165995    3.149302   -0.002133
     21          1           0       -4.054476    0.653822   -0.001354
 ---------------------------------------------------------------------
                    Distance matrix (angstroms):
                    1          2          3          4          5
     1  C    0.000000
     2  C    1.396644   0.000000
     3  C    2.440976   1.408417   0.000000
     4  C    2.787978   2.394670   1.374391   0.000000
     5  C    2.464712   2.836013   2.471147   1.436064   0.000000
     6  C    1.381239   2.405006   2.810671   2.432627   1.440111
     7  O    2.364677   3.633190   4.146779   3.647691   2.371861
     8  C    3.772314   4.256213   3.764296   2.494544   1.420283
     9  C    4.462949   5.283147   5.062235   3.895655   2.592974
    10  O    4.841251   5.053677   4.234746   2.860474   2.376727
    11  O    4.142809   3.647603   2.375794   1.355438   2.366665
    12  O    2.312669   1.329148   2.405809   3.630747   4.163388
    13  H    1.085845   2.141991   3.413534   3.873312   3.455497
    14  H    3.426122   2.174194   1.087075   2.142726   3.453712
    15  H    2.407711   3.796331   4.593066   4.339931   3.201124
    16  H    4.399125   5.348618   5.303284   4.263425   2.914770
    17  H    4.398584   5.347904   5.302793   4.263366   2.914991
    18  H    5.510829   6.241360   5.864612   4.594809   3.449908
    19  H    4.798511   4.733603   3.702199   2.370195   2.428352
    20  H    4.625827   3.854267   2.456858   1.947334   3.213591
    21  H    3.155396   1.918682   2.481663   3.840038   4.653486
                    6          7          8          9         10
     6  C    0.000000
     7  O    1.336314   0.000000
     8  C    2.511299   2.822501   0.000000
     9  C    3.081982   2.686768   1.483839   0.000000
    10  O    3.698988   4.122523   1.300224   2.308198   0.000000
    11  O    3.655183   4.736386   2.774770   4.254958   2.476776
    12  O    3.584022   4.677346   5.583646   6.569456   6.368740
    13  H    2.155478   2.641828   4.663391   5.125491   5.811891
    14  H    3.897714   5.233852   4.636542   6.012821   4.887299
    15  H    1.908130   0.966494   3.784662   3.586914   5.083711
    16  H    3.073768   2.445976   2.130599   1.093816   3.052809
    17  H    3.073804   2.446840   2.130637   1.093818   3.052937
    18  H    4.135040   3.768645   2.104864   1.089933   2.324799
    19  H    3.863676   4.566130   1.897962   3.186870   0.982821
    20  H    4.376470   5.549748   3.739804   5.220845   3.378452
    21  H    4.317116   5.499422   6.055635   7.173862   6.684759
                   11         12         13         14         15
    11  O    0.000000
    12  O    4.778141   0.000000
    13  H    5.228401   2.514403   0.000000
    14  H    2.635152   2.692256   4.307730   0.000000
    15  H    5.528487   4.622666   2.258467   5.662779   0.000000
    16  H    4.777385   6.576195   4.932349   6.295118   3.232913
    17  H    4.777630   6.575251   4.931736   6.294641   3.233336
    18  H    4.666368   7.549912   6.207788   6.737511   4.649178
    19  H    1.616629   5.998066   5.842338   4.188058   5.492249
    20  H    0.966144   4.798591   5.691266   2.290155   6.280864
    21  H    4.795187   0.966139   3.471705   2.350172   5.526205
                   16         17         18         19         20
    16  H    0.000000
    17  H    1.750714   0.000000
    18  H    1.792000   1.791981   0.000000
    19  H    3.860078   3.860582   3.305550   0.000000
    20  H    5.723354   5.722533   5.616255   2.448469   0.000000
    21  H    7.244438   7.243419   8.098545   6.183817   4.620358
                   21
    21  H    0.000000
 Stoichiometry    C8H9O4(1+)
 Framework group  C1[X(C8H9O4)]
 Deg. of freedom    57
 Full point group                 C1      NOp   1
 Largest Abelian subgroup         C1      NOp   1
 Largest concise Abelian subgroup C1      NOp   1
                         Standard orientation:                         
 ---------------------------------------------------------------------
 Center     Atomic      Atomic             Coordinates (Angstroms)
 Number     Number       Type             X           Y           Z
 ---------------------------------------------------------------------
      1          6           0        1.554005   -1.257562   -0.000106
      2          6           0        2.279386   -0.064065    0.000310
      3          6           0        1.623705    1.182418    0.000015
      4          6           0        0.249523    1.206407   -0.000524
      5          6           0       -0.555462    0.017173   -0.000586
      6          6           0        0.173150   -1.225020   -0.000726
      7          8           0       -0.540776   -2.354642   -0.001469
      8          6           0       -1.974502    0.076601    0.000566
      9          6           0       -2.905368   -1.078936    0.001135
     10          8           0       -2.610948    1.210408    0.000776
     11          8           0       -0.427938    2.380399   -0.000924
     12          8           0        3.603006   -0.185165    0.000900
     13          1           0        2.096417   -2.198226   -0.000071
     14          1           0        2.193141    2.108418   -0.000075
     15          1           0        0.038389   -3.128385   -0.001393
     16          1           0       -2.733392   -1.711721   -0.874331
     17          1           0       -2.732371   -1.711748    0.876383
     18          1           0       -3.929014   -0.704637    0.001758
     19          1           0       -1.992775    1.974474   -0.000460
     20          1           0        0.154274    3.151408    0.002101
     21          1           0        4.051958    0.670326    0.001322
 ---------------------------------------------------------------------
 Rotational constants (GHZ):      1.5324743      0.7628656      0.5109148
 Standard basis: 6-31+G(d,p) (6D, 7F)
 There are   273 symmetry adapted cartesian basis functions of A   symmetry.
 There are   273 symmetry adapted basis functions of A   symmetry.
   273 basis functions,   447 primitive gaussians,   273 cartesian basis functions
    44 alpha electrons       44 beta electrons
       nuclear repulsion energy       715.2686901685 Hartrees.
 NAtoms=   21 NActive=   21 NUniq=   21 SFac= 1.00D+00 NAtFMM=   60 NAOKFM=F Big=F
 Integral buffers will be    131072 words long.
 Raffenetti 2 integral format.
 Two-electron integral symmetry is turned on.
 R6APFD:  NTU= -4 IXU= 1 FactS= 1.050
 Nuclear repulsion after empirical dispersion term =      715.2536519290 Hartrees.
 One-electron integrals computed using PRISM.
 NBasis=   273 RedAO= T EigKep=  1.38D-06  NBF=   273
 NBsUse=   273 1.00D-06 EigRej= -1.00D+00 NBFU=   273
 Initial guess from the checkpoint file:  "APFDTHAPyang.chk"
 B after Tr=     0.000000    0.000000    0.000000
         Rot=    0.999998   -0.000039   -0.000010   -0.002038 Ang=  -0.23 deg.
 ExpMin= 4.38D-02 ExpMax= 5.48D+03 ExpMxC= 8.25D+02 IAcc=2 IRadAn=         4 AccDes= 0.00D+00
 Harris functional with IExCor= 3731 and IRadAn=       4 diagonalized for initial guess.
 HarFok:  IExCor= 3731 AccDes= 0.00D+00 IRadAn=         4 IDoV= 1 UseB2=F ITyADJ=14
 ICtDFT=  3500011 ScaDFX=  1.000000  1.000000  1.000000  1.000000
 FoFCou: FMM=F IPFlag=           0 FMFlag=      100000 FMFlg1=           0
         NFxFlg=           0 DoJE=T BraDBF=F KetDBF=T FulRan=T
         wScrn=  0.000000 ICntrl=     500 IOpCl=  0 I1Cent=   200000004 NGrid=           0
         NMat0=    1 NMatS0=      1 NMatT0=    0 NMatD0=    1 NMtDS0=    0 NMtDT0=    0
 Petite list used in FoFCou.
 Keep R1 ints in memory in canonical form, NReq=709970467.
 Requested convergence on RMS density matrix=1.00D-08 within 128 cycles.
 Requested convergence on MAX density matrix=1.00D-06.
 Requested convergence on             energy=1.00D-06.
 No special actions if energy rises.
 SCF Done:  E(RAPFD) =  -610.490386448     A.U. after   12 cycles
            NFock= 12  Conv=0.45D-08     -V/T= 2.0086
 R6APFD:  NTU= -4 IXU= 1 FactS= 1.050
 Calling FoFJK, ICntrl=      2127 FMM=F ISym2X=0 I1Cent= 0 IOpClX= 0 NMat=1 NMatS=1 NMatT=0.
 ***** Axes restored to original set *****
 -------------------------------------------------------------------
 Center     Atomic                   Forces (Hartrees/Bohr)
 Number     Number              X              Y              Z
 -------------------------------------------------------------------
      1        6           0.000370456    0.000165305    0.000009761
      2        6          -0.001028483   -0.000524387   -0.000008909
      3        6          -0.000034927    0.000530362    0.000007057
      4        6           0.000614540   -0.000249236   -0.000019872
      5        6          -0.001255319   -0.000625088   -0.000024224
      6        6           0.001532063   -0.001096091    0.000005758
      7        8          -0.000524444    0.001007095   -0.000011729
      8        6           0.002814728    0.001268156    0.000078113
      9        6          -0.000808240   -0.000072461   -0.000031899
     10        8           0.001220556   -0.003072958    0.000018749
     11        8          -0.003914822    0.001052781   -0.000010391
     12        8           0.000508806    0.000783912   -0.000000095
     13        1          -0.000131973    0.000087989    0.000001300
     14        1          -0.000110449   -0.000008349   -0.000001013
     15        1           0.000441574   -0.000315139    0.000000722
     16        1           0.000048497   -0.000242137   -0.000007129
     17        1           0.000047628   -0.000254196    0.000009401
     18        1          -0.000008106   -0.000221937   -0.000001236
     19        1           0.000323904    0.001302586   -0.000037179
     20        1           0.000393478    0.000611252    0.000019979
     21        1          -0.000499467   -0.000127458    0.000002839
 -------------------------------------------------------------------
 Cartesian Forces:  Max     0.003914822 RMS     0.000895930

 GradGradGradGradGradGradGradGradGradGradGradGradGradGradGradGradGradGrad
 Berny optimization.
 Using GEDIIS/GDIIS optimizer.
 FormGI is forming the generalized inverse of G from B-inverse, IUseBI=4.
 Internal  Forces:  Max     0.007901963 RMS     0.001625100
 Search for a local minimum.
 Step number   2 out of a maximum of  104
 All quantities printed in internal units (Hartrees-Bohrs-Radians)
 Mixed Optimization -- RFO/linear search
 Update second derivatives using D2CorX and points    1    2
 DE= -1.65D-04 DEPred=-3.22D-04 R= 5.11D-01
 TightC=F SS=  1.41D+00  RLast= 4.07D-02 DXNew= 5.0454D-01 1.2204D-01
 Trust test= 5.11D-01 RLast= 4.07D-02 DXMaxT set to 3.00D-01
 ITU=  1  0
 Use linear search instead of GDIIS.
     Eigenvalues ---    0.00912   0.01527   0.01565   0.01710   0.01772
     Eigenvalues ---    0.01952   0.02026   0.02078   0.02111   0.02166
     Eigenvalues ---    0.02192   0.02212   0.02237   0.02447   0.02557
     Eigenvalues ---    0.02936   0.07505   0.07523   0.15545   0.16000
     Eigenvalues ---    0.16000   0.16000   0.16000   0.16000   0.16000
     Eigenvalues ---    0.16000   0.16180   0.21934   0.23484   0.23631
     Eigenvalues ---    0.25000   0.25000   0.25000   0.25000   0.25000
     Eigenvalues ---    0.27681   0.34354   0.34423   0.34491   0.34907
     Eigenvalues ---    0.35326   0.35514   0.37782   0.39788   0.42043
     Eigenvalues ---    0.43348   0.45379   0.46873   0.49530   0.50505
     Eigenvalues ---    0.53161   0.53557   0.53611   0.54976   0.57779
     Eigenvalues ---    0.63840   0.80121
 RFO step:  Lambda=-3.52099259D-04 EMin= 9.11611900D-03
 Quartic linear search produced a step of -0.32837.
 Iteration  1 RMS(Cart)=  0.02253257 RMS(Int)=  0.00012423
 Iteration  2 RMS(Cart)=  0.00020575 RMS(Int)=  0.00000120
 Iteration  3 RMS(Cart)=  0.00000001 RMS(Int)=  0.00000120
 Variable       Old X    -DE/DX   Delta X   Delta X   Delta X     New X
                                 (Linear)    (Quad)   (Total)
    R1        2.63927   0.00006   0.00151  -0.00411  -0.00261   2.63667
    R2        2.61016   0.00036   0.00133  -0.00313  -0.00180   2.60836
    R3        2.05195  -0.00001  -0.00080   0.00215   0.00135   2.05330
    R4        2.66152  -0.00020   0.00029  -0.00117  -0.00088   2.66065
    R5        2.51173  -0.00007   0.00338  -0.00914  -0.00577   2.50596
    R6        2.59722   0.00054   0.00126  -0.00261  -0.00134   2.59588
    R7        2.05427   0.00005  -0.00074   0.00211   0.00137   2.05564
    R8        2.71377   0.00392   0.00330  -0.00208   0.00122   2.71499
    R9        2.56141  -0.00030   0.00420  -0.01168  -0.00748   2.55393
   R10        2.72142  -0.00016   0.00263  -0.00729  -0.00466   2.71675
   R11        2.68395   0.00357   0.00226  -0.00037   0.00189   2.68584
   R12        2.52527  -0.00063   0.00410  -0.01177  -0.00766   2.51761
   R13        1.82641  -0.00001   0.00168  -0.00453  -0.00285   1.82356
   R14        2.80405   0.00017   0.00320  -0.00832  -0.00513   2.79892
   R15        2.45707  -0.00080   0.00357  -0.01037  -0.00681   2.45026
   R16        2.06701   0.00013  -0.00026   0.00096   0.00070   2.06771
   R17        2.06702   0.00013  -0.00026   0.00096   0.00070   2.06772
   R18        2.05967  -0.00009  -0.00035   0.00079   0.00044   2.06011
   R19        1.85726   0.00080   0.00109  -0.00185  -0.00077   1.85650
   R20        1.82575   0.00025   0.00162  -0.00406  -0.00243   1.82332
   R21        1.82574   0.00012   0.00176  -0.00457  -0.00281   1.82293
    A1        2.09335   0.00040   0.00035  -0.00025   0.00010   2.09346
    A2        2.07242  -0.00036   0.00042  -0.00221  -0.00180   2.07062
    A3        2.11741  -0.00003  -0.00077   0.00246   0.00169   2.11910
    A4        2.11122  -0.00041  -0.00041  -0.00046  -0.00086   2.11036
    A5        2.02568   0.00058   0.00233  -0.00456  -0.00223   2.02344
    A6        2.14628  -0.00017  -0.00192   0.00501   0.00310   2.14938
    A7        2.07250   0.00080   0.00106  -0.00055   0.00050   2.07300
    A8        2.10601  -0.00050  -0.00048  -0.00027  -0.00075   2.10526
    A9        2.10468  -0.00030  -0.00058   0.00083   0.00025   2.10492
   A10        2.14839  -0.00046  -0.00031  -0.00006  -0.00038   2.14801
   A11        2.11163  -0.00411  -0.00180  -0.00626  -0.00806   2.10357
   A12        2.02316   0.00457   0.00212   0.00632   0.00844   2.03160
   A13        2.01607  -0.00125  -0.00096  -0.00036  -0.00132   2.01475
   A14        2.12399   0.00790   0.00321   0.01226   0.01546   2.13946
   A15        2.14312  -0.00665  -0.00225  -0.01190  -0.01414   2.12898
   A16        2.12483   0.00092   0.00028   0.00168   0.00196   2.12679
   A17        2.11085   0.00041  -0.00053   0.00255   0.00202   2.11288
   A18        2.04750  -0.00133   0.00025  -0.00423  -0.00398   2.04352
   A19        1.93542   0.00099   0.00180  -0.00088   0.00093   1.93634
   A20        2.20707  -0.00458  -0.00133  -0.00867  -0.01000   2.19707
   A21        2.12416   0.00601   0.00173   0.01139   0.01313   2.13728
   A22        1.95196  -0.00143  -0.00041  -0.00272  -0.00313   1.94883
   A23        1.93005   0.00016   0.00023  -0.00007   0.00016   1.93021
   A24        1.93010   0.00018   0.00023   0.00002   0.00024   1.93034
   A25        1.89837   0.00025  -0.00086   0.00366   0.00280   1.90117
   A26        1.85552  -0.00027   0.00006  -0.00172  -0.00166   1.85386
   A27        1.92494  -0.00017   0.00019  -0.00105  -0.00086   1.92409
   A28        1.92491  -0.00017   0.00018  -0.00100  -0.00082   1.92409
   A29        1.94985   0.00200   0.00388  -0.00242   0.00146   1.95131
   A30        1.97143   0.00125   0.00161   0.00078   0.00239   1.97383
   A31        1.96284   0.00091   0.00219  -0.00227  -0.00008   1.96276
    D1       -0.00008  -0.00000  -0.00001   0.00003   0.00002  -0.00006
    D2        3.14159   0.00000   0.00006  -0.00016  -0.00009   3.14150
    D3        3.14137  -0.00000  -0.00006   0.00022   0.00016   3.14153
    D4       -0.00015   0.00000   0.00002   0.00003   0.00005  -0.00010
    D5       -0.00031   0.00000  -0.00013   0.00054   0.00041   0.00010
    D6        3.14130   0.00000  -0.00006   0.00036   0.00030  -3.14159
    D7        3.14144   0.00000  -0.00008   0.00034   0.00026  -3.14149
    D8       -0.00015   0.00000  -0.00002   0.00017   0.00015   0.00001
    D9        0.00014   0.00000   0.00006  -0.00016  -0.00011   0.00003
   D10       -3.14115   0.00000   0.00012  -0.00035  -0.00023  -3.14138
   D11       -3.14153  -0.00000  -0.00002   0.00004   0.00001  -3.14152
   D12        0.00037  -0.00000   0.00004  -0.00015  -0.00011   0.00025
   D13       -3.14142  -0.00000  -0.00002  -0.00005  -0.00007  -3.14149
   D14        0.00025  -0.00000   0.00006  -0.00024  -0.00018   0.00007
   D15        0.00018  -0.00000   0.00004  -0.00028  -0.00023  -0.00005
   D16       -3.14151   0.00001   0.00029  -0.00068  -0.00039   3.14128
   D17        3.14147  -0.00000  -0.00002  -0.00009  -0.00011   3.14136
   D18       -0.00022   0.00001   0.00022  -0.00049  -0.00027  -0.00049
   D19       -0.00053   0.00000  -0.00017   0.00079   0.00062   0.00009
   D20        3.14017   0.00001  -0.00025   0.00139   0.00114   3.14132
   D21        3.14116  -0.00001  -0.00041   0.00118   0.00077  -3.14126
   D22       -0.00133  -0.00001  -0.00048   0.00178   0.00130  -0.00003
   D23       -0.00324   0.00001  -0.00025   0.00119   0.00093  -0.00231
   D24        3.13826   0.00002  -0.00003   0.00081   0.00078   3.13904
   D25        0.00059  -0.00000   0.00022  -0.00092  -0.00070  -0.00011
   D26       -3.14102  -0.00000   0.00015  -0.00075  -0.00060   3.14157
   D27       -3.14010  -0.00001   0.00029  -0.00153  -0.00124  -3.14134
   D28        0.00148  -0.00001   0.00023  -0.00137  -0.00114   0.00034
   D29       -3.14116  -0.00001  -0.00014   0.00035   0.00021  -3.14096
   D30        0.00086  -0.00002  -0.00046   0.00075   0.00029   0.00116
   D31       -0.00053   0.00000  -0.00022   0.00100   0.00077   0.00024
   D32        3.14150  -0.00002  -0.00054   0.00140   0.00086  -3.14083
   D33        0.00011  -0.00000  -0.00005   0.00013   0.00008   0.00019
   D34       -3.14147   0.00000   0.00001  -0.00003  -0.00002  -3.14149
   D35       -1.02502   0.00005  -0.00035   0.00115   0.00081  -1.02421
   D36        1.02554  -0.00008   0.00001  -0.00100  -0.00099   1.02454
   D37       -3.14134  -0.00001  -0.00018   0.00013  -0.00004  -3.14138
   D38        2.11617   0.00007  -0.00006   0.00079   0.00073   2.11690
   D39       -2.11645  -0.00006   0.00030  -0.00136  -0.00107  -2.11752
   D40       -0.00015   0.00001   0.00011  -0.00023  -0.00012  -0.00026
   D41        0.00056  -0.00002  -0.00001  -0.00042  -0.00043   0.00013
   D42       -3.14065  -0.00004  -0.00028  -0.00007  -0.00035  -3.14100
         Item               Value     Threshold  Converged?
 Maximum Force            0.007902     0.000450     NO 
 RMS     Force            0.001625     0.000300     NO 
 Maximum Displacement     0.086856     0.001800     NO 
 RMS     Displacement     0.022515     0.001200     NO 
 Predicted change in Energy=-2.286597D-04
 GradGradGradGradGradGradGradGradGradGradGradGradGradGradGradGradGradGrad

                          Input orientation:                          
 ---------------------------------------------------------------------
 Center     Atomic      Atomic             Coordinates (Angstroms)
 Number     Number       Type             X           Y           Z
 ---------------------------------------------------------------------
      1          6           0       -1.538083   -1.260261    0.000248
      2          6           0       -2.275537   -0.075810    0.000043
      3          6           0       -1.632437    1.176690   -0.000152
      4          6           0       -0.259290    1.214949   -0.000179
      5          6           0        0.557941    0.033310    0.000048
      6          6           0       -0.158605   -1.213038    0.000191
      7          8           0        0.567376   -2.330117    0.000375
      8          6           0        1.978283    0.085050   -0.000315
      9          6           0        2.889529   -1.082581   -0.000880
     10          8           0        2.633851    1.203736    0.000391
     11          8           0        0.394469    2.397784   -0.000722
     12          8           0       -3.594436   -0.213783    0.000001
     13          1           0       -2.072389   -2.206371    0.000450
     14          1           0       -2.212086    2.097184   -0.000111
     15          1           0       -0.000323   -3.110449    0.000369
     16          1           0        2.706835   -1.713761    0.874036
     17          1           0        2.706702   -1.713193   -0.876183
     18          1           0        3.920051   -0.726938   -0.000839
     19          1           0        2.031354    1.979711    0.001304
     20          1           0       -0.199267    3.158324   -0.003118
     21          1           0       -4.053693    0.634529   -0.000238
 ---------------------------------------------------------------------
                    Distance matrix (angstroms):
                    1          2          3          4          5
     1  C    0.000000
     2  C    1.395264   0.000000
     3  C    2.438776   1.407953   0.000000
     4  C    2.786032   2.394016   1.373680   0.000000
     5  C    2.463055   2.835578   2.470845   1.436711   0.000000
     6  C    1.380286   2.403057   2.807664   2.430074   1.437644
     7  O    2.361684   3.628230   4.139670   3.640175   2.363446
     8  C    3.764929   4.256860   3.772132   2.506672   1.421284
     9  C    4.431175   5.262270   5.054946   3.897910   2.584862
    10  O    4.845236   5.073394   4.266374   2.893162   2.383128
    11  O    4.137155   3.639725   2.366310   1.351481   2.370119
    12  O    2.307315   1.326096   2.404756   3.628288   4.159722
    13  H    1.086558   2.140224   3.411548   3.872049   3.454679
    14  H    3.424429   2.173920   1.087797   2.142837   3.454364
    15  H    2.405806   3.792840   4.587304   4.333144   3.192943
    16  H    4.357579   5.317027   5.286605   4.259048   2.904110
    17  H    4.357921   5.317095   5.286491   4.258933   2.904346
    18  H    5.484128   6.229709   5.869746   4.608450   3.446993
    19  H    4.820612   4.772261   3.750762   2.414935   2.441193
    20  H    4.616961   3.843244   2.445580   1.944304   3.215445
    21  H    3.149369   1.914791   2.481213   3.838539   4.650660
                    6          7          8          9         10
     6  C    0.000000
     7  O    1.332259   0.000000
     8  C    2.500265   2.797086   0.000000
     9  C    3.050925   2.636046   1.481125   0.000000
    10  O    3.693049   4.093707   1.296622   2.300569   0.000000
    11  O    3.652934   4.731062   2.803071   4.282320   2.537830
    12  O    3.578189   4.668999   5.580725   6.541911   6.387559
    13  H    2.156219   2.642664   4.653875   5.087586   5.811843
    14  H    3.895427   5.227466   4.648428   6.011437   4.927612
    15  H    1.904002   0.964988   3.758470   3.530368   5.054807
    16  H    3.037281   2.391749   2.128614   1.094186   3.046370
    17  H    3.037791   2.392836   2.128713   1.094191   3.046665
    18  H    4.107521   3.716263   2.104706   1.090164   2.319874
    19  H    3.871636   4.551686   1.895405   3.180267   0.982415
    20  H    4.371552   5.541727   3.766530   5.246517   3.441945
    21  H    4.311057   5.490302   6.056952   7.152398   6.711724
                   11         12         13         14         15
    11  O    0.000000
    12  O    4.767772   0.000000
    13  H    5.223374   2.507396   0.000000
    14  H    2.623832   2.692853   4.305822   0.000000
    15  H    5.522364   4.616094   2.260711   5.657857   0.000000
    16  H    4.797608   6.536045   4.883318   6.283568   3.169028
    17  H    4.797185   6.536074   4.883791   6.283387   3.169961
    18  H    4.711010   7.531988   6.172363   6.751205   4.588078
    19  H    1.689432   6.038288   5.862081   4.245067   5.480643
    20  H    0.964858   4.785215   5.682302   2.275405   6.271931
    21  H    4.784895   0.964651   3.463565   2.351781   5.518576
                   16         17         18         19         20
    16  H    0.000000
    17  H    1.750219   0.000000
    18  H    1.791960   1.791966   0.000000
    19  H    3.854824   3.855336   3.300473   0.000000
    20  H    5.740387   5.739214   5.662513   2.522860   0.000000
    21  H    7.209963   7.209856   8.089140   6.231960   4.607184
                   21
    21  H    0.000000
 Stoichiometry    C8H9O4(1+)
 Framework group  C1[X(C8H9O4)]
 Deg. of freedom    57
 Full point group                 C1      NOp   1
 Largest Abelian subgroup         C1      NOp   1
 Largest concise Abelian subgroup C1      NOp   1
                         Standard orientation:                         
 ---------------------------------------------------------------------
 Center     Atomic      Atomic             Coordinates (Angstroms)
 Number     Number       Type             X           Y           Z
 ---------------------------------------------------------------------
      1          6           0        1.539606   -1.262714   -0.000360
      2          6           0        2.277824   -0.078739   -0.000155
      3          6           0        1.635533    1.174175    0.000040
      4          6           0        0.262411    1.213321    0.000067
      5          6           0       -0.555583    0.032209   -0.000159
      6          6           0        0.160159   -1.214600   -0.000302
      7          8           0       -0.566543   -2.331211   -0.000487
      8          6           0       -1.975891    0.084866    0.000203
      9          6           0       -2.887890   -1.082176    0.000768
     10          8           0       -2.630736    1.203975   -0.000503
     11          8           0       -0.390585    2.396578    0.000610
     12          8           0        3.596634   -0.217563   -0.000113
     13          1           0        2.073302   -2.209169   -0.000562
     14          1           0        2.215776    2.094295   -0.000001
     15          1           0        0.000653   -3.111910   -0.000481
     16          1           0       -2.705604   -1.713475   -0.874147
     17          1           0       -2.705470   -1.712907    0.876071
     18          1           0       -3.918182   -0.725868    0.000727
     19          1           0       -2.027739    1.979561   -0.001415
     20          1           0        0.203643    3.156734    0.003007
     21          1           0        4.056439    0.630452    0.000126
 ---------------------------------------------------------------------
 Rotational constants (GHZ):      1.5356703      0.7635194      0.5115621
 Standard basis: 6-31+G(d,p) (6D, 7F)
 There are   273 symmetry adapted cartesian basis functions of A   symmetry.
 There are   273 symmetry adapted basis functions of A   symmetry.
   273 basis functions,   447 primitive gaussians,   273 cartesian basis functions
    44 alpha electrons       44 beta electrons
       nuclear repulsion energy       715.7253374810 Hartrees.
 NAtoms=   21 NActive=   21 NUniq=   21 SFac= 1.00D+00 NAtFMM=   60 NAOKFM=F Big=F
 Integral buffers will be    131072 words long.
 Raffenetti 2 integral format.
 Two-electron integral symmetry is turned on.
 R6APFD:  NTU= -4 IXU= 1 FactS= 1.050
 Nuclear repulsion after empirical dispersion term =      715.7103264334 Hartrees.
 One-electron integrals computed using PRISM.
 NBasis=   273 RedAO= T EigKep=  1.36D-06  NBF=   273
 NBsUse=   273 1.00D-06 EigRej= -1.00D+00 NBFU=   273
 Initial guess from the checkpoint file:  "APFDTHAPyang.chk"
 B after Tr=    -0.000000   -0.000000   -0.000000
         Rot=    0.999996   -0.000015   -0.000012    0.002736 Ang=  -0.31 deg.
 ExpMin= 4.38D-02 ExpMax= 5.48D+03 ExpMxC= 8.25D+02 IAcc=2 IRadAn=         4 AccDes= 0.00D+00
 Harris functional with IExCor= 3731 and IRadAn=       4 diagonalized for initial guess.
 HarFok:  IExCor= 3731 AccDes= 0.00D+00 IRadAn=         4 IDoV= 1 UseB2=F ITyADJ=14
 ICtDFT=  3500011 ScaDFX=  1.000000  1.000000  1.000000  1.000000
 FoFCou: FMM=F IPFlag=           0 FMFlag=      100000 FMFlg1=           0
         NFxFlg=           0 DoJE=T BraDBF=F KetDBF=T FulRan=T
         wScrn=  0.000000 ICntrl=     500 IOpCl=  0 I1Cent=   200000004 NGrid=           0
         NMat0=    1 NMatS0=      1 NMatT0=    0 NMatD0=    1 NMtDS0=    0 NMtDT0=    0
 Petite list used in FoFCou.
 Keep R1 ints in memory in canonical form, NReq=709970467.
 Requested convergence on RMS density matrix=1.00D-08 within 128 cycles.
 Requested convergence on MAX density matrix=1.00D-06.
 Requested convergence on             energy=1.00D-06.
 No special actions if energy rises.
 SCF Done:  E(RAPFD) =  -610.490264608     A.U. after   12 cycles
            NFock= 12  Conv=0.82D-08     -V/T= 2.0085
 R6APFD:  NTU= -4 IXU= 1 FactS= 1.050
 Calling FoFJK, ICntrl=      2127 FMM=F ISym2X=0 I1Cent= 0 IOpClX= 0 NMat=1 NMatS=1 NMatT=0.
 ***** Axes restored to original set *****
[...]
 072,-0.00000089,-0.04543544,-0.00263571,0.00001212,0.01049102,0.016034
 78,-0.00000157,0.00014502,-0.00477666,0.00000124,-0.13214649,-0.370611
 88,0.00006908,-0.01372934,-0.06140562,0.00000840,-0.05184437,0.7153378
 1,0.00000031,0.00000066,-0.00150541,-0.00000180,-0.00000135,0.00029526
 ,0.00000224,0.00000128,-0.00016690,-0.00000245,0.00000525,-0.00341442,
 0.00001119,0.00001509,0.01872168,0.00000433,-0.00000425,0.00878413,-0.
 00000120,0.00000125,0.00006150,0.00005625,0.00006515,-0.05919364,0.000
 00013,0.00000164,0.00976032,-0.00011330,-0.00003987,0.05241233,0.00877
 343,-0.00685449,0.00000076,-0.00495007,0.01844798,-0.00000536,-0.02969
 980,-0.05771298,-0.00001284,-0.17393850,-0.05920574,-0.00008260,0.0304
 0662,0.01527449,0.00000418,-0.01660593,-0.00226908,0.00000162,0.003685
 06,0.00019630,0.00000081,-0.01941393,-0.01321641,0.00000768,0.00095460
 ,0.00169071,0.00000065,-0.02096044,0.03421301,-0.00000097,0.45295619,0
 .00471992,-0.00619306,-0.00000054,0.00380218,0.01265378,0.00000144,-0.
 02249707,-0.01645207,-0.00001515,-0.11495355,-0.27833230,-0.00001395,-
 0.00373761,-0.04132461,-0.00000419,-0.00192805,-0.00249876,0.00000323,
 0.00008541,-0.00320613,0.00000082,-0.01955737,-0.00564103,0.00000524,0
 .00051198,-0.00209053,0.00000068,0.02055485,0.00775790,-0.00001388,-0.
 12778532,0.67963600,0.00000285,-0.00000531,-0.00174790,0.00000136,0.00
 000868,0.01020346,-0.00001080,-0.00000624,0.01247114,-0.00004469,0.000
 06192,-0.04182115,0.00002643,0.00001223,0.00236771,-0.00000722,0.00000
 378,0.00284180,0.00000120,0.00000253,0.00048929,-0.00000284,-0.0000044
 7,-0.00143527,-0.00000061,-0.00000305,0.00058490,-0.00001259,0.0000012
 1,0.00358792,0.00055426,-0.00064491,0.02509492,-0.06141029,0.01848823,
 -0.00000898,-0.38055217,-0.05080375,-0.00002533,-0.03061835,-0.0045861
 6,0.00000015,0.01164683,-0.00349103,-0.00000125,-0.01803718,-0.0012934
 5,0.00000153,0.01844614,0.00457963,0.00000058,-0.00377811,0.00290145,-
 0.00000083,0.01604223,0.00342821,-0.00000331,-0.00060222,0.00228453,-0
 .00000079,-0.00476862,-0.00748853,0.00000183,-0.00158161,-0.00196005,0
 .00000006,0.59208595,0.05143734,0.00797952,0.00000283,0.00071398,-0.12
 020852,0.00001036,-0.03635753,0.00919211,-0.00000360,0.00785753,-0.007
 29228,0.00000310,-0.00057207,0.00349068,-0.00000087,-0.00655999,-0.008
 45728,0.00000212,0.00414569,-0.00160396,0.00000100,-0.00024315,0.00030
 469,-0.00000089,-0.00002145,0.00012663,0.00000033,0.00003094,0.0009795
 1,-0.00000006,-0.00419072,-0.00124852,-0.00000129,-0.17956296,0.536868
 96,-0.00001306,0.00000221,0.00724995,-0.00003436,0.00000305,-0.0484999
 9,0.00000061,-0.00000067,0.01327814,-0.00000212,-0.00000129,0.00818485
 ,-0.00000003,-0.00000046,-0.00118025,0.00000368,0.00000250,0.00467882,
 -0.00000095,0.00000019,-0.00063491,0.00000035,0.00000068,-0.00027070,-
 0.00000044,-0.00000013,0.00012717,-0.00000035,-0.00000112,-0.00002139,
 0.00000119,0.00000077,-0.00160923,0.00008200,-0.00008633,0.03229753,-0
 .12811367,-0.12538895,0.00000781,0.01327087,0.01617957,-0.00000111,-0.
 00205368,0.00290948,-0.00000114,-0.00125302,0.00071963,0.00000090,-0.0
 0408367,0.00205057,-0.00000117,-0.01121794,-0.02752260,0.00000311,0.00
 281260,-0.00101904,0.00000118,0.00011533,-0.00150469,-0.00000078,0.000
 05082,0.00001320,0.00000026,-0.00057774,-0.00018257,0.00000043,0.00048
 937,0.00011658,-0.00000028,0.00035744,-0.00063515,0.00000020,0.1316643
 5,-0.12390030,-0.27884194,0.00002523,-0.01579267,-0.01982588,0.0000037
 7,0.00373002,-0.00225312,-0.00000051,0.00111694,0.00012140,0.00000198,
 0.00081589,0.00085437,0.00000008,0.00353310,0.00262215,0.00000131,0.00
 098760,0.00261076,-0.00000085,0.00032141,0.00020554,-0.00000054,0.0000
 2838,0.00006307,0.00000040,0.00002871,0.00010069,-0.00000024,-0.000264
 20,0.00013608,-0.00000098,-0.00111469,0.00171028,-0.00000132,0.1320148
 8,0.29258774,0.00000741,0.00002830,-0.02862458,0.00000435,0.00000382,0
 .00345846,-0.00000153,0.00000041,0.00442092,-0.00000062,-0.00000015,-0
 .00137354,-0.00000025,0.00000169,0.00550710,-0.00000065,-0.00000368,0.
 00271501,0.00000024,-0.00000061,-0.00492264,0.,-0.00000040,0.00113044,
 -0.00000006,-0.00000013,-0.00009472,-0.00000021,0.,-0.00068381,0.00000
 069,-0.00000051,-0.00009797,-0.00000035,-0.00000073,-0.00293942,-0.000
 00915,-0.00002851,0.02046697,-0.00140215,-0.00299906,0.00000040,0.0108
 3024,-0.01423147,-0.00000145,-0.13895053,0.12757801,0.00001261,-0.0126
 3352,0.02843933,0.00000244,-0.00421314,-0.00260247,-0.00000038,-0.0010
 3044,-0.00080413,-0.00000011,0.00035010,-0.00000069,0.00000010,-0.0000
 5191,0.00193431,-0.00000108,-0.00040499,-0.00033003,0.00000051,0.00020
 645,-0.00047032,-0.00000006,0.00302684,0.00078180,-0.00000131,0.002491
 82,0.00005388,0.00000043,0.00062526,-0.00069730,0.00000043,0.14428346,
 -0.00393367,-0.00264396,-0.00000029,0.01863081,-0.01880973,-0.00000157
 ,0.12809814,-0.26394631,-0.00002186,-0.00370624,0.00296861,-0.00000082
 ,-0.00098388,0.00093201,-0.00000058,-0.00127344,-0.00005628,-0.0000001
 9,0.00032370,0.00008073,-0.00000002,-0.00047753,-0.00003123,0.,-0.0000
 4380,0.00001401,-0.00000007,0.00002742,0.00040948,0.,-0.00110512,0.002
 47759,-0.00000084,0.00049942,0.00272739,0.00000105,0.00093378,-0.00088
 336,0.00000030,-0.13572546,0.27750071,0.00000075,0.00000032,0.00398460
 ,0.00000201,0.00000281,0.00201846,0.00001409,-0.00003176,-0.02650704,-
 0.00000109,0.00000465,0.00346588,-0.00000091,-0.00000097,0.00546176,-0
 .00000060,0.00000006,-0.00140434,0.00000047,-0.00000066,-0.00004749,-0
 .00000102,0.00000064,0.00111386,-0.00000034,-0.00000033,-0.00040296,0.
 00000048,0.00000028,-0.00003811,0.00000198,-0.00000307,-0.00511590,-0.
 00000114,0.00000022,-0.00338036,-0.00000006,0.00000011,0.00051874,-0.0
 0001523,0.00002374,0.01844593,-0.00039297,0.00561752,-0.00000075,-0.00
 047182,-0.00132660,0.00000025,0.00037491,0.00029407,-0.00000007,0.0004
 5041,0.00076910,-0.00000001,-0.00135240,0.00374048,-0.00000142,0.01564
 086,0.02620145,-0.00000170,-0.22180667,-0.25752855,0.00000736,-0.00080
 248,0.00042429,-0.00000001,-0.00149504,-0.00009684,0.00000065,0.000205
 71,0.00033489,-0.00000002,-0.00041154,-0.00000389,-0.00000037,-0.00016
 578,0.00003635,0.00000005,-0.00182434,-0.00088924,-0.00000024,-0.00008
 800,-0.00015593,0.00000003,0.21210749,-0.00391096,0.00580169,-0.000001
 95,0.00100117,-0.00329069,0.00000083,0.00128004,0.00136728,-0.00000060
 ,-0.00304031,-0.00047755,0.00000105,0.00660110,-0.00129534,-0.00000028
 ,-0.02108866,-0.04006712,0.00000355,-0.20425061,-0.33622902,0.00002095
 ,-0.00161932,-0.00037900,-0.00000007,0.00016665,-0.00001176,0.00000066
 ,0.00064887,0.00090684,-0.00000036,0.00085895,0.00044095,0.00000047,-0
 .00153366,0.00068255,-0.00000040,0.00143588,0.00039935,0.00000012,0.00
 007229,0.00009373,0.00000008,0.22368072,0.37239689,0.00000063,-0.00000
 091,-0.00225536,-0.00000006,-0.00000003,-0.00106909,0.00000038,0.00000
 006,-0.00009071,0.00000067,0.00000067,0.00136717,-0.00000176,0.0000007
 3,0.00354026,0.00000524,0.00001093,-0.00206071,-0.00000061,0.00001268,
 -0.00831971,-0.00000058,-0.00000015,-0.00065907,0.00000068,-0.00000016
 ,0.00051040,-0.00000020,-0.00000068,-0.00025190,-0.00000004,0.00000008
 ,0.00002983,0.00000012,-0.00000022,0.00003441,-0.00000054,-0.00000020,
 0.00100140,-0.00000002,0.,0.00004986,-0.00000414,-0.00002374,0.0077337
 1,0.00012504,-0.00015009,0.00016048,0.00047219,0.00072936,0.00013824,-
 0.00065550,-0.00082002,-0.00030972,0.00119604,-0.00112800,0.00099399,-
 0.00390929,-0.00035863,0.00126680,-0.00145407,0.00418509,-0.00049072,-
 0.00149760,-0.00263498,-0.00104709,0.00727926,0.00771808,-0.02038095,-
 0.05366364,-0.02158431,0.03780088,-0.00125474,0.00222301,0.00063891,-0
 .00000878,0.00036166,0.00011637,-0.00057142,-0.00010608,0.00000298,-0.
 00004168,-0.00003654,-0.00005454,0.00000464,-0.00000530,-0.00007707,-0
 .00003596,-0.00026923,0.00019554,0.05465178,-0.00010733,-0.00003275,0.
 00022743,0.00034698,0.00009416,0.00003269,-0.00016386,-0.00026034,0.00
 021681,0.00032177,-0.00083368,-0.00080715,-0.00155651,0.00010558,-0.00
 139844,0.00016795,0.00165243,0.00047782,-0.00077410,-0.00137580,-0.000
 98585,-0.00365930,-0.01828205,0.02079677,-0.02440258,-0.13063278,0.134
 45766,0.00324335,-0.00291098,-0.00015938,0.00034362,0.00033483,-0.0001
 1699,-0.00039000,-0.00002908,-0.00004614,-0.00003610,-0.00000002,-0.00
 002316,-0.00001770,0.00000034,0.00005486,-0.00034242,0.00006458,-0.000
 20257,0.02566874,0.14758987,0.00064621,-0.00048813,-0.00024892,-0.0002
 5809,0.00042291,-0.00004570,-0.00008803,-0.00007767,0.00001006,-0.0000
 3104,0.00020937,0.00013576,0.00030091,0.00021870,0.00071123,-0.0007495
 0,0.00130003,0.00008353,0.00097922,-0.00054412,0.00029529,-0.00111081,
 -0.00198551,0.00145996,0.03673656,0.13309955,-0.21808969,-0.00013370,-
 0.00210505,-0.00091116,-0.00001340,-0.00027873,-0.00009667,0.00029167,
 -0.00007592,0.00000423,-0.00002864,-0.00001652,0.00004259,-0.00000440,
 -0.00000970,-0.00000447,0.00041474,-0.00003270,0.00001391,-0.03997189,
 -0.14194467,0.23625695,0.00012407,-0.00015008,-0.00015985,0.00047225,0
 .00072857,-0.00013911,-0.00065481,-0.00081955,0.00031070,0.00119475,-0
 .00112838,-0.00099497,-0.00390824,-0.00035895,-0.00126371,-0.00145368,
 0.00418553,0.00048957,-0.00150143,-0.00263682,0.00104915,0.00729851,0.
 00772211,0.02037291,-0.05373601,-0.02171591,-0.03793779,-0.00125561,0.
 00222763,-0.00063996,-0.00000890,0.00036175,-0.00011479,-0.00057156,-0
 .00010616,-0.00000282,-0.00004177,-0.00003661,0.00005474,0.00000454,-0
 .00000528,0.00007707,-0.00003681,-0.00026987,-0.00019486,-0.00011023,0
 .00155159,0.00361834,0.05473030,-0.00010747,-0.00003265,-0.00022701,0.
 00034750,0.00009412,-0.00003315,-0.00016430,-0.00026123,-0.00021589,0.
 00032264,-0.00083283,0.00080591,-0.00155685,0.00010474,0.00139936,0.00
 016786,0.00165297,-0.00047840,-0.00077525,-0.00137641,0.00098668,-0.00
 367808,-0.01828847,-0.02078212,-0.02453605,-0.13075207,-0.13447795,0.0
 0324468,-0.00291166,0.00015625,0.00034406,0.00033483,0.00011779,-0.000
 39043,-0.00002892,0.00004621,-0.00003607,0.00000008,0.00002318,-0.0000
 1765,0.00000039,-0.00005485,-0.00034287,0.00006450,0.00020290,0.001563
 88,0.01010092,0.01549200,0.02581333,0.14771727,-0.00064658,0.00048774,
 -0.00024906,0.00025747,-0.00042378,-0.00004550,0.00008913,0.00007854,0
 .00000987,0.00002936,-0.00020695,0.00013623,-0.00029499,-0.00021867,0.
 00071170,0.00075179,-0.00130430,0.00008447,-0.00097798,0.00054829,0.00
 029442,0.00110387,0.00199012,0.00144920,-0.03687050,-0.13312618,-0.217
 91702,0.00013269,0.00210423,-0.00091087,0.00001299,0.00027801,-0.00009
 643,-0.00029101,0.00007578,0.00000414,0.00002854,0.00001633,0.00004256
 ,0.00000437,0.00000980,-0.00000447,-0.00041459,0.00003259,0.00001435,-
 0.00363831,-0.01550711,-0.02076892,0.04012424,0.14196462,0.23607072,-0
 .00005317,-0.00001906,-0.00000043,0.00011783,-0.00002725,0.00000030,-0
 .00003130,0.00038317,-0.00000038,-0.00083885,-0.00095276,0.00000103,0.
 00035691,0.00332045,0.00000027,0.00043621,0.00000582,0.00000003,-0.000
 13215,-0.00042627,0.00000050,-0.02288108,-0.00706366,0.00001021,-0.300
 14538,-0.08931706,0.00012729,0.00233461,-0.00258557,-0.00000112,0.0005
 6898,0.00008961,-0.00000052,-0.00006838,0.00000116,-0.00000008,-0.0000
 0447,-0.00000567,0.00000005,-0.00008430,-0.00000283,-0.00000008,-0.000
 04184,0.00017825,0.00000006,-0.00111197,0.00009594,-0.00054575,-0.0011
 3167,0.00009063,0.00054795,0.32263997,-0.00038925,0.00043241,0.0000000
 6,-0.00009202,-0.00044424,-0.00000034,0.00030830,-0.00031164,0.0000002
 4,0.00111319,0.00087496,-0.00000042,0.00128828,-0.00484741,0.00000096,
 0.00041457,-0.00180549,-0.00000002,-0.00198174,0.00016085,0.00000079,0
 .03075210,0.00849084,-0.00001554,-0.09751869,-0.08388650,0.00004727,0.
 00074352,0.00028802,-0.00000036,-0.00025515,-0.00000045,0.00000043,0.0
 0003950,0.00007991,0.00000011,0.00005341,0.00001787,0.00000001,0.00015
 261,0.00002275,0.00000005,-0.00037540,0.00013399,0.00000016,-0.0154811
 7,-0.00492797,-0.00301923,-0.01548726,-0.00492869,0.00303582,0.0962366
 4,0.09072866,-0.00000002,0.00000002,-0.00023189,-0.00000009,-0.0000001
 1,0.00005322,0.00000019,-0.00000003,-0.00023620,0.00000017,0.00000078,
 0.00086745,0.00000068,-0.00000061,0.00191023,0.00000002,-0.00000055,-0
 .00035176,-0.00000020,0.00000090,0.00099777,0.00000175,0.00000307,-0.0
 0230148,0.00012881,0.00004260,-0.04840450,-0.00000113,0.00000025,-0.00
 082061,-0.00000050,-0.00000005,-0.00010182,0.00000005,-0.00000002,-0.0
 0000073,-0.00000002,-0.00000001,0.00002301,0.00000006,0.,-0.00006795,0
 .00000016,-0.00000018,0.00009506,0.02377166,0.00627713,0.00176819,-0.0
 2376222,-0.00627373,0.00179031,-0.00013921,-0.00004941,0.04518821,-0.0
 0333229,0.00287568,-0.00000013,0.00137219,-0.00419840,0.00000112,0.003
 60025,0.00400889,0.00000288,-0.00927479,-0.02662562,-0.00000037,-0.013
 50099,-0.00110068,0.00000188,0.00399198,0.00362449,-0.00000098,-0.0007
 0007,0.00030630,-0.00000010,0.03682191,-0.00991410,-0.00001053,-0.0025
 0139,-0.00475967,0.00000337,-0.21143974,0.19787999,0.00004168,0.003544
 28,0.00563283,0.00002289,-0.00117451,0.00092876,-0.00000054,-0.0001509
 2,0.00007908,-0.00000005,-0.00046469,0.00023815,0.00000001,0.00009208,
 0.00001876,-0.00000016,0.00049586,-0.00040613,-0.00002660,0.00049628,-
 0.00040575,0.00002607,-0.00002412,0.00054823,-0.00000012,0.18753690,0.
 00273715,-0.00155653,-0.00000006,-0.00247628,0.00254297,-0.00000061,-0
 .00139143,-0.00317277,-0.00000097,-0.00549529,0.01741504,0.00000240,0.
 00989602,0.00164601,-0.00000250,-0.00227814,-0.00473007,0.00000062,0.0
 0013662,0.00121915,-0.00000014,0.00879859,-0.04718202,0.00000103,-0.00
 286013,-0.00005167,0.00000310,0.16899847,-0.26573637,-0.00003086,-0.00
 539409,-0.01599722,0.00000074,0.00207392,-0.00064533,0.00000018,0.0002
 2043,-0.00005057,0.00000006,0.00043238,-0.00007909,-0.00000003,-0.0000
 9575,-0.00019523,0.00000009,0.00025901,-0.00059166,-0.00023806,0.00025
 868,-0.00059105,0.00023794,-0.00002380,-0.00009210,-0.00000010,-0.1745
 7600,0.31915250,0.00000054,-0.00000024,0.00020884,-0.00000057,0.000000
 04,0.00021536,-0.00000091,-0.00000117,0.00049753,-0.00000184,0.0000033
 2,0.00024725,0.00000136,-0.00000005,-0.00290545,-0.00000180,-0.0000009
 5,-0.00100458,0.00000051,0.,-0.00017160,-0.00001262,0.00000839,-0.0007
 5393,0.00000587,0.00000294,0.01152619,0.00004541,-0.00004085,-0.026766
 09,0.00001713,0.00001134,-0.00268691,0.00000057,0.00000015,-0.00010276
 ,0.00000016,0.00000035,0.00011607,0.00000033,-0.00000011,-0.00000113,-
 0.00000010,0.00000009,0.00009796,0.00096800,-0.00143492,-0.00068323,-0
 .00096949,0.00143394,-0.00068276,-0.00000036,-0.00000044,-0.00022949,-
 0.00004264,0.00002623,0.02416137,0.00052475,-0.00028406,0.00000032,-0.
 00061171,0.00130248,0.00000059,0.00008791,-0.00517771,-0.00000167,0.01
 780729,-0.01910894,0.00004230,-0.00038084,-0.00415538,-0.00000182,0.00
 022893,-0.00099645,-0.00000087,-0.00031739,-0.00002775,-0.00000022,-0.
 00252114,-0.00212105,0.00000118,0.00011393,0.00016642,-0.00000072,-0.0
 0334724,0.00351439,0.00000387,-0.23796863,0.25444503,-0.00052867,-0.00
 020867,0.00003688,-0.00000006,-0.00008642,0.00013494,-0.00000043,-0.00
 175807,0.00070259,0.00000150,0.00003873,-0.00006514,-0.00000015,0.0000
 3350,0.00007417,0.00000184,0.00003357,0.00007409,-0.00000188,0.0000779
 4,-0.00004517,0.,0.00484776,0.00086161,-0.00000989,0.22354745,-0.00116
 560,0.00119545,0.00000092,-0.00057101,-0.00295230,-0.00000553,0.003049
 02,0.00547686,-0.00000188,0.02217863,-0.03491447,0.00004408,-0.0062341
 2,-0.00135904,0.00000675,0.00306031,-0.00058680,-0.00000177,-0.0009205
 9,0.00044574,-0.00000049,0.00080511,-0.00056087,-0.00000090,-0.0001007
 3,0.00044572,-0.00000038,-0.00326673,0.00290592,0.00000369,0.20690187,
 -0.33042795,0.00057311,0.00129133,0.00064339,0.00000087,-0.00009584,0.
 00006275,0.00000026,-0.00158103,0.00017313,0.00000452,0.00007415,-0.00
 030087,0.00000016,-0.00006159,-0.00002697,0.00004590,-0.00006160,-0.00
 002705,-0.00004567,0.00002118,0.00001821,0.,0.00615922,-0.00161992,-0.
 00000773,-0.22907388,0.36131035,-0.00000059,0.00000176,-0.00005261,-0.
 00000092,-0.00000232,-0.00094852,0.00000173,-0.00000278,-0.00184986,0.
 00000085,-0.00004142,-0.00293886,-0.00001235,-0.00000702,0.00322823,0.
 00000351,-0.00000151,0.00132029,-0.00000048,-0.00000234,0.00000197,0.0
 0000372,0.00000468,-0.00077233,-0.00000024,0.00000068,-0.00049606,0.00
 001410,-0.00000875,0.00102374,-0.00048847,0.00067338,-0.00303202,-0.00
 000109,-0.00000047,0.00016068,0.00000007,0.00000006,0.00005656,0.00000
 286,0.00000183,0.00101982,0.00000024,-0.00000028,0.00003005,-0.0000513
 3,0.00009614,0.00003822,0.00005075,-0.00009660,0.00003823,0.00000015,-
 0.00000008,0.00003577,-0.00001771,0.00000084,-0.00113861,0.00049475,-0
 .00061567,0.00415291,-0.00444535,-0.00393085,-0.00000129,-0.02872262,0
 .04420108,-0.00000681,0.00411611,0.00102062,-0.00000085,-0.00212028,0.
 00021494,0.00000219,0.00183143,-0.00038945,-0.00000084,-0.00088783,0.0
 0224140,-0.00000012,-0.00017606,-0.00075450,0.00000036,-0.00170995,-0.
 00055072,-0.00000013,0.00011873,-0.00024943,0.00000052,0.00062706,0.00
 065152,-0.00000031,0.00114275,0.00095932,-0.00000073,-0.13696153,0.163
 11275,-0.00003667,0.00006329,-0.00005373,0.00000017,-0.00074163,-0.002
 03553,-0.00000085,0.00001544,0.00010509,-0.00000017,0.00005657,0.00004
 195,-0.00002765,0.00005645,0.00004209,0.00002737,0.00001620,-0.0000245
 0,-0.00000004,-0.00023596,-0.00008198,0.00000033,-0.00014165,-0.000408
 09,0.00000044,0.16809884,-0.00321459,0.00227660,0.00000145,-0.00531752
 ,0.00477490,-0.00000367,-0.00548768,0.00228070,0.00000184,0.00090511,-
 0.00097246,-0.00000289,-0.00187729,-0.00018678,0.00000115,0.00197539,0
 .00067908,-0.00000076,-0.00030136,0.00013646,-0.00000036,0.00186632,0.
 00041803,0.00000036,-0.00001624,0.00026377,-0.00000073,-0.00050616,-0.
 00102671,0.00000036,-0.00001769,-0.00035936,0.00000118,0.21702849,-0.4
 2527176,0.00008004,-0.00022640,0.00036276,-0.00000027,0.00003271,-0.00
 095092,-0.00000067,-0.00001554,-0.00010579,0.00000020,-0.00007288,-0.0
 0003863,0.00002753,-0.00007273,-0.00003881,-0.00002716,0.00000110,-0.0
 0000398,0.00000004,-0.00031400,0.00031593,-0.00000034,-0.00025705,0.00
 009873,-0.00000016,-0.20411198,0.41734826,-0.00000087,0.00000072,0.004
 60120,-0.00000004,0.00000205,-0.00411868,0.00000069,0.00000024,-0.0022
 2312,-0.00000004,0.00000027,-0.00106397,-0.00000064,-0.00000017,-0.000
 08930,-0.00000071,0.00000057,0.00284409,0.00000029,-0.00000035,-0.0009
 9462,0.00000057,-0.00000027,0.00003996,0.00000019,0.00000016,-0.000141
 10,0.00000006,0.00000017,0.00003741,0.00000022,-0.00000002,0.00017031,
 -0.00004450,0.00007451,-0.00738017,0.00000022,0.00000007,-0.00076312,-
 0.00000049,-0.00000068,0.00089531,-0.00000006,0.00000016,0.00018819,-0
 .00003222,-0.00001094,0.00002886,0.00003210,0.00001087,0.00002884,0.00
 000007,-0.00000006,0.00001722,0.00000003,0.00000010,0.00005596,0.00000
 003,-0.00000024,0.00012240,0.00004508,-0.00007714,0.00774436\\-0.00000
 290,-0.00002505,-0.00000057,0.00000654,-0.00000263,0.00000036,-0.00001
 277,0.00003301,0.00000069,0.00001365,0.00000267,-0.00000427,0.00001372
 ,0.00000377,-0.00000112,0.00000417,0.00000831,-0.00000103,-0.00000597,
 -0.00001890,0.00000130,0.00000354,0.00002715,0.00000565,0.00001388,0.0
 0000430,-0.00000275,0.00001801,-0.00001401,-0.00000258,-0.00001991,0.0
 0003177,0.00001307,-0.00001118,0.00000634,0.00000010,-0.00000316,0.000
 00967,0.00000022,0.00000334,-0.00000749,0.00000179,-0.00000121,-0.0000
 0486,-0.00000053,-0.00000110,-0.00000311,-0.00000265,-0.00000004,-0.00
 000468,0.00000263,-0.00000172,-0.00000432,-0.00000044,-0.00000998,-0.0
 0004950,-0.00000029,-0.00000110,0.00000187,-0.00000902,-0.00000580,0.0
 0000569,-0.00000058\\\@


 The number of Unix installations has grown to 10,
  with more expected.
                  -- The Unix Programmer's Manual,
                     2nd Edition, June, 1972.
 Job cpu time:       0 days  0 hours 37 minutes 58.9 seconds.
 File lengths (MBytes):  RWF=    168 Int=      0 D2E=      0 Chk=      7 Scr=      1
 Normal termination of Gaussian 09 at Sun Jun 16 16:39:48 2024.
