 Entering Gaussian System, Link 0=g09
 Input=B2PLYPTHAP.gjf
 Output=B2PLYPTHAP.log
 Initial command:
 /home/c612/g09E/g09/l1.exe "/mnt/ja_sm883/scratch/Gau-656511.inp" -scrdir="/mnt/ja_sm883/scratch/"
 Default is to use a total of  18 processors:
                               18 via shared-memory
                                1 via Linda
 Entering Link 1 = /home/c612/g09E/g09/l1.exe PID=    656513.
  
 Copyright (c) 1988,1990,1992,1993,1995,1998,2003,2009,2015,
            Gaussian, Inc.  All Rights Reserved.
  
 This is part of the Gaussian(R) 09 program.  It is based on
 the Gaussian(R) 03 system (copyright 2003, Gaussian, Inc.),
 the Gaussian(R) 98 system (copyright 1998, Gaussian, Inc.),
 the Gaussian(R) 94 system (copyright 1995, Gaussian, Inc.),
 the Gaussian 92(TM) system (copyright 1992, Gaussian, Inc.),
 the Gaussian 90(TM) system (copyright 1990, Gaussian, Inc.),
 the Gaussian 88(TM) system (copyright 1988, Gaussian, Inc.),
 the Gaussian 86(TM) system (copyright 1986, Carnegie Mellon
 University), and the Gaussian 82(TM) system (copyright 1983,
 Carnegie Mellon University). Gaussian is a federally registered
 trademark of Gaussian, Inc.
  
 This software contains proprietary and confidential information,
 including trade secrets, belonging to Gaussian, Inc.
  
 This software is provided under written license and may be
 used, copied, transmitted, or stored only in accord with that
 written license.
  
 The following legend is applicable only to US Government
 contracts under FAR:
  
                    RESTRICTED RIGHTS LEGEND
  
 Use, reproduction and disclosure by the US Government is
 subject to restrictions as set forth in subparagraphs (a)
 and (c) of the Commercial Computer Software - Restricted
 Rights clause in FAR 52.227-19.
  
 Gaussian, Inc.
 340 Quinnipiac St., Bldg. 40, Wallingford CT 06492
  
  
 ---------------------------------------------------------------
 Warning -- This program may not be used in any manner that
 competes with the business of Gaussian, Inc. or will provide
 assistance to any competitor of Gaussian, Inc.  The licensee
 of this program is prohibited from giving any competitor of
 Gaussian, Inc. access to this program.  By using this program,
 the user acknowledges that Gaussian, Inc. is engaged in the
 business of creating and licensing software in the field of
 computational chemistry and represents and warrants to the
 licensee that it is not a competitor of Gaussian, Inc. and that
 it will not use this program in any manner prohibited above.
 ---------------------------------------------------------------
  

 Cite this work as:
 Gaussian 09, Revision E.01,
 M. J. Frisch, G. W. Trucks, H. B. Schlegel, G. E. Scuseria, 
 M. A. Robb, J. R. Cheeseman, G. Scalmani, V. Barone, B. Mennucci, 
 G. A. Petersson, H. Nakatsuji, M. Caricato, X. Li, H. P. Hratchian, 
 A. F. Izmaylov, J. Bloino, G. Zheng, J. L. Sonnenberg, M. Hada, 
 M. Ehara, K. Toyota, R. Fukuda, J. Hasegawa, M. Ishida, T. Nakajima, 
 Y. Honda, O. Kitao, H. Nakai, T. Vreven, J. A. Montgomery, Jr., 
 J. E. Peralta, F. Ogliaro, M. Bearpark, J. J. Heyd, E. Brothers, 
 K. N. Kudin, V. N. Staroverov, T. Keith, R. Kobayashi, J. Normand, 
 K. Raghavachari, A. Rendell, J. C. Burant, S. S. Iyengar, J. Tomasi, 
 M. Cossi, N. Rega, J. M. Millam, M. Klene, J. E. Knox, J. B. Cross, 
 V. Bakken, C. Adamo, J. Jaramillo, R. Gomperts, R. E. Stratmann, 
 O. Yazyev, A. J. Austin, R. Cammi, C. Pomelli, J. W. Ochterski, 
 R. L. Martin, K. Morokuma, V. G. Zakrzewski, G. A. Voth, 
 P. Salvador, J. J. Dannenberg, S. Dapprich, A. D. Daniels, 
 O. Farkas, J. B. Foresman, J. V. Ortiz, J. Cioslowski, 
 and D. J. Fox, Gaussian, Inc., Wallingford CT, 2013.
 
 ******************************************
 Gaussian 09:  ES64L-G09RevE.01 30-Nov-2015
                15-Dec-2024 
 ******************************************
 %chk=B2PLYPTHAP.chk
 -----------------------------
 # opt freq B2PLYP/6-31+g(d,p)
 -----------------------------
 1/18=20,19=15,38=1/1,3;
 2/9=110,12=2,17=6,18=5,40=1/2;
 3/5=1,6=6,7=111,11=9,16=1,25=1,30=1,71=1,74=-47/1,2,3;
 4//1;
 5/5=2,38=5/2;
 8/6=4,10=2/1;
 9/15=2,16=-3/6;
 10/5=1/2;
 6/7=2,8=2,9=2,10=2/1;
 7/12=2/1,2,3,16;
 1/18=20,19=15/3(2);
 2/9=110/2;
 99//99;
 2/9=110/2;
 3/5=1,6=6,7=111,11=9,16=1,25=1,30=1,71=1,74=-47/1,2,3;
 4/5=5,16=3,69=1/1;
 5/5=2,38=5/2;
 8/6=4,10=2/1;
 9/15=2,16=-3/6;
 10/5=1/2;
 7/12=2/1,2,3,16;
 1/18=20,19=15/3(-8);
 2/9=110/2;
 6/7=2,8=2,9=2,10=2/1;
 99//99;
 ----------
 [No Title]
 ----------
 Symbolic Z-matrix:
 Charge =  0 Multiplicity = 1
 C                     1.52167   1.25153  -0.00006 
 C                     2.25586   0.06064  -0.00004 
 C                     1.6264   -1.17419   0.00001 
 C                     0.23005  -1.2281    0.00004 
 C                    -0.56187  -0.04019   0.00003 
 C                     0.13837   1.19213  -0.00003 
 O                    -0.58718   2.34101  -0.00003 
 C                    -2.02637  -0.17136   0.00008 
 C                    -2.94794   1.02076  -0.00003 
 O                    -2.54343  -1.29811   0.0001 
 O                    -0.32931  -2.43321   0.00005 
 O                     3.60346   0.187    -0.00006 
 H                     2.04982   2.1993   -0.00007 
 H                     2.18114  -2.10651   0.00002 
 H                     0.01034   3.09801  -0.0003 
 H                    -2.76764   1.64724  -0.87651 
 H                    -3.9708    0.64553  -0.00003 
 H                    -2.76769   1.64735   0.87638 
 H                    -1.31904  -2.28817   0.00001 
 H                     4.01846  -0.68364  -0.00004 
 

 GradGradGradGradGradGradGradGradGradGradGradGradGradGradGradGradGradGrad
 Berny optimization.
 Initialization pass.
                           ----------------------------
                           !    Initial Parameters    !
                           ! (Angstroms and Degrees)  !
 --------------------------                            --------------------------
 ! Name  Definition              Value          Derivative Info.                !
 --------------------------------------------------------------------------------
 ! R1    R(1,2)                  1.399          estimate D2E/DX2                !
 ! R2    R(1,6)                  1.3846         estimate D2E/DX2                !
 ! R3    R(1,13)                 1.085          estimate D2E/DX2                !
 ! R4    R(2,3)                  1.386          estimate D2E/DX2                !
 ! R5    R(2,12)                 1.3535         estimate D2E/DX2                !
 ! R6    R(3,4)                  1.3974         estimate D2E/DX2                !
 ! R7    R(3,14)                 1.0849         estimate D2E/DX2                !
 ! R8    R(4,5)                  1.4277         estimate D2E/DX2                !
 ! R9    R(4,11)                 1.3286         estimate D2E/DX2                !
 ! R10   R(5,6)                  1.4174         estimate D2E/DX2                !
 ! R11   R(5,8)                  1.4704         estimate D2E/DX2                !
 ! R12   R(6,7)                  1.3588         estimate D2E/DX2                !
 ! R13   R(7,15)                 0.9644         estimate D2E/DX2                !
 ! R14   R(8,9)                  1.5068         estimate D2E/DX2                !
 ! R15   R(8,10)                 1.2397         estimate D2E/DX2                !
 ! R16   R(9,16)                 1.0923         estimate D2E/DX2                !
 ! R17   R(9,17)                 1.0895         estimate D2E/DX2                !
 ! R18   R(9,18)                 1.0923         estimate D2E/DX2                !
 ! R19   R(11,19)                1.0003         estimate D2E/DX2                !
 ! R20   R(12,20)                0.9645         estimate D2E/DX2                !
 ! A1    A(2,1,6)              119.1949         estimate D2E/DX2                !
 ! A2    A(2,1,13)             119.2172         estimate D2E/DX2                !
 ! A3    A(6,1,13)             121.5878         estimate D2E/DX2                !
 ! A4    A(1,2,3)              121.3356         estimate D2E/DX2                !
 ! A5    A(1,2,12)             116.2973         estimate D2E/DX2                !
 ! A6    A(3,2,12)             122.3671         estimate D2E/DX2                !
 ! A7    A(2,3,4)              119.2213         estimate D2E/DX2                !
 ! A8    A(2,3,14)             122.236          estimate D2E/DX2                !
 ! A9    A(4,3,14)             118.5427         estimate D2E/DX2                !
 ! A10   A(3,4,5)              121.4785         estimate D2E/DX2                !
 ! A11   A(3,4,11)             117.1095         estimate D2E/DX2                !
 ! A12   A(5,4,11)             121.4121         estimate D2E/DX2                !
 ! A13   A(4,5,6)              116.7044         estimate D2E/DX2                !
 ! A14   A(4,5,8)              118.5712         estimate D2E/DX2                !
 ! A15   A(6,5,8)              124.7245         estimate D2E/DX2                !
 ! A16   A(1,6,5)              122.0653         estimate D2E/DX2                !
 ! A17   A(1,6,7)              119.8143         estimate D2E/DX2                !
 ! A18   A(5,6,7)              118.1203         estimate D2E/DX2                !
 ! A19   A(6,7,15)             109.4413         estimate D2E/DX2                !
 ! A20   A(5,8,9)              122.5878         estimate D2E/DX2                !
 ! A21   A(5,8,10)             119.7681         estimate D2E/DX2                !
 ! A22   A(9,8,10)             117.6441         estimate D2E/DX2                !
 ! A23   A(8,9,16)             110.6619         estimate D2E/DX2                !
 ! A24   A(8,9,17)             107.5607         estimate D2E/DX2                !
 ! A25   A(8,9,18)             110.6614         estimate D2E/DX2                !
 ! A26   A(16,9,17)            110.6391         estimate D2E/DX2                !
 ! A27   A(16,9,18)            106.7116         estimate D2E/DX2                !
 ! A28   A(17,9,18)            110.6392         estimate D2E/DX2                !
 ! A29   A(4,11,19)            106.5615         estimate D2E/DX2                !
 ! A30   A(2,12,20)            110.1288         estimate D2E/DX2                !
 ! D1    D(6,1,2,3)             -0.0001         estimate D2E/DX2                !
 ! D2    D(6,1,2,12)          -179.9998         estimate D2E/DX2                !
 ! D3    D(13,1,2,3)           179.9986         estimate D2E/DX2                !
 ! D4    D(13,1,2,12)           -0.0011         estimate D2E/DX2                !
 ! D5    D(2,1,6,5)              0.0006         estimate D2E/DX2                !
 ! D6    D(2,1,6,7)            179.999          estimate D2E/DX2                !
 ! D7    D(13,1,6,5)          -179.9981         estimate D2E/DX2                !
 ! D8    D(13,1,6,7)             0.0003         estimate D2E/DX2                !
 ! D9    D(1,2,3,4)              0.0002         estimate D2E/DX2                !
 ! D10   D(1,2,3,14)           179.9996         estimate D2E/DX2                !
 ! D11   D(12,2,3,4)           180.0            estimate D2E/DX2                !
 ! D12   D(12,2,3,14)           -0.0007         estimate D2E/DX2                !
 ! D13   D(1,2,12,20)         -180.0            estimate D2E/DX2                !
 ! D14   D(3,2,12,20)            0.0003         estimate D2E/DX2                !
 ! D15   D(2,3,4,5)             -0.0008         estimate D2E/DX2                !
 ! D16   D(2,3,4,11)           179.9986         estimate D2E/DX2                !
 ! D17   D(14,3,4,5)           179.9998         estimate D2E/DX2                !
 ! D18   D(14,3,4,11)           -0.0008         estimate D2E/DX2                !
 ! D19   D(3,4,5,6)              0.0013         estimate D2E/DX2                !
 ! D20   D(3,4,5,8)           -179.9989         estimate D2E/DX2                !
 ! D21   D(11,4,5,6)          -179.9982         estimate D2E/DX2                !
 ! D22   D(11,4,5,8)             0.0017         estimate D2E/DX2                !
 ! D23   D(3,4,11,19)         -179.9966         estimate D2E/DX2                !
 ! D24   D(5,4,11,19)            0.0028         estimate D2E/DX2                !
 ! D25   D(4,5,6,1)             -0.0011         estimate D2E/DX2                !
 ! D26   D(4,5,6,7)           -179.9996         estimate D2E/DX2                !
 ! D27   D(8,5,6,1)            179.999          estimate D2E/DX2                !
 ! D28   D(8,5,6,7)              0.0005         estimate D2E/DX2                !
 ! D29   D(4,5,8,9)           -179.9953         estimate D2E/DX2                !
 ! D30   D(4,5,8,10)            -0.0017         estimate D2E/DX2                !
 ! D31   D(6,5,8,9)              0.0046         estimate D2E/DX2                !
 ! D32   D(6,5,8,10)           179.9981         estimate D2E/DX2                !
 ! D33   D(1,6,7,15)             0.0155         estimate D2E/DX2                !
 ! D34   D(5,6,7,15)          -179.9859         estimate D2E/DX2                !
 ! D35   D(5,8,9,16)            59.0344         estimate D2E/DX2                !
 ! D36   D(5,8,9,17)           179.9962         estimate D2E/DX2                !
 ! D37   D(5,8,9,18)           -59.0423         estimate D2E/DX2                !
 ! D38   D(10,8,9,16)         -120.9593         estimate D2E/DX2                !
 ! D39   D(10,8,9,17)            0.0025         estimate D2E/DX2                !
 ! D40   D(10,8,9,18)          120.964          estimate D2E/DX2                !
 --------------------------------------------------------------------------------
 Trust Radius=3.00D-01 FncErr=1.00D-07 GrdErr=1.00D-07
 Number of steps in this run=    100 maximum allowed number of steps=    120.
 GradGradGradGradGradGradGradGradGradGradGradGradGradGradGradGradGradGrad

                          Input orientation:                          
 ---------------------------------------------------------------------
 Center     Atomic      Atomic             Coordinates (Angstroms)
 Number     Number       Type             X           Y           Z
 ---------------------------------------------------------------------
      1          6           0        1.521674    1.251533   -0.000056
      2          6           0        2.255861    0.060641   -0.000035
      3          6           0        1.626396   -1.174194    0.000013
      4          6           0        0.230052   -1.228100    0.000036
      5          6           0       -0.561867   -0.040186    0.000029
      6          6           0        0.138366    1.192129   -0.000030
      7          8           0       -0.587179    2.341012   -0.000030
      8          6           0       -2.026370   -0.171356    0.000080
      9          6           0       -2.947940    1.020760   -0.000027
     10          8           0       -2.543428   -1.298111    0.000095
     11          8           0       -0.329306   -2.433207    0.000053
     12          8           0        3.603459    0.186996   -0.000059
     13          1           0        2.049818    2.199296   -0.000071
     14          1           0        2.181140   -2.106506    0.000023
     15          1           0        0.010344    3.098005   -0.000296
     16          1           0       -2.767640    1.647238   -0.876505
     17          1           0       -3.970796    0.645532   -0.000030
     18          1           0       -2.767685    1.647349    0.876381
     19          1           0       -1.319039   -2.288165    0.000011
     20          1           0        4.018455   -0.683635   -0.000042
 ---------------------------------------------------------------------
                    Distance matrix (angstroms):
                    1          2          3          4          5
     1  C    0.000000
     2  C    1.399019   0.000000
     3  C    2.427986   1.386017   0.000000
     4  C    2.795866   2.400991   1.397384   0.000000
     5  C    2.451465   2.819531   2.464644   1.427682   0.000000
     6  C    1.384583   2.400844   2.795303   2.421965   1.417366
     7  O    2.373652   3.644581   4.154105   3.661479   2.381333
     8  C    3.822725   4.288511   3.787926   2.491616   1.470365
     9  C    4.475568   5.291632   5.073694   3.893200   2.611312
    10  O    4.798514   4.987924   4.171665   2.774364   2.347117
    11  O    4.123522   3.591986   2.325916   1.328595   2.404295
    12  O    2.338176   1.353509   2.400337   3.658192   4.171517
    13  H    1.084984   2.148557   3.399959   3.880540   3.440375
    14  H    3.422181   2.168435   1.084872   2.139706   3.434205
    15  H    2.386122   3.777291   4.567637   4.331681   3.189932
    16  H    4.395789   5.340510   5.294933   4.245239   2.912241
    17  H    5.525800   6.254067   5.885572   4.599741   3.477212
    18  H    4.395840   5.340577   5.295005   4.245305   2.912284
    19  H    4.538624   4.277476   3.149050   1.877078   2.372071
    20  H    3.158922   1.913292   2.441842   3.827328   4.625297
                    6          7          8          9         10
     6  C    0.000000
     7  O    1.358804   0.000000
     8  C    2.558354   2.895387   0.000000
     9  C    3.091060   2.704858   1.506795   0.000000
    10  O    3.659688   4.131601   1.239728   2.353889   0.000000
    11  O    3.655377   4.781178   2.827719   4.334413   2.488128
    12  O    3.607930   4.711818   5.641222   6.604240   6.323746
    13  H    2.160563   2.640802   4.715432   5.134835   5.773194
    14  H    3.879938   5.238703   4.631193   6.007267   4.793229
    15  H    1.910171   0.964403   3.851873   3.614746   5.084052
    16  H    3.069235   2.450294   2.150620   1.092335   3.081198
    17  H    4.145357   3.784642   2.109052   1.089509   2.411458
    18  H    3.069276   2.450280   2.150614   1.092335   3.081218
    19  H    3.773125   4.686672   2.231860   3.688130   1.574591
    20  H    4.309708   5.510023   6.066493   7.171863   6.590591
                   11         12         13         14         15
    11  O    0.000000
    12  O    4.725686   0.000000
    13  H    5.207717   2.542273   0.000000
    14  H    2.531615   2.698730   4.307804   0.000000
    15  H    5.541630   4.624332   2.228706   5.639086   0.000000
    16  H    4.833617   6.594798   4.927556   6.272904   3.254176
    17  H    4.768551   7.588122   6.217875   6.739438   4.675906
    18  H    4.833692   6.594866   4.927591   6.272982   3.254291
    19  H    1.000304   5.509756   5.611284   3.504890   5.547800
    20  H    4.686580   0.964479   3.490963   2.323852   5.510513
                   16         17         18         19         20
    16  H    0.000000
    17  H    1.794215   0.000000
    18  H    1.752886   1.794216   0.000000
    19  H    4.284171   3.954541   4.284258   0.000000
    20  H    7.228571   8.099063   7.228644   5.573451   0.000000
 Stoichiometry    C8H8O4
 Framework group  C1[X(C8H8O4)]
 Deg. of freedom    54
 Full point group                 C1      NOp   1
 Largest Abelian subgroup         C1      NOp   1
 Largest concise Abelian subgroup C1      NOp   1
                         Standard orientation:                         
 ---------------------------------------------------------------------
 Center     Atomic      Atomic             Coordinates (Angstroms)
 Number     Number       Type             X           Y           Z
 ---------------------------------------------------------------------
      1          6           0       -1.521674    1.251533    0.000056
      2          6           0       -2.255861    0.060641    0.000035
      3          6           0       -1.626396   -1.174194   -0.000013
      4          6           0       -0.230052   -1.228100   -0.000036
      5          6           0        0.561867   -0.040186   -0.000029
      6          6           0       -0.138366    1.192129    0.000030
      7          8           0        0.587179    2.341012    0.000030
      8          6           0        2.026370   -0.171356   -0.000080
      9          6           0        2.947940    1.020760    0.000027
     10          8           0        2.543428   -1.298111   -0.000095
     11          8           0        0.329306   -2.433207   -0.000053
     12          8           0       -3.603459    0.186996    0.000059
     13          1           0       -2.049818    2.199296    0.000071
     14          1           0       -2.181140   -2.106506   -0.000023
     15          1           0       -0.010344    3.098005    0.000296
     16          1           0        2.767640    1.647238    0.876505
     17          1           0        3.970796    0.645532    0.000030
     18          1           0        2.767685    1.647349   -0.876381
     19          1           0        1.319039   -2.288165   -0.000011
     20          1           0       -4.018455   -0.683635    0.000042
 ---------------------------------------------------------------------
 Rotational constants (GHZ):      1.5550511      0.7686260      0.5160062
 Standard basis: 6-31+G(d,p) (6D, 7F)
 There are   268 symmetry adapted cartesian basis functions of A   symmetry.
 There are   268 symmetry adapted basis functions of A   symmetry.
   268 basis functions,   440 primitive gaussians,   268 cartesian basis functions
    44 alpha electrons       44 beta electrons
       nuclear repulsion energy       699.3345805856 Hartrees.
 NAtoms=   20 NActive=   20 NUniq=   20 SFac= 1.00D+00 NAtFMM=   60 NAOKFM=F Big=F
 Integral buffers will be    131072 words long.
 Regular integral format.
 Two-electron integral symmetry is turned on.
 One-electron integrals computed using PRISM.
 NBasis=   268 RedAO= T EigKep=  1.51D-06  NBF=   268
 NBsUse=   268 1.00D-06 EigRej= -1.00D+00 NBFU=   268
 ExpMin= 4.38D-02 ExpMax= 5.48D+03 ExpMxC= 8.25D+02 IAcc=2 IRadAn=         4 AccDes= 0.00D+00
 Harris functional with IExCor=  419 and IRadAn=       4 diagonalized for initial guess.
 HarFok:  IExCor=  419 AccDes= 0.00D+00 IRadAn=         4 IDoV= 1 UseB2=F ITyADJ=14
 ICtDFT=  3500011 ScaDFX=  1.000000  1.000000  1.000000  1.000000
 FoFCou: FMM=F IPFlag=           0 FMFlag=      100000 FMFlg1=           0
         NFxFlg=           0 DoJE=T BraDBF=F KetDBF=T FulRan=T
         wScrn=  0.000000 ICntrl=     500 IOpCl=  0 I1Cent=   200000004 NGrid=           0
         NMat0=    1 NMatS0=      1 NMatT0=    0 NMatD0=    1 NMtDS0=    0 NMtDT0=    0
 Petite list used in FoFCou.
 Keep R1 ints in memory in canonical form, NReq=659648347.
 Requested convergence on RMS density matrix=1.00D-08 within 128 cycles.
 Requested convergence on MAX density matrix=1.00D-06.
 Requested convergence on             energy=1.00D-06.
 No special actions if energy rises.
 SCF Done:  E(RB2PLYP) =  -609.434480541     A.U. after   15 cycles
            NFock= 15  Conv=0.73D-08     -V/T= 2.0065
 DoSCS=T DFT=T ScalE2(SS,OS)=  0.270000  0.270000
 ExpMin= 4.38D-02 ExpMax= 5.48D+03 ExpMxC= 8.25D+02 IAcc=3 IRadAn=         5 AccDes= 0.00D+00
 HarFok:  IExCor=  205 AccDes= 0.00D+00 IRadAn=         5 IDoV=-2 UseB2=F ITyADJ=14
 ICtDFT= 12500011 ScaDFX=  1.000000  1.000000  1.000000  1.000000
 Range of M.O.s used for correlation:    13   268
 NBasis=   268 NAE=    44 NBE=    44 NFC=    12 NFV=     0
 NROrb=    256 NOA=    32 NOB=    32 NVA=   224 NVB=   224

 **** Warning!!: The largest alpha MO coefficient is  0.15281430D+03

 DoSCS=T DFT=T ScalE2(SS,OS)=  0.270000  0.270000
 Fully direct method using O(ONN) memory.
 JobTyp=1 Pass  1:  I=  13 to  16 NPSUse= 18 ParTrn=T ParDer=T DoDerP=T.
 JobTyp=1 Pass  2:  I=  17 to  20 NPSUse= 18 ParTrn=T ParDer=T DoDerP=T.
 JobTyp=1 Pass  3:  I=  21 to  24 NPSUse= 18 ParTrn=T ParDer=T DoDerP=T.
 JobTyp=1 Pass  4:  I=  25 to  28 NPSUse= 18 ParTrn=T ParDer=T DoDerP=T.
 JobTyp=1 Pass  5:  I=  29 to  32 NPSUse= 18 ParTrn=T ParDer=T DoDerP=T.
 JobTyp=1 Pass  6:  I=  33 to  36 NPSUse= 18 ParTrn=T ParDer=T DoDerP=T.
 JobTyp=1 Pass  7:  I=  37 to  40 NPSUse= 18 ParTrn=T ParDer=T DoDerP=T.
 JobTyp=1 Pass  8:  I=  41 to  44 NPSUse= 18 ParTrn=T ParDer=T DoDerP=T.
 Spin components of T(2) and E(2):
     alpha-alpha T2 =       0.1281903405D+00 E2=     -0.8166190275D-01
     alpha-beta  T2 =       0.6528175188D+00 E2=     -0.4330032030D+00
     beta-beta   T2 =       0.1281903405D+00 E2=     -0.8166190275D-01
 E2(B2PLYP) =    -0.5963270085D+00 E(B2PLYP) =    -0.61003080754944D+03
          IDoAtm=11111111111111111111
          Differentiating once with respect to electric field.
                with respect to dipole field.
          Differentiating once with respect to nuclear coordinates.
 Keep R1 ints in memory in canonical form, NReq=659410000.
          There are     1 degrees of freedom in the 1st order CPHF.  IDoFFX=0 NUNeed=     1.
 LinEq1:  Iter=  0 NonCon=     1 RMS=1.95D-03 Max=6.06D-02 NDo=     1
 AX will form     1 AO Fock derivatives at one time.
 LinEq1:  Iter=  1 NonCon=     1 RMS=9.37D-04 Max=2.17D-02 NDo=     1
 LinEq1:  Iter=  2 NonCon=     1 RMS=3.25D-04 Max=9.76D-03 NDo=     1
 LinEq1:  Iter=  3 NonCon=     1 RMS=2.31D-04 Max=6.27D-03 NDo=     1
 LinEq1:  Iter=  4 NonCon=     1 RMS=9.97D-05 Max=3.92D-03 NDo=     1
 LinEq1:  Iter=  5 NonCon=     1 RMS=4.66D-05 Max=1.88D-03 NDo=     1
 LinEq1:  Iter=  6 NonCon=     1 RMS=1.73D-05 Max=6.08D-04 NDo=     1
 LinEq1:  Iter=  7 NonCon=     1 RMS=6.37D-06 Max=2.82D-04 NDo=     1
 LinEq1:  Iter=  8 NonCon=     1 RMS=3.19D-06 Max=8.53D-05 NDo=     1
 LinEq1:  Iter=  9 NonCon=     1 RMS=1.41D-06 Max=4.75D-05 NDo=     1
 LinEq1:  Iter= 10 NonCon=     1 RMS=4.73D-07 Max=1.03D-05 NDo=     1
 LinEq1:  Iter= 11 NonCon=     1 RMS=1.75D-07 Max=4.48D-06 NDo=     1
 LinEq1:  Iter= 12 NonCon=     1 RMS=9.19D-08 Max=2.55D-06 NDo=     1
 LinEq1:  Iter= 13 NonCon=     1 RMS=2.58D-08 Max=4.33D-07 NDo=     1
 LinEq1:  Iter= 14 NonCon=     1 RMS=1.23D-08 Max=3.42D-07 NDo=     1
 LinEq1:  Iter= 15 NonCon=     1 RMS=4.68D-09 Max=1.63D-07 NDo=     1
 LinEq1:  Iter= 16 NonCon=     1 RMS=2.19D-09 Max=6.01D-08 NDo=     1
 LinEq1:  Iter= 17 NonCon=     1 RMS=7.34D-10 Max=1.26D-08 NDo=     1
 LinEq1:  Iter= 18 NonCon=     1 RMS=2.60D-10 Max=4.06D-09 NDo=     1
 LinEq1:  Iter= 19 NonCon=     1 RMS=1.00D-10 Max=1.98D-09 NDo=     1
 LinEq1:  Iter= 20 NonCon=     0 RMS=2.96D-11 Max=9.36D-10 NDo=     1
 Linear equations converged to 1.000D-10 1.000D-09 after    20 iterations.
 End of Minotr F.D. properties file   721 does not exist.
 End of Minotr F.D. properties file   722 does not exist.
 End of Minotr F.D. properties file   788 does not exist.

 **********************************************************************

            Population analysis using the SCF density.

 **********************************************************************

 Orbital symmetries:
       Occupied  (A) (A) (A) (A) (A) (A) (A) (A) (A) (A) (A) (A)
                 (A) (A) (A) (A) (A) (A) (A) (A) (A) (A) (A) (A)
                 (A) (A) (A) (A) (A) (A) (A) (A) (A) (A) (A) (A)
                 (A) (A) (A) (A) (A) (A) (A) (A)
       Virtual   (A) (A) (A) (A) (A) (A) (A) (A) (A) (A) (A) (A)
                 (A) (A) (A) (A) (A) (A) (A) (A) (A) (A) (A) (A)
                 (A) (A) (A) (A) (A) (A) (A) (A) (A) (A) (A) (A)
                 (A) (A) (A) (A) (A) (A) (A) (A) (A) (A) (A) (A)
                 (A) (A) (A) (A) (A) (A) (A) (A) (A) (A) (A) (A)
                 (A) (A) (A) (A) (A) (A) (A) (A) (A) (A) (A) (A)
                 (A) (A) (A) (A) (A) (A) (A) (A) (A) (A) (A) (A)
                 (A) (A) (A) (A) (A) (A) (A) (A) (A) (A) (A) (A)
                 (A) (A) (A) (A) (A) (A) (A) (A) (A) (A) (A) (A)
                 (A) (A) (A) (A) (A) (A) (A) (A) (A) (A) (A) (A)
                 (A) (A) (A) (A) (A) (A) (A) (A) (A) (A) (A) (A)
                 (A) (A) (A) (A) (A) (A) (A) (A) (A) (A) (A) (A)
                 (A) (A) (A) (A) (A) (A) (A) (A) (A) (A) (A) (A)
                 (A) (A) (A) (A) (A) (A) (A) (A) (A) (A) (A) (A)
                 (A) (A) (A) (A) (A) (A) (A) (A) (A) (A) (A) (A)
                 (A) (A) (A) (A) (A) (A) (A) (A) (A) (A) (A) (A)
                 (A) (A) (A) (A) (A) (A) (A) (A) (A) (A) (A) (A)
                 (A) (A) (A) (A) (A) (A) (A) (A) (A) (A) (A) (A)
                 (A) (A) (A) (A) (A) (A) (A) (A)
 The electronic state is 1-A.
 Alpha  occ. eigenvalues --  -19.80747 -19.80410 -19.76780 -19.74751 -10.73976
 Alpha  occ. eigenvalues --  -10.73134 -10.72647 -10.72298 -10.64527 -10.63629
 Alpha  occ. eigenvalues --  -10.63104 -10.62551  -1.24190  -1.23623  -1.22426
 Alpha  occ. eigenvalues --   -1.18766  -0.98984  -0.90024  -0.87238  -0.84769
 Alpha  occ. eigenvalues --   -0.75897  -0.73871  -0.68849  -0.67176  -0.60986
 Alpha  occ. eigenvalues --   -0.60367  -0.59032  -0.56498  -0.53782  -0.52557
 Alpha  occ. eigenvalues --   -0.51585  -0.50715  -0.49585  -0.49167  -0.49083
 Alpha  occ. eigenvalues --   -0.47792  -0.45900  -0.44316  -0.43948  -0.42686
 Alpha  occ. eigenvalues --   -0.36938  -0.33597  -0.28715  -0.27443
 Alpha virt. eigenvalues --   -0.00176   0.01631   0.02437   0.04534   0.04751
 Alpha virt. eigenvalues --    0.06060   0.06516   0.07213   0.07485   0.08145
 Alpha virt. eigenvalues --    0.08835   0.09117   0.10908   0.11018   0.11652
 Alpha virt. eigenvalues --    0.12907   0.13273   0.13435   0.15002   0.16117
 Alpha virt. eigenvalues --    0.16315   0.16926   0.17606   0.18702   0.18786
 Alpha virt. eigenvalues --    0.19583   0.20155   0.20197   0.21213   0.22167
 Alpha virt. eigenvalues --    0.23223   0.23413   0.24098   0.24641   0.24972
 Alpha virt. eigenvalues --    0.25420   0.26773   0.28301   0.28581   0.28710
 Alpha virt. eigenvalues --    0.29104   0.30555   0.30695   0.31036   0.31741
 Alpha virt. eigenvalues --    0.32622   0.32783   0.33640   0.34176   0.34929
 Alpha virt. eigenvalues --    0.35399   0.36916   0.37185   0.37244   0.38167
 Alpha virt. eigenvalues --    0.38356   0.39166   0.39293   0.40925   0.42783
 Alpha virt. eigenvalues --    0.43969   0.44494   0.46165   0.47557   0.49934
 Alpha virt. eigenvalues --    0.51818   0.53617   0.54443   0.57079   0.57838
 Alpha virt. eigenvalues --    0.68713   0.72290   0.72964   0.74536   0.78219
 Alpha virt. eigenvalues --    0.79542   0.79678   0.80991   0.81926   0.82959
 Alpha virt. eigenvalues --    0.83003   0.83876   0.85537   0.86605   0.90365
 Alpha virt. eigenvalues --    0.92334   0.95782   0.96271   0.97870   1.00393
 Alpha virt. eigenvalues --    1.01918   1.03447   1.08354   1.09103   1.13649
 Alpha virt. eigenvalues --    1.14588   1.15942   1.16854   1.19491   1.19850
 Alpha virt. eigenvalues --    1.22705   1.26011   1.26729   1.28189   1.29804
 Alpha virt. eigenvalues --    1.29845   1.30740   1.31880   1.33438   1.33448
 Alpha virt. eigenvalues --    1.34054   1.36249   1.37478   1.38052   1.39224
 Alpha virt. eigenvalues --    1.39378   1.42953   1.44664   1.45881   1.46455
 Alpha virt. eigenvalues --    1.47775   1.48288   1.49272   1.49961   1.51018
 Alpha virt. eigenvalues --    1.51917   1.55449   1.57168   1.59553   1.68502
 Alpha virt. eigenvalues --    1.69217   1.69693   1.72017   1.73389   1.79620
 Alpha virt. eigenvalues --    1.82935   1.83001   1.84827   1.87892   1.91406
 Alpha virt. eigenvalues --    1.94594   1.95911   1.98439   1.98633   2.00852
 Alpha virt. eigenvalues --    2.02325   2.02662   2.02884   2.03715   2.06402
 Alpha virt. eigenvalues --    2.09388   2.11246   2.14440   2.15216   2.15575
 Alpha virt. eigenvalues --    2.16589   2.18648   2.21050   2.26813   2.30586
 Alpha virt. eigenvalues --    2.33967   2.34561   2.35329   2.39511   2.44919
 Alpha virt. eigenvalues --    2.46228   2.47433   2.50813   2.52422   2.55052
 Alpha virt. eigenvalues --    2.55339   2.57617   2.58793   2.63523   2.63803
 Alpha virt. eigenvalues --    2.64329   2.66937   2.67409   2.68497   2.69862
 Alpha virt. eigenvalues --    2.71998   2.77560   2.78294   2.79869   2.84167
 Alpha virt. eigenvalues --    2.85479   2.85904   2.87785   2.87909   2.89826
 Alpha virt. eigenvalues --    2.92980   2.97400   3.00617   3.03004   3.06122
 Alpha virt. eigenvalues --    3.13308   3.17044   3.21833   3.24378   3.30215
 Alpha virt. eigenvalues --    3.34581   3.36652   3.40238   3.46629   3.57058
 Alpha virt. eigenvalues --    3.58905   3.59035   3.63849   3.66234   3.69085
 Alpha virt. eigenvalues --    3.81832   3.93488   4.40430   4.41822   4.43500
 Alpha virt. eigenvalues --    4.51906   4.56800   4.62652   4.63907   4.69101
 Alpha virt. eigenvalues --    4.84826   4.93811   4.98285   5.08832
          Condensed to atoms (all electrons):
               1          2          3          4          5          6
     1  C   12.660634  -1.855414   0.756530  -3.256969  -0.920795  -3.672253
     2  C   -1.855414   6.785461  -0.649767   1.817742  -1.444521   2.369960
     3  C    0.756530  -0.649767  12.473776  -3.990299  -1.068685  -2.221367
     4  C   -3.256969   1.817742  -3.990299  14.349040  -1.860839   1.987365
     5  C   -0.920795  -1.444521  -1.068685  -1.860839  14.198370  -3.668649
     6  C   -3.672253   2.369960  -2.221367   1.987365  -3.668649  14.259158
     7  O    0.212758   0.003120   0.004501   0.012015  -0.419708   0.206654
     8  C    1.504363  -0.604762   0.251952  -1.970265  -1.255428  -0.805663
     9  C   -0.280857   0.007483  -0.372173  -0.276190   0.243470  -0.358790
    10  O    0.016349  -0.006036  -0.053679  -0.216740  -0.105749  -0.049891
    11  O    0.042957  -0.023594  -0.425108   0.273464   0.246785   0.006360
    12  O   -0.245026   0.163313   0.018205   0.020431  -0.015563   0.059820
    13  H    0.187209   0.135272   0.041127  -0.025522   0.006616  -0.011461
    14  H   -0.024378  -0.025906   0.145362   0.202633   0.032335   0.001271
    15  H   -0.159401  -0.001899   0.000487   0.005914   0.171060  -0.020658
    16  H    0.005429   0.000080  -0.000485  -0.008011   0.006806   0.022584
    17  H   -0.000967   0.000193  -0.003310  -0.021610   0.041439   0.011902
    18  H    0.005413   0.000079  -0.000485  -0.007984   0.006838   0.022545
    19  H    0.004929  -0.001136   0.188544   0.066205  -0.216369  -0.060111
    20  H    0.116460  -0.017396  -0.067650  -0.018428   0.020619  -0.033935
               7          8          9         10         11         12
     1  C    0.212758   1.504363  -0.280857   0.016349   0.042957  -0.245026
     2  C    0.003120  -0.604762   0.007483  -0.006036  -0.023594   0.163313
     3  C    0.004501   0.251952  -0.372173  -0.053679  -0.425108   0.018205
     4  C    0.012015  -1.970265  -0.276190  -0.216740   0.273464   0.020431
     5  C   -0.419708  -1.255428   0.243470  -0.105749   0.246785  -0.015563
     6  C    0.206654  -0.805663  -0.358790  -0.049891   0.006360   0.059820
     7  O    8.445103   0.005879  -0.098165   0.001056  -0.000574  -0.000654
     8  C    0.005879   9.356715  -1.246715   0.585625  -0.114748  -0.002240
     9  C   -0.098165  -1.246715   7.534662  -0.010692  -0.046917  -0.000642
    10  O    0.001056   0.585625  -0.010692   8.316986   0.006168  -0.000023
    11  O   -0.000574  -0.114748  -0.046917   0.006168   8.456615  -0.000540
    12  O   -0.000654  -0.002240  -0.000642  -0.000023  -0.000540   8.344878
    13  H   -0.014113   0.008020   0.000677   0.000019   0.000059  -0.007157
    14  H    0.000046   0.008518   0.000473   0.000115  -0.007432  -0.010411
    15  H    0.218731  -0.002488   0.012127  -0.000025   0.000018  -0.000066
    16  H   -0.007111  -0.064991   0.401709   0.003807   0.000107   0.000001
    17  H    0.001893  -0.101656   0.447303  -0.009707   0.000105  -0.000000
    18  H   -0.007107  -0.064977   0.401683   0.003811   0.000107   0.000001
    19  H    0.000022   0.011079   0.006229   0.063644   0.188757   0.000020
    20  H    0.000033   0.002062  -0.000011   0.000001   0.000013   0.226681
              13         14         15         16         17         18
     1  C    0.187209  -0.024378  -0.159401   0.005429  -0.000967   0.005413
     2  C    0.135272  -0.025906  -0.001899   0.000080   0.000193   0.000079
     3  C    0.041127   0.145362   0.000487  -0.000485  -0.003310  -0.000485
     4  C   -0.025522   0.202633   0.005914  -0.008011  -0.021610  -0.007984
     5  C    0.006616   0.032335   0.171060   0.006806   0.041439   0.006838
     6  C   -0.011461   0.001271  -0.020658   0.022584   0.011902   0.022545
     7  O   -0.014113   0.000046   0.218731  -0.007111   0.001893  -0.007107
     8  C    0.008020   0.008518  -0.002488  -0.064991  -0.101656  -0.064977
     9  C    0.000677   0.000473   0.012127   0.401709   0.447303   0.401683
    10  O    0.000019   0.000115  -0.000025   0.003807  -0.009707   0.003811
    11  O    0.000059  -0.007432   0.000018   0.000107   0.000105   0.000107
    12  O   -0.007157  -0.010411  -0.000066   0.000001  -0.000000   0.000001
    13  H    0.533347  -0.000110   0.007015  -0.000001  -0.000000  -0.000001
    14  H   -0.000110   0.528122  -0.000001   0.000000  -0.000000   0.000000
    15  H    0.007015  -0.000001   0.376588   0.000211  -0.000017   0.000211
    16  H   -0.000001   0.000000   0.000211   0.514104  -0.023140  -0.023179
    17  H   -0.000000  -0.000000  -0.000017  -0.023140   0.508492  -0.023140
    18  H   -0.000001   0.000000   0.000211  -0.023179  -0.023140   0.514105
    19  H    0.000000   0.000000   0.000000  -0.000045   0.000000  -0.000045
    20  H   -0.000047   0.004840   0.000000   0.000000  -0.000000   0.000000
              19         20
     1  C    0.004929   0.116460
     2  C   -0.001136  -0.017396
     3  C    0.188544  -0.067650
     4  C    0.066205  -0.018428
     5  C   -0.216369   0.020619
     6  C   -0.060111  -0.033935
     7  O    0.000022   0.000033
     8  C    0.011079   0.002062
     9  C    0.006229  -0.000011
    10  O    0.063644   0.000001
    11  O    0.188757   0.000013
    12  O    0.000020   0.226681
    13  H    0.000000  -0.000047
    14  H    0.000000   0.004840
    15  H    0.000000   0.000000
    16  H   -0.000045   0.000000
    17  H    0.000000  -0.000000
    18  H   -0.000045   0.000000
    19  H    0.282897   0.000000
    20  H    0.000000   0.394840
 Mulliken charges:
               1
     1  C    0.903030
     2  C   -0.652274
     3  C    0.972523
     4  C   -1.081950
     5  C    2.001970
     6  C   -2.044842
     7  O   -0.564378
     8  C    0.499721
     9  C   -0.364664
    10  O   -0.545038
    11  O   -0.602604
    12  O   -0.551028
    13  H    0.139051
    14  H    0.144523
    15  H    0.392191
    16  H    0.172126
    17  H    0.172219
    18  H    0.172126
    19  H    0.465380
    20  H    0.371917
 Sum of Mulliken charges =  -0.00000
 Mulliken charges with hydrogens summed into heavy atoms:
               1
     1  C    1.042081
     2  C   -0.652274
     3  C    1.117046
     4  C   -1.081950
     5  C    2.001970
     6  C   -2.044842
     7  O   -0.172186
     8  C    0.499721
     9  C    0.151807
    10  O   -0.545038
    11  O   -0.137224
    12  O   -0.179111
 Electronic spatial extent (au):  <R**2>=           2064.5270
 Charge=             -0.0000 electrons
 Dipole moment (field-independent basis, Debye):
    X=             -2.2745    Y=              3.2074    Z=              0.0006  Tot=              3.9320
 Quadrupole moment (field-independent basis, Debye-Ang):
   XX=            -67.6321   YY=            -66.3795   ZZ=            -72.0606
   XY=              9.1319   XZ=              0.0004   YZ=              0.0012
 Traceless Quadrupole moment (field-independent basis, Debye-Ang):
   XX=              1.0587   YY=              2.3112   ZZ=             -3.3699
   XY=              9.1319   XZ=              0.0004   YZ=              0.0012
 Octapole moment (field-independent basis, Debye-Ang**2):
  XXX=            -31.6358  YYY=             44.5947  ZZZ=             -0.0001  XYY=            -18.8000
  XXY=            -16.1417  XXZ=              0.0005  XZZ=              5.2066  YZZ=             -0.2782
  YYZ=              0.0069  XYZ=             -0.0008
 Hexadecapole moment (field-independent basis, Debye-Ang**3):
 XXXX=          -1612.6889 YYYY=           -759.7799 ZZZZ=            -82.5714 XXXY=            166.8046
 XXXZ=              0.0159 YYYX=            -30.4495 YYYZ=              0.0061 ZZZX=              0.0116
 ZZZY=             -0.0114 XXYY=           -406.5401 XXZZ=           -304.6630 YYZZ=           -159.9214
 XXYZ=             -0.0071 YYXZ=              0.0043 ZZXY=              0.1749
 N-N= 6.993345805856D+02 E-N=-2.824440510078D+03  KE= 6.055071895277D+02
 Calling FoFJK, ICntrl=  10002127 FMM=F ISym2X=0 I1Cent= 0 IOpClX= 0 NMat=1 NMatS=1 NMatT=0.
 ***** Axes restored to original set *****
 -------------------------------------------------------------------
 Center     Atomic                   Forces (Hartrees/Bohr)
 Number     Number              X              Y              Z
 -------------------------------------------------------------------
      1        6           0.002672065    0.001996081   -0.000000470
      2        6          -0.003952616   -0.000327461   -0.000000098
      3        6           0.000741110   -0.003223351    0.000000298
      4        6           0.002960281    0.004665244   -0.000000822
      5        6          -0.004784250    0.000478868    0.000003670
      6        6           0.003365889   -0.002622693    0.000001810
      7        8          -0.004866589    0.005927167   -0.000001872
      8        6           0.008067485    0.014317077   -0.000014815
      9        6          -0.000567743    0.001645251    0.000005406
     10        8          -0.008887596   -0.015596008    0.000003186
     11        8          -0.002298391   -0.009231754   -0.000001567
     12        8           0.007814871    0.002440792   -0.000000332
     13        1          -0.000648673   -0.000645634   -0.000000281
     14        1          -0.000278108    0.000880974   -0.000000215
     15        1           0.001153492    0.000877156    0.000001636
     16        1          -0.000901230   -0.000544757    0.001039927
     17        1           0.000590584    0.000629450    0.000000238
     18        1          -0.000902880   -0.000543056   -0.001040066
     19        1           0.000241442    0.000199626    0.000004206
     20        1           0.000480858   -0.001322973    0.000000159
 -------------------------------------------------------------------
 Cartesian Forces:  Max     0.015596008 RMS     0.003941902

 GradGradGradGradGradGradGradGradGradGradGradGradGradGradGradGradGradGrad
 Berny optimization.
 FormGI is forming the generalized inverse of G from B-inverse, IUseBI=4.
 Internal  Forces:  Max     0.017882664 RMS     0.002768724
 Search for a local minimum.
 Step number   1 out of a maximum of  100
 All quantities printed in internal units (Hartrees-Bohrs-Radians)
 Mixed Optimization -- RFO/linear search
 Second derivative matrix not updated -- first step.
 ITU=  0
     Eigenvalues ---    0.00676   0.00874   0.01158   0.01610   0.01843
     Eigenvalues ---    0.02025   0.02098   0.02131   0.02171   0.02205
     Eigenvalues ---    0.02207   0.02237   0.02238   0.02307   0.02636
     Eigenvalues ---    0.07370   0.07536   0.16000   0.16000   0.16000
     Eigenvalues ---    0.16000   0.16000   0.16000   0.16000   0.16000
     Eigenvalues ---    0.23482   0.23499   0.25000   0.25000   0.25000
     Eigenvalues ---    0.25000   0.25000   0.25000   0.25000   0.31675
     Eigenvalues ---    0.34544   0.34544   0.34869   0.35399   0.35412
     Eigenvalues ---    0.35697   0.39618   0.41121   0.43982   0.45192
     Eigenvalues ---    0.47070   0.47635   0.47828   0.53190   0.54282
     Eigenvalues ---    0.54521   0.54537   0.59839   0.87150
 RFO step:  Lambda=-1.18425722D-03 EMin= 6.76059710D-03
 Linear search not attempted -- first point.
 Iteration  1 RMS(Cart)=  0.01372704 RMS(Int)=  0.00003080
 Iteration  2 RMS(Cart)=  0.00005509 RMS(Int)=  0.00000511
 Iteration  3 RMS(Cart)=  0.00000000 RMS(Int)=  0.00000511
 Variable       Old X    -DE/DX   Delta X   Delta X   Delta X     New X
                                 (Linear)    (Quad)   (Total)
    R1        2.64376   0.00199   0.00000   0.00407   0.00407   2.64783
    R2        2.61648   0.00379   0.00000   0.00785   0.00785   2.62433
    R3        2.05032  -0.00088   0.00000  -0.00248  -0.00248   2.04785
    R4        2.61919   0.00300   0.00000   0.00595   0.00595   2.62514
    R5        2.55776   0.00836   0.00000   0.01538   0.01538   2.57314
    R6        2.64067   0.00303   0.00000   0.00654   0.00654   2.64722
    R7        2.05011  -0.00090   0.00000  -0.00253  -0.00253   2.04758
    R8        2.69793   0.00607   0.00000   0.01493   0.01493   2.71286
    R9        2.51068   0.00906   0.00000   0.01511   0.01511   2.52579
   R10        2.67843   0.00542   0.00000   0.01291   0.01292   2.69135
   R11        2.77859   0.00260   0.00000   0.00726   0.00726   2.78585
   R12        2.56777   0.00774   0.00000   0.01451   0.01451   2.58228
   R13        1.82246   0.00140   0.00000   0.00257   0.00257   1.82502
   R14        2.84743   0.00202   0.00000   0.00637   0.00637   2.85380
   R15        2.34275   0.01788   0.00000   0.02049   0.02049   2.36324
   R16        2.06421  -0.00130   0.00000  -0.00374  -0.00374   2.06047
   R17        2.05887  -0.00077   0.00000  -0.00220  -0.00220   2.05667
   R18        2.06421  -0.00130   0.00000  -0.00374  -0.00374   2.06048
   R19        1.89030  -0.00021   0.00000  -0.00044  -0.00044   1.88986
   R20        1.82260   0.00140   0.00000   0.00256   0.00256   1.82516
    A1        2.08034   0.00103   0.00000   0.00395   0.00395   2.08429
    A2        2.08073  -0.00025   0.00000  -0.00036  -0.00036   2.08038
    A3        2.12211  -0.00077   0.00000  -0.00359  -0.00359   2.11852
    A4        2.11771  -0.00085   0.00000  -0.00455  -0.00456   2.11315
    A5        2.02977   0.00011   0.00000   0.00101   0.00101   2.03078
    A6        2.13571   0.00074   0.00000   0.00354   0.00354   2.13925
    A7        2.08080   0.00118   0.00000   0.00451   0.00450   2.08531
    A8        2.13342  -0.00081   0.00000  -0.00361  -0.00361   2.12981
    A9        2.06896  -0.00037   0.00000  -0.00089  -0.00089   2.06807
   A10        2.12020   0.00028   0.00000   0.00138   0.00138   2.12158
   A11        2.04395  -0.00236   0.00000  -0.00951  -0.00952   2.03443
   A12        2.11904   0.00208   0.00000   0.00814   0.00813   2.12717
   A13        2.03688  -0.00210   0.00000  -0.00749  -0.00748   2.02939
   A14        2.06946   0.00160   0.00000   0.00594   0.00593   2.07539
   A15        2.17685   0.00050   0.00000   0.00156   0.00155   2.17840
   A16        2.13044   0.00046   0.00000   0.00221   0.00221   2.13265
   A17        2.09115  -0.00119   0.00000  -0.00492  -0.00492   2.08623
   A18        2.06159   0.00073   0.00000   0.00271   0.00271   2.06430
   A19        1.91011  -0.00066   0.00000  -0.00407  -0.00407   1.90604
   A20        2.13956   0.00073   0.00000   0.00292   0.00292   2.14248
   A21        2.09035   0.00147   0.00000   0.00587   0.00587   2.09622
   A22        2.05328  -0.00221   0.00000  -0.00879  -0.00879   2.04449
   A23        1.93141   0.00077   0.00000   0.00533   0.00532   1.93673
   A24        1.87729   0.00013   0.00000  -0.00033  -0.00033   1.87696
   A25        1.93141   0.00077   0.00000   0.00536   0.00535   1.93675
   A26        1.93102  -0.00064   0.00000  -0.00510  -0.00510   1.92592
   A27        1.86247  -0.00038   0.00000  -0.00016  -0.00019   1.86228
   A28        1.93102  -0.00064   0.00000  -0.00510  -0.00510   1.92592
   A29        1.85985  -0.00044   0.00000  -0.00272  -0.00272   1.85713
   A30        1.92211  -0.00024   0.00000  -0.00151  -0.00151   1.92060
    D1       -0.00000  -0.00000   0.00000  -0.00002  -0.00002  -0.00002
    D2       -3.14159  -0.00000   0.00000  -0.00001  -0.00001   3.14159
    D3        3.14157  -0.00000   0.00000  -0.00001  -0.00001   3.14156
    D4       -0.00002   0.00000   0.00000   0.00001   0.00001  -0.00001
    D5        0.00001  -0.00000   0.00000  -0.00001  -0.00001   0.00000
    D6        3.14158   0.00000   0.00000   0.00002   0.00002  -3.14159
    D7       -3.14156  -0.00000   0.00000  -0.00002  -0.00002  -3.14158
    D8        0.00001   0.00000   0.00000   0.00000   0.00000   0.00001
    D9        0.00000   0.00000   0.00000   0.00001   0.00001   0.00001
   D10        3.14159   0.00000   0.00000   0.00003   0.00003  -3.14157
   D11        3.14159  -0.00000   0.00000  -0.00001  -0.00001   3.14158
   D12       -0.00001   0.00000   0.00000   0.00002   0.00002   0.00000
   D13       -3.14159  -0.00000   0.00000  -0.00001  -0.00001   3.14158
   D14        0.00000   0.00000   0.00000   0.00000   0.00000   0.00001
   D15       -0.00001   0.00000   0.00000   0.00003   0.00004   0.00002
   D16        3.14157   0.00000   0.00000   0.00008   0.00008  -3.14154
   D17        3.14159   0.00000   0.00000   0.00001   0.00001  -3.14158
   D18       -0.00001   0.00000   0.00000   0.00006   0.00006   0.00004
   D19        0.00002  -0.00000   0.00000  -0.00006  -0.00006  -0.00004
   D20       -3.14157  -0.00000   0.00000  -0.00007  -0.00007   3.14154
   D21       -3.14156  -0.00000   0.00000  -0.00011  -0.00011   3.14152
   D22        0.00003  -0.00000   0.00000  -0.00012  -0.00012  -0.00009
   D23       -3.14153  -0.00000   0.00000  -0.00016  -0.00016   3.14149
   D24        0.00005  -0.00000   0.00000  -0.00012  -0.00012  -0.00007
   D25       -0.00002   0.00000   0.00000   0.00005   0.00005   0.00003
   D26       -3.14159   0.00000   0.00000   0.00002   0.00002  -3.14156
   D27        3.14158   0.00000   0.00000   0.00006   0.00006  -3.14155
   D28        0.00001   0.00000   0.00000   0.00004   0.00004   0.00005
   D29       -3.14151  -0.00000   0.00000  -0.00024  -0.00024   3.14144
   D30       -0.00003   0.00000   0.00000   0.00010   0.00010   0.00007
   D31        0.00008  -0.00000   0.00000  -0.00025  -0.00025  -0.00017
   D32        3.14156   0.00000   0.00000   0.00009   0.00009  -3.14154
   D33        0.00027  -0.00000   0.00000  -0.00009  -0.00009   0.00018
   D34       -3.14135  -0.00000   0.00000  -0.00006  -0.00006  -3.14141
   D35        1.03034   0.00025   0.00000   0.00344   0.00345   1.03379
   D36        3.14153   0.00000   0.00000   0.00017   0.00017  -3.14149
   D37       -1.03048  -0.00024   0.00000  -0.00309  -0.00310  -1.03358
   D38       -2.11114   0.00024   0.00000   0.00310   0.00312  -2.10802
   D39        0.00004  -0.00000   0.00000  -0.00016  -0.00016  -0.00012
   D40        2.11122  -0.00025   0.00000  -0.00342  -0.00343   2.10779
         Item               Value     Threshold  Converged?
 Maximum Force            0.017883     0.000450     NO 
 RMS     Force            0.002769     0.000300     NO 
 Maximum Displacement     0.049995     0.001800     NO 
 RMS     Displacement     0.013749     0.001200     NO 
 Predicted change in Energy=-5.936101D-04
 GradGradGradGradGradGradGradGradGradGradGradGradGradGradGradGradGradGrad

                          Input orientation:                          
 ---------------------------------------------------------------------
 Center     Atomic      Atomic             Coordinates (Angstroms)
 Number     Number       Type             X           Y           Z
 ---------------------------------------------------------------------
      1          6           0        1.527727    1.251310   -0.000065
      2          6           0        2.265226    0.059934   -0.000039
      3          6           0        1.630961   -1.175982    0.000004
      4          6           0        0.231255   -1.232507    0.000006
      5          6           0       -0.568814   -0.040538   -0.000061
      6          6           0        0.140148    1.194663   -0.000077
      7          8           0       -0.581350    2.355145   -0.000103
      8          6           0       -2.037505   -0.167974   -0.000126
      9          6           0       -2.961306    1.026675   -0.000002
     10          8           0       -2.568892   -1.300034   -0.000045
     11          8           0       -0.317744   -2.451142    0.000113
     12          8           0        3.620821    0.188159   -0.000033
     13          1           0        2.053836    2.198706   -0.000068
     14          1           0        2.185843   -2.106652    0.000048
     15          1           0        0.025399    3.106509   -0.000277
     16          1           0       -2.787909    1.654049   -0.874765
     17          1           0       -3.982892    0.651366    0.000019
     18          1           0       -2.787839    1.653948    0.874821
     19          1           0       -1.308451   -2.314621    0.000195
     20          1           0        4.035799   -0.683981   -0.000003
 ---------------------------------------------------------------------
                    Distance matrix (angstroms):
                    1          2          3          4          5
     1  C    0.000000
     2  C    1.401172   0.000000
     3  C    2.429487   1.389165   0.000000
     4  C    2.801819   2.409863   1.400847   0.000000
     5  C    2.462591   2.835821   2.475530   1.435584   0.000000
     6  C    1.388735   2.409060   2.800443   2.428879   1.424200
     7  O    2.380474   3.656637   4.166915   3.678529   2.395716
     8  C    3.837350   4.308764   3.804435   2.506094   1.474210
     9  C    4.494650   5.315189   5.093193   3.911055   2.619725
    10  O    4.826142   5.021774   4.201685   2.800961   2.363608
    11  O    4.136897   3.602393   2.328838   1.336589   2.423644
    12  O    2.347623   1.361646   2.412555   3.675248   4.195873
    13  H    1.083674   2.149194   3.401080   3.885232   3.448552
    14  H    3.421846   2.168040   1.083531   2.141155   3.443394
    15  H    2.387205   3.781329   4.573572   4.343897   3.202654
    16  H    4.421766   5.370338   5.319842   4.267644   2.925938
    17  H    5.543181   6.276048   5.903774   4.616061   3.483484
    18  H    4.421725   5.370263   5.319737   4.267535   2.925879
    19  H    4.556289   4.290650   3.152244   1.881931   2.391342
    20  H    3.167930   1.920504   2.454651   3.843883   4.649353
                    6          7          8          9         10
     6  C    0.000000
     7  O    1.366484   0.000000
     8  C    2.568843   2.913163   0.000000
     9  C    3.106000   2.725624   1.510163   0.000000
    10  O    3.682717   4.160607   1.250572   2.359568   0.000000
    11  O    3.674447   4.813511   2.858398   4.368482   2.528383
    12  O    3.623277   4.728010   5.669523   6.635323   6.366103
    13  H    2.161089   2.639826   4.726548   5.150273   5.797482
    14  H    3.883754   5.250238   4.647058   6.025851   4.822669
    15  H    1.915287   0.965760   3.870118   3.639522   5.113508
    16  H    3.090248   2.474969   2.155891   1.090356   3.088641
    17  H    4.158681   3.804385   2.110888   1.088345   2.409846
    18  H    3.090226   2.475027   2.155907   1.090357   3.088581
    19  H    3.796513   4.726033   2.267071   3.727759   1.618054
    20  H    4.324974   5.527600   6.095186   7.203182   6.633360
                   11         12         13         14         15
    11  O    0.000000
    12  O    4.741119   0.000000
    13  H    5.219721   2.549067   0.000000
    14  H    2.527176   2.706533   4.307382   0.000000
    15  H    5.568234   4.630748   2.222310   5.643099   0.000000
    16  H    4.870290   6.632180   4.950177   6.296537   3.284673
    17  H    4.801965   7.617809   6.231882   6.757215   4.700439
    18  H    4.870139   6.632106   4.950153   6.296416   3.284819
    19  H    1.000070   5.528258   5.628064   3.500477   5.582813
    20  H    4.698531   0.965834   3.498295   2.333737   5.518254
                   16         17         18         19         20
    16  H    0.000000
    17  H    1.788464   0.000000
    18  H    1.749586   1.788463   0.000000
    19  H    4.324892   3.993709   4.324708   0.000000
    20  H    7.265989   8.129118   7.265897   5.587486   0.000000
 Stoichiometry    C8H8O4
 Framework group  C1[X(C8H8O4)]
 Deg. of freedom    54
 Full point group                 C1      NOp   1
 Largest Abelian subgroup         C1      NOp   1
 Largest concise Abelian subgroup C1      NOp   1
                         Standard orientation:                         
 ---------------------------------------------------------------------
 Center     Atomic      Atomic             Coordinates (Angstroms)
 Number     Number       Type             X           Y           Z
 ---------------------------------------------------------------------
      1          6           0       -1.526831    1.252205    0.000034
      2          6           0       -2.264938    0.061205    0.000008
      3          6           0       -1.631304   -1.175035   -0.000035
      4          6           0       -0.231627   -1.232274   -0.000037
      5          6           0        0.569051   -0.040712    0.000030
      6          6           0       -0.139281    1.194849    0.000046
      7          8           0        0.582809    2.354964    0.000072
      8          6           0        2.037677   -0.168898    0.000095
      9          6           0        2.962087    1.025279   -0.000029
     10          8           0        2.568486   -1.301228    0.000014
     11          8           0        0.316750   -2.451189   -0.000144
     12          8           0       -3.620468    0.190121    0.000002
     13          1           0       -2.052457    2.199869    0.000037
     14          1           0       -2.186660   -2.105421   -0.000079
     15          1           0       -0.023557    3.106637    0.000246
     16          1           0        2.789010    1.652742    0.874734
     17          1           0        3.983481    0.649450   -0.000050
     18          1           0        2.788939    1.652641   -0.874852
     19          1           0        1.307527   -2.315173   -0.000226
     20          1           0       -4.035890   -0.681807   -0.000028
 ---------------------------------------------------------------------
 Rotational constants (GHZ):      1.5400893      0.7607332      0.5107957
 Standard basis: 6-31+G(d,p) (6D, 7F)
 There are   268 symmetry adapted cartesian basis functions of A   symmetry.
 There are   268 symmetry adapted basis functions of A   symmetry.
   268 basis functions,   440 primitive gaussians,   268 cartesian basis functions
    44 alpha electrons       44 beta electrons
       nuclear repulsion energy       696.0377559885 Hartrees.
 NAtoms=   20 NActive=   20 NUniq=   20 SFac= 1.00D+00 NAtFMM=   60 NAOKFM=F Big=F
 Integral buffers will be    131072 words long.
 Regular integral format.
 Two-electron integral symmetry is turned on.
 One-electron integrals computed using PRISM.
 NBasis=   268 RedAO= T EigKep=  1.53D-06  NBF=   268
 NBsUse=   268 1.00D-06 EigRej= -1.00D+00 NBFU=   268
 Initial guess from the checkpoint file:  "B2PLYPTHAP.chk"
 B after Tr=     0.000000   -0.000000    0.000000
         Rot=    1.000000   -0.000002    0.000007    0.000056 Ang=  -0.01 deg.
 ExpMin= 4.38D-02 ExpMax= 5.48D+03 ExpMxC= 8.25D+02 IAcc=2 IRadAn=         4 AccDes= 0.00D+00
 Harris functional with IExCor=  419 and IRadAn=       4 diagonalized for initial guess.
 HarFok:  IExCor=  419 AccDes= 0.00D+00 IRadAn=         4 IDoV= 1 UseB2=F ITyADJ=14
 ICtDFT=  3500011 ScaDFX=  1.000000  1.000000  1.000000  1.000000
 FoFCou: FMM=F IPFlag=           0 FMFlag=      100000 FMFlg1=           0
         NFxFlg=           0 DoJE=T BraDBF=F KetDBF=T FulRan=T
         wScrn=  0.000000 ICntrl=     500 IOpCl=  0 I1Cent=   200000004 NGrid=           0
         NMat0=    1 NMatS0=      1 NMatT0=    0 NMatD0=    1 NMtDS0=    0 NMtDT0=    0
 Petite list used in FoFCou.
 Keep R1 ints in memory in canonical form, NReq=659648347.
 Requested convergence on RMS density matrix=1.00D-08 within 128 cycles.
 Requested convergence on MAX density matrix=1.00D-06.
 Requested convergence on             energy=1.00D-06.
 No special actions if energy rises.
 SCF Done:  E(RB2PLYP) =  -609.433504265     A.U. after   12 cycles
            NFock= 12  Conv=0.76D-08     -V/T= 2.0068
 DoSCS=T DFT=T ScalE2(SS,OS)=  0.270000  0.270000
 ExpMin= 4.38D-02 ExpMax= 5.48D+03 ExpMxC= 8.25D+02 IAcc=3 IRadAn=         5 AccDes= 0.00D+00
 HarFok:  IExCor=  205 AccDes= 0.00D+00 IRadAn=         5 IDoV=-2 UseB2=F ITyADJ=14
 ICtDFT= 12500011 ScaDFX=  1.000000  1.000000  1.000000  1.000000
 Range of M.O.s used for correlation:    13   268
 NBasis=   268 NAE=    44 NBE=    44 NFC=    12 NFV=     0
 NROrb=    256 NOA=    32 NOB=    32 NVA=   224 NVB=   224

 **** Warning!!: The largest alpha MO coefficient is  0.14774880D+03

 DoSCS=T DFT=T ScalE2(SS,OS)=  0.270000  0.270000
 Fully direct method using O(ONN) memory.
 JobTyp=1 Pass  1:  I=  13 to  16 NPSUse= 18 ParTrn=T ParDer=T DoDerP=T.
 JobTyp=1 Pass  2:  I=  17 to  20 NPSUse= 18 ParTrn=T ParDer=T DoDerP=T.
 JobTyp=1 Pass  3:  I=  21 to  24 NPSUse= 18 ParTrn=T ParDer=T DoDerP=T.
 JobTyp=1 Pass  4:  I=  25 to  28 NPSUse= 18 ParTrn=T ParDer=T DoDerP=T.
 JobTyp=1 Pass  5:  I=  29 to  32 NPSUse= 18 ParTrn=T ParDer=T DoDerP=T.
 JobTyp=1 Pass  6:  I=  33 to  36 NPSUse= 18 ParTrn=T ParDer=T DoDerP=T.
 JobTyp=1 Pass  7:  I=  37 to  40 NPSUse= 18 ParTrn=T ParDer=T DoDerP=T.
 JobTyp=1 Pass  8:  I=  41 to  44 NPSUse= 18 ParTrn=T ParDer=T DoDerP=T.
 Spin components of T(2) and E(2):
     alpha-alpha T2 =       0.1291778091D+00 E2=     -0.8179855184D-01
     alpha-beta  T2 =       0.6586814166D+00 E2=     -0.4342011935D+00
     beta-beta   T2 =       0.1291778091D+00 E2=     -0.8179855184D-01
 E2(B2PLYP) =    -0.5977982972D+00 E(B2PLYP) =    -0.61003130256223D+03
          IDoAtm=11111111111111111111
          Differentiating once with respect to electric field.
                with respect to dipole field.
          Differentiating once with respect to nuclear coordinates.
 Keep R1 ints in memory in canonical form, NReq=659410000.
          There are     1 degrees of freedom in the 1st order CPHF.  IDoFFX=0 NUNeed=     1.
 LinEq1:  Iter=  0 NonCon=     1 RMS=1.97D-03 Max=6.35D-02 NDo=     1
 AX will form     1 AO Fock derivatives at one time.
 LinEq1:  Iter=  1 NonCon=     1 RMS=9.58D-04 Max=2.24D-02 NDo=     1
 LinEq1:  Iter=  2 NonCon=     1 RMS=3.39D-04 Max=1.01D-02 NDo=     1
 LinEq1:  Iter=  3 NonCon=     1 RMS=2.45D-04 Max=6.53D-03 NDo=     1
 LinEq1:  Iter=  4 NonCon=     1 RMS=1.07D-04 Max=4.20D-03 NDo=     1
 LinEq1:  Iter=  5 NonCon=     1 RMS=4.92D-05 Max=2.03D-03 NDo=     1
 LinEq1:  Iter=  6 NonCon=     1 RMS=1.85D-05 Max=6.61D-04 NDo=     1
 LinEq1:  Iter=  7 NonCon=     1 RMS=6.78D-06 Max=2.89D-04 NDo=     1
 LinEq1:  Iter=  8 NonCon=     1 RMS=3.37D-06 Max=9.20D-05 NDo=     1
 LinEq1:  Iter=  9 NonCon=     1 RMS=1.53D-06 Max=5.35D-05 NDo=     1
 LinEq1:  Iter= 10 NonCon=     1 RMS=5.00D-07 Max=1.06D-05 NDo=     1
 LinEq1:  Iter= 11 NonCon=     1 RMS=1.84D-07 Max=4.55D-06 NDo=     1
 LinEq1:  Iter= 12 NonCon=     1 RMS=9.81D-08 Max=2.58D-06 NDo=     1
 LinEq1:  Iter= 13 NonCon=     1 RMS=2.72D-08 Max=4.71D-07 NDo=     1
 LinEq1:  Iter= 14 NonCon=     1 RMS=1.23D-08 Max=2.78D-07 NDo=     1
 LinEq1:  Iter= 15 NonCon=     1 RMS=5.10D-09 Max=1.77D-07 NDo=     1
 LinEq1:  Iter= 16 NonCon=     1 RMS=2.29D-09 Max=4.92D-08 NDo=     1
 LinEq1:  Iter= 17 NonCon=     1 RMS=7.40D-10 Max=1.27D-08 NDo=     1
 LinEq1:  Iter= 18 NonCon=     1 RMS=2.54D-10 Max=4.96D-09 NDo=     1
 LinEq1:  Iter= 19 NonCon=     1 RMS=1.02D-10 Max=2.52D-09 NDo=     1
 LinEq1:  Iter= 20 NonCon=     1 RMS=3.52D-11 Max=1.19D-09 NDo=     1
 LinEq1:  Iter= 21 NonCon=     0 RMS=1.44D-11 Max=2.89D-10 NDo=     1
 Linear equations converged to 1.000D-10 1.000D-09 after    21 iterations.
 End of Minotr F.D. properties file   721 does not exist.
 End of Minotr F.D. properties file   722 does not exist.
 End of Minotr F.D. properties file   788 does not exist.
 Calling FoFJK, ICntrl=  10002127 FMM=F ISym2X=0 I1Cent= 0 IOpClX= 0 NMat=1 NMatS=1 NMatT=0.
 ***** Axes restored to original set *****
 -------------------------------------------------------------------
 Center     Atomic                   Forces (Hartrees/Bohr)
 Number     Number              X              Y              Z
 -------------------------------------------------------------------
      1        6           0.000327170   -0.000425195    0.000000009
      2        6          -0.002158979   -0.000141406    0.000000456
      3        6          -0.000586369   -0.000306805   -0.000001487
      4        6           0.001595819    0.004449697    0.000003855
      5        6          -0.001305451   -0.000999677   -0.000006257
      6        6           0.001583950   -0.002048564   -0.000002408
      7        8          -0.001817801    0.000800009   -0.000001876
      8        6           0.001763118    0.002613644    0.000029130
      9        6           0.000694899   -0.000120964   -0.000011531
     10        8           0.001832655   -0.002987867   -0.000005846
     11        8          -0.004544268   -0.001352692    0.000002097
     12        8           0.001207617    0.000729628   -0.000000289
     13        1          -0.000180795    0.000143964    0.000000019
     14        1          -0.000084379   -0.000066450    0.000000433
     15        1           0.000332729   -0.000181507    0.000001205
     16        1           0.000067102    0.000060035   -0.000167679
     17        1           0.000030467   -0.000085092   -0.000000130
     18        1           0.000070621    0.000056184    0.000167906
     19        1           0.001475576    0.000169693   -0.000007607
     20        1          -0.000303681   -0.000306636   -0.000000001
 -------------------------------------------------------------------
 Cartesian Forces:  Max     0.004544268 RMS     0.001231421

 GradGradGradGradGradGradGradGradGradGradGradGradGradGradGradGradGradGrad
 Berny optimization.
 Using GEDIIS/GDIIS optimizer.
 FormGI is forming the generalized inverse of G from B-inverse, IUseBI=4.
 Internal  Forces:  Max     0.004433861 RMS     0.001265552
 Search for a local minimum.
 Step number   2 out of a maximum of  100
 All quantities printed in internal units (Hartrees-Bohrs-Radians)
 Mixed Optimization -- RFO/linear search
 Update second derivatives using D2CorX and points    1    2
 DE= -4.95D-04 DEPred=-5.94D-04 R= 8.34D-01
 TightC=F SS=  1.41D+00  RLast= 4.98D-02 DXNew= 5.0454D-01 1.4933D-01
 Trust test= 8.34D-01 RLast= 4.98D-02 DXMaxT set to 3.00D-01
 ITU=  1  0
 Use linear search instead of GDIIS.
     Eigenvalues ---    0.00676   0.00875   0.01158   0.01609   0.01843
     Eigenvalues ---    0.02023   0.02097   0.02131   0.02171   0.02205
     Eigenvalues ---    0.02207   0.02237   0.02238   0.02307   0.02636
     Eigenvalues ---    0.07285   0.07522   0.15603   0.16000   0.16000
     Eigenvalues ---    0.16000   0.16000   0.16000   0.16000   0.16049
     Eigenvalues ---    0.22972   0.23530   0.23904   0.25000   0.25000
     Eigenvalues ---    0.25000   0.25000   0.25000   0.27694   0.31861
     Eigenvalues ---    0.34389   0.34544   0.34830   0.35250   0.35405
     Eigenvalues ---    0.36008   0.40304   0.41998   0.44018   0.46130
     Eigenvalues ---    0.46984   0.47340   0.49035   0.53644   0.54512
     Eigenvalues ---    0.54530   0.57929   0.60866   0.83715
 RFO step:  Lambda=-3.43299286D-04 EMin= 6.76059708D-03
 Quartic linear search produced a step of -0.13483.
 Iteration  1 RMS(Cart)=  0.01635699 RMS(Int)=  0.00008635
 Iteration  2 RMS(Cart)=  0.00012939 RMS(Int)=  0.00000068
 Iteration  3 RMS(Cart)=  0.00000001 RMS(Int)=  0.00000068
 Variable       Old X    -DE/DX   Delta X   Delta X   Delta X     New X
                                 (Linear)    (Quad)   (Total)
    R1        2.64783  -0.00013  -0.00055   0.00174   0.00119   2.64903
    R2        2.62433  -0.00045  -0.00106   0.00256   0.00150   2.62583
    R3        2.04785   0.00004   0.00033  -0.00094  -0.00061   2.04724
    R4        2.62514   0.00013  -0.00080   0.00293   0.00213   2.62727
    R5        2.57314   0.00094  -0.00207   0.00798   0.00591   2.57904
    R6        2.64722  -0.00134  -0.00088   0.00017  -0.00071   2.64650
    R7        2.04758   0.00001   0.00034  -0.00103  -0.00069   2.04689
    R8        2.71286  -0.00438  -0.00201  -0.00319  -0.00520   2.70766
    R9        2.52579   0.00234  -0.00204   0.00975   0.00772   2.53351
   R10        2.69135  -0.00183  -0.00174   0.00153  -0.00021   2.69114
   R11        2.78585  -0.00440  -0.00098  -0.00761  -0.00859   2.77727
   R12        2.58228   0.00131  -0.00196   0.00825   0.00629   2.58857
   R13        1.82502   0.00007  -0.00035   0.00119   0.00084   1.82586
   R14        2.85380  -0.00060  -0.00086   0.00102   0.00016   2.85396
   R15        2.36324   0.00193  -0.00276   0.01058   0.00782   2.37106
   R16        2.06047   0.00018   0.00050  -0.00112  -0.00062   2.05986
   R17        2.05667   0.00000   0.00030  -0.00092  -0.00062   2.05605
   R18        2.06048   0.00018   0.00050  -0.00112  -0.00062   2.05986
   R19        1.88986  -0.00144   0.00006  -0.00280  -0.00274   1.88712
   R20        1.82516   0.00014  -0.00035   0.00131   0.00096   1.82613
    A1        2.08429  -0.00058  -0.00053   0.00025  -0.00028   2.08401
    A2        2.08038   0.00052   0.00005   0.00181   0.00186   2.08223
    A3        2.11852   0.00006   0.00048  -0.00206  -0.00157   2.11695
    A4        2.11315   0.00028   0.00061   0.00008   0.00069   2.11384
    A5        2.03078  -0.00021  -0.00014  -0.00080  -0.00093   2.02985
    A6        2.13925  -0.00007  -0.00048   0.00072   0.00024   2.13950
    A7        2.08531  -0.00114  -0.00061  -0.00217  -0.00278   2.08252
    A8        2.12981   0.00068   0.00049   0.00111   0.00160   2.13141
    A9        2.06807   0.00046   0.00012   0.00107   0.00119   2.06925
   A10        2.12158   0.00081  -0.00019   0.00284   0.00265   2.12423
   A11        2.03443   0.00286   0.00128   0.00619   0.00747   2.04190
   A12        2.12717  -0.00367  -0.00110  -0.00903  -0.01012   2.11705
   A13        2.02939   0.00128   0.00101   0.00047   0.00148   2.03087
   A14        2.07539  -0.00443  -0.00080  -0.01244  -0.01324   2.06215
   A15        2.17840   0.00316  -0.00021   0.01197   0.01176   2.19016
   A16        2.13265  -0.00065  -0.00030  -0.00146  -0.00176   2.13090
   A17        2.08623   0.00120   0.00066   0.00215   0.00281   2.08904
   A18        2.06430  -0.00054  -0.00037  -0.00069  -0.00105   2.06325
   A19        1.90604  -0.00068   0.00055  -0.00534  -0.00479   1.90125
   A20        2.14248   0.00117  -0.00039   0.00524   0.00485   2.14733
   A21        2.09622  -0.00404  -0.00079  -0.01153  -0.01232   2.08390
   A22        2.04449   0.00288   0.00118   0.00629   0.00747   2.05196
   A23        1.93673  -0.00005  -0.00072   0.00191   0.00119   1.93793
   A24        1.87696  -0.00011   0.00004  -0.00074  -0.00070   1.87626
   A25        1.93675  -0.00006  -0.00072   0.00187   0.00115   1.93790
   A26        1.92592   0.00008   0.00069  -0.00170  -0.00101   1.92491
   A27        1.86228   0.00008   0.00003   0.00034   0.00037   1.86265
   A28        1.92592   0.00008   0.00069  -0.00170  -0.00101   1.92491
   A29        1.85713  -0.00070   0.00037  -0.00488  -0.00452   1.85261
   A30        1.92060  -0.00074   0.00020  -0.00461  -0.00440   1.91620
    D1       -0.00002   0.00000   0.00000   0.00002   0.00003   0.00000
    D2        3.14159  -0.00000   0.00000  -0.00001  -0.00000   3.14158
    D3        3.14156   0.00000   0.00000   0.00002   0.00002   3.14158
    D4       -0.00001  -0.00000  -0.00000  -0.00001  -0.00001  -0.00002
    D5        0.00000   0.00000   0.00000   0.00002   0.00002   0.00002
    D6       -3.14159  -0.00000  -0.00000  -0.00001  -0.00002   3.14158
    D7       -3.14158   0.00000   0.00000   0.00002   0.00002  -3.14156
    D8        0.00001  -0.00000  -0.00000  -0.00001  -0.00001  -0.00000
    D9        0.00001  -0.00000  -0.00000  -0.00002  -0.00002  -0.00000
   D10       -3.14157  -0.00000  -0.00000  -0.00005  -0.00005   3.14157
   D11        3.14158   0.00000   0.00000   0.00001   0.00002  -3.14159
   D12        0.00000  -0.00000  -0.00000  -0.00002  -0.00002  -0.00001
   D13        3.14158   0.00000   0.00000   0.00001   0.00001  -3.14159
   D14        0.00001  -0.00000  -0.00000  -0.00002  -0.00002  -0.00001
   D15        0.00002  -0.00000  -0.00000  -0.00003  -0.00004  -0.00001
   D16       -3.14154  -0.00000  -0.00001  -0.00012  -0.00013   3.14151
   D17       -3.14158  -0.00000  -0.00000  -0.00000  -0.00000  -3.14159
   D18        0.00004  -0.00000  -0.00001  -0.00009  -0.00010  -0.00006
   D19       -0.00004   0.00000   0.00001   0.00007   0.00007   0.00003
   D20        3.14154   0.00000   0.00001   0.00009   0.00010  -3.14155
   D21        3.14152   0.00000   0.00001   0.00016   0.00018  -3.14149
   D22       -0.00009   0.00000   0.00002   0.00019   0.00020   0.00011
   D23        3.14149   0.00001   0.00002   0.00022   0.00024  -3.14145
   D24       -0.00007   0.00001   0.00002   0.00013   0.00014   0.00007
   D25        0.00003  -0.00000  -0.00001  -0.00006  -0.00006  -0.00004
   D26       -3.14156  -0.00000  -0.00000  -0.00003  -0.00003   3.14159
   D27       -3.14155  -0.00000  -0.00001  -0.00008  -0.00009   3.14155
   D28        0.00005  -0.00000  -0.00001  -0.00005  -0.00006  -0.00001
   D29        3.14144   0.00001   0.00003   0.00039   0.00042  -3.14133
   D30        0.00007  -0.00000  -0.00001  -0.00018  -0.00019  -0.00012
   D31       -0.00017   0.00001   0.00003   0.00041   0.00045   0.00027
   D32       -3.14154  -0.00000  -0.00001  -0.00015  -0.00016   3.14149
   D33        0.00018  -0.00000   0.00001  -0.00005  -0.00004   0.00015
   D34       -3.14141  -0.00000   0.00001  -0.00008  -0.00007  -3.14148
   D35        1.03379   0.00001  -0.00046   0.00116   0.00069   1.03448
   D36       -3.14149  -0.00000  -0.00002  -0.00026  -0.00028   3.14141
   D37       -1.03358  -0.00001   0.00042  -0.00170  -0.00128  -1.03486
   D38       -2.10802   0.00001  -0.00042   0.00170   0.00128  -2.10674
   D39       -0.00012   0.00000   0.00002   0.00029   0.00031   0.00019
   D40        2.10779  -0.00001   0.00046  -0.00115  -0.00069   2.10710
         Item               Value     Threshold  Converged?
 Maximum Force            0.004434     0.000450     NO 
 RMS     Force            0.001266     0.000300     NO 
 Maximum Displacement     0.062753     0.001800     NO 
 RMS     Displacement     0.016415     0.001200     NO 
 Predicted change in Energy=-1.843417D-04
 GradGradGradGradGradGradGradGradGradGradGradGradGradGradGradGradGradGrad

                          Input orientation:                          
 ---------------------------------------------------------------------
 Center     Atomic      Atomic             Coordinates (Angstroms)
 Number     Number       Type             X           Y           Z
 ---------------------------------------------------------------------
      1          6           0        1.536008    1.253794   -0.000053
      2          6           0        2.267795    0.058159   -0.000048
      3          6           0        1.627614   -1.175971    0.000015
      4          6           0        0.227917   -1.222471    0.000080
      5          6           0       -0.565258   -0.029206    0.000100
      6          6           0        0.147379    1.203751    0.000008
      7          8           0       -0.573583    2.368484    0.000023
      8          6           0       -2.028257   -0.169036    0.000223
      9          6           0       -2.968254    1.013022   -0.000079
     10          8           0       -2.537368   -1.315815    0.000181
     11          8           0       -0.340575   -2.436646    0.000044
     12          8           0        3.627021    0.181068   -0.000121
     13          1           0        2.064996    2.199215   -0.000093
     14          1           0        2.176748   -2.109622   -0.000004
     15          1           0        0.038515    3.116073   -0.000147
     16          1           0       -2.804935    1.642556   -0.874823
     17          1           0       -3.984069    0.623280   -0.000096
     18          1           0       -2.805080    1.642854    0.874477
     19          1           0       -1.327056   -2.281414   -0.000035
     20          1           0        4.034757   -0.695044   -0.000113
 ---------------------------------------------------------------------
                    Distance matrix (angstroms):
                    1          2          3          4          5
     1  C    0.000000
     2  C    1.401804   0.000000
     3  C    2.431492   1.390292   0.000000
     4  C    2.800534   2.408551   1.400470   0.000000
     5  C    2.461992   2.834400   2.474623   1.432832   0.000000
     6  C    1.389530   2.410092   2.802530   2.427559   1.424091
     7  O    2.385981   3.662107   4.172341   3.679315   2.397704
     8  C    3.837763   4.302055   3.792006   2.489989   1.469666
     9  C    4.510693   5.322403   5.090550   3.900376   2.619281
    10  O    4.816148   4.997740   4.167329   2.766860   2.354694
    11  O    4.140159   3.609384   2.337321   1.340673   2.417902
    12  O    2.350123   1.364772   2.416441   3.677477   4.197549
    13  H    1.083351   2.150639   3.403408   3.883658   3.447332
    14  H    3.423904   2.169693   1.083168   2.141257   3.441908
    15  H    2.389680   3.784247   4.576777   4.342677   3.202706
    16  H    4.445238   5.385920   5.325122   4.262866   2.928555
    17  H    5.555969   6.277353   5.893071   4.598654   3.480518
    18  H    4.445359   5.386104   5.325339   4.263066   2.928673
    19  H    4.549157   4.289121   3.154691   1.881303   2.377557
    20  H    3.168867   1.920799   2.454716   3.843204   4.647954
                    6          7          8          9         10
     6  C    0.000000
     7  O    1.369813   0.000000
     8  C    2.572535   2.924907   0.000000
     9  C    3.121466   2.751678   1.510250   0.000000
    10  O    3.681859   4.174987   1.254710   2.368363   0.000000
    11  O    3.672954   4.810776   2.826716   4.336462   2.466204
    12  O    3.626815   4.736017   5.666104   6.647541   6.343529
    13  H    2.160603   2.644003   4.728988   5.171138   5.791131
    14  H    3.885458   5.255260   4.631192   6.018468   4.780484
    15  H    1.915419   0.966206   3.881171   3.669262   5.126091
    16  H    3.110312   2.504249   2.156571   1.090029   3.096640
    17  H    4.172027   3.831077   2.110205   1.088015   2.419304
    18  H    3.110390   2.504155   2.156553   1.090029   3.096738
    19  H    3.784221   4.710549   2.225718   3.680602   1.548301
    20  H    4.326330   5.533715   6.085788   7.208305   6.601378
                   11         12         13         14         15
    11  O    0.000000
    12  O    4.753341   0.000000
    13  H    5.222833   2.552027   0.000000
    14  H    2.538476   2.711191   4.310287   0.000000
    15  H    5.565645   4.635907   2.224243   5.646232   0.000000
    16  H    4.845446   6.653654   4.979082   6.297723   3.319868
    17  H    4.757961   7.623925   6.250981   6.739764   4.732356
    18  H    4.845693   6.653846   4.979162   6.297968   3.319846
    19  H    0.998620   5.532332   5.619791   3.508013   5.567553
    20  H    4.709216   0.966344   3.500956   2.335215   5.522189
                   16         17         18         19         20
    16  H    0.000000
    17  H    1.787296   0.000000
    18  H    1.749301   1.787295   0.000000
    19  H    4.283330   3.936618   4.283597   0.000000
    20  H    7.280857   8.126472   7.281075   5.591566   0.000000
 Stoichiometry    C8H8O4
 Framework group  C1[X(C8H8O4)]
 Deg. of freedom    54
 Full point group                 C1      NOp   1
 Largest Abelian subgroup         C1      NOp   1
 Largest concise Abelian subgroup C1      NOp   1
                         Standard orientation:                         
 ---------------------------------------------------------------------
 Center     Atomic      Atomic             Coordinates (Angstroms)
 Number     Number       Type             X           Y           Z
[...]
 8,0.00000412,0.00885880,-0.00000046,0.00000021,0.01023712,-0.00000043,
 0.00000039,-0.00207923,-0.00000173,-0.00000022,0.00388987,0.00000340,0
 .00000177,0.00275383,-0.00001923,0.00001039,-0.03812593,0.00002615,-0.
 00001499,0.02523381,0.01201332,-0.00468173,0.00000007,-0.00953651,0.00
 626455,-0.00000099,0.00081837,0.00307861,0.00000461,-0.02558940,0.0435
 0218,-0.00001773,-0.20303753,0.01144781,-0.00004850,-0.01746674,-0.037
 73044,-0.00000342,-0.00637675,0.01476145,-0.00000079,0.58088197,0.0020
 2475,-0.00756118,-0.00000126,-0.00242955,0.00010508,0.00000085,0.00219
 486,-0.00718191,0.00000118,0.03429500,0.03321203,0.00000375,0.02944747
 ,-0.11188315,-0.00000432,-0.03772511,-0.00046847,-0.00000336,0.0019869
 5,0.00240380,-0.00000025,0.07344870,0.78147734,0.00000151,0.00000125,0
 .00705978,0.00000002,0.00000215,-0.00155052,-0.00000188,-0.00000228,0.
 00258615,0.00000817,0.00000314,0.00069385,-0.00003453,-0.00000113,-0.0
 5349076,0.00000053,-0.00000184,-0.01190251,0.00000052,-0.00000029,-0.0
 0236566,0.00002634,0.00005760,0.20647784,-0.00061394,0.00030580,0.0000
 0023,0.00056766,-0.00007364,0.00000028,-0.00004894,0.00159900,-0.00000
 226,-0.00505607,-0.00378144,0.00000286,-0.01175516,0.02320531,0.000018
 80,0.00016557,0.00008323,-0.00000300,-0.00746674,-0.00512920,0.0000024
 8,-0.15142899,0.06772753,0.00001627,0.56857112,0.00082621,-0.00029283,
 0.00000033,-0.00057618,0.00006543,0.00000061,0.00007823,0.00180060,-0.
 00000275,-0.00474426,-0.00098828,0.00000214,0.00342169,0.00973284,-0.0
 0000319,-0.00000985,-0.00205578,-0.00000244,-0.00374485,-0.00028079,0.
 00000297,0.05195872,-0.13969481,-0.00003023,0.07384384,0.54377013,0.00
 000007,-0.00000025,-0.00054812,-0.00000106,-0.00000087,0.00002036,0.00
 000091,0.00000235,-0.00031801,-0.00000488,0.00000086,0.00120321,-0.000
 00113,0.00000190,0.01139602,-0.00000016,-0.00000390,0.00076047,-0.0000
 0317,0.00000106,-0.00064900,0.00003728,-0.00005458,-0.08457217,0.00004
 425,-0.00001276,0.54825607,-0.00206761,-0.00207171,-0.00000018,0.00379
 057,0.00037194,0.00000061,-0.00293891,-0.00358330,-0.00000259,0.008974
 11,0.00230877,-0.00000048,-0.03421617,-0.05440995,-0.00000307,-0.00662
 558,0.01303509,-0.00000127,0.00281745,-0.00465797,0.00000036,-0.184281
 03,-0.18188748,-0.00002029,0.01792493,0.01748336,0.00000968,0.24132817
 ,-0.00781342,0.00417888,-0.00000124,0.00449301,-0.00794971,0.00000038,
 0.00421757,0.00441869,-0.00000132,-0.00383156,-0.03919976,0.00001075,-
 0.06355151,-0.01379314,-0.00000884,0.00844865,0.01385849,0.00000397,-0
 .00056978,-0.00254365,0.00000056,-0.14630345,-0.49601750,-0.00002048,-
 0.01213226,-0.06073802,-0.00001066,0.19918667,0.57886491,0.00000394,-0
 .00000312,-0.00122468,-0.00000035,0.00000605,0.00026044,-0.00000600,-0
 .00000510,0.00034111,0.00000483,0.00002247,-0.00162039,0.00000645,-0.0
 0000840,0.01525518,-0.00000555,-0.00000282,0.00616236,0.00000031,-0.00
 000021,0.00000809,-0.00003047,-0.00001727,-0.06430712,0.00000623,-0.00
 002044,0.02192743,0.00001839,0.00005544,0.03245952,0.01006121,-0.00931
 442,0.00000059,-0.00456762,0.02159607,-0.00000009,-0.04247108,-0.06666
 326,0.00001613,-0.15051572,-0.09862966,0.00004940,0.03515423,0.0092920
 1,0.00000494,-0.01624013,-0.00437662,-0.00000163,0.00338183,0.00012522
 ,0.00000026,-0.03300504,-0.02563090,-0.00001023,0.00214874,0.00444011,
 0.00000559,-0.03381023,0.05719639,-0.00005065,0.56242211,0.00186508,-0
 .00692136,-0.00000151,0.00485983,0.00915580,0.00000401,-0.03005352,-0.
 01152840,0.00001137,-0.06892673,-0.30785990,0.00006344,-0.00043845,-0.
 04944636,0.00001256,0.00201521,-0.00020767,0.00000522,-0.00054686,-0.0
 0252494,-0.00000027,-0.02175941,-0.00760150,-0.00000217,0.00048138,-0.
 00073122,-0.00000141,0.01850972,0.01232237,0.00000288,0.05315374,0.430
 42835,-0.00000327,0.00000185,-0.00232863,-0.00000033,-0.00000513,0.005
 51067,0.00001157,0.00001293,0.00600248,0.00004409,0.00009234,-0.043666
 79,0.00000264,0.00001031,0.00635914,0.00000118,0.00000262,0.00773537,-
 0.00000061,0.00000187,0.00025005,0.00001199,0.00000241,-0.00223522,-0.
 00000076,0.00000083,-0.00064971,-0.00001536,-0.00000344,0.00787405,-0.
 00021335,-0.00009191,0.04038619,-0.04742558,0.01087220,-0.00000328,-0.
 31131087,-0.04812633,-0.00001622,-0.04565532,-0.00832738,-0.00000430,0
 .01131581,-0.00378482,-0.00000092,-0.01335951,0.00063926,0.00000065,0.
 00823801,0.00210730,-0.00000042,-0.00219687,0.00160691,-0.00000011,0.0
 1124516,0.00233441,0.00000028,-0.00048646,0.00081529,0.00000143,-0.004
 24419,-0.00435226,0.00000013,-0.00270782,-0.00115784,0.00000151,0.5126
 3917,0.04858390,0.00728977,0.00000272,0.00614118,-0.11393470,0.0000008
 0,-0.04668861,0.00231081,-0.00000211,0.00850153,-0.00722432,0.00000055
 ,0.00012218,0.00455104,0.00000031,-0.00662743,-0.00947648,-0.00000012,
 0.00350927,-0.00053095,0.00000009,-0.00080285,0.00004540,0.00000027,-0
 .00005880,0.00004816,-0.00000005,-0.00006977,0.00125613,-0.00000091,-0
 .00440036,-0.00046156,0.00000121,-0.15356795,0.55364973,-0.00000297,-0
 .00000054,0.00528953,-0.00001762,-0.00000165,-0.04055394,-0.00000090,0
 .00000209,0.00832733,0.00000015,0.00000212,0.01016321,-0.00000012,-0.0
 0000042,-0.00160245,-0.00000065,0.00000003,0.00393260,0.,0.00000011,0.
 00003122,0.00000037,0.00000009,-0.00040698,0.,-0.00000010,0.00021027,0
 .00000002,-0.00000018,-0.00011450,-0.00000112,-0.00000109,-0.00029863,
 0.00003604,-0.00002840,0.02701142,-0.12541735,-0.12277613,-0.00000226,
 0.01207890,0.01572644,0.00000046,-0.00193188,0.00303531,-0.00000047,-0
 .00134621,0.00079736,0.00000012,-0.00495747,0.00197503,-0.00000143,-0.
 01053505,-0.02827535,-0.00000022,0.00291240,-0.00132673,0.00000037,0.0
 0086982,-0.00131208,0.00000055,0.00000450,0.00001426,-0.00000002,-0.00
 079897,-0.00047366,0.00000008,0.00055185,0.00002217,-0.00000009,0.0011
 6686,-0.00083131,0.00000011,0.12852965,-0.12144914,-0.27986566,-0.0000
 0278,-0.01762783,-0.01965102,-0.00000063,0.00430930,-0.00252675,0.0000
 0029,0.00127526,0.00023419,0.00000003,0.00020331,0.00131575,0.00000012
 ,0.00415559,-0.00019440,0.00000023,0.00082296,0.00344968,-0.00000014,0
 .00062049,0.00005019,0.00000005,-0.00002139,0.00003086,0.00000014,-0.0
 0026030,0.00002794,-0.00000012,-0.00037254,0.00001540,0.00000020,-0.00
 079563,0.00199250,-0.00000010,0.13109358,0.29523452,-0.00000264,-0.000
 00289,-0.02129806,0.00000027,-0.00000031,0.00097640,0.00000113,0.00000
 141,0.00435385,-0.00000005,0.00000010,-0.00209008,-0.00000207,-0.00000
 009,0.00551387,-0.00000158,-0.00000110,0.00012906,0.00000110,-0.000000
 98,-0.00475097,0.00000055,0.00000025,0.00147389,-0.00000006,0.00000013
 ,-0.00017066,-0.00000013,-0.00000017,-0.00057119,0.00000011,0.00000021
 ,0.00018990,0.00000072,0.00000020,-0.00269903,0.00000324,0.00000284,0.
 01765487,-0.00098507,-0.00290232,-0.00000009,0.00872629,-0.01466071,0.
 00000285,-0.13431670,0.12659539,-0.00002141,-0.01157751,0.03076862,-0.
 00000525,-0.00503519,-0.00224630,-0.00000096,-0.00123923,-0.00124461,-
 0.00000015,0.00027414,0.00022944,0.00000002,0.00020696,0.00216351,0.00
 000039,-0.00048821,-0.00034384,-0.00000020,0.00025714,-0.00071791,0.00
 000067,0.00343279,-0.00028887,-0.00000033,0.00348537,-0.00020424,0.000
 00044,0.00057075,-0.00072716,-0.00000028,0.13765450,-0.00386634,-0.002
 48772,0.00000061,0.01826939,-0.01778916,0.00000338,0.12841329,-0.27218
 130,0.00003880,-0.00251029,0.00364929,-0.00000072,-0.00049546,0.000677
 88,0.00000071,-0.00099892,0.00008647,-0.00000034,0.00019595,0.00015518
 ,0.00000003,-0.00055187,-0.00006587,-0.00000029,-0.00000239,0.00000207
 ,-0.00000002,0.00008161,0.00026694,0.00000002,-0.00021599,0.00043459,-
 0.00000054,0.00055959,0.00279785,-0.00000089,0.00083171,-0.00091419,0.
 00000005,-0.13759399,0.28606295,-0.00000253,0.00000095,0.00522674,-0.0
 0000252,-0.00000329,0.00001655,-0.00001744,0.00004219,-0.02325510,-0.0
 0000591,0.00000129,0.00208327,0.00000003,-0.00000026,0.00512028,0.0000
 0260,0.00000075,-0.00157988,-0.00000070,0.00000057,-0.00013774,0.00000
 032,0.00000006,0.00056084,-0.00000014,0.00000004,-0.00014261,0.0000000
 2,-0.00000036,-0.00008917,0.00000028,-0.00000090,-0.00319281,0.0000015
 8,-0.00000053,-0.00415819,-0.00000005,0.,0.00092816,0.00002464,-0.0000
 4099,0.01858844,0.00044227,0.00546344,0.00000040,-0.00094478,-0.000011
 51,-0.00000037,-0.00018203,-0.00004495,0.00000037,0.00094802,0.0008652
 9,-0.00000055,-0.00162025,0.00379457,-0.00000076,0.01374034,0.02474695
 ,0.00000039,-0.24278595,-0.26247695,-0.00000669,-0.00065908,0.00049485
 ,0.00000052,-0.00143021,-0.00012838,-0.00000097,0.00018803,0.00012848,
 -0.00000014,-0.00049090,-0.00017625,0.00000001,0.00014533,-0.00009418,
 -0.00000001,-0.00142820,-0.00118074,-0.00000011,-0.00009141,-0.0001447
 0,0.,0.23419889,-0.00284402,0.00541963,-0.00000061,0.00038086,-0.00204
 653,-0.00000010,0.00065507,0.00106753,0.00000002,-0.00285964,-0.000972
 03,0.00000017,0.00673307,-0.00215152,0.00000117,-0.02657544,-0.0385969
 8,-0.00000084,-0.20644397,-0.31606351,-0.00000198,-0.00078813,0.000024
 26,-0.00000023,0.00013837,0.00006885,-0.00000014,0.00047796,0.00042694
 ,0.00000013,0.00084627,0.00007529,0.00000004,-0.00088404,0.00052616,0.
 ,0.00144118,0.00038140,0.00000034,0.00006399,0.00008358,-0.00000008,0.
 22981546,0.35158627,0.00000006,0.00000034,-0.00117318,-0.00000002,0.00
 000012,-0.00123169,-0.00000023,-0.00000002,0.00003837,-0.00000024,-0.0
 0000003,0.00192517,-0.00000035,0.00000102,0.00187054,0.00000251,0.0000
 0259,-0.00240288,-0.00000866,-0.00000531,-0.00420148,-0.00000017,0.000
 00010,-0.00042629,-0.00000078,-0.00000043,-0.00021145,0.00000018,-0.00
 000024,-0.00007170,0.00000008,-0.00000026,-0.00026086,0.00000007,-0.00
 000003,-0.00007397,-0.00000011,-0.00000007,0.00107844,-0.00000001,-0.0
 0000003,0.00002420,0.00000689,0.00000211,0.00449491,-0.00013973,-0.000
 13567,-0.00006570,0.00016216,0.00003971,0.00013923,-0.00006315,-0.0003
 4802,-0.00033868,0.00052670,-0.00020717,0.00062437,-0.00225588,-0.0007
 6024,0.00136113,-0.00106317,0.00271115,-0.00001273,-0.00147674,-0.0018
 4490,-0.00057505,0.00747924,0.00817961,-0.02030554,-0.05666201,-0.0230
 9618,0.03609504,-0.00101592,0.00281096,0.00210217,-0.00037609,0.000087
 00,-0.00005442,-0.00022043,-0.00004414,0.00001971,-0.00004348,-0.00002
 158,-0.00006461,0.00001786,0.00000087,-0.00002145,-0.00003410,-0.00021
 426,0.00007676,0.05595822,-0.00007946,0.00001221,0.00023177,0.00001590
 ,-0.00016277,0.00001586,0.00020203,0.00008886,0.00026973,-0.00027791,-
 0.00044968,-0.00056310,0.00026040,0.00036435,-0.00186631,0.00036002,0.
 00030165,0.00016209,-0.00121001,-0.00078913,-0.00084618,-0.00736691,-0
 .01489135,0.02199068,-0.02407120,-0.13439390,0.13478127,0.00370717,-0.
 00472014,-0.00276856,0.00085492,0.00012984,0.00014892,0.00000260,0.000
 00532,-0.00005312,-0.00000699,-0.00000025,-0.00000624,-0.00000939,-0.0
 0000098,0.00001807,-0.00027643,0.00002596,-0.00020849,0.02689609,0.148
 15577,0.00041635,-0.00040622,-0.00016732,-0.00002564,0.00033540,-0.000
 05176,-0.00015236,-0.00015897,0.00002556,0.00010400,0.00004152,0.00017
 836,-0.00042714,0.00027957,0.00010470,-0.00059218,0.00171125,0.0001189
 0,0.00139632,-0.00059379,0.00046787,0.00029219,-0.00245978,0.00183806,
 0.03563567,0.13070662,-0.22382718,-0.00035918,-0.00112094,-0.00087957,
 -0.00015860,-0.00015431,-0.00003836,0.00002637,-0.00006853,0.00000852,
 -0.00003789,-0.00002721,0.00003399,-0.00001245,-0.00000651,-0.00000266
 ,0.00046255,0.00001252,0.00010232,-0.04042673,-0.14173470,0.24194445,-
 0.00016368,0.00003736,-0.00000005,0.00027618,-0.00006708,-0.00000005,-
 0.00009471,0.00046362,-0.00000015,-0.00113447,-0.00141619,0.00000015,-
 0.00030904,0.00426111,0.00000260,0.00069352,0.00015069,-0.00000030,-0.
 00021250,-0.00061314,0.00000019,-0.02476327,-0.00881005,-0.00000379,-0
 .29521731,-0.09140888,-0.00002741,0.00471671,-0.00298373,0.00000017,0.
 00103296,0.00029323,-0.00000005,-0.00024475,0.00000039,0.,-0.00000702,
 -0.00002298,0.,-0.00013683,0.00000283,0.,-0.00006829,0.00022716,-0.000
 00001,-0.00168502,0.00000922,-0.00035069,0.31988207,-0.00026540,0.0003
 7086,-0.00000007,-0.00004434,-0.00024877,0.00000008,0.00016049,-0.0003
 3706,0.00000014,0.00125745,0.00063837,0.00000015,0.00127598,-0.0045443
 0,-0.00000274,0.00032093,-0.00163868,0.00000031,-0.00174255,0.00009341
 ,-0.00000015,0.03019781,0.00741989,0.00000368,-0.09813375,-0.08449559,
 -0.00001023,-0.00081929,0.00239838,-0.00000025,-0.00042666,0.00012340,
 -0.00000008,0.00001389,0.00006467,0.,0.00005054,0.00003062,0.00000001,
 0.00014762,0.00001188,-0.00000003,-0.00040304,0.00012041,-0.00000002,-
 0.01587692,-0.00532191,-0.00264805,0.09951156,0.09075494,-0.00000003,0
 .00000015,-0.00021808,0.,-0.00000015,0.00002341,0.00000014,-0.00000046
 ,-0.00021266,0.00000066,0.00000027,0.00057922,-0.00000079,-0.00000303,
 0.00138034,0.00000004,0.00000035,-0.00007124,0.00000096,0.00000087,0.0
 0078257,0.00001847,0.00000485,-0.00128725,-0.00002988,-0.00001018,-0.0
 5178677,-0.00000138,0.00000171,-0.00098534,-0.00000005,0.00000020,-0.0
 0008049,-0.00000013,0.00000001,0.00001042,0.,0.,0.00001974,0.00000010,
 0.,-0.00001178,0.00000038,-0.00000014,0.00020510,0.02523415,0.00723104
 ,0.00188458,0.00002750,0.00001471,0.04784987,-0.00014070,-0.00013496,0
 .00006562,0.00016276,0.00003948,-0.00013919,-0.00006332,-0.00034775,0.
 00033904,0.00052724,-0.00020866,-0.00062468,-0.00225583,-0.00075830,-0
 .00136375,-0.00106190,0.00270877,0.00001466,-0.00147022,-0.00184070,0.
 00057220,0.00747558,0.00816651,0.02031388,-0.05666735,-0.02308359,-0.0
 3614374,-0.00101776,0.00280637,-0.00210167,-0.00037600,0.00008765,0.00
 005434,-0.00022093,-0.00004408,-0.00001975,-0.00004344,-0.00002161,0.0
 0006455,0.00001785,0.00000090,0.00002150,-0.00003384,-0.00021379,-0.00
 007587,0.00036550,0.00197359,0.00406316,-0.00169161,-0.01584979,-0.025
 25051,0.05596676,-0.00007945,0.00001196,-0.00023147,0.00001593,-0.0001
 6300,-0.00001580,0.00020228,0.00008876,-0.00026974,-0.00027828,-0.0004
 4931,0.00056279,0.00025822,0.00036329,0.00186827,0.00035956,0.00030345
 ,-0.00016175,-0.00120312,-0.00078710,0.00084369,-0.00736657,-0.0148720
 5,-0.02200250,-0.02406348,-0.13412968,-0.13470050,0.00370642,-0.004715
 64,0.00277223,0.00085543,0.00012953,-0.00014886,0.00000249,0.00000530,
 0.00005311,-0.00000707,-0.00000031,0.00000619,-0.00000940,-0.00000099,
 -0.00001807,-0.00027510,0.00002607,0.00020854,0.00198192,0.01124014,0.
 01639444,0.00000671,-0.00531722,-0.00724012,0.02687900,0.14785916,-0.0
 0041610,0.00040597,-0.00016772,0.00002595,-0.00033506,-0.00005173,0.00
 015210,0.00015876,0.00002521,-0.00010380,-0.00004275,0.00017968,0.0004
 2566,-0.00027848,0.00010691,0.00059318,-0.00170985,0.00011891,-0.00139
 560,0.00059324,0.00046965,-0.00030194,0.00244896,0.00181624,-0.0356903
 6,-0.13062414,-0.22408267,0.00036210,0.00111539,-0.00087660,0.00015927
 ,0.00015471,-0.00003884,-0.00002677,0.00006846,0.00000857,0.00003785,0
 .00002717,0.00003399,0.00001240,0.00000651,-0.00000273,-0.00046206,-0.
 00001224,0.00010215,-0.00406627,-0.01635987,-0.02165014,0.00035255,0.0
 0264228,0.00188327,0.04048826,0.14163868,0.24221589,-0.00498182,0.0046
 5411,-0.00000030,-0.00004070,-0.00849159,0.00000137,0.00969032,0.00525
 267,0.00000116,-0.03338569,-0.03534988,0.00001957,-0.01611391,0.003909
 71,-0.00000483,0.00348366,0.00407756,0.00000022,-0.00098492,0.00108914
 ,0.00000031,0.03604211,0.02562491,0.00000740,-0.00215541,-0.00567303,-
 0.00001144,-0.00947668,-0.03670880,0.00005124,-0.33473509,0.04133686,0
 .00016170,-0.00039770,0.00127169,-0.00000038,-0.00028749,0.00014578,-0
 .00000017,-0.00051795,-0.00009038,-0.00000041,0.00010650,0.00003843,-0
 .00000008,0.00051348,-0.00097825,0.00014085,-0.00091439,0.00064011,0.0
 0000037,0.00051458,-0.00098012,-0.00014106,0.35403768,0.00308724,-0.00
 210835,0.00000103,-0.00248424,0.00506087,-0.00000081,-0.00515506,-0.00
 948309,0.00000392,-0.04500626,0.01160341,0.00001583,0.00829793,-0.0021
 0967,0.00000361,-0.00317492,-0.00302877,-0.00000293,0.00052398,0.00061
 744,-0.00000011,-0.00900052,-0.02472950,0.00000303,0.00007506,0.002202
 78,0.00000751,-0.01080399,0.01219143,-0.00003216,0.06176587,-0.0654101
 9,-0.00002558,0.00069142,-0.00114404,-0.00000037,0.00022996,-0.0000461
 2,0.00000005,0.00032785,0.00006696,0.00000016,-0.00009969,0.00000988,0
 .00000012,-0.00012938,0.00040811,-0.00010168,0.00036492,-0.00011867,-0
 .00000007,-0.00013016,0.00040975,0.00010167,0.00046889,0.07548999,-0.0
 0000200,0.00000201,0.00006685,0.00000033,-0.00000345,0.00243559,0.0000
 0164,0.00000333,0.00355265,0.00001275,-0.00002028,-0.00208195,-0.00001
 058,0.00000068,-0.00024686,0.00000247,0.00000114,-0.00136681,-0.000000
 56,-0.00000070,-0.00005879,0.00001189,0.00002076,-0.00002067,0.0000001
 6,-0.00000712,0.00327127,0.00001256,-0.00002032,-0.01358192,0.00019881
 ,-0.00000105,-0.02150027,-0.00000128,0.00000033,-0.00059493,-0.0000002
 7,-0.00000002,-0.00003313,-0.00000029,0.00000003,-0.00080422,0.0000001
 4,-0.00000015,0.00008872,0.00029570,-0.00044379,-0.00010025,-0.0000006
 7,0.00000025,0.00002778,-0.00029513,0.00044181,-0.00010000,-0.00022559
 ,0.00002669,0.03094091,-0.00617429,-0.00362852,-0.00000055,-0.02572162
 ,0.04708328,-0.00000238,0.00373618,0.00067060,-0.00000011,-0.00168067,
 0.00005992,0.00000062,0.00109318,-0.00043595,-0.00000005,-0.00019618,0
 .00247235,-0.00000031,-0.00034883,-0.00061407,0.00000013,-0.00088819,-
 0.00029389,-0.00000013,0.00009429,-0.00007266,-0.00000009,0.00049596,0
 .00015022,0.00000023,0.00111001,0.00063604,-0.00000046,-0.11976528,0.1
 4530362,-0.00001335,0.00011185,-0.00012537,0.00000001,-0.00025555,-0.0
 0188584,0.00000017,-0.00000034,0.00000547,0.,0.00001258,-0.00000537,0.
 00000541,0.00004143,-0.00001464,0.,0.00001263,-0.00000536,-0.00000537,
 -0.00039656,0.00015110,-0.00000008,0.14871941,-0.00174011,0.00194767,0
 .00000001,-0.00523074,0.00206020,-0.00000046,-0.00586044,0.00288111,-0
 .00000160,0.00066001,-0.00105850,0.00000077,-0.00117110,0.00003812,0.0
 0000014,0.00063649,0.00031327,-0.00000012,-0.00001783,-0.00009584,0.00
 000006,0.00107155,0.00022931,-0.00000039,0.00000804,0.00007917,0.00000
 028,-0.00030496,-0.00053351,0.00000013,-0.00009562,-0.00012145,0.,0.20
 135090,-0.44177079,0.00002930,-0.00020822,0.00043565,0.,0.00065232,-0.
 00085542,0.00000043,0.00000288,-0.00001168,0.,-0.00002884,-0.00000208,
 -0.00000063,-0.00000674,-0.00000462,-0.00000002,-0.00002888,-0.0000020
 9,0.00000060,-0.00023780,0.00011778,-0.00000015,-0.18945092,0.43635372
 ,-0.00000006,-0.00000033,0.00259294,-0.00000115,0.00000341,-0.00293846
 ,0.00000045,-0.00000076,-0.00106501,-0.00000009,-0.00000034,-0.0012677
 6,-0.00000009,0.00000017,-0.00019513,-0.00000031,-0.00000002,0.0027031
 4,0.00000011,-0.00000009,-0.00061406,-0.00000007,-0.00000003,0.0000585
 0,0.,0.00000011,-0.00008677,-0.00000001,0.,0.00003399,0.00000026,0.000
 00031,-0.00001723,-0.00001536,0.00002571,-0.00449045,0.00000004,0.0000
 0001,-0.00077305,-0.00000010,0.00000017,0.00082841,0.,0.,0.00012358,-0
 .00001708,0.00000092,0.00000995,0.,0.,0.00000732,0.00001707,-0.0000009
 6,0.00000995,0.00000008,0.00000007,0.00010603,0.00001633,-0.00002836,0
 .00497413\\0.00001302,0.00002445,-0.00000183,0.00003471,0.00003930,-0.
 00000025,0.00002826,-0.00001144,0.00000684,-0.00002392,-0.00001792,-0.
 00002453,0.00002263,-0.00002969,0.00002505,-0.00004660,0.00000662,0.00
 001417,0.00002983,0.00000094,-0.00000017,-0.00006615,-0.00009625,-0.00
 010903,-0.00001494,0.00000014,0.00005133,0.00004284,0.00005980,0.00000
 985,-0.00001355,0.00002419,-0.00001492,-0.00001306,-0.00004612,0.00000
 063,0.00000501,-0.00000860,-0.00000062,-0.00000394,0.00000509,-0.00000
 207,-0.00002756,0.00000327,0.00000011,0.00000656,0.00000751,-0.0000009
 3,0.00001017,0.00000199,-0.00000079,-0.00000880,0.00002050,-0.00000292
 ,0.00000218,-0.00000312,0.00004968,0.00002330,0.00001933,0.00000039\\\
 @


 SILVERMAN'S PARADOX - IF MURPHY'S LAW CAN GO WRONG, IT WILL.
 Job cpu time:       0 days  5 hours  2 minutes  1.0 seconds.
 File lengths (MBytes):  RWF=  27603 Int=      0 D2E=      0 Chk=      8 Scr=      1
 Normal termination of Gaussian 09 at Sun Dec 15 20:52:32 2024.
