 Entering Gaussian System, Link 0=g09
 Input=B2PLYPTHAPyang.gjf
 Output=B2PLYPTHAPyang.log
 Initial command:
 /home/c612/g09E/g09/l1.exe "/mnt/ja_sm883/scratch/Gau-877850.inp" -scrdir="/mnt/ja_sm883/scratch/"
 Default is to use a total of  18 processors:
                               18 via shared-memory
                                1 via Linda
 Entering Link 1 = /home/c612/g09E/g09/l1.exe PID=    877852.
  
 Copyright (c) 1988,1990,1992,1993,1995,1998,2003,2009,2015,
            Gaussian, Inc.  All Rights Reserved.
  
 This is part of the Gaussian(R) 09 program.  It is based on
 the Gaussian(R) 03 system (copyright 2003, Gaussian, Inc.),
 the Gaussian(R) 98 system (copyright 1998, Gaussian, Inc.),
 the Gaussian(R) 94 system (copyright 1995, Gaussian, Inc.),
 the Gaussian 92(TM) system (copyright 1992, Gaussian, Inc.),
 the Gaussian 90(TM) system (copyright 1990, Gaussian, Inc.),
 the Gaussian 88(TM) system (copyright 1988, Gaussian, Inc.),
 the Gaussian 86(TM) system (copyright 1986, Carnegie Mellon
 University), and the Gaussian 82(TM) system (copyright 1983,
 Carnegie Mellon University). Gaussian is a federally registered
 trademark of Gaussian, Inc.
  
 This software contains proprietary and confidential information,
 including trade secrets, belonging to Gaussian, Inc.
  
 This software is provided under written license and may be
 used, copied, transmitted, or stored only in accord with that
 written license.
  
 The following legend is applicable only to US Government
 contracts under FAR:
  
                    RESTRICTED RIGHTS LEGEND
  
 Use, reproduction and disclosure by the US Government is
 subject to restrictions as set forth in subparagraphs (a)
 and (c) of the Commercial Computer Software - Restricted
 Rights clause in FAR 52.227-19.
  
 Gaussian, Inc.
 340 Quinnipiac St., Bldg. 40, Wallingford CT 06492
  
  
 ---------------------------------------------------------------
 Warning -- This program may not be used in any manner that
 competes with the business of Gaussian, Inc. or will provide
 assistance to any competitor of Gaussian, Inc.  The licensee
 of this program is prohibited from giving any competitor of
 Gaussian, Inc. access to this program.  By using this program,
 the user acknowledges that Gaussian, Inc. is engaged in the
 business of creating and licensing software in the field of
 computational chemistry and represents and warrants to the
 licensee that it is not a competitor of Gaussian, Inc. and that
 it will not use this program in any manner prohibited above.
 ---------------------------------------------------------------
  

 Cite this work as:
 Gaussian 09, Revision E.01,
 M. J. Frisch, G. W. Trucks, H. B. Schlegel, G. E. Scuseria, 
 M. A. Robb, J. R. Cheeseman, G. Scalmani, V. Barone, B. Mennucci, 
 G. A. Petersson, H. Nakatsuji, M. Caricato, X. Li, H. P. Hratchian, 
 A. F. Izmaylov, J. Bloino, G. Zheng, J. L. Sonnenberg, M. Hada, 
 M. Ehara, K. Toyota, R. Fukuda, J. Hasegawa, M. Ishida, T. Nakajima, 
 Y. Honda, O. Kitao, H. Nakai, T. Vreven, J. A. Montgomery, Jr., 
 J. E. Peralta, F. Ogliaro, M. Bearpark, J. J. Heyd, E. Brothers, 
 K. N. Kudin, V. N. Staroverov, T. Keith, R. Kobayashi, J. Normand, 
 K. Raghavachari, A. Rendell, J. C. Burant, S. S. Iyengar, J. Tomasi, 
 M. Cossi, N. Rega, J. M. Millam, M. Klene, J. E. Knox, J. B. Cross, 
 V. Bakken, C. Adamo, J. Jaramillo, R. Gomperts, R. E. Stratmann, 
 O. Yazyev, A. J. Austin, R. Cammi, C. Pomelli, J. W. Ochterski, 
 R. L. Martin, K. Morokuma, V. G. Zakrzewski, G. A. Voth, 
 P. Salvador, J. J. Dannenberg, S. Dapprich, A. D. Daniels, 
 O. Farkas, J. B. Foresman, J. V. Ortiz, J. Cioslowski, 
 and D. J. Fox, Gaussian, Inc., Wallingford CT, 2013.
 
 ******************************************
 Gaussian 09:  ES64L-G09RevE.01 30-Nov-2015
                15-Dec-2024 
 ******************************************
 %chk=B2PLYPTHAPyang.chk
 -----------------------------
 # opt freq B2PLYP/6-31+g(d,p)
 -----------------------------
 1/18=20,19=15,38=1/1,3;
 2/9=110,12=2,17=6,18=5,40=1/2;
 3/5=1,6=6,7=111,11=9,16=1,25=1,30=1,71=1,74=-47/1,2,3;
 4//1;
 5/5=2,38=5/2;
 8/6=4,10=2/1;
 9/15=2,16=-3/6;
 10/5=1/2;
 6/7=2,8=2,9=2,10=2/1;
 7/12=2/1,2,3,16;
 1/18=20,19=15/3(2);
 2/9=110/2;
 99//99;
 2/9=110/2;
 3/5=1,6=6,7=111,11=9,16=1,25=1,30=1,71=1,74=-47/1,2,3;
 4/5=5,16=3,69=1/1;
 5/5=2,38=5/2;
 8/6=4,10=2/1;
 9/15=2,16=-3/6;
 10/5=1/2;
 7/12=2/1,2,3,16;
 1/18=20,19=15/3(-8);
 2/9=110/2;
 6/7=2,8=2,9=2,10=2/1;
 99//99;
 ----------
 [No Title]
 ----------
 Symbolic Z-matrix:
 Charge =  1 Multiplicity = 1
 C                     1.54033  -1.26945  -0.00018 
 C                     2.27705  -0.08266   0.00002 
 C                     1.63782   1.17016   0.00002 
 C                     0.26437   1.21208  -0.0001 
 C                    -0.55302   0.03021  -0.00019 
 C                     0.16052  -1.2202   -0.00032 
 O                    -0.56706  -2.34079  -0.00058 
 C                    -1.97565   0.0882    0.0002 
 C                    -2.90037  -1.07866   0.00054 
 O                    -2.62172   1.21145   0.00035 
 O                    -0.39127   2.39702  -0.00026 
 O                     3.59808  -0.20839   0.00012 
 H                     2.07313  -2.21418  -0.00027 
 H                     2.21823   2.08777  -0.00008 
 H                    -0.0045   -3.12812  -0.00059 
 H                    -2.72053  -1.70633  -0.87569 
 H                    -2.71984  -1.70642   0.87656 
 H                    -3.92269  -0.70491   0.00096 
 H                    -2.03503   1.99695   0.00014 
 H                     0.20158   3.16143   0.00173 
 H                     4.05915   0.64146   0.00029 
 

 GradGradGradGradGradGradGradGradGradGradGradGradGradGradGradGradGradGrad
 Berny optimization.
 Initialization pass.
                           ----------------------------
                           !    Initial Parameters    !
                           ! (Angstroms and Degrees)  !
 --------------------------                            --------------------------
 ! Name  Definition              Value          Derivative Info.                !
 --------------------------------------------------------------------------------
 ! R1    R(1,2)                  1.3969         estimate D2E/DX2                !
 ! R2    R(1,6)                  1.3807         estimate D2E/DX2                !
 ! R3    R(1,13)                 1.0846         estimate D2E/DX2                !
 ! R4    R(2,3)                  1.4065         estimate D2E/DX2                !
 ! R5    R(2,12)                 1.327          estimate D2E/DX2                !
 ! R6    R(3,4)                  1.3741         estimate D2E/DX2                !
 ! R7    R(3,14)                 1.0858         estimate D2E/DX2                !
 ! R8    R(4,5)                  1.437          estimate D2E/DX2                !
 ! R9    R(4,11)                 1.3542         estimate D2E/DX2                !
 ! R10   R(5,6)                  1.4397         estimate D2E/DX2                !
 ! R11   R(5,8)                  1.4238         estimate D2E/DX2                !
 ! R12   R(6,7)                  1.3361         estimate D2E/DX2                !
 ! R13   R(7,15)                 0.9677         estimate D2E/DX2                !
 ! R14   R(8,9)                  1.4888         estimate D2E/DX2                !
 ! R15   R(8,10)                 1.2958         estimate D2E/DX2                !
 ! R16   R(9,16)                 1.0927         estimate D2E/DX2                !
 ! R17   R(9,17)                 1.0927         estimate D2E/DX2                !
 ! R18   R(9,18)                 1.0885         estimate D2E/DX2                !
 ! R19   R(10,19)                0.9804         estimate D2E/DX2                !
 ! R20   R(11,20)                0.9674         estimate D2E/DX2                !
 ! R21   R(12,21)                0.9669         estimate D2E/DX2                !
 ! A1    A(2,1,6)              119.7861         estimate D2E/DX2                !
 ! A2    A(2,1,13)             118.7476         estimate D2E/DX2                !
 ! A3    A(6,1,13)             121.4663         estimate D2E/DX2                !
 ! A4    A(1,2,3)              121.1374         estimate D2E/DX2                !
 ! A5    A(1,2,12)             116.3939         estimate D2E/DX2                !
 ! A6    A(3,2,12)             122.4687         estimate D2E/DX2                !
 ! A7    A(2,3,4)              118.7804         estimate D2E/DX2                !
 ! A8    A(2,3,14)             120.654          estimate D2E/DX2                !
 ! A9    A(4,3,14)             120.5657         estimate D2E/DX2                !
 ! A10   A(3,4,5)              122.9195         estimate D2E/DX2                !
 ! A11   A(3,4,11)             120.7043         estimate D2E/DX2                !
 ! A12   A(5,4,11)             116.3763         estimate D2E/DX2                !
 ! A13   A(4,5,6)              115.6211         estimate D2E/DX2                !
 ! A14   A(4,5,8)              122.3335         estimate D2E/DX2                !
 ! A15   A(6,5,8)              122.0454         estimate D2E/DX2                !
 ! A16   A(1,6,5)              121.7556         estimate D2E/DX2                !
 ! A17   A(1,6,7)              120.9503         estimate D2E/DX2                !
 ! A18   A(5,6,7)              117.2941         estimate D2E/DX2                !
 ! A19   A(6,7,15)             111.4585         estimate D2E/DX2                !
 ! A20   A(5,8,9)              126.0619         estimate D2E/DX2                !
 ! A21   A(5,8,10)             122.2409         estimate D2E/DX2                !
 ! A22   A(9,8,10)             111.6972         estimate D2E/DX2                !
 ! A23   A(8,9,16)             110.3512         estimate D2E/DX2                !
 ! A24   A(8,9,17)             110.3533         estimate D2E/DX2                !
 ! A25   A(8,9,18)             108.3141         estimate D2E/DX2                !
 ! A26   A(16,9,17)            106.5992         estimate D2E/DX2                !
 ! A27   A(16,9,18)            110.6161         estimate D2E/DX2                !
 ! A28   A(17,9,18)            110.6163         estimate D2E/DX2                !
 ! A29   A(8,10,19)            113.337          estimate D2E/DX2                !
 ! A30   A(4,11,20)            113.2484         estimate D2E/DX2                !
 ! A31   A(2,12,21)            113.0448         estimate D2E/DX2                !
 ! D1    D(6,1,2,3)             -0.0032         estimate D2E/DX2                !
 ! D2    D(6,1,2,12)          -179.9991         estimate D2E/DX2                !
 ! D3    D(13,1,2,3)           179.9944         estimate D2E/DX2                !
 ! D4    D(13,1,2,12)           -0.0015         estimate D2E/DX2                !
 ! D5    D(2,1,6,5)             -0.0034         estimate D2E/DX2                !
 ! D6    D(2,1,6,7)            179.9969         estimate D2E/DX2                !
 ! D7    D(13,1,6,5)           179.999          estimate D2E/DX2                !
 ! D8    D(13,1,6,7)            -0.0008         estimate D2E/DX2                !
 ! D9    D(1,2,3,4)              0.004          estimate D2E/DX2                !
 ! D10   D(1,2,3,14)          -179.9844         estimate D2E/DX2                !
 ! D11   D(12,2,3,4)           179.9996         estimate D2E/DX2                !
 ! D12   D(12,2,3,14)            0.0112         estimate D2E/DX2                !
 ! D13   D(1,2,12,21)         -179.9985         estimate D2E/DX2                !
 ! D14   D(3,2,12,21)            0.0057         estimate D2E/DX2                !
 ! D15   D(2,3,4,5)              0.002          estimate D2E/DX2                !
 ! D16   D(2,3,4,11)          -179.9924         estimate D2E/DX2                !
 ! D17   D(14,3,4,5)           179.9904         estimate D2E/DX2                !
 ! D18   D(14,3,4,11)           -0.004          estimate D2E/DX2                !
 ! D19   D(3,4,5,6)             -0.008          estimate D2E/DX2                !
 ! D20   D(3,4,5,8)            179.9754         estimate D2E/DX2                !
 ! D21   D(11,4,5,6)           179.9866         estimate D2E/DX2                !
 ! D22   D(11,4,5,8)            -0.0301         estimate D2E/DX2                !
 ! D23   D(3,4,11,20)           -0.1293         estimate D2E/DX2                !
 ! D24   D(5,4,11,20)          179.876          estimate D2E/DX2                !
 ! D25   D(4,5,6,1)              0.0087         estimate D2E/DX2                !
 ! D26   D(4,5,6,7)           -179.9915         estimate D2E/DX2                !
 ! D27   D(8,5,6,1)           -179.9747         estimate D2E/DX2                !
 ! D28   D(8,5,6,7)              0.025          estimate D2E/DX2                !
 ! D29   D(4,5,8,9)           -179.9814         estimate D2E/DX2                !
 ! D30   D(4,5,8,10)             0.0161         estimate D2E/DX2                !
 ! D31   D(6,5,8,9)              0.0009         estimate D2E/DX2                !
 ! D32   D(6,5,8,10)           179.9984         estimate D2E/DX2                !
 ! D33   D(1,6,7,15)             0.0035         estimate D2E/DX2                !
 ! D34   D(5,6,7,15)          -179.9962         estimate D2E/DX2                !
 ! D35   D(5,8,9,16)           -58.787          estimate D2E/DX2                !
 ! D36   D(5,8,9,17)            58.7672         estimate D2E/DX2                !
 ! D37   D(5,8,9,18)           179.9909         estimate D2E/DX2                !
 ! D38   D(10,8,9,16)          121.2152         estimate D2E/DX2                !
 ! D39   D(10,8,9,17)         -121.2306         estimate D2E/DX2                !
 ! D40   D(10,8,9,18)           -0.0069         estimate D2E/DX2                !
 ! D41   D(5,8,10,19)            0.0018         estimate D2E/DX2                !
 ! D42   D(9,8,10,19)          179.9996         estimate D2E/DX2                !
 --------------------------------------------------------------------------------
 Trust Radius=3.00D-01 FncErr=1.00D-07 GrdErr=1.00D-07
 Number of steps in this run=    104 maximum allowed number of steps=    126.
 GradGradGradGradGradGradGradGradGradGradGradGradGradGradGradGradGradGrad

                          Input orientation:                          
 ---------------------------------------------------------------------
 Center     Atomic      Atomic             Coordinates (Angstroms)
 Number     Number       Type             X           Y           Z
 ---------------------------------------------------------------------
      1          6           0        1.540326   -1.269451   -0.000184
      2          6           0        2.277046   -0.082657    0.000018
      3          6           0        1.637824    1.170155    0.000017
      4          6           0        0.264367    1.212078   -0.000104
      5          6           0       -0.553018    0.030205   -0.000189
      6          6           0        0.160519   -1.220195   -0.000321
      7          8           0       -0.567061   -2.340794   -0.000578
      8          6           0       -1.975650    0.088197    0.000203
      9          6           0       -2.900367   -1.078664    0.000540
     10          8           0       -2.621723    1.211453    0.000353
     11          8           0       -0.391265    2.397017   -0.000264
     12          8           0        3.598076   -0.208385    0.000123
     13          1           0        2.073129   -2.214183   -0.000268
     14          1           0        2.218231    2.087772   -0.000079
     15          1           0       -0.004499   -3.128117   -0.000590
     16          1           0       -2.720533   -1.706325   -0.875694
     17          1           0       -2.719837   -1.706417    0.876562
     18          1           0       -3.922692   -0.704909    0.000964
     19          1           0       -2.035028    1.996950    0.000143
     20          1           0        0.201576    3.161426    0.001725
     21          1           0        4.059151    0.641464    0.000285
 ---------------------------------------------------------------------
                    Distance matrix (angstroms):
                    1          2          3          4          5
     1  C    0.000000
     2  C    1.396867   0.000000
     3  C    2.441553   1.406465   0.000000
     4  C    2.790351   2.393160   1.374097   0.000000
     5  C    2.463979   2.832314   2.469671   1.436991   0.000000
     6  C    1.380686   2.402848   2.810018   2.434489   1.439665
     7  O    2.364076   3.631546   4.145875   3.648859   2.371041
     8  C    3.768991   4.256127   3.771979   2.506149   1.423814
     9  C    4.444790   5.272346   5.064816   3.906794   2.596081
    10  O    4.845362   5.066819   4.259747   2.886090   2.382202
    11  O    4.144156   3.642618   2.371158   1.354228   2.372333
    12  O    2.315210   1.327000   2.396447   3.623718   4.157945
    13  H    1.084619   2.141258   3.412218   3.874388   3.454551
    14  H    3.424982   2.171226   1.085769   2.141127   3.451580
    15  H    2.416842   3.805296   4.601344   4.348515   3.205600
    16  H    4.371761   5.327191   5.294930   4.265368   2.912073
    17  H    4.371340   5.326703   5.294545   4.265165   2.911984
    18  H    5.492110   6.230887   5.868152   4.605030   3.448927
    19  H    4.842781   4.787353   3.764762   2.429659   2.462608
    20  H    4.628707   3.851189   2.455193   1.950360   3.220863
    21  H    3.161657   1.923603   2.478374   3.837445   4.652498
                    6          7          8          9         10
     6  C    0.000000
     7  O    1.336082   0.000000
     8  C    2.505017   2.807868   0.000000
     9  C    3.064156   2.652789   1.488847   0.000000
    10  O    3.695103   4.103669   1.295806   2.307006   0.000000
    11  O    3.659056   4.741071   2.800165   4.286718   2.525966
    12  O    3.583372   4.679266   5.581611   6.556458   6.379799
    13  H    2.155479   2.643224   4.657635   5.101477   5.811765
    14  H    3.895744   5.231639   4.646175   6.018834   4.918647
    15  H    1.915045   0.967654   3.772282   3.547719   5.067714
    16  H    3.050092   2.409527   2.131280   1.092742   3.048057
    17  H    3.049883   2.409617   2.131304   1.092739   3.048169
    18  H    4.115596   3.733146   2.102377   1.088504   2.316239
    19  H    3.894926   4.579405   1.909676   3.195029   0.980417
    20  H    4.381814   5.555649   3.766305   5.253610   3.431241
    21  H    4.320313   5.504153   6.060110   7.168942   6.705145
                   11         12         13         14         15
    11  O    0.000000
    12  O    4.764762   0.000000
    13  H    5.228423   2.519661   0.000000
    14  H    2.627756   2.678863   4.304401   0.000000
    15  H    5.538655   4.637174   2.269761   5.669747   0.000000
    16  H    4.798883   6.552534   4.899335   6.289139   3.188125
    17  H    4.798879   6.551967   4.898896   6.288790   3.188054
    18  H    4.700311   7.537141   6.182862   6.746110   4.606970
    19  H    1.691748   6.049410   5.883077   4.254229   5.512655
    20  H    0.967360   4.784542   5.692090   2.284652   6.292919
    21  H    4.784158   0.966868   3.478362   2.341109   5.542833
                   16         17         18         19         20
    16  H    0.000000
    17  H    1.752256   0.000000
    18  H    1.793474   1.793474   0.000000
    19  H    3.866685   3.866782   3.295955   0.000000
    20  H    5.744875   5.744205   5.653153   2.521588   0.000000
    21  H    7.227971   7.227384   8.094599   6.243105   4.607721
                   21
    21  H    0.000000
 Stoichiometry    C8H9O4(1+)
 Framework group  C1[X(C8H9O4)]
 Deg. of freedom    57
 Full point group                 C1      NOp   1
 Largest Abelian subgroup         C1      NOp   1
 Largest concise Abelian subgroup C1      NOp   1
                         Standard orientation:                         
 ---------------------------------------------------------------------
 Center     Atomic      Atomic             Coordinates (Angstroms)
 Number     Number       Type             X           Y           Z
 ---------------------------------------------------------------------
      1          6           0        1.540326   -1.269451   -0.000184
      2          6           0        2.277046   -0.082657    0.000018
      3          6           0        1.637824    1.170155    0.000017
      4          6           0        0.264367    1.212078   -0.000104
      5          6           0       -0.553018    0.030205   -0.000189
      6          6           0        0.160519   -1.220195   -0.000321
      7          8           0       -0.567061   -2.340794   -0.000578
      8          6           0       -1.975650    0.088197    0.000203
      9          6           0       -2.900367   -1.078664    0.000540
     10          8           0       -2.621723    1.211453    0.000353
     11          8           0       -0.391265    2.397017   -0.000264
     12          8           0        3.598076   -0.208385    0.000123
     13          1           0        2.073129   -2.214183   -0.000268
     14          1           0        2.218231    2.087772   -0.000079
     15          1           0       -0.004499   -3.128117   -0.000590
     16          1           0       -2.720533   -1.706325   -0.875694
     17          1           0       -2.719837   -1.706417    0.876562
     18          1           0       -3.922692   -0.704909    0.000964
     19          1           0       -2.035028    1.996950    0.000143
     20          1           0        0.201576    3.161426    0.001725
     21          1           0        4.059151    0.641464    0.000285
 ---------------------------------------------------------------------
 Rotational constants (GHZ):      1.5298175      0.7628388      0.5106098
 Standard basis: 6-31+G(d,p) (6D, 7F)
 There are   273 symmetry adapted cartesian basis functions of A   symmetry.
 There are   273 symmetry adapted basis functions of A   symmetry.
   273 basis functions,   447 primitive gaussians,   273 cartesian basis functions
    44 alpha electrons       44 beta electrons
       nuclear repulsion energy       714.9524168728 Hartrees.
 NAtoms=   21 NActive=   21 NUniq=   21 SFac= 1.00D+00 NAtFMM=   60 NAOKFM=F Big=F
 Integral buffers will be    131072 words long.
 Regular integral format.
 Two-electron integral symmetry is turned on.
 One-electron integrals computed using PRISM.
 NBasis=   273 RedAO= T EigKep=  1.37D-06  NBF=   273
 NBsUse=   273 1.00D-06 EigRej= -1.00D+00 NBFU=   273
 ExpMin= 4.38D-02 ExpMax= 5.48D+03 ExpMxC= 8.25D+02 IAcc=2 IRadAn=         4 AccDes= 0.00D+00
 Harris functional with IExCor=  419 and IRadAn=       4 diagonalized for initial guess.
 HarFok:  IExCor=  419 AccDes= 0.00D+00 IRadAn=         4 IDoV= 1 UseB2=F ITyADJ=14
 ICtDFT=  3500011 ScaDFX=  1.000000  1.000000  1.000000  1.000000
 FoFCou: FMM=F IPFlag=           0 FMFlag=      100000 FMFlg1=           0
         NFxFlg=           0 DoJE=T BraDBF=F KetDBF=T FulRan=T
         wScrn=  0.000000 ICntrl=     500 IOpCl=  0 I1Cent=   200000004 NGrid=           0
         NMat0=    1 NMatS0=      1 NMatT0=    0 NMatD0=    1 NMtDS0=    0 NMtDT0=    0
 Petite list used in FoFCou.
 Keep R1 ints in memory in canonical form, NReq=709970467.
 Requested convergence on RMS density matrix=1.00D-08 within 128 cycles.
 Requested convergence on MAX density matrix=1.00D-06.
 Requested convergence on             energy=1.00D-06.
 No special actions if energy rises.
 SCF Done:  E(RB2PLYP) =  -609.790453698     A.U. after   14 cycles
            NFock= 14  Conv=0.75D-08     -V/T= 2.0065
 DoSCS=T DFT=T ScalE2(SS,OS)=  0.270000  0.270000
 ExpMin= 4.38D-02 ExpMax= 5.48D+03 ExpMxC= 8.25D+02 IAcc=3 IRadAn=         5 AccDes= 0.00D+00
 HarFok:  IExCor=  205 AccDes= 0.00D+00 IRadAn=         5 IDoV=-2 UseB2=F ITyADJ=14
 ICtDFT= 12500011 ScaDFX=  1.000000  1.000000  1.000000  1.000000
 Range of M.O.s used for correlation:    13   273
 NBasis=   273 NAE=    44 NBE=    44 NFC=    12 NFV=     0
 NROrb=    261 NOA=    32 NOB=    32 NVA=   229 NVB=   229

 **** Warning!!: The largest alpha MO coefficient is  0.18273966D+03

 DoSCS=T DFT=T ScalE2(SS,OS)=  0.270000  0.270000
 Fully direct method using O(ONN) memory.
 JobTyp=1 Pass  1:  I=  13 to  16 NPSUse= 18 ParTrn=T ParDer=T DoDerP=T.
 JobTyp=1 Pass  2:  I=  17 to  20 NPSUse= 18 ParTrn=T ParDer=T DoDerP=T.
 JobTyp=1 Pass  3:  I=  21 to  24 NPSUse= 18 ParTrn=T ParDer=T DoDerP=T.
 JobTyp=1 Pass  4:  I=  25 to  28 NPSUse= 18 ParTrn=T ParDer=T DoDerP=T.
 JobTyp=1 Pass  5:  I=  29 to  32 NPSUse= 18 ParTrn=T ParDer=T DoDerP=T.
 JobTyp=1 Pass  6:  I=  33 to  36 NPSUse= 18 ParTrn=T ParDer=T DoDerP=T.
 JobTyp=1 Pass  7:  I=  37 to  40 NPSUse= 18 ParTrn=T ParDer=T DoDerP=T.
 JobTyp=1 Pass  8:  I=  41 to  44 NPSUse= 18 ParTrn=T ParDer=T DoDerP=T.
 Spin components of T(2) and E(2):
     alpha-alpha T2 =       0.1240298905D+00 E2=     -0.8031103277D-01
     alpha-beta  T2 =       0.6405228404D+00 E2=     -0.4304155143D+00
     beta-beta   T2 =       0.1240298905D+00 E2=     -0.8031103277D-01
 E2(B2PLYP) =    -0.5910375799D+00 E(B2PLYP) =    -0.61038149127795D+03
          IDoAtm=111111111111111111111
          Differentiating once with respect to electric field.
                with respect to dipole field.
          Differentiating once with respect to nuclear coordinates.
 Keep R1 ints in memory in canonical form, NReq=709723944.
          There are     1 degrees of freedom in the 1st order CPHF.  IDoFFX=0 NUNeed=     1.
 LinEq1:  Iter=  0 NonCon=     1 RMS=1.96D-03 Max=9.61D-02 NDo=     1
 AX will form     1 AO Fock derivatives at one time.
 LinEq1:  Iter=  1 NonCon=     1 RMS=8.26D-04 Max=2.69D-02 NDo=     1
 LinEq1:  Iter=  2 NonCon=     1 RMS=2.81D-04 Max=7.56D-03 NDo=     1
 LinEq1:  Iter=  3 NonCon=     1 RMS=1.78D-04 Max=7.85D-03 NDo=     1
 LinEq1:  Iter=  4 NonCon=     1 RMS=5.46D-05 Max=2.50D-03 NDo=     1
 LinEq1:  Iter=  5 NonCon=     1 RMS=2.86D-05 Max=9.01D-04 NDo=     1
 LinEq1:  Iter=  6 NonCon=     1 RMS=1.43D-05 Max=6.31D-04 NDo=     1
 LinEq1:  Iter=  7 NonCon=     1 RMS=8.17D-06 Max=5.00D-04 NDo=     1
 LinEq1:  Iter=  8 NonCon=     1 RMS=2.70D-06 Max=3.67D-05 NDo=     1
 LinEq1:  Iter=  9 NonCon=     1 RMS=1.07D-06 Max=3.18D-05 NDo=     1
 LinEq1:  Iter= 10 NonCon=     1 RMS=3.95D-07 Max=8.73D-06 NDo=     1
 LinEq1:  Iter= 11 NonCon=     1 RMS=2.06D-07 Max=6.03D-06 NDo=     1
 LinEq1:  Iter= 12 NonCon=     1 RMS=8.10D-08 Max=1.80D-06 NDo=     1
 LinEq1:  Iter= 13 NonCon=     1 RMS=2.15D-08 Max=5.40D-07 NDo=     1
 LinEq1:  Iter= 14 NonCon=     1 RMS=1.15D-08 Max=4.89D-07 NDo=     1
 LinEq1:  Iter= 15 NonCon=     1 RMS=4.09D-09 Max=1.28D-07 NDo=     1
 LinEq1:  Iter= 16 NonCon=     1 RMS=1.65D-09 Max=4.58D-08 NDo=     1
 LinEq1:  Iter= 17 NonCon=     1 RMS=6.77D-10 Max=2.18D-08 NDo=     1
 LinEq1:  Iter= 18 NonCon=     1 RMS=2.45D-10 Max=4.97D-09 NDo=     1
 LinEq1:  Iter= 19 NonCon=     1 RMS=1.05D-10 Max=2.98D-09 NDo=     1
 LinEq1:  Iter= 20 NonCon=     0 RMS=3.38D-11 Max=6.76D-10 NDo=     1
 Linear equations converged to 1.000D-10 1.000D-09 after    20 iterations.
 End of Minotr F.D. properties file   721 does not exist.
 End of Minotr F.D. properties file   722 does not exist.
 End of Minotr F.D. properties file   788 does not exist.

 **********************************************************************

            Population analysis using the SCF density.

 **********************************************************************

 Orbital symmetries:
       Occupied  (A) (A) (A) (A) (A) (A) (A) (A) (A) (A) (A) (A)
                 (A) (A) (A) (A) (A) (A) (A) (A) (A) (A) (A) (A)
                 (A) (A) (A) (A) (A) (A) (A) (A) (A) (A) (A) (A)
                 (A) (A) (A) (A) (A) (A) (A) (A)
       Virtual   (A) (A) (A) (A) (A) (A) (A) (A) (A) (A) (A) (A)
                 (A) (A) (A) (A) (A) (A) (A) (A) (A) (A) (A) (A)
                 (A) (A) (A) (A) (A) (A) (A) (A) (A) (A) (A) (A)
                 (A) (A) (A) (A) (A) (A) (A) (A) (A) (A) (A) (A)
                 (A) (A) (A) (A) (A) (A) (A) (A) (A) (A) (A) (A)
                 (A) (A) (A) (A) (A) (A) (A) (A) (A) (A) (A) (A)
                 (A) (A) (A) (A) (A) (A) (A) (A) (A) (A) (A) (A)
                 (A) (A) (A) (A) (A) (A) (A) (A) (A) (A) (A) (A)
                 (A) (A) (A) (A) (A) (A) (A) (A) (A) (A) (A) (A)
                 (A) (A) (A) (A) (A) (A) (A) (A) (A) (A) (A) (A)
                 (A) (A) (A) (A) (A) (A) (A) (A) (A) (A) (A) (A)
                 (A) (A) (A) (A) (A) (A) (A) (A) (A) (A) (A) (A)
                 (A) (A) (A) (A) (A) (A) (A) (A) (A) (A) (A) (A)
                 (A) (A) (A) (A) (A) (A) (A) (A) (A) (A) (A) (A)
                 (A) (A) (A) (A) (A) (A) (A) (A) (A) (A) (A) (A)
                 (A) (A) (A) (A) (A) (A) (A) (A) (A) (A) (A) (A)
                 (A) (A) (A) (A) (A) (A) (A) (A) (A) (A) (A) (A)
                 (A) (A) (A) (A) (A) (A) (A) (A) (A) (A) (A) (A)
                 (A) (A) (A) (A) (A) (A) (A) (A) (A) (A) (A) (A)
                 (A)
 The electronic state is 1-A.
 Alpha  occ. eigenvalues --  -19.98200 -19.97721 -19.95703 -19.95346 -10.93072
 Alpha  occ. eigenvalues --  -10.90422 -10.89618 -10.89353 -10.82224 -10.80124
 Alpha  occ. eigenvalues --  -10.78840 -10.77519  -1.43450  -1.40726  -1.39779
 Alpha  occ. eigenvalues --   -1.39284  -1.15851  -1.08208  -1.03976  -1.02199
 Alpha  occ. eigenvalues --   -0.93088  -0.91521  -0.88885  -0.84800  -0.82643
 Alpha  occ. eigenvalues --   -0.80460  -0.76211  -0.73779  -0.71105  -0.69597
 Alpha  occ. eigenvalues --   -0.69349  -0.68662  -0.67415  -0.66234  -0.64997
 Alpha  occ. eigenvalues --   -0.64388  -0.62919  -0.60938  -0.60524  -0.59038
 Alpha  occ. eigenvalues --   -0.58625  -0.53666  -0.45423  -0.44336
 Alpha virt. eigenvalues --   -0.19245  -0.11119  -0.10678  -0.09089  -0.08875
 Alpha virt. eigenvalues --   -0.07434  -0.07338  -0.05257  -0.05032  -0.04367
 Alpha virt. eigenvalues --   -0.03382  -0.02748  -0.01745  -0.00976  -0.00839
 Alpha virt. eigenvalues --    0.00088   0.01423   0.01658   0.02626   0.03118
 Alpha virt. eigenvalues --    0.03896   0.04625   0.05315   0.05957   0.06393
 Alpha virt. eigenvalues --    0.06596   0.07086   0.07779   0.08353   0.08499
 Alpha virt. eigenvalues --    0.08985   0.10374   0.10961   0.11584   0.11864
 Alpha virt. eigenvalues --    0.12857   0.12983   0.14174   0.14343   0.14895
 Alpha virt. eigenvalues --    0.15023   0.16679   0.17097   0.17208   0.18007
 Alpha virt. eigenvalues --    0.18138   0.18719   0.19012   0.20125   0.20592
 Alpha virt. eigenvalues --    0.21501   0.21622   0.22838   0.23283   0.23750
 Alpha virt. eigenvalues --    0.24142   0.24562   0.24847   0.27309   0.27594
 Alpha virt. eigenvalues --    0.28776   0.29721   0.30602   0.32128   0.33434
 Alpha virt. eigenvalues --    0.36462   0.37335   0.38078   0.39067   0.41002
 Alpha virt. eigenvalues --    0.44204   0.52626   0.55036   0.57954   0.59737
 Alpha virt. eigenvalues --    0.62390   0.63847   0.64724   0.65380   0.66149
 Alpha virt. eigenvalues --    0.66981   0.68520   0.68707   0.70328   0.71064
 Alpha virt. eigenvalues --    0.75584   0.77281   0.79709   0.79974   0.82028
 Alpha virt. eigenvalues --    0.86135   0.86882   0.89264   0.94065   0.95584
 Alpha virt. eigenvalues --    0.97057   0.98428   0.99292   1.01951   1.02387
 Alpha virt. eigenvalues --    1.04051   1.04608   1.07256   1.08118   1.12098
 Alpha virt. eigenvalues --    1.12170   1.13306   1.13483   1.14464   1.15229
 Alpha virt. eigenvalues --    1.15933   1.17096   1.17407   1.18943   1.20796
 Alpha virt. eigenvalues --    1.22073   1.22635   1.24470   1.26083   1.26678
 Alpha virt. eigenvalues --    1.28966   1.29959   1.30619   1.31812   1.31949
 Alpha virt. eigenvalues --    1.32138   1.34331   1.37828   1.41172   1.42173
 Alpha virt. eigenvalues --    1.46425   1.47723   1.54459   1.54726   1.55259
 Alpha virt. eigenvalues --    1.56225   1.59069   1.65709   1.65721   1.68975
 Alpha virt. eigenvalues --    1.70721   1.75692   1.76744   1.78761   1.81036
 Alpha virt. eigenvalues --    1.82867   1.84878   1.85470   1.86868   1.89078
 Alpha virt. eigenvalues --    1.89832   1.91148   1.93237   1.95567   1.97059
 Alpha virt. eigenvalues --    1.98430   2.01444   2.01757   2.04891   2.10524
 Alpha virt. eigenvalues --    2.12441   2.14524   2.16384   2.16964   2.22906
 Alpha virt. eigenvalues --    2.23521   2.27799   2.28014   2.30939   2.34315
 Alpha virt. eigenvalues --    2.36263   2.38436   2.38978   2.43036   2.43179
 Alpha virt. eigenvalues --    2.43555   2.45643   2.47386   2.48121   2.49563
 Alpha virt. eigenvalues --    2.50195   2.52382   2.53711   2.58038   2.60764
 Alpha virt. eigenvalues --    2.61029   2.63357   2.63791   2.66277   2.68492
 Alpha virt. eigenvalues --    2.70779   2.71050   2.72480   2.74425   2.76783
 Alpha virt. eigenvalues --    2.80885   2.85269   2.85576   2.91633   3.00101
 Alpha virt. eigenvalues --    3.02549   3.05499   3.10211   3.11930   3.15220
 Alpha virt. eigenvalues --    3.20025   3.23011   3.31693   3.39521   3.44640
 Alpha virt. eigenvalues --    3.45673   3.47060   3.49923   3.54044   3.55715
 Alpha virt. eigenvalues --    3.63660   3.76487   4.25225   4.27202   4.29996
 Alpha virt. eigenvalues --    4.35774   4.41846   4.46031   4.50102   4.55317
 Alpha virt. eigenvalues --    4.66184   4.79219   4.82845   4.93046
          Condensed to atoms (all electrons):
               1          2          3          4          5          6
     1  C   11.762692  -1.780763   1.034467  -3.819726  -0.445537  -3.690039
     2  C   -1.780763   6.888492  -0.629270   2.063054  -1.606876   2.411372
     3  C    1.034467  -0.629270  10.606639  -4.008466   0.143780  -1.671999
     4  C   -3.819726   2.063054  -4.008466  16.006129  -1.967780   2.076680
     5  C   -0.445537  -1.606876   0.143780  -1.967780  13.452647  -3.635923
     6  C   -3.690039   2.411372  -1.671999   2.076680  -3.635923  13.875561
     7  O    0.143985  -0.012567   0.029893   0.014917  -0.198319   0.107716
     8  C    1.908949  -0.832053  -0.354887  -3.241786  -1.958221  -0.519942
     9  C   -0.192838  -0.040605  -0.377174  -0.163870   0.061416  -0.850667
    10  O    0.006240   0.000848   0.015136  -0.091240   0.127210   0.055962
    11  O    0.054938   0.005560   0.368760  -0.045879  -0.085250  -0.054857
    12  O   -0.160216   0.166787  -0.063606   0.065324  -0.011593   0.054552
    13  H    0.178820   0.137265   0.028540  -0.012357  -0.003926   0.012936
    14  H    0.002390   0.080699   0.170256   0.084730   0.009234  -0.022189
    15  H   -0.102066   0.004392   0.000587   0.002176   0.105441  -0.016209
    16  H    0.002786  -0.000263   0.000924   0.005307   0.001200   0.009602
    17  H    0.002739  -0.000265   0.000892   0.005207   0.001266   0.009613
    18  H   -0.000640   0.000266  -0.002248  -0.019345   0.035297   0.013176
    19  H    0.000432  -0.001636  -0.009579   0.024147  -0.133818  -0.047481
    20  H    0.003297  -0.002746  -0.088108  -0.025302   0.071931  -0.004610
    21  H    0.076130  -0.052702  -0.005244  -0.016295   0.025221  -0.033148
               7          8          9         10         11         12
     1  C    0.143985   1.908949  -0.192838   0.006240   0.054938  -0.160216
     2  C   -0.012567  -0.832053  -0.040605   0.000848   0.005560   0.166787
     3  C    0.029893  -0.354887  -0.377174   0.015136   0.368760  -0.063606
     4  C    0.014917  -3.241786  -0.163870  -0.091240  -0.045879   0.065324
     5  C   -0.198319  -1.958221   0.061416   0.127210  -0.085250  -0.011593
     6  C    0.107716  -0.519942  -0.850667   0.055962  -0.054857   0.054552
     7  O    8.379491  -0.038795  -0.097671   0.000658  -0.000604  -0.000409
     8  C   -0.038795  11.061751  -0.679101   0.432513  -0.278507   0.001835
     9  C   -0.097671  -0.679101   7.651680  -0.458398  -0.012937   0.000165
    10  O    0.000658   0.432513  -0.458398   8.077836   0.042903  -0.000027
    11  O   -0.000604  -0.278507  -0.012937   0.042903   8.394986  -0.000662
    12  O   -0.000409   0.001835   0.000165  -0.000027  -0.000662   8.222123
    13  H   -0.012663   0.006684   0.000899   0.000011   0.000036  -0.007343
    14  H    0.000022   0.020589  -0.000459  -0.000017  -0.015652  -0.010823
    15  H    0.236335  -0.005310   0.011915  -0.000031   0.000013  -0.000044
    16  H   -0.006894  -0.014076   0.354601   0.004484  -0.000099   0.000001
    17  H   -0.006904  -0.013929   0.354570   0.004478  -0.000094   0.000001
    18  H    0.002361  -0.088064   0.434314  -0.010995   0.000107  -0.000000
    19  H    0.000078   0.071434   0.089713   0.222197   0.026511   0.000002
    20  H    0.000015   0.035382   0.004521   0.000813   0.249142  -0.000042
    21  H    0.000021   0.002470  -0.000049  -0.000000  -0.000065   0.239459
              13         14         15         16         17         18
     1  C    0.178820   0.002390  -0.102066   0.002786   0.002739  -0.000640
     2  C    0.137265   0.080699   0.004392  -0.000263  -0.000265   0.000266
     3  C    0.028540   0.170256   0.000587   0.000924   0.000892  -0.002248
     4  C   -0.012357   0.084730   0.002176   0.005307   0.005207  -0.019345
     5  C   -0.003926   0.009234   0.105441   0.001200   0.001266   0.035297
     6  C    0.012936  -0.022189  -0.016209   0.009602   0.009613   0.013176
     7  O   -0.012663   0.000022   0.236335  -0.006894  -0.006904   0.002361
     8  C    0.006684   0.020589  -0.005310  -0.014076  -0.013929  -0.088064
     9  C    0.000899  -0.000459   0.011915   0.354601   0.354570   0.434314
    10  O    0.000011  -0.000017  -0.000031   0.004484   0.004478  -0.010995
    11  O    0.000036  -0.015652   0.000013  -0.000099  -0.000094   0.000107
    12  O   -0.007343  -0.010823  -0.000044   0.000001   0.000001  -0.000000
    13  H    0.483197  -0.000100   0.005730  -0.000000  -0.000000  -0.000000
    14  H   -0.000100   0.511245  -0.000000   0.000000   0.000000  -0.000000
    15  H    0.005730  -0.000000   0.334240   0.000198   0.000198  -0.000015
    16  H   -0.000000   0.000000   0.000198   0.470322  -0.018409  -0.019576
    17  H   -0.000000   0.000000   0.000198  -0.018409   0.470348  -0.019577
    18  H   -0.000000  -0.000000  -0.000015  -0.019576  -0.019577   0.469295
    19  H   -0.000000  -0.000006  -0.000000  -0.000231  -0.000232   0.000219
    20  H   -0.000000   0.006891  -0.000000  -0.000000  -0.000000  -0.000000
    21  H   -0.000044   0.004575   0.000000   0.000000   0.000000  -0.000000
              19         20         21
     1  C    0.000432   0.003297   0.076130
     2  C   -0.001636  -0.002746  -0.052702
     3  C   -0.009579  -0.088108  -0.005244
     4  C    0.024147  -0.025302  -0.016295
     5  C   -0.133818   0.071931   0.025221
     6  C   -0.047481  -0.004610  -0.033148
     7  O    0.000078   0.000015   0.000021
     8  C    0.071434   0.035382   0.002470
     9  C    0.089713   0.004521  -0.000049
    10  O    0.222197   0.000813  -0.000000
    11  O    0.026511   0.249142  -0.000065
    12  O    0.000002  -0.000042   0.239459
    13  H   -0.000000  -0.000000  -0.000044
    14  H   -0.000006   0.006891   0.004575
    15  H   -0.000000  -0.000000   0.000000
    16  H   -0.000231  -0.000000   0.000000
    17  H   -0.000232  -0.000000   0.000000
    18  H    0.000219  -0.000000  -0.000000
    19  H    0.277869   0.001170  -0.000000
    20  H    0.001170   0.309669   0.000010
    21  H   -0.000000   0.000010   0.366378
 Mulliken charges:
               1
     1  C    1.013960
     2  C   -0.798991
     3  C    0.810707
     4  C   -0.935624
     5  C    2.012601
     6  C   -2.080105
     7  O   -0.540667
     8  C    0.483063
     9  C   -0.090024
    10  O   -0.430579
    11  O   -0.648349
    12  O   -0.495483
    13  H    0.182315
    14  H    0.158616
    15  H    0.422450
    16  H    0.210125
    17  H    0.210099
    18  H    0.205425
    19  H    0.479211
    20  H    0.437966
    21  H    0.393282
 Sum of Mulliken charges =   1.00000
 Mulliken charges with hydrogens summed into heavy atoms:
               1
     1  C    1.196275
     2  C   -0.798991
     3  C    0.969323
     4  C   -0.935624
     5  C    2.012601
     6  C   -2.080105
     7  O   -0.118216
     8  C    0.483063
     9  C    0.535625
    10  O    0.048632
    11  O   -0.210383
    12  O   -0.102200
 Electronic spatial extent (au):  <R**2>=           2062.1007
 Charge=              1.0000 electrons
 Dipole moment (field-independent basis, Debye):
    X=              1.4853    Y=              1.7238    Z=              0.0039  Tot=              2.2754
 Quadrupole moment (field-independent basis, Debye-Ang):
   XX=            -43.8288   YY=            -37.0442   ZZ=            -69.9361
   XY=              9.0387   XZ=              0.0001   YZ=              0.0142
 Traceless Quadrupole moment (field-independent basis, Debye-Ang):
   XX=              6.4409   YY=             13.2255   ZZ=            -19.6664
   XY=              9.0387   XZ=              0.0001   YZ=              0.0142
 Octapole moment (field-independent basis, Debye-Ang**2):
  XXX=             27.9010  YYY=             14.0460  ZZZ=              0.0019  XYY=             15.4521
  XXY=             20.8278  XXZ=              0.0081  XZZ=             -5.4478  YZZ=              0.1085
  YYZ=              0.0388  XYZ=              0.0090
 Hexadecapole moment (field-independent basis, Debye-Ang**3):
 XXXX=          -1319.3902 YYYY=           -476.8293 ZZZZ=            -75.5927 XXXY=            154.3628
 XXXZ=              0.0578 YYYX=            -14.1454 YYYZ=              0.1453 ZZZX=              0.0440
 ZZZY=             -0.0267 XXYY=           -351.9072 XXZZ=           -290.7658 YYZZ=           -154.1096
 XXYZ=             -0.0080 YYXZ=              0.0158 ZZXY=              1.2875
 N-N= 7.149524168728D+02 E-N=-2.841073355053D+03  KE= 6.058492809342D+02
 Calling FoFJK, ICntrl=  10002127 FMM=F ISym2X=0 I1Cent= 0 IOpClX= 0 NMat=1 NMatS=1 NMatT=0.
 ***** Axes restored to original set *****
 -------------------------------------------------------------------
 Center     Atomic                   Forces (Hartrees/Bohr)
 Number     Number              X              Y              Z
 -------------------------------------------------------------------
      1        6           0.002645086   -0.001873546   -0.000000573
      2        6          -0.004781297    0.001709775    0.000001256
      3        6           0.002578149    0.001379277   -0.000000403
      4        6           0.001962220   -0.003516765    0.000005113
      5        6          -0.002372557   -0.000196043   -0.000002013
      6        6           0.003228763    0.003520973   -0.000000566
      7        8          -0.005106645   -0.006542244   -0.000000818
      8        6           0.005642236   -0.008192464   -0.000001404
      9        6          -0.000633520   -0.001679416   -0.000000887
     10        8          -0.008332218    0.009244701   -0.000000949
     11        8          -0.005447217    0.006276802    0.000005553
     12        8           0.008660106   -0.002632872    0.000000569
     13        1          -0.000749011    0.000810638    0.000000039
     14        1          -0.000481349   -0.000805671    0.000001513
     15        1           0.000999445   -0.000546310   -0.000000498
     16        1          -0.000953886    0.000754822    0.001196674
     17        1          -0.000952690    0.000753968   -0.001195804
     18        1           0.000728611   -0.000691283   -0.000000820
     19        1           0.002269140    0.000539067    0.000003669
     20        1           0.000689236    0.000507931   -0.000009272
     21        1           0.000407396    0.001178660   -0.000000377
 -------------------------------------------------------------------
 Cartesian Forces:  Max     0.009244701 RMS     0.003045789

 GradGradGradGradGradGradGradGradGradGradGradGradGradGradGradGradGradGrad
 Berny optimization.
 FormGI is forming the generalized inverse of G from B-inverse, IUseBI=4.
 Internal  Forces:  Max     0.011504792 RMS     0.002320206
 Search for a local minimum.
 Step number   1 out of a maximum of  104
 All quantities printed in internal units (Hartrees-Bohrs-Radians)
 Mixed Optimization -- RFO/linear search
 Second derivative matrix not updated -- first step.
 ITU=  0
     Eigenvalues ---    0.00913   0.01553   0.01617   0.01754   0.01774
     Eigenvalues ---    0.02003   0.02073   0.02118   0.02153   0.02204
     Eigenvalues ---    0.02245   0.02271   0.02297   0.02537   0.02657
     Eigenvalues ---    0.03070   0.07559   0.07596   0.16000   0.16000
     Eigenvalues ---    0.16000   0.16000   0.16000   0.16000   0.16000
     Eigenvalues ---    0.16000   0.16000   0.23482   0.23492   0.25000
     Eigenvalues ---    0.25000   0.25000   0.25000   0.25000   0.25000
     Eigenvalues ---    0.25000   0.33576   0.34498   0.34498   0.34986
     Eigenvalues ---    0.35306   0.35442   0.38055   0.38988   0.41891
     Eigenvalues ---    0.43419   0.44729   0.47306   0.49714   0.51304
     Eigenvalues ---    0.53859   0.53920   0.54022   0.54132   0.58092
     Eigenvalues ---    0.60220   0.68371
 RFO step:  Lambda=-1.06020589D-03 EMin= 9.13476482D-03
 Linear search not attempted -- first point.
 Iteration  1 RMS(Cart)=  0.02393838 RMS(Int)=  0.00015693
 Iteration  2 RMS(Cart)=  0.00026089 RMS(Int)=  0.00000428
 Iteration  3 RMS(Cart)=  0.00000004 RMS(Int)=  0.00000428
 Variable       Old X    -DE/DX   Delta X   Delta X   Delta X     New X
                                 (Linear)    (Quad)   (Total)
    R1        2.63970   0.00245   0.00000   0.00521   0.00521   2.64491
    R2        2.60912   0.00404   0.00000   0.00823   0.00823   2.61735
    R3        2.04963  -0.00107   0.00000  -0.00302  -0.00302   2.04661
    R4        2.65783   0.00212   0.00000   0.00464   0.00464   2.66247
    R5        2.50767   0.00917   0.00000   0.01519   0.01519   2.52286
    R6        2.59667   0.00424   0.00000   0.00843   0.00843   2.60509
    R7        2.05181  -0.00094   0.00000  -0.00265  -0.00265   2.04915
    R8        2.71552   0.00291   0.00000   0.00735   0.00735   2.72287
    R9        2.55912   0.00824   0.00000   0.01519   0.01519   2.57431
   R10        2.72057   0.00426   0.00000   0.01082   0.01082   2.73140
   R11        2.69062   0.00226   0.00000   0.00538   0.00538   2.69600
   R12        2.52483   0.00818   0.00000   0.01406   0.01406   2.53889
   R13        1.82860   0.00102   0.00000   0.00190   0.00190   1.83050
   R14        2.81351   0.00180   0.00000   0.00534   0.00534   2.81885
   R15        2.44872   0.01150   0.00000   0.01680   0.01680   2.46552
   R16        2.06498  -0.00155   0.00000  -0.00448  -0.00448   2.06050
   R17        2.06498  -0.00155   0.00000  -0.00448  -0.00448   2.06050
   R18        2.05697  -0.00092   0.00000  -0.00262  -0.00262   2.05435
   R19        1.85272   0.00179   0.00000   0.00348   0.00348   1.85620
   R20        1.82805   0.00082   0.00000   0.00153   0.00153   1.82957
   R21        1.82712   0.00123   0.00000   0.00227   0.00227   1.82939
    A1        2.09066   0.00121   0.00000   0.00513   0.00513   2.09579
    A2        2.07254  -0.00035   0.00000  -0.00094  -0.00094   2.07160
    A3        2.11999  -0.00087   0.00000  -0.00419  -0.00419   2.11580
    A4        2.11425  -0.00113   0.00000  -0.00502  -0.00502   2.10923
    A5        2.03146   0.00001   0.00000   0.00029   0.00029   2.03175
    A6        2.13748   0.00112   0.00000   0.00473   0.00473   2.14221
    A7        2.07311   0.00079   0.00000   0.00317   0.00317   2.07628
    A8        2.10581  -0.00042   0.00000  -0.00175  -0.00175   2.10406
    A9        2.10427  -0.00037   0.00000  -0.00143  -0.00143   2.10284
   A10        2.14535   0.00036   0.00000   0.00140   0.00140   2.14675
   A11        2.10669   0.00073   0.00000   0.00291   0.00291   2.10960
   A12        2.03115  -0.00108   0.00000  -0.00431  -0.00431   2.02684
   A13        2.01797  -0.00089   0.00000  -0.00333  -0.00332   2.01464
   A14        2.13512  -0.00307   0.00000  -0.01231  -0.01231   2.12281
   A15        2.13009   0.00395   0.00000   0.01564   0.01564   2.14573
   A16        2.12504  -0.00035   0.00000  -0.00135  -0.00135   2.12368
   A17        2.11098  -0.00080   0.00000  -0.00320  -0.00320   2.10778
   A18        2.04717   0.00115   0.00000   0.00456   0.00456   2.05173
   A19        1.94532  -0.00090   0.00000  -0.00562  -0.00562   1.93970
   A20        2.20020   0.00290   0.00000   0.01157   0.01157   2.21176
   A21        2.13351  -0.00238   0.00000  -0.00947  -0.00947   2.12403
   A22        1.94948  -0.00053   0.00000  -0.00210  -0.00210   1.94739
   A23        1.92599   0.00072   0.00000   0.00507   0.00505   1.93105
   A24        1.92603   0.00072   0.00000   0.00506   0.00505   1.93108
   A25        1.89044   0.00015   0.00000  -0.00025  -0.00025   1.89019
   A26        1.86051  -0.00029   0.00000   0.00052   0.00049   1.86099
   A27        1.93061  -0.00065   0.00000  -0.00517  -0.00517   1.92544
   A28        1.93062  -0.00065   0.00000  -0.00516  -0.00516   1.92546
   A29        1.97810  -0.00277   0.00000  -0.01720  -0.01720   1.96090
   A30        1.97656  -0.00043   0.00000  -0.00266  -0.00266   1.97390
   A31        1.97300  -0.00037   0.00000  -0.00230  -0.00230   1.97070
    D1       -0.00006  -0.00000   0.00000  -0.00002  -0.00002  -0.00007
    D2       -3.14158   0.00000   0.00000   0.00002   0.00002  -3.14156
    D3        3.14150  -0.00000   0.00000  -0.00003  -0.00003   3.14147
    D4       -0.00003   0.00000   0.00000   0.00001   0.00001  -0.00001
    D5       -0.00006  -0.00000   0.00000  -0.00002  -0.00002  -0.00008
    D6        3.14154  -0.00000   0.00000  -0.00001  -0.00001   3.14153
    D7        3.14157  -0.00000   0.00000  -0.00001  -0.00001   3.14156
    D8       -0.00001   0.00000   0.00000  -0.00000  -0.00000  -0.00001
    D9        0.00007   0.00000   0.00000   0.00004   0.00004   0.00011
   D10       -3.14132   0.00000   0.00000   0.00004   0.00004  -3.14129
   D11        3.14159  -0.00000   0.00000  -0.00000  -0.00000   3.14158
   D12        0.00020  -0.00000   0.00000  -0.00001  -0.00001   0.00019
   D13       -3.14157  -0.00000   0.00000  -0.00004  -0.00004   3.14158
   D14        0.00010  -0.00000   0.00000   0.00000   0.00000   0.00010
   D15        0.00003  -0.00000   0.00000  -0.00003  -0.00003   0.00001
   D16       -3.14146   0.00000   0.00000   0.00014   0.00014  -3.14132
   D17        3.14142  -0.00000   0.00000  -0.00002  -0.00002   3.14140
   D18       -0.00007   0.00000   0.00000   0.00014   0.00014   0.00007
   D19       -0.00014  -0.00000   0.00000  -0.00001  -0.00001  -0.00015
   D20        3.14116   0.00000   0.00000   0.00007   0.00007   3.14123
   D21        3.14136  -0.00000   0.00000  -0.00017  -0.00017   3.14119
   D22       -0.00052  -0.00000   0.00000  -0.00009  -0.00009  -0.00061
   D23       -0.00226   0.00001   0.00000   0.00032   0.00032  -0.00194
   D24        3.13943   0.00001   0.00000   0.00047   0.00047   3.13990
   D25        0.00015   0.00000   0.00000   0.00004   0.00004   0.00019
   D26       -3.14145   0.00000   0.00000   0.00002   0.00002  -3.14142
   D27       -3.14115  -0.00000   0.00000  -0.00004  -0.00004  -3.14119
   D28        0.00044  -0.00000   0.00000  -0.00005  -0.00005   0.00038
   D29       -3.14127  -0.00000   0.00000  -0.00021  -0.00021  -3.14148
   D30        0.00028  -0.00000   0.00000  -0.00023  -0.00023   0.00006
   D31        0.00002  -0.00000   0.00000  -0.00013  -0.00013  -0.00011
   D32        3.14157  -0.00000   0.00000  -0.00014  -0.00014   3.14142
   D33        0.00006  -0.00000   0.00000  -0.00002  -0.00002   0.00004
   D34       -3.14153  -0.00000   0.00000  -0.00001  -0.00001  -3.14154
   D35       -1.02603  -0.00026   0.00000  -0.00347  -0.00348  -1.02951
   D36        1.02568   0.00026   0.00000   0.00336   0.00337   1.02905
   D37        3.14143  -0.00000   0.00000  -0.00005  -0.00005   3.14138
   D38        2.11561  -0.00026   0.00000  -0.00346  -0.00347   2.11214
   D39       -2.11587   0.00026   0.00000   0.00338   0.00339  -2.11249
   D40       -0.00012   0.00000   0.00000  -0.00003  -0.00003  -0.00016
   D41        0.00003  -0.00000   0.00000  -0.00011  -0.00011  -0.00008
   D42        3.14159  -0.00000   0.00000  -0.00012  -0.00012   3.14146
         Item               Value     Threshold  Converged?
 Maximum Force            0.011505     0.000450     NO 
 RMS     Force            0.002320     0.000300     NO 
 Maximum Displacement     0.088536     0.001800     NO 
 RMS     Displacement     0.024072     0.001200     NO 
 Predicted change in Energy=-5.315825D-04
 GradGradGradGradGradGradGradGradGradGradGradGradGradGradGradGradGradGrad

                          Input orientation:                          
 ---------------------------------------------------------------------
 Center     Atomic      Atomic             Coordinates (Angstroms)
 Number     Number       Type             X           Y           Z
 ---------------------------------------------------------------------
      1          6           0        1.556310   -1.270896   -0.000127
      2          6           0        2.289430   -0.078636    0.000058
      3          6           0        1.637492    1.170375    0.000037
      4          6           0        0.259347    1.204035   -0.000035
      5          6           0       -0.554676    0.015126   -0.000080
      6          6           0        0.171746   -1.234462   -0.000245
      7          8           0       -0.545654   -2.370414   -0.000498
      8          6           0       -1.979670    0.084091    0.000284
      9          6           0       -2.928402   -1.066993    0.000414
     10          8           0       -2.610754    1.226005    0.000613
     11          8           0       -0.410889    2.390017   -0.000372
     12          8           0        3.619023   -0.199092    0.000118
     13          1           0        2.093211   -2.211464   -0.000223
     14          1           0        2.210241    2.091140   -0.000106
     15          1           0        0.031737   -3.148180   -0.000542
     16          1           0       -2.767384   -1.697894   -0.874197
     17          1           0       -2.766663   -1.698331    0.874575
     18          1           0       -3.941973   -0.673938    0.000919
     19          1           0       -1.996319    1.992362    0.000649
     20          1           0        0.177579    3.158816    0.001184
     21          1           0        4.074840    0.654952    0.000235
 ---------------------------------------------------------------------
                    Distance matrix (angstroms):
                    1          2          3          4          5
     1  C    0.000000
     2  C    1.399625   0.000000
     3  C    2.442620   1.408918   0.000000
     4  C    2.794171   2.401349   1.378556   0.000000
     5  C    2.471864   2.845650   2.477943   1.440881   0.000000
     6  C    1.385042   2.412575   2.816319   2.440069   1.445392
     7  O    2.372171   3.645539   4.159726   3.663975   2.385557
     8  C    3.786706   4.272200   3.776755   2.503492   1.426662
     9  C    4.489344   5.310613   5.084604   3.913989   2.608746
    10  O    4.857874   5.070887   4.248611   2.870186   2.386145
    11  O    4.155978   3.658684   2.383986   1.362267   2.379240
    12  O    2.324554   1.335039   2.408715   3.640905   4.179193
    13  H    1.083020   2.141836   3.412406   3.876686   3.459626
    14  H    3.425042   2.171220   1.084366   2.143115   3.457542
    15  H    2.418371   3.810417   4.607425   4.358162   3.217201
    16  H    4.431778   5.381234   5.328620   4.283276   2.931654
    17  H    4.431241   5.380731   5.328308   4.283154   2.931526
    18  H    5.530594   6.259774   5.876387   4.601943   3.456674
    19  H    4.823901   4.759902   3.725620   2.389453   2.446998
    20  H    4.639315   3.865360   2.466829   1.956491   3.227845
    21  H    3.170470   1.930243   2.491250   3.854799   4.673520
                    6          7          8          9         10
     6  C    0.000000
     7  O    1.343522   0.000000
     8  C    2.523326   2.842710   0.000000
     9  C    3.104668   2.715952   1.491672   0.000000
    10  O    3.714325   4.147153   1.304697   2.314895   0.000000
    11  O    3.671009   4.762339   2.788973   4.276539   2.488842
    12  O    3.599404   4.696720   5.605851   6.604697   6.390699
    13  H    2.155588   2.643648   4.675248   5.150380   5.826104
    14  H    3.900652   5.244085   4.645815   6.031538   4.898005
    15  H    1.918833   0.968659   3.807011   3.618530   5.110407
    16  H    3.101137   2.480265   2.135575   1.090370   3.055980
    17  H    3.100763   2.479985   2.135597   1.090369   3.056119
    18  H    4.151732   3.796448   2.103626   1.087115   2.319899
    19  H    3.887531   4.597635   1.908344   3.198192   0.982260
    20  H    4.393282   5.576330   3.756016   5.244481   3.392722
    21  H    4.336360   5.522844   6.081363   7.211829   6.709938
                   11         12         13         14         15
    11  O    0.000000
    12  O    4.789956   0.000000
    13  H    5.238716   2.525420   0.000000
    14  H    2.638115   2.688834   4.304196   0.000000
    15  H    5.555857   4.643893   2.264313   5.674183   0.000000
    16  H    4.798714   6.617933   4.965176   6.316452   3.271342
    17  H    4.798937   6.617355   4.964570   6.316228   3.270922
    18  H    4.675081   7.575893   6.227956   6.745028   4.681052
    19  H    1.634539   6.027814   5.864846   4.207719   5.526136
    20  H    0.968168   4.808231   5.701716   2.296007   6.308682
    21  H    4.809596   0.968069   3.484708   2.353586   5.550720
                   16         17         18         19         20
    16  H    0.000000
    17  H    1.748772   0.000000
    18  H    1.787169   1.787179   0.000000
    19  H    3.870128   3.870193   3.300717   0.000000
    20  H    5.746889   5.746586   5.626786   2.467072   0.000000
    21  H    7.288109   7.287562   8.126207   6.216722   4.632276
                   21
    21  H    0.000000
 Stoichiometry    C8H9O4(1+)
 Framework group  C1[X(C8H9O4)]
 Deg. of freedom    57
 Full point group                 C1      NOp   1
 Largest Abelian subgroup         C1      NOp   1
 Largest concise Abelian subgroup C1      NOp   1
                         Standard orientation:                         
 ---------------------------------------------------------------------
 Center     Atomic      Atomic             Coordinates (Angstroms)
 Number     Number       Type             X           Y           Z
 ---------------------------------------------------------------------
      1          6           0        1.559521   -1.261122   -0.000163
      2          6           0        2.287079   -0.065460    0.000022
      3          6           0        1.629331    1.180500    0.000001
      4          6           0        0.251044    1.207740   -0.000071
      5          6           0       -0.557432    0.015053   -0.000116
      6          6           0        0.174803   -1.231138   -0.000281
      7          8           0       -0.537299   -2.370420   -0.000534
      8          6           0       -1.982732    0.077380    0.000248
      9          6           0       -2.926092   -1.078111    0.000378
     10          8           0       -2.619129    1.216342    0.000577
     11          8           0       -0.424709    2.390588   -0.000408
     12          8           0        3.617220   -0.179722    0.000082
     13          1           0        2.100798   -2.199180   -0.000259
     14          1           0        2.197785    2.103923   -0.000142
     15          1           0        0.043709   -3.145487   -0.000578
     16          1           0       -2.762137   -1.708256   -0.874233
     17          1           0       -2.761414   -1.708689    0.874539
     18          1           0       -3.941483   -0.689782    0.000883
     19          1           0       -2.008269    1.985553    0.000613
     20          1           0        0.160171    3.162120    0.001148
     21          1           0        4.069053    0.676435    0.000199
 ---------------------------------------------------------------------
 Rotational constants (GHZ):      1.5205206      0.7564631      0.5067108
 Standard basis: 6-31+G(d,p) (6D, 7F)
 There are   273 symmetry adapted cartesian basis functions of A   symmetry.
 There are   273 symmetry adapted basis functions of A   symmetry.
   273 basis functions,   447 primitive gaussians,   273 cartesian basis functions
    44 alpha electrons       44 beta electrons
       nuclear repulsion energy       712.5647904965 Hartrees.
 NAtoms=   21 NActive=   21 NUniq=   21 SFac= 1.00D+00 NAtFMM=   60 NAOKFM=F Big=F
 Integral buffers will be    131072 words long.
 Regular integral format.
 Two-electron integral symmetry is turned on.
 One-electron integrals computed using PRISM.
 NBasis=   273 RedAO= T EigKep=  1.42D-06  NBF=   273
 NBsUse=   273 1.00D-06 EigRej= -1.00D+00 NBFU=   273
 Initial guess from the checkpoint file:  "B2PLYPTHAPyang.chk"
 B after Tr=     0.000000    0.000000    0.000000
         Rot=    0.999996    0.000002   -0.000004   -0.002976 Ang=   0.34 deg.
 ExpMin= 4.38D-02 ExpMax= 5.48D+03 ExpMxC= 8.25D+02 IAcc=2 IRadAn=         4 AccDes= 0.00D+00
 Harris functional with IExCor=  419 and IRadAn=       4 diagonalized for initial guess.
 HarFok:  IExCor=  419 AccDes= 0.00D+00 IRadAn=         4 IDoV= 1 UseB2=F ITyADJ=14
 ICtDFT=  3500011 ScaDFX=  1.000000  1.000000  1.000000  1.000000
 FoFCou: FMM=F IPFlag=           0 FMFlag=      100000 FMFlg1=           0
         NFxFlg=           0 DoJE=T BraDBF=F KetDBF=T FulRan=T
         wScrn=  0.000000 ICntrl=     500 IOpCl=  0 I1Cent=   200000004 NGrid=           0
         NMat0=    1 NMatS0=      1 NMatT0=    0 NMatD0=    1 NMtDS0=    0 NMtDT0=    0
 Petite list used in FoFCou.
 Keep R1 ints in memory in canonical form, NReq=709970467.
 Requested convergence on RMS density matrix=1.00D-08 within 128 cycles.
 Requested convergence on MAX density matrix=1.00D-06.
 Requested convergence on             energy=1.00D-06.
 No special actions if energy rises.
 SCF Done:  E(RB2PLYP) =  -609.789455301     A.U. after   12 cycles
            NFock= 12  Conv=0.72D-08     -V/T= 2.0068
 DoSCS=T DFT=T ScalE2(SS,OS)=  0.270000  0.270000
 ExpMin= 4.38D-02 ExpMax= 5.48D+03 ExpMxC= 8.25D+02 IAcc=3 IRadAn=         5 AccDes= 0.00D+00
 HarFok:  IExCor=  205 AccDes= 0.00D+00 IRadAn=         5 IDoV=-2 UseB2=F ITyADJ=14
 ICtDFT= 12500011 ScaDFX=  1.000000  1.000000  1.000000  1.000000
 Range of M.O.s used for correlation:    13   273
 NBasis=   273 NAE=    44 NBE=    44 NFC=    12 NFV=     0
 NROrb=    261 NOA=    32 NOB=    32 NVA=   229 NVB=   229

 **** Warning!!: The largest alpha MO coefficient is  0.17591177D+03

 DoSCS=T DFT=T ScalE2(SS,OS)=  0.270000  0.270000
 Fully direct method using O(ONN) memory.
 JobTyp=1 Pass  1:  I=  13 to  16 NPSUse= 18 ParTrn=T ParDer=T DoDerP=T.
 JobTyp=1 Pass  2:  I=  17 to  20 NPSUse= 18 ParTrn=T ParDer=T DoDerP=T.
 JobTyp=1 Pass  3:  I=  21 to  24 NPSUse= 18 ParTrn=T ParDer=T DoDerP=T.
 JobTyp=1 Pass  4:  I=  25 to  28 NPSUse= 18 ParTrn=T ParDer=T DoDerP=T.
 JobTyp=1 Pass  5:  I=  29 to  32 NPSUse= 18 ParTrn=T ParDer=T DoDerP=T.
 JobTyp=1 Pass  6:  I=  33 to  36 NPSUse= 18 ParTrn=T ParDer=T DoDerP=T.
 JobTyp=1 Pass  7:  I=  37 to  40 NPSUse= 18 ParTrn=T ParDer=T DoDerP=T.
 JobTyp=1 Pass  8:  I=  41 to  44 NPSUse= 18 ParTrn=T ParDer=T DoDerP=T.
 Spin components of T(2) and E(2):
     alpha-alpha T2 =       0.1248550068D+00 E2=     -0.8046400671D-01
     alpha-beta  T2 =       0.6449983966D+00 E2=     -0.4314015364D+00
     beta-beta   T2 =       0.1248550068D+00 E2=     -0.8046400671D-01
 E2(B2PLYP) =    -0.5923295498D+00 E(B2PLYP) =    -0.61038178485086D+03
          IDoAtm=111111111111111111111
          Differentiating once with respect to electric field.
                with respect to dipole field.
          Differentiating once with respect to nuclear coordinates.
 Keep R1 ints in memory in canonical form, NReq=709723944.
          There are     1 degrees of freedom in the 1st order CPHF.  IDoFFX=0 NUNeed=     1.
 LinEq1:  Iter=  0 NonCon=     1 RMS=1.98D-03 Max=9.67D-02 NDo=     1
 AX will form     1 AO Fock derivatives at one time.
 LinEq1:  Iter=  1 NonCon=     1 RMS=8.43D-04 Max=2.75D-02 NDo=     1
 LinEq1:  Iter=  2 NonCon=     1 RMS=2.89D-04 Max=7.79D-03 NDo=     1
 LinEq1:  Iter=  3 NonCon=     1 RMS=1.83D-04 Max=8.10D-03 NDo=     1
 LinEq1:  Iter=  4 NonCon=     1 RMS=5.72D-05 Max=2.66D-03 NDo=     1
 LinEq1:  Iter=  5 NonCon=     1 RMS=3.08D-05 Max=1.09D-03 NDo=     1
 LinEq1:  Iter=  6 NonCon=     1 RMS=1.54D-05 Max=6.80D-04 NDo=     1
 LinEq1:  Iter=  7 NonCon=     1 RMS=8.70D-06 Max=5.30D-04 NDo=     1
 LinEq1:  Iter=  8 NonCon=     1 RMS=2.85D-06 Max=3.84D-05 NDo=     1
 LinEq1:  Iter=  9 NonCon=     1 RMS=1.17D-06 Max=3.52D-05 NDo=     1
 LinEq1:  Iter= 10 NonCon=     1 RMS=4.30D-07 Max=9.69D-06 NDo=     1
 LinEq1:  Iter= 11 NonCon=     1 RMS=2.29D-07 Max=6.71D-06 NDo=     1
 LinEq1:  Iter= 12 NonCon=     1 RMS=8.56D-08 Max=1.84D-06 NDo=     1
 LinEq1:  Iter= 13 NonCon=     1 RMS=2.25D-08 Max=5.54D-07 NDo=     1
 LinEq1:  Iter= 14 NonCon=     1 RMS=1.23D-08 Max=4.87D-07 NDo=     1
 LinEq1:  Iter= 15 NonCon=     1 RMS=4.27D-09 Max=1.29D-07 NDo=     1
 LinEq1:  Iter= 16 NonCon=     1 RMS=1.77D-09 Max=5.49D-08 NDo=     1
 LinEq1:  Iter= 17 NonCon=     1 RMS=7.17D-10 Max=2.45D-08 NDo=     1
 LinEq1:  Iter= 18 NonCon=     1 RMS=2.71D-10 Max=6.38D-09 NDo=     1
 LinEq1:  Iter= 19 NonCon=     1 RMS=1.20D-10 Max=4.21D-09 NDo=     1
 LinEq1:  Iter= 20 NonCon=     0 RMS=3.94D-11 Max=7.78D-10 NDo=     1
 Linear equations converged to 1.000D-10 1.000D-09 after    20 iterations.
 End of Minotr F.D. properties file   721 does not exist.
 End of Minotr F.D. properties file   722 does not exist.
 End of Minotr F.D. properties file   788 does not exist.
 Calling FoFJK, ICntrl=  10002127 FMM=F ISym2X=0 I1Cent= 0 IOpClX= 0 NMat=1 NMatS=1 NMatT=0.
 ***** Axes restored to original set *****
 -------------------------------------------------------------------
 Center     Atomic                   Forces (Hartrees/Bohr)
 Number     Number              X              Y              Z
 -------------------------------------------------------------------
      1        6           0.000193167    0.000570263   -0.000000243
      2        6          -0.002446806    0.000620513   -0.000001075
      3        6          -0.000215591    0.000514268    0.000001335
      4        6           0.002131956   -0.003497629   -0.000006989
      5        6          -0.000261909   -0.000503597   -0.000003252
      6        6           0.001204931    0.002048421    0.000002094
      7        8          -0.003183312    0.000108362    0.000001113
      8        6           0.000853182   -0.002141993    0.000002880
      9        6           0.001675742   -0.000083748   -0.000000990
     10        8          -0.003916052   -0.001003055    0.000005345
     11        8           0.001530101    0.002751905    0.000009132
     12        8           0.001216178   -0.000905009    0.000000678
     13        1          -0.000125587   -0.000186126    0.000000237
     14        1          -0.000047499    0.000106987    0.000001407
     15        1           0.000165431    0.000114089   -0.000000101
     16        1           0.000355039   -0.000154301   -0.000340377
     17        1           0.000354995   -0.000152778    0.000338475
     18        1          -0.000037649   -0.000066924   -0.000000641
     19        1           0.000646414    0.001279921   -0.000003889
     20        1           0.000197829    0.000223987   -0.000005201
     21        1          -0.000290561    0.000356443    0.000000063
 -------------------------------------------------------------------
 Cartesian Forces:  Max     0.003916052 RMS     0.001124204

 GradGradGradGradGradGradGradGradGradGradGradGradGradGradGradGradGradGrad
 Berny optimization.
 Using GEDIIS/GDIIS optimizer.
 FormGI is forming the generalized inverse of G from B-inverse, IUseBI=4.
 Internal  Forces:  Max     0.010492925 RMS     0.002056604
 Search for a local minimum.
 Step number   2 out of a maximum of  104
 All quantities printed in internal units (Hartrees-Bohrs-Radians)
 Mixed Optimization -- RFO/linear search
 Update second derivatives using D2CorX and points    1    2
 DE= -2.94D-04 DEPred=-5.32D-04 R= 5.52D-01
 TightC=F SS=  1.41D+00  RLast= 5.24D-02 DXNew= 5.0454D-01 1.5706D-01
 Trust test= 5.52D-01 RLast= 5.24D-02 DXMaxT set to 3.00D-01
 ITU=  1  0
 Use linear search instead of GDIIS.
     Eigenvalues ---    0.00913   0.01546   0.01617   0.01754   0.01774
     Eigenvalues ---    0.02003   0.02073   0.02118   0.02153   0.02204
     Eigenvalues ---    0.02245   0.02271   0.02297   0.02537   0.02657
     Eigenvalues ---    0.03070   0.07483   0.07585   0.14630   0.16000
     Eigenvalues ---    0.16000   0.16000   0.16000   0.16000   0.16000
     Eigenvalues ---    0.16000   0.16033   0.22511   0.23493   0.24442
     Eigenvalues ---    0.25000   0.25000   0.25000   0.25000   0.25000
     Eigenvalues ---    0.28981   0.33754   0.34498   0.34805   0.35100
     Eigenvalues ---    0.35363   0.35746   0.38256   0.39572   0.42170
     Eigenvalues ---    0.43978   0.45511   0.47328   0.50304   0.51475
     Eigenvalues ---    0.53858   0.53921   0.54024   0.55891   0.59094
     Eigenvalues ---    0.65413   0.78609
 RFO step:  Lambda=-6.40598702D-04 EMin= 9.13476513D-03
 Quartic linear search produced a step of -0.30813.
 Iteration  1 RMS(Cart)=  0.02811624 RMS(Int)=  0.00017048
 Iteration  2 RMS(Cart)=  0.00039441 RMS(Int)=  0.00000118
 Iteration  3 RMS(Cart)=  0.00000007 RMS(Int)=  0.00000117
 Variable       Old X    -DE/DX   Delta X   Delta X   Delta X     New X
                                 (Linear)    (Quad)   (Total)
    R1        2.64491  -0.00091  -0.00161   0.00331   0.00170   2.64661
    R2        2.61735  -0.00105  -0.00254   0.00592   0.00338   2.62073
    R3        2.04661   0.00010   0.00093  -0.00255  -0.00162   2.04500
    R4        2.66247  -0.00060  -0.00143   0.00333   0.00191   2.66437
    R5        2.52286   0.00097  -0.00468   0.01495   0.01027   2.53313
    R6        2.60509  -0.00069  -0.00260   0.00680   0.00421   2.60930
    R7        2.04915   0.00007   0.00082  -0.00228  -0.00146   2.04770
    R8        2.72287   0.00226  -0.00227   0.01066   0.00839   2.73126
    R9        2.57431   0.00174  -0.00468   0.01605   0.01137   2.58568
   R10        2.73140  -0.00340  -0.00333   0.00386   0.00053   2.73192
   R11        2.69600  -0.00004  -0.00166   0.00482   0.00316   2.69916
   R12        2.53889   0.00142  -0.00433   0.01450   0.01016   2.54905
   R13        1.83050   0.00001  -0.00059   0.00174   0.00115   1.83165
   R14        2.81885  -0.00114  -0.00164   0.00250   0.00085   2.81971
   R15        2.46552   0.00182  -0.00518   0.01715   0.01198   2.47750
   R16        2.06050   0.00041   0.00138  -0.00324  -0.00186   2.05865
   R17        2.06050   0.00041   0.00138  -0.00324  -0.00186   2.05864
   R18        2.05435   0.00001   0.00081  -0.00236  -0.00155   2.05280
   R19        1.85620   0.00140  -0.00107   0.00506   0.00398   1.86019
   R20        1.82957   0.00030  -0.00047   0.00177   0.00130   1.83087
   R21        1.82939   0.00018  -0.00070   0.00229   0.00159   1.83098
    A1        2.09579  -0.00071  -0.00158   0.00209   0.00051   2.09631
    A2        2.07160   0.00056   0.00029   0.00130   0.00159   2.07318
    A3        2.11580   0.00015   0.00129  -0.00339  -0.00210   2.11370
    A4        2.10923   0.00033   0.00155  -0.00361  -0.00206   2.10717
    A5        2.03175  -0.00036  -0.00009  -0.00074  -0.00083   2.03092
    A6        2.14221   0.00003  -0.00146   0.00435   0.00289   2.14510
    A7        2.07628   0.00001  -0.00098   0.00325   0.00227   2.07855
    A8        2.10406   0.00009   0.00054  -0.00134  -0.00080   2.10326
    A9        2.10284  -0.00010   0.00044  -0.00191  -0.00147   2.10137
   A10        2.14675  -0.00064  -0.00043  -0.00014  -0.00057   2.14618
   A11        2.10960  -0.00352  -0.00090  -0.00726  -0.00815   2.10145
   A12        2.02684   0.00416   0.00133   0.00740   0.00873   2.03556
   A13        2.01464  -0.00061   0.00102  -0.00460  -0.00358   2.01106
   A14        2.12281   0.01049   0.00379   0.01777   0.02157   2.14437
   A15        2.14573  -0.00988  -0.00482  -0.01317  -0.01799   2.12775
   A16        2.12368   0.00162   0.00042   0.00301   0.00343   2.12711
   A17        2.10778   0.00240   0.00099   0.00383   0.00482   2.11260
   A18        2.05173  -0.00401  -0.00140  -0.00684  -0.00825   2.04348
   A19        1.93970  -0.00037   0.00173  -0.00662  -0.00489   1.93481
   A20        2.21176  -0.00698  -0.00356  -0.00881  -0.01237   2.19939
   A21        2.12403   0.00713   0.00292   0.01110   0.01402   2.13806
   A22        1.94739  -0.00015   0.00065  -0.00230  -0.00165   1.94573
   A23        1.93105  -0.00040  -0.00156   0.00257   0.00102   1.93206
   A24        1.93108  -0.00040  -0.00156   0.00256   0.00101   1.93209
   A25        1.89019   0.00031   0.00008   0.00162   0.00169   1.89188
   A26        1.86099   0.00017  -0.00015   0.00017   0.00003   1.86102
   A27        1.92544   0.00015   0.00159  -0.00351  -0.00192   1.92352
   A28        1.92546   0.00015   0.00159  -0.00350  -0.00191   1.92355
   A29        1.96090   0.00055   0.00530  -0.01307  -0.00777   1.95313
   A30        1.97390  -0.00004   0.00082  -0.00255  -0.00173   1.97216
   A31        1.97070  -0.00078   0.00071  -0.00541  -0.00470   1.96601
    D1       -0.00007   0.00000   0.00001  -0.00001  -0.00001  -0.00008
    D2       -3.14156  -0.00000  -0.00001  -0.00001  -0.00002  -3.14157
    D3        3.14147   0.00000   0.00001   0.00000   0.00001   3.14148
    D4       -0.00001  -0.00000  -0.00000   0.00000   0.00000  -0.00001
    D5       -0.00008   0.00000   0.00001  -0.00000   0.00000  -0.00008
    D6        3.14153   0.00000   0.00000   0.00002   0.00003   3.14155
    D7        3.14156  -0.00000   0.00000  -0.00002  -0.00001   3.14155
    D8       -0.00001   0.00000   0.00000   0.00001   0.00001  -0.00000
    D9        0.00011  -0.00000  -0.00001   0.00002   0.00001   0.00012
   D10       -3.14129  -0.00000  -0.00001  -0.00002  -0.00003  -3.14131
   D11        3.14158   0.00000   0.00000   0.00002   0.00002  -3.14158
   D12        0.00019  -0.00000   0.00000  -0.00002  -0.00002   0.00017
   D13        3.14158   0.00000   0.00001  -0.00002  -0.00000   3.14158
   D14        0.00010  -0.00000  -0.00000  -0.00001  -0.00001   0.00009
   D15        0.00001   0.00000   0.00001  -0.00001  -0.00000   0.00000
   D16       -3.14132  -0.00000  -0.00004   0.00005   0.00001  -3.14131
   D17        3.14140   0.00000   0.00001   0.00003   0.00003   3.14144
   D18        0.00007  -0.00000  -0.00004   0.00009   0.00005   0.00012
   D19       -0.00015   0.00000   0.00000  -0.00000   0.00000  -0.00015
   D20        3.14123  -0.00000  -0.00002   0.00003   0.00000   3.14124
   D21        3.14119   0.00000   0.00005  -0.00007  -0.00002   3.14117
   D22       -0.00061  -0.00000   0.00003  -0.00004  -0.00001  -0.00062
   D23       -0.00194   0.00001  -0.00010   0.00042   0.00032  -0.00162
   D24        3.13990   0.00000  -0.00014   0.00048   0.00034   3.14024
   D25        0.00019  -0.00000  -0.00001   0.00001  -0.00000   0.00019
   D26       -3.14142  -0.00000  -0.00001  -0.00002  -0.00002  -3.14144
   D27       -3.14119  -0.00000   0.00001  -0.00002  -0.00001  -3.14120
   D28        0.00038  -0.00000   0.00002  -0.00005  -0.00003   0.00035
   D29       -3.14148  -0.00000   0.00007  -0.00017  -0.00011  -3.14159
   D30        0.00006   0.00000   0.00007  -0.00013  -0.00006  -0.00001
   D31       -0.00011  -0.00000   0.00004  -0.00014  -0.00010  -0.00021
   D32        3.14142   0.00000   0.00004  -0.00010  -0.00006   3.14137
   D33        0.00004  -0.00000   0.00001  -0.00003  -0.00002   0.00002
   D34       -3.14154   0.00000   0.00000  -0.00000  -0.00000  -3.14154
   D35       -1.02951   0.00015   0.00107  -0.00171  -0.00063  -1.03014
   D36        1.02905  -0.00014  -0.00104   0.00173   0.00068   1.02974
   D37        3.14138   0.00000   0.00001   0.00002   0.00003   3.14142
   D38        2.11214   0.00014   0.00107  -0.00174  -0.00067   2.11147
   D39       -2.11249  -0.00014  -0.00104   0.00169   0.00064  -2.11184
   D40       -0.00016  -0.00000   0.00001  -0.00002  -0.00001  -0.00016
   D41       -0.00008   0.00000   0.00003  -0.00004  -0.00000  -0.00008
   D42        3.14146   0.00000   0.00004  -0.00000   0.00003   3.14150
         Item               Value     Threshold  Converged?
 Maximum Force            0.010493     0.000450     NO 
 RMS     Force            0.002057     0.000300     NO 
 Maximum Displacement     0.103094     0.001800     NO 
 RMS     Displacement     0.028355     0.001200     NO 
 Predicted change in Energy=-3.939818D-04
 GradGradGradGradGradGradGradGradGradGradGradGradGradGradGradGradGradGrad

                          Input orientation:                          
 ---------------------------------------------------------------------
 Center     Atomic      Atomic             Coordinates (Angstroms)
 Number     Number       Type             X           Y           Z
 ---------------------------------------------------------------------
      1          6           0        1.545728   -1.267312   -0.000120
      2          6           0        2.290386   -0.081159    0.000054
      3          6           0        1.647051    1.173437    0.000038
      4          6           0        0.267064    1.220281   -0.000008
      5          6           0       -0.560099    0.035056   -0.000037
      6          6           0        0.159751   -1.218650   -0.000212
      7          8           0       -0.575974   -2.349244   -0.000423
      8          6           0       -1.987522    0.086085    0.000343
      9          6           0       -2.907466   -1.088707    0.000348
     10          8           0       -2.652021    1.216242    0.000756
     11          8           0       -0.384981    2.423207   -0.000358
     12          8           0        3.624099   -0.215627    0.000109
     13          1           0        2.071940   -2.212924   -0.000211
     14          1           0        2.226776    2.088912   -0.000088
     15          1           0       -0.005024   -3.132505   -0.000479
     16          1           0       -2.732125   -1.715079   -0.873540
     17          1           0       -2.731417   -1.715658    0.873676
     18          1           0       -3.930393   -0.723116    0.000867
     19          1           0       -2.050873    1.995731    0.000841
     20          1           0        0.218719    3.180984    0.000889
     21          1           0        4.084953    0.636667    0.000215
 ---------------------------------------------------------------------
                    Distance matrix (angstroms):
                    1          2          3          4          5
     1  C    0.000000
     2  C    1.400526   0.000000
     3  C    2.442851   1.409926   0.000000
     4  C    2.796981   2.405739   1.380782   0.000000
     5  C    2.476019   2.852853   2.483430   1.445322   0.000000
     6  C    1.386831   2.415262   2.816761   2.441291   1.445670
     7  O    2.381637   3.655164   4.165467   3.667727   2.384353
     8  C    3.783588   4.281176   3.793739   2.523798   1.428335
     9  C    4.456774   5.294603   5.085363   3.925438   2.602494
    10  O    4.877411   5.109858   4.299286   2.919088   2.402361
    11  O    4.165042   3.664621   2.385599   1.368282   2.394564
    12  O    2.329306   1.340474   2.416240   3.651235   4.191700
    13  H    1.082165   2.142928   3.412912   3.878721   3.461364
    14  H    3.424626   2.171003   1.083594   2.143593   3.461935
[...]
 01455604,-0.05896221,-0.00001180,0.05114193,0.70313093,0.00000023,-0.0
 0000068,-0.00134292,-0.00000180,0.00000150,0.00019065,0.00000190,-0.00
 000149,-0.00004101,-0.00000316,-0.00000473,-0.00296816,0.00001561,-0.0
 0001780,0.01645052,0.00000377,0.00000420,0.00896693,-0.00000097,-0.000
 00122,-0.00007651,0.00005378,-0.00007039,-0.05474355,0.00000087,-0.000
 00656,0.00829632,-0.00008724,0.00008422,0.05051571,0.00846503,0.006532
 74,0.00000002,-0.00525402,-0.01786582,-0.00000332,-0.03289988,0.060058
 75,-0.00001219,-0.16696825,0.04999319,-0.00006193,0.02960406,-0.016296
 61,0.00000293,-0.01657644,0.00245862,0.00000215,0.00364727,-0.00028713
 ,0.00000047,-0.01815335,0.01263007,0.00000668,0.00083756,-0.00159817,0
 .00000023,-0.01766456,-0.03052709,-0.00000074,0.44875119,-0.00487066,-
 0.00599694,0.00000100,-0.00362896,0.01229460,-0.00000152,0.02388713,-0
 .01850396,0.00001395,0.10724549,-0.26320385,0.00001008,0.00384046,-0.0
 4550227,0.00000568,0.00234135,-0.00284316,-0.00000372,-0.00009698,-0.0
 0316228,-0.00000060,0.01954227,-0.00490503,-0.00000352,-0.00039838,-0.
 00198098,-0.00000063,-0.01868882,0.00839236,0.00001216,0.13015051,0.66
 078986,0.00000282,0.00000339,-0.00233969,0.00000210,-0.00000629,0.0110
 3576,-0.00000806,0.00000552,0.00852855,-0.00003615,-0.00004723,-0.0330
 2544,0.00001772,-0.00001088,-0.00076925,-0.00000741,-0.00000394,0.0034
 1900,0.00000094,-0.00000165,0.00056982,0.00000345,0.00000426,-0.000789
 78,-0.00000023,0.00000260,0.00044783,-0.00001231,0.00000153,0.00311861
 ,0.00042299,0.00049014,0.01891341,-0.05933654,-0.01663390,-0.00000407,
 -0.36192853,0.04890946,-0.00000759,-0.04485894,0.01384642,0.00000269,0
 .01103719,0.00342566,-0.00000187,-0.01837350,0.00129594,0.00000173,0.0
 1782756,-0.00456456,-0.00000034,-0.00352904,-0.00264382,-0.00000066,0.
 01645083,-0.00373782,-0.00000282,-0.00041023,-0.00213532,-0.00000091,-
 0.00484273,0.00797351,0.00000194,-0.00122573,0.00175336,0.00000021,0.5
 8385458,-0.05112115,0.00796820,-0.00000166,-0.00378529,-0.11864463,-0.
 00000747,0.04655140,0.00168532,-0.00000037,-0.00767649,-0.00730192,-0.
 00000009,0.00043853,0.00342486,0.00000018,0.00670096,-0.00860811,-0.00
 000135,-0.00419710,-0.00162611,-0.00000050,0.00035368,0.00031946,0.000
 00008,0.00001811,0.00008524,0.00000018,-0.00008751,0.00097924,-0.00000
 003,0.00407727,-0.00119224,-0.00000024,0.16694282,0.53684571,-0.000008
 83,-0.00000144,0.00587660,-0.00001344,-0.00000518,-0.04326368,0.000002
 35,0.00000102,0.01039371,-0.00000220,0.00000082,0.00891302,-0.00000082
 ,0.00000047,-0.00123136,0.00000203,-0.00000208,0.00441725,-0.00000062,
 -0.00000009,-0.00047143,0.00000100,-0.00000016,-0.00038172,0.,-0.00000
 013,0.00014396,-0.00000031,0.00000061,-0.00002378,0.00000104,-0.000000
 87,-0.00158496,0.00004287,0.00006264,0.02941668,-0.12844788,0.12574844
 ,0.00001111,0.01330413,-0.01670687,-0.00000183,-0.00211808,-0.00300138
 ,-0.00000030,-0.00136328,-0.00075611,-0.00000007,-0.00414691,-0.001946
 10,-0.00000056,-0.01128547,0.02790359,0.00000341,0.00309080,0.00101180
 ,0.00000058,0.00009103,0.00152981,-0.00000026,0.00005092,0.00000411,0.
 00000002,-0.00056221,0.00016623,0.00000035,0.00050923,-0.00012768,0.00
 000018,0.00062539,0.00080805,0.00000028,0.13140125,0.12444332,-0.28322
 241,-0.00002934,0.01579894,-0.01978411,-0.00000223,-0.00368300,-0.0023
 4030,-0.00000099,-0.00112795,0.00011340,0.00000032,-0.00081196,0.00077
 725,-0.00000073,-0.00387055,0.00273173,-0.00000004,-0.00090066,0.00255
 999,0.00000091,-0.00033500,0.00021225,-0.00000007,-0.00002471,0.000063
 47,0.00000008,-0.00004518,0.00010601,0.00000012,0.00024807,0.00014239,
 -0.00000013,0.00136876,0.00196174,0.00000064,-0.13251697,0.29661292,0.
 00001081,-0.00003028,-0.02599140,0.00000336,-0.00000336,0.00182219,-0.
 00000134,-0.00000015,0.00485595,-0.00000043,-0.00000007,-0.00157813,0.
 00000037,-0.00000118,0.00608556,-0.00000002,0.00000204,0.00086552,-0.0
 0000008,0.00000054,-0.00461843,-0.00000037,0.00000036,0.00116776,0.,0.
 00000012,-0.00009406,-0.00000012,-0.00000012,-0.00070082,0.00000045,0.
 00000053,-0.00011149,-0.00000029,0.00000071,-0.00267763,-0.00001258,0.
 00003126,0.01995090,-0.00141627,0.00304778,0.00000070,0.01078768,0.014
 60819,-0.00000141,-0.14128006,-0.12903368,0.00000968,-0.01292355,-0.02
 871549,0.00000173,-0.00431331,0.00253115,0.00000045,-0.00109485,0.0008
 5613,-0.00000024,0.00036914,0.00001250,0.00000006,-0.00007061,-0.00194
 889,-0.00000100,-0.00037986,0.00035086,0.00000036,0.00019699,0.0004359
 6,0.,0.00331919,-0.00082819,-0.00000114,0.00261416,-0.00013934,0.00000
 020,0.00064538,0.00069714,0.00000036,0.14601610,0.00388518,-0.00274763
 ,0.00000016,-0.01888418,-0.01874084,0.00000103,-0.12956735,-0.26615465
 ,0.00001553,0.00411584,0.00323446,-0.00000046,0.00099764,0.00081007,0.
 00000036,0.00129091,-0.00006638,0.00000013,-0.00030997,0.00008534,-0.0
 0000001,0.00050310,0.00001699,0.00000016,0.00004794,0.00000325,-0.0000
 0007,-0.00002728,0.00039602,0.00000002,0.00102858,0.00244053,0.0000010
 2,-0.00061623,0.00288236,-0.00000059,-0.00094301,-0.00086324,-0.000000
 27,0.13755638,0.27910721,0.00000096,-0.00000058,0.00437697,0.00000116,
 -0.00000287,0.00053655,0.00000967,0.00002206,-0.02390953,0.00000079,-0
 .00000242,0.00162815,-0.00000063,0.00000041,0.00601382,-0.00000075,0.0
 0000008,-0.00160366,0.00000044,0.00000060,-0.00005503,-0.00000057,-0.0
 0000046,0.00110792,-0.00000020,0.00000023,-0.00040637,0.00000034,-0.00
 000017,-0.00003428,0.00000176,0.00000249,-0.00480397,-0.00000115,-0.00
 000010,-0.00318419,-0.00000005,-0.00000017,0.00056592,-0.00001186,-0.0
 0001609,0.01795225,-0.00044282,-0.00533630,-0.00000073,-0.00040109,0.0
 0129045,0.00000030,0.00038881,-0.00032656,-0.00000021,0.00042954,-0.00
 078216,0.00000021,-0.00125305,-0.00387559,-0.00000092,0.01512687,-0.02
 701046,-0.00000268,-0.21932537,0.25411809,0.00002019,-0.00098196,-0.00
 043264,-0.00000009,-0.00158048,0.00011261,0.00000063,0.00027234,-0.000
 36979,-0.00000005,-0.00039836,-0.00001978,-0.00000036,-0.00014645,-0.0
 0002750,0.,-0.00155978,0.00081244,-0.00000006,-0.00008270,0.00014292,0
 .00000003,0.21001024,0.00416313,0.00585402,0.00000128,-0.00095152,-0.0
 0327270,-0.00000022,-0.00125923,0.00137919,0.00000011,0.00306637,-0.00
 047786,-0.00000021,-0.00679714,-0.00151303,0.00000007,0.02176607,-0.03
 897960,-0.00000385,0.19911920,-0.33067663,-0.00003183,0.00167140,-0.00
 039934,-0.00000014,-0.00008250,0.00002990,-0.00000035,-0.00067525,0.00
 096717,0.00000033,-0.00084722,0.00041909,-0.00000071,0.00145632,0.0006
 8944,0.00000014,-0.00128088,0.00048221,-0.00000003,-0.00007528,0.00009
 694,-0.00000009,-0.21950866,0.36576699,0.00000043,0.00000089,-0.001864
 88,-0.00000003,0.00000008,-0.00111714,0.00000016,0.00000012,-0.0000862
 7,0.00000055,-0.00000056,0.00160502,-0.00000143,-0.00000033,0.00272772
 ,0.00000387,-0.00000745,-0.00229544,0.00001278,-0.00002794,-0.00718488
 ,-0.00000010,0.00000013,-0.00043546,0.00000034,0.00000007,0.00018393,-
 0.00000018,0.00000045,-0.00020510,-0.00000002,-0.00000007,0.00002511,0
 .00000015,0.00000006,0.00000194,-0.00000030,0.,0.00094862,0.,0.0000000
 1,0.00005346,-0.00001658,0.00003509,0.00705576,0.00001038,0.00009018,0
 .00008336,0.00054061,-0.00065340,0.00017455,-0.00062417,0.00079925,-0.
 00033476,0.00114348,0.00113515,0.00106737,-0.00375695,0.00030236,0.000
 88965,-0.00133681,-0.00397120,-0.00026188,-0.00121917,0.00247984,-0.00
 082607,0.00723311,-0.00838485,-0.02051079,-0.05576063,0.02192238,0.037
 85879,-0.00134854,-0.00215404,0.00055651,0.00001145,-0.00038855,0.0001
 1881,-0.00063359,0.00009541,0.00000352,-0.00003942,0.00003670,-0.00005
 824,0.00000417,0.00000382,-0.00007578,-0.00007843,0.00024710,0.0001419
 3,0.05600008,0.00016524,0.00000549,-0.00026949,-0.00030186,-0.00001537
 ,-0.00002489,0.00005714,-0.00019554,-0.00022330,-0.00021110,-0.0006822
 4,0.00081566,0.00125706,0.00009995,0.00134704,-0.00024209,0.00132958,-
 0.00038169,0.00092413,-0.00126620,0.00099791,0.00352925,-0.01833251,-0
 .02117825,0.02449677,-0.13249662,-0.13485931,-0.00317731,-0.00315826,0
 .00009559,-0.00032934,0.00027789,0.00012088,0.00033856,-0.00001727,0.0
 0004827,0.00003289,-0.00000157,0.00002672,0.00001556,0.00000369,-0.000
 05560,0.00039404,0.00005751,0.00023910,-0.02586119,0.14939557,0.000641
 75,0.00049811,-0.00027896,-0.00025115,-0.00043809,-0.00004861,-0.00011
 242,0.00007971,0.00000893,-0.00001065,-0.00019288,0.00018467,0.0002551
 9,-0.00025619,0.00054193,-0.00071241,-0.00126904,0.00021389,0.00128880
 ,0.00042677,0.00037838,-0.00116093,0.00185748,0.00190508,0.03669487,-0
 .13301507,-0.22301684,-0.00015486,0.00201350,-0.00083863,-0.00002418,0
 .00027010,-0.00009031,0.00028690,0.00007895,0.00000763,-0.00002755,0.0
 0001662,0.00004415,-0.00000507,0.00001098,-0.00000578,0.00044855,0.000
 01539,0.00005876,-0.04054309,0.14285426,0.24127813,0.00000965,0.000090
 02,-0.00008344,0.00054065,-0.00065263,-0.00017469,-0.00062361,0.000798
 79,0.00033513,0.00114225,0.00113574,-0.00106762,-0.00375677,0.00030291
 ,-0.00088741,-0.00133655,-0.00397161,0.00026125,-0.00122173,0.00248086
 ,0.00082746,0.00724906,-0.00839175,0.02050314,-0.05581335,0.02202759,-
 0.03796070,-0.00134933,-0.00215717,-0.00055740,0.00001134,-0.00038887,
 -0.00011752,-0.00063363,0.00009536,-0.00000355,-0.00003945,0.00003666,
 0.00005841,0.00000411,0.00000383,0.00007575,-0.00007907,0.00024762,-0.
 00014140,0.00033753,-0.00151716,0.00383568,0.05605710,0.00016545,0.000
 00571,0.00026944,-0.00030218,-0.00001531,0.00002499,0.00005735,-0.0001
 9590,0.00022288,-0.00021187,-0.00068194,-0.00081509,0.00125679,0.00009
 973,-0.00134806,-0.00024223,0.00132935,0.00038234,0.00092560,-0.001266
 41,-0.00099907,0.00354340,-0.01834030,0.02116533,0.02460305,-0.1326251
 4,0.13488808,-0.00317819,-0.00315864,-0.00009383,-0.00032964,0.0002779
 5,-0.00012128,0.00033888,-0.00001724,-0.00004824,0.00003289,-0.0000015
 5,-0.00002676,0.00001552,0.00000370,0.00005561,0.00039449,0.00005743,-
 0.00023933,-0.00152613,0.01072744,-0.01599937,-0.02597661,0.14953348,-
 0.00064203,-0.00049819,-0.00027907,0.00025058,0.00043901,-0.00004843,0
 .00011329,-0.00008049,0.00000883,0.00000930,0.00019140,0.00018483,-0.0
 0025120,0.00025621,0.00054194,0.00071355,0.00127255,0.00021480,-0.0012
 8806,-0.00042986,0.00037784,0.00115786,-0.00186250,0.00189971,-0.03679
 468,0.13304764,-0.22284645,0.00015376,-0.00201361,-0.00083890,0.000023
 77,-0.00026975,-0.00009001,-0.00028624,-0.00007906,0.00000756,0.000027
 57,-0.00001667,0.00004413,0.00000508,-0.00001099,-0.00000577,-0.000448
 41,-0.00001533,0.00005906,-0.00385149,0.01601608,-0.02161917,0.0406564
 5,-0.14288351,0.24109406,-0.00006758,0.00002335,-0.00000011,0.00014321
 ,0.00003520,0.00000006,-0.00002618,-0.00039457,-0.00000011,-0.00086584
 ,0.00094900,0.00000052,0.00021236,-0.00346111,-0.00000005,0.00045515,-
 0.00004644,-0.00000010,-0.00017144,0.00046595,0.00000046,-0.02408015,0
 .00698887,0.00000882,-0.30020211,0.09194555,0.00010248,0.00259678,0.00
 315886,-0.00000049,0.00052472,-0.00009576,-0.00000029,-0.00008191,-0.0
 0000425,0.,-0.00000334,0.00000324,0.,-0.00008634,0.00000521,-0.0000000
 4,-0.00003116,-0.00019215,0.00000002,-0.00109487,0.00011020,-0.0004144
 6,-0.00111028,0.00011446,0.00041640,0.32373382,0.00038898,0.00044832,0
 .00000013,0.00010121,-0.00045767,0.,-0.00031505,-0.00031511,0.00000011
 ,-0.00110575,0.00087796,0.00000008,-0.00131799,-0.00491219,-0.00000102
 ,-0.00041122,-0.00181134,-0.00000017,0.00198765,0.00016173,-0.00000068
 ,-0.03141959,0.00810243,0.00001273,0.10070956,-0.08756197,-0.00004014,
 -0.00075480,0.00065587,0.00000051,0.00020372,-0.00000200,-0.00000020,-
 0.00004813,0.00008306,0.,-0.00005318,0.00002078,0.,-0.00015323,0.00002
 488,-0.00000002,0.00038407,0.00012736,-0.00000010,0.01596867,-0.005108
 95,0.00287587,0.01597750,-0.00511035,-0.00289002,-0.09966283,0.0947802
 6,0.00000003,0.00000007,-0.00027984,-0.00000005,0.00000006,0.00006466,
 0.00000005,0.00000010,-0.00026052,0.00000009,-0.00000064,0.00092981,0.
 00000037,0.00000001,0.00161760,0.00000004,0.00000018,-0.00013927,-0.00
 000016,-0.00000051,0.00090669,-0.00000050,-0.00000093,-0.00214116,0.00
 010464,-0.00003664,-0.05075802,-0.00000105,-0.00000052,-0.00067974,-0.
 00000035,0.00000004,-0.00013261,0.00000004,0.,0.00000323,-0.00000001,-
 0.00000001,0.00002417,0.00000002,0.,-0.00006305,0.00000008,0.00000010,
 0.00014482,0.02463995,-0.00696308,0.00194409,-0.02463018,0.00695902,0.
 00196238,-0.00011291,0.00004268,0.04700957,-0.00315179,-0.00276343,0.0
 0000024,0.00157252,0.00371110,0.00000069,0.00296238,-0.00359466,0.0000
 0298,-0.00810092,0.02517140,-0.00000303,-0.01310408,0.00100648,0.00000
 411,0.00383900,-0.00378427,-0.00000193,-0.00055769,-0.00011522,-0.0000
 0007,0.03568071,0.01239613,-0.00000753,-0.00258432,0.00453329,0.000003
 32,-0.20941734,-0.19982005,0.00001356,0.00157209,-0.00592308,0.0000215
 1,-0.00144817,-0.00086432,-0.00000042,-0.00014736,-0.00006930,0.000000
 04,-0.00045215,-0.00023673,-0.00000003,0.00009061,-0.00003925,-0.00000
 007,0.00051389,0.00042029,-0.00001199,0.00051412,0.00041994,0.00001157
 ,0.00005110,-0.00054586,-0.00000009,0.18740580,-0.00252287,-0.00148551
 ,-0.00000076,0.00261030,0.00219438,0.00000146,0.00102813,-0.00285520,-
 0.00000046,0.00528215,0.01661042,-0.00000045,-0.00989998,0.00197183,0.
 00000118,0.00207111,-0.00480058,0.00000032,-0.00004689,0.00131390,0.00
 000012,-0.00970043,-0.04521986,-0.00000441,0.00288814,-0.00029496,-0.0
 0000310,-0.16704622,-0.26893080,0.00000137,0.00388701,-0.01547053,-0.0
 0000266,-0.00227270,-0.00060887,-0.00000029,-0.00021769,-0.00004478,0.
 ,-0.00041031,-0.00007849,-0.00000004,0.00010207,-0.00021123,-0.0000001
 1,-0.00028963,-0.00057417,0.00024331,-0.00028931,-0.00057346,-0.000243
 18,0.00006754,-0.00001835,0.00000009,0.17542565,0.32021009,0.00000045,
 0.00000061,0.00023462,-0.00000060,-0.00000063,0.00024424,-0.00000062,0
 .00000090,0.00053844,-0.00000050,-0.00000401,-0.00048763,0.00000239,0.
 00000121,-0.00221091,-0.00000136,0.00000111,-0.00112322,0.00000041,0.0
 0000006,-0.00015926,-0.00001394,-0.00000840,-0.00181923,0.00000442,-0.
 00000329,0.01194576,0.00002082,0.00000713,-0.02615831,0.00001658,-0.00
 000977,-0.00134711,0.00000038,0.00000033,-0.00010509,0.00000001,0.0000
 0002,0.00011363,0.00000028,0.00000003,0.00000104,-0.00000005,0.,0.0001
 0066,0.00101406,0.00147949,-0.00072758,-0.00101524,-0.00147884,-0.0007
 2759,-0.00000023,0.00000024,-0.00020383,-0.00001750,0.00000710,0.02332
 821,0.00054532,0.00031057,0.00000120,-0.00056097,-0.00127692,-0.000001
 20,0.00012335,0.00495617,0.00000135,0.01719699,0.01971092,0.00003027,-
 0.00022980,0.00420945,-0.00000035,0.00020832,0.00102186,-0.00000157,-0
 .00030606,0.00004112,-0.00000014,-0.00271938,0.00223953,0.00000164,0.0
 0011104,-0.00016200,-0.00000091,-0.00314793,-0.00354992,0.00000357,-0.
 23918934,-0.25239223,-0.00040729,-0.00018346,-0.00002846,0.00000032,-0
 .00008074,-0.00012385,-0.00000035,-0.00143866,-0.00071113,0.00000057,0
 .00003281,0.00007182,-0.00000008,0.00003622,-0.00006941,0.00000283,0.0
 0003630,-0.00006927,-0.00000280,0.00008382,0.00004166,0.,0.00495368,-0
 .00077339,-0.00000977,0.22467127,0.00114306,0.00116116,-0.00000080,0.0
 0053029,-0.00289333,0.00000470,-0.00322175,0.00556018,0.00000037,-0.02
 314903,-0.03386904,-0.00003408,0.00634805,-0.00163121,-0.00000539,-0.0
 0308372,-0.00058706,0.00000176,0.00092536,0.00042798,0.00000026,-0.000
 84055,-0.00038496,0.00000061,0.00006463,0.00040015,0.00000019,0.003157
 90,0.00265242,-0.00000302,-0.20318148,-0.32193601,-0.00043440,-0.00122
 927,0.00062871,-0.00000058,0.00009954,0.00006608,-0.00000024,0.0013407
 3,0.00028108,-0.00000333,-0.00007983,-0.00029020,-0.00000008,0.0000670
 0,-0.00001506,-0.00004201,0.00006710,-0.00001513,0.00004193,-0.0000135
 3,0.00001830,0.,-0.00566387,-0.00147288,0.00000681,0.22631814,0.351811
 21,-0.00000062,-0.00000112,-0.00001202,-0.00000079,0.00000175,-0.00105
 375,0.00000138,0.00000130,-0.00133512,0.00000036,0.00003567,-0.0039114
 6,-0.00000987,0.00000581,0.00296495,0.00000337,0.00000124,0.00142661,-
 0.00000027,0.00000177,0.00000646,0.00000192,-0.00000418,-0.00079531,-0
 .00000025,-0.00000061,-0.00041410,0.00001274,0.00000662,0.00107407,-0.
 00037650,-0.00051589,-0.00117652,-0.00000089,0.00000065,0.00018059,-0.
 00000004,0.00000017,0.00005707,0.00000206,-0.00000129,0.00097412,0.000
 00020,0.00000030,0.00002837,-0.00005410,-0.00009506,0.00003299,0.00005
 356,0.00009540,0.00003297,0.00000003,0.00000002,0.00003633,-0.00001540
 ,0.00000047,-0.00149266,0.00038285,0.00046716,0.00326364,-0.00461988,0
 .00387922,0.00000029,-0.02788714,-0.04431296,-0.00000571,0.00423585,-0
 .00110668,-0.00000028,-0.00199731,-0.00023028,0.00000051,0.00187215,0.
 00034539,-0.00000025,-0.00094826,-0.00221958,-0.00000060,-0.00016600,0
 .00074030,0.00000017,-0.00173568,0.00059350,0.00000029,0.00008288,0.00
 021469,0.00000012,0.00062715,-0.00071243,-0.00000023,0.00107681,-0.000
 91263,0.00000004,-0.13477728,-0.15815017,-0.00002340,0.00007580,0.0000
 6385,0.00000008,-0.00041855,0.00171451,-0.00000041,0.00000952,-0.00009
 995,-0.00000004,0.00006167,-0.00003166,-0.00002581,0.00006166,-0.00003
 169,0.00002573,0.00002023,0.00002462,0.,-0.00019208,0.00010731,0.00000
 004,-0.00014276,0.00040123,0.00000026,0.16476122,0.00336095,0.00230533
 ,-0.00000002,0.00655716,0.00456552,0.00000097,0.00545025,0.00208697,0.
 00000016,-0.00090564,-0.00090568,-0.00000003,0.00206404,-0.00022247,-0
 .00000028,-0.00216594,0.00072530,-0.00000008,0.00035016,0.00018437,0.0
 0000013,-0.00201243,0.00048379,0.00000037,-0.00000047,0.00025413,0.000
 00014,0.00054879,-0.00112117,-0.00000026,-0.00000603,-0.00033542,0.000
 00027,-0.21376795,-0.41953693,-0.00005497,0.00021255,0.00040775,0.0000
 0018,-0.00016351,-0.00073529,0.00000046,0.00001809,-0.00010666,-0.0000
 0002,0.00008114,-0.00003338,-0.00002841,0.00008113,-0.00003342,0.00002
 833,0.00000321,-0.00000302,0.,0.00033577,0.00033903,-0.00000010,0.0002
 3532,0.00008761,-0.00000018,0.19972341,0.41159363,-0.00000036,-0.00000
 035,0.00410639,0.00000071,-0.00000003,-0.00446216,0.00000048,-0.000000
 41,-0.00176729,0.00000004,-0.00000032,-0.00126534,0.00000032,0.0000001
 2,-0.00021470,-0.00000016,-0.00000051,0.00317892,0.00000008,0.00000022
 ,-0.00100425,-0.00000027,0.00000007,0.00011118,-0.00000003,0.00000007,
 -0.00015318,0.00000013,-0.00000014,0.00003890,0.00000017,0.00000015,0.
 00020305,-0.00003006,-0.00005290,-0.00643834,0.00000005,0.00000022,-0.
 00077361,-0.00000026,0.00000034,0.00086142,-0.00000001,-0.00000005,0.0
 0019595,-0.00003228,0.00000968,0.00002727,0.00003231,-0.00000970,0.000
 02726,0.,0.,0.00001469,0.00000005,0.00000004,0.00005584,-0.00000014,0.
 00000014,0.00011279,0.00002922,0.00005336,0.00714521\\0.00001559,0.000
 01043,0.00000034,0.00000242,-0.00001297,0.00000015,0.00000347,-0.00000
 390,-0.00000093,-0.00000914,0.00002361,0.00000316,-0.00001215,-0.00002
 454,0.00000054,-0.00002593,0.00000547,-0.00000067,-0.00001664,-0.00001
 750,-0.00000042,0.00003185,0.00001146,0.00000152,-0.00000765,-0.000027
 28,0.00000036,-0.00001344,0.00003558,-0.00000122,-0.00000710,0.0000120
 6,-0.00000684,0.00002462,0.00000485,-0.00000013,-0.00000833,-0.0000001
 3,-0.00000008,0.00000079,-0.00000009,-0.00000061,-0.00000284,-0.000006
 48,0.00000013,-0.00000534,0.00000469,0.00000244,-0.00000479,0.00000441
 ,-0.00000272,0.00000400,-0.00000767,0.00000006,0.00001073,-0.00002214,
 0.00000061,0.00000407,0.00000555,0.00000419,0.00001580,0.00000459,0.00
 000011\\\@


      HUMANKIND PERIODICALLY GOES THROUGH A SPEEDUP OF ITS AFFAIRS, 
      THEREBY EXPERIENCING THE RACE BETWEEN THE RENEWABLE VITALITY
      OF THE LIVING, AND THE BECKONING VITIATION OF DECADENCE.
      IN THIS PERIODIC RACE, ANY PAUSE BECOMES A LUXURY.
      ONLY THEN CAN ONE REFLECT THAT ALL IS PERMITTED;
      ALL IS POSSIBLE.

                              -- THE APOCRYPHA OF MUAD'DIB
                                 CHILDREN OF DUNE, BY FRANK HERBERT
 Job cpu time:       0 days  8 hours 13 minutes 48.3 seconds.
 File lengths (MBytes):  RWF=  29189 Int=      0 D2E=      0 Chk=      9 Scr=      1
 Normal termination of Gaussian 09 at Sun Dec 15 23:36:40 2024.
