 Entering Gaussian System, Link 0=g09
 Input=b3lypTHAPgd3.gjf
 Output=b3lypTHAPgd3.log
 Initial command:
 /home/phzd/g09E/g09/l1.exe "/home/phzd/g09E/scratch/Gau-81238.inp" -scrdir="/home/phzd/g09E/scratch/"
 Default is to use a total of  18 processors:
                               18 via shared-memory
                                1 via Linda
 Entering Link 1 = /home/phzd/g09E/g09/l1.exe PID=     81240.
  
 Copyright (c) 1988,1990,1992,1993,1995,1998,2003,2009,2015,
            Gaussian, Inc.  All Rights Reserved.
  
 This is part of the Gaussian(R) 09 program.  It is based on
 the Gaussian(R) 03 system (copyright 2003, Gaussian, Inc.),
 the Gaussian(R) 98 system (copyright 1998, Gaussian, Inc.),
 the Gaussian(R) 94 system (copyright 1995, Gaussian, Inc.),
 the Gaussian 92(TM) system (copyright 1992, Gaussian, Inc.),
 the Gaussian 90(TM) system (copyright 1990, Gaussian, Inc.),
 the Gaussian 88(TM) system (copyright 1988, Gaussian, Inc.),
 the Gaussian 86(TM) system (copyright 1986, Carnegie Mellon
 University), and the Gaussian 82(TM) system (copyright 1983,
 Carnegie Mellon University). Gaussian is a federally registered
 trademark of Gaussian, Inc.
  
 This software contains proprietary and confidential information,
 including trade secrets, belonging to Gaussian, Inc.
  
 This software is provided under written license and may be
 used, copied, transmitted, or stored only in accord with that
 written license.
  
 The following legend is applicable only to US Government
 contracts under FAR:
  
                    RESTRICTED RIGHTS LEGEND
  
 Use, reproduction and disclosure by the US Government is
 subject to restrictions as set forth in subparagraphs (a)
 and (c) of the Commercial Computer Software - Restricted
 Rights clause in FAR 52.227-19.
  
 Gaussian, Inc.
 340 Quinnipiac St., Bldg. 40, Wallingford CT 06492
  
  
 ---------------------------------------------------------------
 Warning -- This program may not be used in any manner that
 competes with the business of Gaussian, Inc. or will provide
 assistance to any competitor of Gaussian, Inc.  The licensee
 of this program is prohibited from giving any competitor of
 Gaussian, Inc. access to this program.  By using this program,
 the user acknowledges that Gaussian, Inc. is engaged in the
 business of creating and licensing software in the field of
 computational chemistry and represents and warrants to the
 licensee that it is not a competitor of Gaussian, Inc. and that
 it will not use this program in any manner prohibited above.
 ---------------------------------------------------------------
  

 Cite this work as:
 Gaussian 09, Revision E.01,
 M. J. Frisch, G. W. Trucks, H. B. Schlegel, G. E. Scuseria, 
 M. A. Robb, J. R. Cheeseman, G. Scalmani, V. Barone, B. Mennucci, 
 G. A. Petersson, H. Nakatsuji, M. Caricato, X. Li, H. P. Hratchian, 
 A. F. Izmaylov, J. Bloino, G. Zheng, J. L. Sonnenberg, M. Hada, 
 M. Ehara, K. Toyota, R. Fukuda, J. Hasegawa, M. Ishida, T. Nakajima, 
 Y. Honda, O. Kitao, H. Nakai, T. Vreven, J. A. Montgomery, Jr., 
 J. E. Peralta, F. Ogliaro, M. Bearpark, J. J. Heyd, E. Brothers, 
 K. N. Kudin, V. N. Staroverov, T. Keith, R. Kobayashi, J. Normand, 
 K. Raghavachari, A. Rendell, J. C. Burant, S. S. Iyengar, J. Tomasi, 
 M. Cossi, N. Rega, J. M. Millam, M. Klene, J. E. Knox, J. B. Cross, 
 V. Bakken, C. Adamo, J. Jaramillo, R. Gomperts, R. E. Stratmann, 
 O. Yazyev, A. J. Austin, R. Cammi, C. Pomelli, J. W. Ochterski, 
 R. L. Martin, K. Morokuma, V. G. Zakrzewski, G. A. Voth, 
 P. Salvador, J. J. Dannenberg, S. Dapprich, A. D. Daniels, 
 O. Farkas, J. B. Foresman, J. V. Ortiz, J. Cioslowski, 
 and D. J. Fox, Gaussian, Inc., Wallingford CT, 2013.
 
 ******************************************
 Gaussian 09:  ES64L-G09RevE.01 30-Nov-2015
                20-Jun-2024 
 ******************************************
 %chk=b3lypTHAPgd3.chk
 ----------------------------
 # opt freq b3lyp/6-31+g(d,p)
 ----------------------------
 1/14=-1,18=20,19=15,26=3,38=1/1,3;
 2/9=110,12=2,17=6,18=5,40=1/2;
 3/5=1,6=6,7=111,11=2,16=1,25=1,30=1,71=1,74=-5/1,2,3;
 4//1;
 5/5=2,38=5/2;
 6/7=2,8=2,9=2,10=2,28=1/1;
 7//1,2,3,16;
 1/14=-1,18=20,19=15,26=3/3(2);
 2/9=110/2;
 99//99;
 2/9=110/2;
 3/5=1,6=6,7=111,11=2,16=1,25=1,30=1,71=1,74=-5/1,2,3;
 4/5=5,16=3,69=1/1;
 5/5=2,38=5/2;
 7//1,2,3,16;
 1/14=-1,18=20,19=15,26=3/3(-5);
 2/9=110/2;
 6/7=2,8=2,9=2,10=2,19=2,28=1/1;
 99/9=1/99;
 ----------
 [No Title]
 ----------
 Symbolic Z-matrix:
 Charge =  0 Multiplicity = 1
 C                    -1.82584  -0.03105   0.00083 
 C                    -1.85211  -1.36671   0.00113 
 C                    -0.65911  -1.96835   0.00116 
 C                     0.51401  -1.30798   0.00117 
 C                     0.51723   0.05527   0.00078 
 C                    -0.68696   0.68373   0.00068 
 O                    -0.86555   2.03037   0.00027 
 C                     1.70532   0.74791   0.00066 
 C                     1.92486   2.26542   0.00052 
 O                     2.78297   0.18987   0.00067 
 O                     1.60668  -2.13157   0.00098 
 O                    -3.01293  -2.07401   0.00105 
 H                    -2.79433   0.49842   0.00065 
 H                    -0.64991  -3.07255   0.00118 
 H                    -1.81039   2.25202  -0.00009 
 H                     1.06518   2.95216   0.00208 
 H                     2.52209   2.54632   0.899 
 H                     2.51981   2.54655  -0.8994 
 H                     2.4779   -1.72335  -0.0034 
 H                    -2.80728  -3.02284  -0.00014 
 

 GradGradGradGradGradGradGradGradGradGradGradGradGradGradGradGradGradGrad
 Berny optimization.
 Initialization pass.
                           ----------------------------
                           !    Initial Parameters    !
                           ! (Angstroms and Degrees)  !
 --------------------------                            --------------------------
 ! Name  Definition              Value          Derivative Info.                !
 --------------------------------------------------------------------------------
 ! R1    R(1,2)                  1.3359         estimate D2E/DX2                !
 ! R2    R(1,6)                  1.3446         estimate D2E/DX2                !
 ! R3    R(1,13)                 1.1038         estimate D2E/DX2                !
 ! R4    R(2,3)                  1.3361         estimate D2E/DX2                !
 ! R5    R(2,12)                 1.3593         estimate D2E/DX2                !
 ! R6    R(3,4)                  1.3462         estimate D2E/DX2                !
 ! R7    R(3,14)                 1.1042         estimate D2E/DX2                !
 ! R8    R(4,5)                  1.3633         estimate D2E/DX2                !
 ! R9    R(4,11)                 1.3683         estimate D2E/DX2                !
 ! R10   R(5,6)                  1.3583         estimate D2E/DX2                !
 ! R11   R(5,8)                  1.3752         estimate D2E/DX2                !
 ! R12   R(6,7)                  1.3584         estimate D2E/DX2                !
 ! R13   R(7,15)                 0.9705         estimate D2E/DX2                !
 ! R14   R(8,9)                  1.5333         estimate D2E/DX2                !
 ! R15   R(8,10)                 1.2136         estimate D2E/DX2                !
 ! R16   R(9,16)                 1.1003         estimate D2E/DX2                !
 ! R17   R(9,17)                 1.1148         estimate D2E/DX2                !
 ! R18   R(9,18)                 1.1148         estimate D2E/DX2                !
 ! R19   R(11,19)                0.9621         estimate D2E/DX2                !
 ! R20   R(12,20)                0.9709         estimate D2E/DX2                !
 ! A1    A(2,1,6)              123.2394         estimate D2E/DX2                !
 ! A2    A(2,1,13)             117.5383         estimate D2E/DX2                !
 ! A3    A(6,1,13)             119.2223         estimate D2E/DX2                !
 ! A4    A(1,2,3)              115.6354         estimate D2E/DX2                !
 ! A5    A(1,2,12)             122.4815         estimate D2E/DX2                !
 ! A6    A(3,2,12)             121.8831         estimate D2E/DX2                !
 ! A7    A(2,3,4)              123.8619         estimate D2E/DX2                !
 ! A8    A(2,3,14)             117.2397         estimate D2E/DX2                !
 ! A9    A(4,3,14)             118.8984         estimate D2E/DX2                !
 ! A10   A(3,4,5)              119.5111         estimate D2E/DX2                !
 ! A11   A(3,4,11)             113.6174         estimate D2E/DX2                !
 ! A12   A(5,4,11)             126.8715         estimate D2E/DX2                !
 ! A13   A(4,5,6)              117.4246         estimate D2E/DX2                !
 ! A14   A(4,5,8)              120.3766         estimate D2E/DX2                !
 ! A15   A(6,5,8)              122.1988         estimate D2E/DX2                !
 ! A16   A(1,6,5)              120.3276         estimate D2E/DX2                !
 ! A17   A(1,6,7)              114.5581         estimate D2E/DX2                !
 ! A18   A(5,6,7)              125.1143         estimate D2E/DX2                !
 ! A19   A(6,7,15)             110.7566         estimate D2E/DX2                !
 ! A20   A(5,8,9)              128.4731         estimate D2E/DX2                !
 ! A21   A(5,8,10)             122.3823         estimate D2E/DX2                !
 ! A22   A(9,8,10)             109.1446         estimate D2E/DX2                !
 ! A23   A(8,9,16)             120.3875         estimate D2E/DX2                !
 ! A24   A(8,9,17)             109.0259         estimate D2E/DX2                !
 ! A25   A(8,9,18)             109.0293         estimate D2E/DX2                !
 ! A26   A(16,9,17)            105.0797         estimate D2E/DX2                !
 ! A27   A(16,9,18)            105.1127         estimate D2E/DX2                !
 ! A28   A(17,9,18)            107.5253         estimate D2E/DX2                !
 ! A29   A(4,11,19)            117.8872         estimate D2E/DX2                !
 ! A30   A(2,12,20)            109.1258         estimate D2E/DX2                !
 ! D1    D(6,1,2,3)             -0.0057         estimate D2E/DX2                !
 ! D2    D(6,1,2,12)          -179.9881         estimate D2E/DX2                !
 ! D3    D(13,1,2,3)           179.9905         estimate D2E/DX2                !
 ! D4    D(13,1,2,12)            0.008          estimate D2E/DX2                !
 ! D5    D(2,1,6,5)              0.0021         estimate D2E/DX2                !
 ! D6    D(2,1,6,7)            179.995          estimate D2E/DX2                !
 ! D7    D(13,1,6,5)          -179.9941         estimate D2E/DX2                !
 ! D8    D(13,1,6,7)            -0.0011         estimate D2E/DX2                !
 ! D9    D(1,2,3,4)              0.0138         estimate D2E/DX2                !
 ! D10   D(1,2,3,14)          -179.9873         estimate D2E/DX2                !
 ! D11   D(12,2,3,4)           179.9964         estimate D2E/DX2                !
 ! D12   D(12,2,3,14)           -0.0047         estimate D2E/DX2                !
 ! D13   D(1,2,12,20)          179.9091         estimate D2E/DX2                !
 ! D14   D(3,2,12,20)           -0.0723         estimate D2E/DX2                !
 ! D15   D(2,3,4,5)             -0.018          estimate D2E/DX2                !
 ! D16   D(2,3,4,11)          -179.9904         estimate D2E/DX2                !
 ! D17   D(14,3,4,5)           179.9831         estimate D2E/DX2                !
 ! D18   D(14,3,4,11)            0.0107         estimate D2E/DX2                !
 ! D19   D(3,4,5,6)              0.0131         estimate D2E/DX2                !
 ! D20   D(3,4,5,8)           -179.9939         estimate D2E/DX2                !
 ! D21   D(11,4,5,6)           179.9814         estimate D2E/DX2                !
 ! D22   D(11,4,5,8)            -0.0256         estimate D2E/DX2                !
 ! D23   D(3,4,11,19)          179.7052         estimate D2E/DX2                !
 ! D24   D(5,4,11,19)           -0.2647         estimate D2E/DX2                !
 ! D25   D(4,5,6,1)             -0.0056         estimate D2E/DX2                !
 ! D26   D(4,5,6,7)           -179.9978         estimate D2E/DX2                !
 ! D27   D(8,5,6,1)           -179.9985         estimate D2E/DX2                !
 ! D28   D(8,5,6,7)              0.0093         estimate D2E/DX2                !
 ! D29   D(4,5,8,9)           -179.9868         estimate D2E/DX2                !
 ! D30   D(4,5,8,10)             0.0117         estimate D2E/DX2                !
 ! D31   D(6,5,8,9)              0.0059         estimate D2E/DX2                !
 ! D32   D(6,5,8,10)          -179.9957         estimate D2E/DX2                !
 ! D33   D(1,6,7,15)            -0.0151         estimate D2E/DX2                !
 ! D34   D(5,6,7,15)           179.9775         estimate D2E/DX2                !
 ! D35   D(5,8,9,16)             0.0946         estimate D2E/DX2                !
 ! D36   D(5,8,9,17)           121.5095         estimate D2E/DX2                !
 ! D37   D(5,8,9,18)          -121.3694         estimate D2E/DX2                !
 ! D38   D(10,8,9,16)         -179.904          estimate D2E/DX2                !
 ! D39   D(10,8,9,17)          -58.4891         estimate D2E/DX2                !
 ! D40   D(10,8,9,18)           58.6321         estimate D2E/DX2                !
 --------------------------------------------------------------------------------
 Trust Radius=3.00D-01 FncErr=1.00D-07 GrdErr=1.00D-06
 Number of steps in this run=    100 maximum allowed number of steps=    120.
 GradGradGradGradGradGradGradGradGradGradGradGradGradGradGradGradGradGrad

                          Input orientation:                          
 ---------------------------------------------------------------------
 Center     Atomic      Atomic             Coordinates (Angstroms)
 Number     Number       Type             X           Y           Z
 ---------------------------------------------------------------------
      1          6           0       -1.825842   -0.031045    0.000833
      2          6           0       -1.852114   -1.366710    0.001134
      3          6           0       -0.659108   -1.968353    0.001155
      4          6           0        0.514013   -1.307983    0.001165
      5          6           0        0.517229    0.055270    0.000780
      6          6           0       -0.686955    0.683726    0.000676
      7          8           0       -0.865548    2.030371    0.000265
      8          6           0        1.705322    0.747907    0.000657
      9          6           0        1.924855    2.265422    0.000519
     10          8           0        2.782972    0.189872    0.000672
     11          8           0        1.606679   -2.131566    0.000976
     12          8           0       -3.012925   -2.074013    0.001052
     13          1           0       -2.794329    0.498420    0.000645
     14          1           0       -0.649906   -3.072552    0.001183
     15          1           0       -1.810385    2.252017   -0.000087
     16          1           0        1.065184    2.952159    0.002076
     17          1           0        2.522093    2.546319    0.899000
     18          1           0        2.519813    2.546548   -0.899397
     19          1           0        2.477900   -1.723348   -0.003403
     20          1           0       -2.807281   -3.022835   -0.000142
 ---------------------------------------------------------------------
                    Distance matrix (angstroms):
                    1          2          3          4          5
     1  C    0.000000
     2  C    1.335923   0.000000
     3  C    2.261511   1.336128   0.000000
     4  C    2.665613   2.366856   1.346217   0.000000
     5  C    2.344660   2.763298   2.340688   1.363257   0.000000
     6  C    1.344604   2.358365   2.652225   2.325775   1.358314
     7  O    2.274115   3.537439   4.004049   3.612173   2.411036
     8  C    3.616059   4.138473   3.601194   2.376110   1.375249
     9  C    4.397896   5.240027   4.960012   3.841835   2.620340
    10  O    4.614106   4.889475   4.062739   2.718776   2.269738
    11  O    4.024225   3.542351   2.271658   1.368287   2.443185
    12  O    2.362813   1.359323   2.356187   3.609168   4.122600
    13  H    1.103766   2.089612   3.262536   3.769379   3.341077
    14  H    3.260919   2.086912   1.104237   2.113862   3.338484
    15  H    2.283115   3.618968   4.374581   4.251638   3.200544
    16  H    4.154219   5.211838   5.213887   4.295649   2.948257
    17  H    5.133619   5.937310   5.595394   4.437808   3.321386
    18  H    5.132165   5.936185   5.594717   4.437528   3.320712
    19  H    4.624511   4.344679   3.146564   2.007337   2.647212
    20  H    3.148655   1.911830   2.393028   3.737875   4.530684
                    6          7          8          9         10
     6  C    0.000000
     7  O    1.358436   0.000000
     8  C    2.393138   2.872993   0.000000
     9  C    3.053410   2.800285   1.533312   0.000000
    10  O    3.504894   4.086458   1.213562   2.245946   0.000000
    11  O    3.631339   4.840829   2.881162   4.408485   2.602449
    12  O    3.607667   4.632191   5.497735   6.573611   6.222347
    13  H    2.115505   2.463142   4.506562   5.039146   5.585829
    14  H    3.756461   5.107477   4.488096   5.926497   4.735827
    15  H    1.929153   0.970486   3.823943   3.735264   5.035015
    16  H    2.866318   2.139491   2.295323   1.100293   3.252849
    17  H    3.817621   3.542603   2.169890   1.114838   2.535329
    18  H    3.816228   3.540692   2.169931   1.114834   2.536395
    19  H    3.976220   5.026834   2.589207   4.026929   1.937394
    20  H    4.270173   5.413429   5.880653   7.096392   6.447667
                   11         12         13         14         15
    11  O    0.000000
    12  O    4.619962   0.000000
    13  H    5.126958   2.581704   0.000000
    14  H    2.444919   2.565334   4.165380   0.000000
    15  H    5.558069   4.490060   2.010783   5.449564   0.000000
    16  H    5.112483   6.472509   4.573475   6.264078   2.959578
    17  H    4.850468   7.265687   5.767606   6.514550   4.434562
    18  H    4.850694   7.264405   5.765849   6.514019   4.432395
    19  H    0.962126   5.502013   5.721247   3.406397   5.847472
    20  H    4.503044   0.970852   3.521279   2.157948   5.368227
                   16         17         18         19         20
    16  H    0.000000
    17  H    1.758341   0.000000
    18  H    1.758727   1.798398   0.000000
    19  H    4.884277   4.364211   4.363092   0.000000
    20  H    7.120151   7.760552   7.759163   5.442593   0.000000
 Stoichiometry    C8H8O4
 Framework group  C1[X(C8H8O4)]
 Deg. of freedom    54
 Full point group                 C1      NOp   1
 Largest Abelian subgroup         C1      NOp   1
 Largest concise Abelian subgroup C1      NOp   1
                         Standard orientation:                         
 ---------------------------------------------------------------------
 Center     Atomic      Atomic             Coordinates (Angstroms)
 Number     Number       Type             X           Y           Z
 ---------------------------------------------------------------------
      1          6           0       -1.417456   -1.207583   -0.000093
      2          6           0       -2.203751   -0.127568   -0.000394
      3          6           0       -1.570134    1.048768   -0.000415
      4          6           0       -0.230235    1.179046   -0.000425
      5          6           0        0.552953    0.063213   -0.000040
      6          6           0       -0.074476   -1.141507    0.000064
      7          8           0        0.550146   -2.347822    0.000475
      8          6           0        1.923602    0.175609    0.000083
      9          6           0        2.972465   -0.942842    0.000221
     10          8           0        2.487611    1.250144    0.000068
     11          8           0        0.194041    2.479891   -0.000236
     12          8           0       -3.560430   -0.212320   -0.000312
     13          1           0       -1.908325   -2.196192    0.000095
     14          1           0       -2.194816    1.959324   -0.000443
     15          1           0       -0.097581   -3.070522    0.000827
     16          1           0        2.660857   -1.998088   -0.001336
     17          1           0        3.622947   -0.831180   -0.898260
     18          1           0        3.621209   -0.832673    0.900137
     19          1           0        1.142051    2.644041    0.004143
     20          1           0       -3.935093    0.683325    0.000882
 ---------------------------------------------------------------------
 Rotational constants (GHZ):      1.5847502      0.7959447      0.5316510
 Standard basis: 6-31+G(d,p) (6D, 7F)
 There are   268 symmetry adapted cartesian basis functions of A   symmetry.
 There are   268 symmetry adapted basis functions of A   symmetry.
   268 basis functions,   440 primitive gaussians,   268 cartesian basis functions
    44 alpha electrons       44 beta electrons
       nuclear repulsion energy       709.7631201583 Hartrees.
 NAtoms=   20 NActive=   20 NUniq=   20 SFac= 1.00D+00 NAtFMM=   60 NAOKFM=F Big=F
 Integral buffers will be    131072 words long.
 Raffenetti 2 integral format.
 Two-electron integral symmetry is turned on.
 One-electron integrals computed using PRISM.
 NBasis=   268 RedAO= T EigKep=  1.14D-06  NBF=   268
 NBsUse=   268 1.00D-06 EigRej= -1.00D+00 NBFU=   268
 ExpMin= 4.38D-02 ExpMax= 5.48D+03 ExpMxC= 8.25D+02 IAcc=2 IRadAn=         4 AccDes= 0.00D+00
 Harris functional with IExCor=  402 and IRadAn=       4 diagonalized for initial guess.
 HarFok:  IExCor=  402 AccDes= 0.00D+00 IRadAn=         4 IDoV= 1 UseB2=F ITyADJ=14
 ICtDFT=  3500011 ScaDFX=  1.000000  1.000000  1.000000  1.000000
 FoFCou: FMM=F IPFlag=           0 FMFlag=      100000 FMFlg1=           0
         NFxFlg=           0 DoJE=T BraDBF=F KetDBF=T FulRan=T
         wScrn=  0.000000 ICntrl=     500 IOpCl=  0 I1Cent=   200000004 NGrid=           0
         NMat0=    1 NMatS0=      1 NMatT0=    0 NMatD0=    1 NMtDS0=    0 NMtDT0=    0
 Petite list used in FoFCou.
 Keep R1 ints in memory in canonical form, NReq=659648347.
 Requested convergence on RMS density matrix=1.00D-08 within 128 cycles.
 Requested convergence on MAX density matrix=1.00D-06.
 Requested convergence on             energy=1.00D-06.
 No special actions if energy rises.
 SCF Done:  E(RB3LYP) =  -610.563747853     A.U. after   17 cycles
            NFock= 17  Conv=0.41D-08     -V/T= 2.0073

 **********************************************************************

            Population analysis using the SCF density.

 **********************************************************************

 Orbital symmetries:
       Occupied  (A) (A) (A) (A) (A) (A) (A) (A) (A) (A) (A) (A)
                 (A) (A) (A) (A) (A) (A) (A) (A) (A) (A) (A) (A)
                 (A) (A) (A) (A) (A) (A) (A) (A) (A) (A) (A) (A)
                 (A) (A) (A) (A) (A) (A) (A) (A)
       Virtual   (A) (A) (A) (A) (A) (A) (A) (A) (A) (A) (A) (A)
                 (A) (A) (A) (A) (A) (A) (A) (A) (A) (A) (A) (A)
                 (A) (A) (A) (A) (A) (A) (A) (A) (A) (A) (A) (A)
                 (A) (A) (A) (A) (A) (A) (A) (A) (A) (A) (A) (A)
                 (A) (A) (A) (A) (A) (A) (A) (A) (A) (A) (A) (A)
                 (A) (A) (A) (A) (A) (A) (A) (A) (A) (A) (A) (A)
                 (A) (A) (A) (A) (A) (A) (A) (A) (A) (A) (A) (A)
                 (A) (A) (A) (A) (A) (A) (A) (A) (A) (A) (A) (A)
                 (A) (A) (A) (A) (A) (A) (A) (A) (A) (A) (A) (A)
                 (A) (A) (A) (A) (A) (A) (A) (A) (A) (A) (A) (A)
                 (A) (A) (A) (A) (A) (A) (A) (A) (A) (A) (A) (A)
                 (A) (A) (A) (A) (A) (A) (A) (A) (A) (A) (A) (A)
                 (A) (A) (A) (A) (A) (A) (A) (A) (A) (A) (A) (A)
                 (A) (A) (A) (A) (A) (A) (A) (A) (A) (A) (A) (A)
                 (A) (A) (A) (A) (A) (A) (A) (A) (A) (A) (A) (A)
                 (A) (A) (A) (A) (A) (A) (A) (A) (A) (A) (A) (A)
                 (A) (A) (A) (A) (A) (A) (A) (A) (A) (A) (A) (A)
                 (A) (A) (A) (A) (A) (A) (A) (A) (A) (A) (A) (A)
                 (A) (A) (A) (A) (A) (A) (A) (A)
 The electronic state is 1-A.
 Alpha  occ. eigenvalues --  -19.21439 -19.20958 -19.18497 -19.13600 -10.27816
 Alpha  occ. eigenvalues --  -10.27508 -10.27480 -10.27198 -10.20033 -10.19474
 Alpha  occ. eigenvalues --  -10.19041 -10.18067  -1.09746  -1.09387  -1.07273
 Alpha  occ. eigenvalues --   -1.04660  -0.90316  -0.80820  -0.77528  -0.72334
 Alpha  occ. eigenvalues --   -0.67722  -0.66069  -0.61778  -0.59324  -0.54151
 Alpha  occ. eigenvalues --   -0.54035  -0.51649  -0.49149  -0.47563  -0.45056
 Alpha  occ. eigenvalues --   -0.43772  -0.43056  -0.41767  -0.41417  -0.41050
 Alpha  occ. eigenvalues --   -0.40557  -0.38619  -0.37432  -0.35559  -0.35230
 Alpha  occ. eigenvalues --   -0.31928  -0.25992  -0.25393  -0.24391
 Alpha virt. eigenvalues --   -0.05819  -0.01632  -0.01115  -0.00779   0.01648
 Alpha virt. eigenvalues --    0.02947   0.03590   0.03787   0.04456   0.04848
 Alpha virt. eigenvalues --    0.05259   0.06528   0.07657   0.08578   0.09000
 Alpha virt. eigenvalues --    0.10063   0.10223   0.10676   0.12540   0.12594
 Alpha virt. eigenvalues --    0.13007   0.13353   0.14301   0.14937   0.15060
 Alpha virt. eigenvalues --    0.15982   0.16181   0.16923   0.17100   0.18403
 Alpha virt. eigenvalues --    0.19673   0.20170   0.20330   0.20464   0.20947
 Alpha virt. eigenvalues --    0.21510   0.21955   0.22310   0.23498   0.24283
 Alpha virt. eigenvalues --    0.25283   0.25975   0.26510   0.27381   0.28494
 Alpha virt. eigenvalues --    0.28640   0.28883   0.29313   0.30018   0.30767
 Alpha virt. eigenvalues --    0.31008   0.31847   0.32113   0.32632   0.32752
 Alpha virt. eigenvalues --    0.33253   0.33733   0.34845   0.35505   0.37501
 Alpha virt. eigenvalues --    0.37907   0.39477   0.40747   0.41547   0.43812
 Alpha virt. eigenvalues --    0.46159   0.47394   0.49920   0.50697   0.57499
 Alpha virt. eigenvalues --    0.64353   0.66146   0.66695   0.67099   0.69469
 Alpha virt. eigenvalues --    0.71173   0.71803   0.71993   0.73082   0.73558
 Alpha virt. eigenvalues --    0.74817   0.77308   0.77718   0.78578   0.79107
 Alpha virt. eigenvalues --    0.83377   0.84923   0.87025   0.89252   0.89463
 Alpha virt. eigenvalues --    0.95015   0.95773   0.99128   1.01402   1.04643
 Alpha virt. eigenvalues --    1.05678   1.07835   1.09111   1.11068   1.12344
 Alpha virt. eigenvalues --    1.13746   1.16158   1.16592   1.17354   1.18026
 Alpha virt. eigenvalues --    1.18673   1.19371   1.20493   1.20857   1.22247
 Alpha virt. eigenvalues --    1.24224   1.26130   1.26455   1.26856   1.28218
 Alpha virt. eigenvalues --    1.31364   1.31435   1.32471   1.35675   1.36898
 Alpha virt. eigenvalues --    1.37817   1.37896   1.39835   1.40154   1.42199
 Alpha virt. eigenvalues --    1.44191   1.45087   1.48618   1.52319   1.52429
 Alpha virt. eigenvalues --    1.57118   1.58303   1.60667   1.61496   1.69179
 Alpha virt. eigenvalues --    1.70736   1.72263   1.74549   1.78974   1.80743
 Alpha virt. eigenvalues --    1.83783   1.87030   1.87573   1.88400   1.88775
 Alpha virt. eigenvalues --    1.90819   1.91460   1.92239   1.96086   1.98362
 Alpha virt. eigenvalues --    1.99391   2.03571   2.05445   2.06362   2.08470
 Alpha virt. eigenvalues --    2.09723   2.10823   2.14387   2.16037   2.17709
 Alpha virt. eigenvalues --    2.20893   2.24091   2.26227   2.27095   2.31734
 Alpha virt. eigenvalues --    2.34789   2.34882   2.38199   2.38391   2.40051
 Alpha virt. eigenvalues --    2.43253   2.44618   2.48753   2.49721   2.49781
 Alpha virt. eigenvalues --    2.53902   2.54270   2.55736   2.58360   2.61578
 Alpha virt. eigenvalues --    2.62269   2.63836   2.67040   2.67746   2.70979
 Alpha virt. eigenvalues --    2.71884   2.74542   2.75187   2.76185   2.82509
 Alpha virt. eigenvalues --    2.82709   2.84970   2.85507   2.87432   2.94168
 Alpha virt. eigenvalues --    2.98330   3.03067   3.06543   3.16614   3.18144
 Alpha virt. eigenvalues --    3.19989   3.27220   3.29156   3.31440   3.41046
 Alpha virt. eigenvalues --    3.43109   3.44487   3.51689   3.53606   3.56436
 Alpha virt. eigenvalues --    3.64079   3.85279   4.23018   4.26397   4.30309
 Alpha virt. eigenvalues --    4.41276   4.45851   4.48107   4.50297   4.55529
 Alpha virt. eigenvalues --    4.68234   4.72664   4.82691   5.06959
          Condensed to atoms (all electrons):
               1          2          3          4          5          6
     1  C   17.061054  -3.809722   0.767234  -4.656860  -1.301203  -5.235555
     2  C   -3.809722   9.232028  -3.011443   3.973179  -2.742838   3.962314
     3  C    0.767234  -3.011443  18.055480  -7.358807   0.115984  -3.752138
     4  C   -4.656860   3.973179  -7.358807  21.183995  -5.412691   1.400984
     5  C   -1.301203  -2.742838   0.115984  -5.412691  22.051292  -5.566012
     6  C   -5.235555   3.962314  -3.752138   1.400984  -5.566012  20.267700
     7  O    0.313934   0.010814  -0.026295   0.065151  -0.414643  -0.013330
     8  C    2.098256  -1.015843   0.911574  -1.901503  -4.161510  -2.345587
     9  C   -0.308116   0.132161  -0.708130  -0.148108   0.509000   0.013470
    10  O    0.021345  -0.006313  -0.099679   0.058375  -0.301223  -0.123118
    11  O    0.010830   0.046602  -0.459806   0.265619   0.136146   0.003653
    12  O   -0.208304   0.004220   0.178252  -0.043592  -0.015069  -0.001217
    13  H    0.047655   0.154253   0.090571  -0.066982   0.025062   0.060447
    14  H    0.008950  -0.009655   0.023686   0.250220   0.045972  -0.012525
    15  H   -0.174927   0.028657   0.001130   0.009568   0.197927  -0.068050
    16  H   -0.019032   0.001748  -0.008693  -0.003160   0.128478   0.012692
    17  H    0.007557  -0.000123  -0.003247  -0.029571   0.007346   0.041771
    18  H    0.007586  -0.000124  -0.003241  -0.029515   0.007193   0.041816
    19  H    0.006377  -0.009583   0.207379   0.069373  -0.225724  -0.064850
    20  H    0.137546  -0.023522  -0.110443   0.022022   0.024413  -0.041198
               7          8          9         10         11         12
     1  C    0.313934   2.098256  -0.308116   0.021345   0.010830  -0.208304
     2  C    0.010814  -1.015843   0.132161  -0.006313   0.046602   0.004220
     3  C   -0.026295   0.911574  -0.708130  -0.099679  -0.459806   0.178252
     4  C    0.065151  -1.901503  -0.148108   0.058375   0.265619  -0.043592
     5  C   -0.414643  -4.161510   0.509000  -0.301223   0.136146  -0.015069
     6  C   -0.013330  -2.345587   0.013470  -0.123118   0.003653  -0.001217
     7  O    8.547183  -0.029263  -0.047429   0.000437  -0.000388  -0.000802
     8  C   -0.029263  13.561100  -1.734172   0.560883  -0.105882   0.004813
     9  C   -0.047429  -1.734172   7.403979  -0.066008  -0.008793  -0.001681
    10  O    0.000437   0.560883  -0.066008   8.447686  -0.029027  -0.000057
    11  O   -0.000388  -0.105882  -0.008793  -0.029027   8.535306  -0.000714
    12  O   -0.000802   0.004813  -0.001681  -0.000057  -0.000714   8.461542
    13  H   -0.033230   0.010236  -0.000362   0.000029   0.000152  -0.009175
    14  H    0.000078   0.013522   0.001013   0.000199  -0.014312  -0.023824
    15  H    0.191643   0.004581   0.009444   0.000004   0.000043  -0.000141
    16  H   -0.017612  -0.265564   0.510200   0.009920   0.000156   0.000001
    17  H    0.000466  -0.105835   0.446265  -0.008989   0.000029  -0.000000
    18  H    0.000453  -0.105623   0.446058  -0.008977   0.000032  -0.000000
    19  H   -0.000028   0.033407  -0.009455   0.048350   0.193971   0.000033
    20  H    0.000044   0.003889   0.000045   0.000002  -0.000128   0.197141
              13         14         15         16         17         18
     1  C    0.047655   0.008950  -0.174927  -0.019032   0.007557   0.007586
     2  C    0.154253  -0.009655   0.028657   0.001748  -0.000123  -0.000124
     3  C    0.090571   0.023686   0.001130  -0.008693  -0.003247  -0.003241
     4  C   -0.066982   0.250220   0.009568  -0.003160  -0.029571  -0.029515
     5  C    0.025062   0.045972   0.197927   0.128478   0.007346   0.007193
     6  C    0.060447  -0.012525  -0.068050   0.012692   0.041771   0.041816
     7  O   -0.033230   0.000078   0.191643  -0.017612   0.000466   0.000453
     8  C    0.010236   0.013522   0.004581  -0.265564  -0.105835  -0.105623
     9  C   -0.000362   0.001013   0.009444   0.510200   0.446265   0.446058
    10  O    0.000029   0.000199   0.000004   0.009920  -0.008989  -0.008977
    11  O    0.000152  -0.014312   0.000043   0.000156   0.000029   0.000032
    12  O   -0.009175  -0.023824  -0.000141   0.000001  -0.000000  -0.000000
    13  H    0.604021  -0.000274   0.014410  -0.000017   0.000000   0.000000
    14  H   -0.000274   0.595974  -0.000001  -0.000000  -0.000000  -0.000000
    15  H    0.014410  -0.000001   0.406353   0.000971  -0.000033  -0.000033
    16  H   -0.000017  -0.000000   0.000971   0.541742  -0.030895  -0.030833
    17  H    0.000000  -0.000000  -0.000033  -0.030895   0.524573  -0.018039
    18  H    0.000000  -0.000000  -0.000033  -0.030833  -0.018039   0.524543
    19  H   -0.000000   0.000118   0.000000  -0.000017   0.000001   0.000000
    20  H   -0.000150   0.010909   0.000001  -0.000000  -0.000000  -0.000000
              19         20
     1  C    0.006377   0.137546
     2  C   -0.009583  -0.023522
     3  C    0.207379  -0.110443
     4  C    0.069373   0.022022
     5  C   -0.225724   0.024413
     6  C   -0.064850  -0.041198
     7  O   -0.000028   0.000044
     8  C    0.033407   0.003889
     9  C   -0.009455   0.000045
    10  O    0.048350   0.000002
    11  O    0.193971  -0.000128
    12  O    0.000033   0.197141
    13  H   -0.000000  -0.000150
    14  H    0.000118   0.010909
    15  H    0.000000   0.000001
    16  H   -0.000017  -0.000000
    17  H    0.000001  -0.000000
    18  H    0.000000  -0.000000
    19  H    0.335843   0.000000
    20  H    0.000000   0.418886
 Mulliken charges:
               1
     1  C    1.225395
     2  C   -0.916811
     3  C    1.190633
     4  C   -1.647697
     5  C    2.892100
     6  C   -2.581268
     7  O   -0.547184
     8  C    0.568523
     9  C   -0.439380
    10  O   -0.503840
    11  O   -0.573487
    12  O   -0.541427
    13  H    0.103354
    14  H    0.109950
    15  H    0.378454
    16  H    0.169912
    17  H    0.168723
    18  H    0.168702
    19  H    0.414805
    20  H    0.360543
 Sum of Mulliken charges =  -0.00000
 Mulliken charges with hydrogens summed into heavy atoms:
               1
     1  C    1.328749
     2  C   -0.916811
     3  C    1.300583
     4  C   -1.647697
     5  C    2.892100
     6  C   -2.581268
     7  O   -0.168730
     8  C    0.568523
     9  C    0.067958
    10  O   -0.503840
    11  O   -0.158682
    12  O   -0.180884
 Electronic spatial extent (au):  <R**2>=           2014.9889
 Charge=             -0.0000 electrons
 Dipole moment (field-independent basis, Debye):
    X=             -2.6801    Y=             -2.1812    Z=              0.0092  Tot=              3.4556
 Quadrupole moment (field-independent basis, Debye-Ang):
   XX=            -69.7170   YY=            -65.0012   ZZ=            -70.8516
   XY=             -6.4871   XZ=              0.0011   YZ=              0.0212
 Traceless Quadrupole moment (field-independent basis, Debye-Ang):
   XX=             -1.1937   YY=              3.5221   ZZ=             -2.3283
   XY=             -6.4871   XZ=              0.0011   YZ=              0.0212
 Octapole moment (field-independent basis, Debye-Ang**2):
  XXX=            -34.3115  YYY=            -30.6617  ZZZ=              0.0084  XYY=            -14.3559
  XXY=             17.2082  XXZ=              0.0425  XZZ=              4.3957  YZZ=              1.4890
  YYZ=              0.0714  XYZ=              0.0269
 Hexadecapole moment (field-independent basis, Debye-Ang**3):
 XXXX=          -1615.9791 YYYY=           -725.1348 ZZZZ=            -80.7307 XXXY=           -157.9085
 XXXZ=             -0.2249 YYYX=             57.5633 YYYZ=              0.1791 ZZZX=             -0.0661
 ZZZY=              0.0327 XXYY=           -401.9433 XXZZ=           -289.5143 YYZZ=           -159.4943
 XXYZ=              0.0626 YYXZ=              0.0460 ZZXY=              2.4345
 N-N= 7.097631201583D+02 E-N=-2.846264068844D+03  KE= 6.061670079543D+02
 Calling FoFJK, ICntrl=      2127 FMM=F ISym2X=0 I1Cent= 0 IOpClX= 0 NMat=1 NMatS=1 NMatT=0.
 ***** Axes restored to original set *****
 -------------------------------------------------------------------
 Center     Atomic                   Forces (Hartrees/Bohr)
 Number     Number              X              Y              Z
 -------------------------------------------------------------------
      1        6          -0.078148135    0.039042165    0.000005546
      2        6          -0.025844697   -0.026986752   -0.000001163
      3        6           0.007010849   -0.086990020    0.000055696
      4        6           0.043434356   -0.045879593   -0.000116414
      5        6           0.003055976    0.018620738    0.000002861
      6        6          -0.040238529    0.033049644   -0.000008496
      7        8           0.012713355    0.016889122   -0.000012059
      8        6           0.049598844    0.071354896    0.000008189
      9        6          -0.008259274    0.030451717    0.000065643
     10        8           0.045285998   -0.041910465   -0.000061647
     11        8          -0.018859663   -0.011087510    0.000034311
     12        8          -0.003917500    0.002542732   -0.000014517
     13        1           0.007718641   -0.003374010    0.000001295
     14        1           0.006435475    0.009198921   -0.000004017
     15        1           0.005087321   -0.005119353    0.000006012
     16        1           0.001581246   -0.010665707   -0.000045928
     17        1          -0.002916434   -0.008600756   -0.010842283
     18        1          -0.002926101   -0.008568020    0.010832165
     19        1           0.000683577    0.024105841    0.000074978
     20        1          -0.001495305    0.003926411    0.000019828
 -------------------------------------------------------------------
 Cartesian Forces:  Max     0.086990020 RMS     0.025287900

 GradGradGradGradGradGradGradGradGradGradGradGradGradGradGradGradGradGrad
 Berny optimization.
 FormGI is forming the generalized inverse of G from B-inverse, IUseBI=4.
 Internal  Forces:  Max     0.087306676 RMS     0.021902258
 Search for a local minimum.
 Step number   1 out of a maximum of  100
 All quantities printed in internal units (Hartrees-Bohrs-Radians)
 Mixed Optimization -- RFO/linear search
 Second derivative matrix not updated -- first step.
 ITU=  0
     Eigenvalues ---    0.00325   0.01276   0.02111   0.02230   0.02242
     Eigenvalues ---    0.02416   0.02552   0.02577   0.02619   0.02657
     Eigenvalues ---    0.02783   0.02792   0.02863   0.02878   0.02916
     Eigenvalues ---    0.05881   0.07224   0.16000   0.16000   0.16000
     Eigenvalues ---    0.16000   0.16000   0.16000   0.16000   0.16000
     Eigenvalues ---    0.23441   0.23476   0.25000   0.25000   0.25000
     Eigenvalues ---    0.25000   0.25000   0.25000   0.25000   0.29120
     Eigenvalues ---    0.32093   0.32093   0.33218   0.33269   0.33650
     Eigenvalues ---    0.48801   0.49243   0.49981   0.51307   0.53085
     Eigenvalues ---    0.53203   0.53265   0.53278   0.53729   0.55019
     Eigenvalues ---    0.56007   0.56393   0.57757   0.98294
 RFO step:  Lambda=-7.98289459D-02 EMin= 3.25289903D-03
 Linear search not attempted -- first point.
 Maximum step size (   0.300) exceeded in Quadratic search.
    -- Step size scaled by   0.727
 Iteration  1 RMS(Cart)=  0.07111338 RMS(Int)=  0.00314559
 Iteration  2 RMS(Cart)=  0.00350579 RMS(Int)=  0.00004173
 Iteration  3 RMS(Cart)=  0.00001440 RMS(Int)=  0.00004090
 Iteration  4 RMS(Cart)=  0.00000000 RMS(Int)=  0.00004090
 Variable       Old X    -DE/DX   Delta X   Delta X   Delta X     New X
                                 (Linear)    (Quad)   (Total)
    R1        2.52453   0.06638   0.00000   0.07376   0.07375   2.59828
    R2        2.54093   0.05909   0.00000   0.06742   0.06741   2.60835
    R3        2.08582  -0.00839   0.00000  -0.01479  -0.01479   2.07103
    R4        2.52492   0.06679   0.00000   0.07379   0.07380   2.59871
    R5        2.56875   0.00126   0.00000   0.00150   0.00150   2.57025
    R6        2.54398   0.04859   0.00000   0.05493   0.05494   2.59892
    R7        2.08671  -0.00915   0.00000  -0.01614  -0.01614   2.07056
    R8        2.57618   0.06441   0.00000   0.07688   0.07689   2.65307
    R9        2.58569  -0.02235   0.00000  -0.02741  -0.02741   2.55827
   R10        2.56684   0.07076   0.00000   0.08367   0.08366   2.65050
   R11        2.59884   0.08731   0.00000   0.10953   0.10953   2.70837
   R12        2.56707   0.00933   0.00000   0.01108   0.01108   2.57815
   R13        1.83395  -0.00612   0.00000  -0.00727  -0.00727   1.82668
   R14        2.89754   0.00079   0.00000   0.00155   0.00155   2.89909
   R15        2.29330   0.05949   0.00000   0.04070   0.04070   2.33400
   R16        2.07925  -0.00790   0.00000  -0.01379  -0.01379   2.06546
   R17        2.10674  -0.01247   0.00000  -0.02262  -0.02262   2.08412
   R18        2.10673  -0.01247   0.00000  -0.02262  -0.02262   2.08411
   R19        1.81816   0.01084   0.00000   0.01252   0.01252   1.83067
   R20        1.83464  -0.00416   0.00000  -0.00494  -0.00494   1.82970
    A1        2.15093  -0.01160   0.00000  -0.02454  -0.02456   2.12638
    A2        2.05143   0.00658   0.00000   0.01463   0.01463   2.06606
    A3        2.08082   0.00503   0.00000   0.00992   0.00992   2.09075
    A4        2.01822   0.01654   0.00000   0.03958   0.03957   2.05779
    A5        2.13771  -0.01957   0.00000  -0.04471  -0.04471   2.09300
    A6        2.12726   0.00303   0.00000   0.00513   0.00513   2.13239
    A7        2.16180  -0.01701   0.00000  -0.04042  -0.04041   2.12139
    A8        2.04622   0.01530   0.00000   0.04080   0.04080   2.08702
    A9        2.07517   0.00172   0.00000  -0.00038  -0.00038   2.07478
   A10        2.08586   0.01503   0.00000   0.03180   0.03181   2.11768
   A11        1.98300   0.01135   0.00000   0.02570   0.02569   2.00869
   A12        2.21433  -0.02638   0.00000  -0.05750  -0.05750   2.15682
   A13        2.04945  -0.00655   0.00000  -0.01558  -0.01557   2.03387
   A14        2.10097  -0.01546   0.00000  -0.03353  -0.03353   2.06744
   A15        2.13277   0.02202   0.00000   0.04911   0.04910   2.18188
   A16        2.10011   0.00360   0.00000   0.00917   0.00915   2.10927
   A17        1.99942   0.01934   0.00000   0.04202   0.04203   2.04144
   A18        2.18366  -0.02294   0.00000  -0.05119  -0.05118   2.13247
   A19        1.93307  -0.00701   0.00000  -0.02124  -0.02124   1.91183
   A20        2.24228  -0.01146   0.00000  -0.02526  -0.02526   2.21702
   A21        2.13597  -0.01307   0.00000  -0.02882  -0.02882   2.10716
   A22        1.90493   0.02453   0.00000   0.05408   0.05408   1.95901
   A23        2.10116  -0.00640   0.00000  -0.01732  -0.01738   2.08378
   A24        1.90286  -0.00493   0.00000  -0.01589  -0.01604   1.88682
   A25        1.90292  -0.00490   0.00000  -0.01583  -0.01598   1.88694
   A26        1.83399   0.00810   0.00000   0.02648   0.02643   1.86042
   A27        1.83456   0.00804   0.00000   0.02625   0.02620   1.86077
   A28        1.87667   0.00144   0.00000  -0.00031  -0.00056   1.87611
   A29        2.05752  -0.03916   0.00000  -0.11873  -0.11873   1.93879
   A30        1.90460   0.00116   0.00000   0.00352   0.00352   1.90812
    D1       -0.00010   0.00000   0.00000   0.00004   0.00004  -0.00006
    D2       -3.14139  -0.00001   0.00000  -0.00004  -0.00004  -3.14143
    D3        3.14143   0.00000   0.00000   0.00002   0.00002   3.14145
    D4        0.00014  -0.00001   0.00000  -0.00006  -0.00006   0.00008
    D5        0.00004  -0.00000   0.00000  -0.00001  -0.00001   0.00002
    D6        3.14151  -0.00001   0.00000  -0.00006  -0.00006   3.14145
    D7       -3.14149  -0.00000   0.00000   0.00000   0.00001  -3.14148
    D8       -0.00002  -0.00001   0.00000  -0.00004  -0.00004  -0.00006
    D9        0.00024  -0.00000   0.00000  -0.00003  -0.00004   0.00021
   D10       -3.14137  -0.00001   0.00000  -0.00010  -0.00010  -3.14147
   D11        3.14153   0.00000   0.00000   0.00004   0.00004   3.14157
   D12       -0.00008  -0.00000   0.00000  -0.00002  -0.00003  -0.00011
   D13        3.14001   0.00002   0.00000   0.00014   0.00014   3.14014
   D14       -0.00126   0.00001   0.00000   0.00004   0.00004  -0.00122
   D15       -0.00031  -0.00000   0.00000  -0.00001  -0.00000  -0.00032
   D16       -3.14142  -0.00004   0.00000  -0.00029  -0.00030   3.14146
   D17        3.14130   0.00001   0.00000   0.00006   0.00006   3.14136
   D18        0.00019  -0.00003   0.00000  -0.00023  -0.00024  -0.00005
   D19        0.00023   0.00001   0.00000   0.00004   0.00004   0.00027
   D20       -3.14149   0.00002   0.00000   0.00015   0.00015  -3.14134
   D21        3.14127   0.00006   0.00000   0.00040   0.00039  -3.14152
   D22       -0.00045   0.00008   0.00000   0.00051   0.00050   0.00005
   D23        3.13645   0.00017   0.00000   0.00117   0.00117   3.13762
   D24       -0.00462   0.00011   0.00000   0.00083   0.00083  -0.00379
   D25       -0.00010  -0.00000   0.00000  -0.00003  -0.00003  -0.00012
   D26       -3.14156   0.00000   0.00000   0.00002   0.00002  -3.14154
   D27       -3.14157  -0.00002   0.00000  -0.00013  -0.00013   3.14149
   D28        0.00016  -0.00001   0.00000  -0.00009  -0.00009   0.00007
   D29       -3.14136   0.00002   0.00000   0.00012   0.00013  -3.14124
   D30        0.00020   0.00004   0.00000   0.00031   0.00031   0.00051
   D31        0.00010   0.00003   0.00000   0.00023   0.00024   0.00034
   D32       -3.14152   0.00006   0.00000   0.00042   0.00042  -3.14110
   D33       -0.00026   0.00000   0.00000   0.00004   0.00004  -0.00022
   D34        3.14120   0.00000   0.00000  -0.00000  -0.00000   3.14120
   D35        0.00165  -0.00001   0.00000   0.00001   0.00001   0.00166
   D36        2.12074   0.00193   0.00000   0.00928   0.00919   2.12993
   D37       -2.11829  -0.00189   0.00000  -0.00898  -0.00889  -2.12719
   D38       -3.13992  -0.00003   0.00000  -0.00016  -0.00016  -3.14008
   D39       -1.02083   0.00191   0.00000   0.00912   0.00902  -1.01180
   D40        1.02332  -0.00191   0.00000  -0.00915  -0.00906   1.01426
         Item               Value     Threshold  Converged?
 Maximum Force            0.087307     0.000450     NO 
 RMS     Force            0.021902     0.000300     NO 
 Maximum Displacement     0.399350     0.001800     NO 
 RMS     Displacement     0.071366     0.001200     NO 
 Predicted change in Energy=-4.054872D-02
 GradGradGradGradGradGradGradGradGradGradGradGradGradGradGradGradGradGrad

                          Input orientation:                          
 ---------------------------------------------------------------------
 Center     Atomic      Atomic             Coordinates (Angstroms)
 Number     Number       Type             X           Y           Z
 ---------------------------------------------------------------------
      1          6           0       -1.908603   -0.042302    0.000823
      2          6           0       -1.888167   -1.417102    0.001035
      3          6           0       -0.663431   -2.042515    0.001036
      4          6           0        0.510420   -1.325927    0.001072
      5          6           0        0.508741    0.078017    0.000728
      6          6           0       -0.746876    0.703055    0.000685
      7          8           0       -0.882802    2.060564    0.000302
      8          6           0        1.767985    0.762411    0.000470
      9          6           0        1.994797    2.279685    0.000518
     10          8           0        2.829494    0.131005    0.000006
     11          8           0        1.639210   -2.073291    0.001234
     12          8           0       -3.056796   -2.112961    0.000974
     13          1           0       -2.880492    0.464173    0.000684
     14          1           0       -0.615141   -3.137146    0.001088
     15          1           0       -1.821451    2.291496   -0.000020
     16          1           0        1.132263    2.951003    0.002352
     17          1           0        2.595627    2.536412    0.889007
     18          1           0        2.592778    2.537017   -0.889713
     19          1           0        2.428792   -1.512021   -0.002342
     20          1           0       -2.864681   -3.061947   -0.000180
 ---------------------------------------------------------------------
                    Distance matrix (angstroms):
                    1          2          3          4          5
     1  C    0.000000
     2  C    1.374951   0.000000
     3  C    2.356121   1.375180   0.000000
     4  C    2.738497   2.400319   1.375291   0.000000
     5  C    2.420337   2.824986   2.422941   1.403944   0.000000
     6  C    1.380278   2.407822   2.746838   2.386956   1.402586
     7  O    2.339726   3.620072   4.108939   3.661883   2.422166
     8  C    3.763624   4.256492   3.712060   2.437750   1.433210
     9  C    4.541823   5.361310   5.074208   3.899206   2.656258
    10  O    4.741266   4.965175   4.113966   2.738751   2.321358
    11  O    4.088018   3.587893   2.302847   1.353780   2.430243
    12  O    2.367694   1.360116   2.394402   3.653006   4.184906
    13  H    1.095940   2.126947   3.346467   3.834415   3.411161
    14  H    3.354266   2.139894   1.095695   2.132464   3.405933
    15  H    2.335425   3.709198   4.486052   4.303879   3.213921
    16  H    4.266936   5.310682   5.306575   4.321900   2.939870
    17  H    5.265617   6.043440   5.690037   4.478189   3.344823
    18  H    5.263875   6.042132   5.689327   4.477951   3.344066
    19  H    4.579638   4.318004   3.137400   1.927380   2.492955
    20  H    3.167387   1.912877   2.425850   3.795402   4.608617
                    6          7          8          9         10
     6  C    0.000000
     7  O    1.364298   0.000000
     8  C    2.515562   2.951588   0.000000
     9  C    3.162678   2.885930   1.534133   0.000000
    10  O    3.621832   4.183819   1.235101   2.305113   0.000000
    11  O    3.660806   4.842448   2.838624   4.367475   2.505134
    12  O    3.642208   4.705802   5.616608   6.694321   6.299508
    13  H    2.146947   2.557192   4.658034   5.202358   5.719698
    14  H    3.842459   5.204597   4.570102   6.012806   4.748297
    15  H    1.917774   0.966640   3.901558   3.816267   5.128257
    16  H    2.929921   2.203037   2.279053   1.092995   3.291351
    17  H    3.914414   3.621559   2.149783   1.102868   2.575073
    18  H    3.912738   3.619225   2.149869   1.102865   2.576146
    19  H    3.871878   4.871347   2.368483   3.816463   1.691184
    20  H    4.319762   5.492538   6.007272   7.221327   6.528291
                   11         12         13         14         15
    11  O    0.000000
    12  O    4.696174   0.000000
    13  H    5.183283   2.583158   0.000000
    14  H    2.492767   2.647760   4.254563   0.000000
    15  H    5.570237   4.574421   2.112032   5.561055   0.000000
    16  H    5.049805   6.572059   4.720861   6.333955   3.026447
    17  H    4.790849   7.372595   5.922091   6.579262   4.512308
    18  H    4.791452   7.371113   5.919981   6.578784   4.509684
    19  H    0.968750   5.518407   5.665143   3.450590   5.703623
    20  H    4.611126   0.968237   3.526156   2.250797   5.454144
                   16         17         18         19         20
    16  H    0.000000
    17  H    1.760533   0.000000
    18  H    1.760758   1.778722   0.000000
    19  H    4.647537   4.148752   4.148377   0.000000
    20  H    7.220190   7.870657   7.869151   5.515717   0.000000
 Stoichiometry    C8H8O4
 Framework group  C1[X(C8H8O4)]
 Deg. of freedom    54
 Full point group                 C1      NOp   1
 Largest Abelian subgroup         C1      NOp   1
 Largest concise Abelian subgroup C1      NOp   1
                         Standard orientation:                         
 ---------------------------------------------------------------------
 Center     Atomic      Atomic             Coordinates (Angstroms)
 Number     Number       Type             X           Y           Z
 ---------------------------------------------------------------------
      1          6           0       -1.507067   -1.224569   -0.000151
      2          6           0       -2.258792   -0.073309   -0.000363
      3          6           0       -1.593050    1.129982   -0.000363
      4          6           0       -0.219167    1.192181   -0.000399
      5          6           0        0.564404    0.027245   -0.000055
      6          6           0       -0.127150   -1.193001   -0.000012
      7          8           0        0.519157   -2.394498    0.000370
      8          6           0        1.991087    0.163880    0.000203
      9          6           0        3.027462   -0.967265    0.000155
     10          8           0        2.518147    1.280877    0.000667
     11          8           0        0.298842    2.442935   -0.000561
     12          8           0       -3.616756   -0.149774   -0.000301
     13          1           0       -2.029674   -2.187879   -0.000011
     14          1           0       -2.165037    2.064531   -0.000415
     15          1           0       -0.129952   -3.110773    0.000693
     16          1           0        2.687686   -2.006104   -0.001679
     17          1           0        3.669145   -0.844184   -0.888334
     18          1           0        3.667121   -0.846278    0.890386
     19          1           0        1.267291    2.419057    0.003015
     20          1           0       -3.988066    0.744436    0.000853
 ---------------------------------------------------------------------
 Rotational constants (GHZ):      1.5559201      0.7653430      0.5146678
 Standard basis: 6-31+G(d,p) (6D, 7F)
 There are   268 symmetry adapted cartesian basis functions of A   symmetry.
 There are   268 symmetry adapted basis functions of A   symmetry.
   268 basis functions,   440 primitive gaussians,   268 cartesian basis functions
    44 alpha electrons       44 beta electrons
       nuclear repulsion energy       699.4041509369 Hartrees.
 NAtoms=   20 NActive=   20 NUniq=   20 SFac= 1.00D+00 NAtFMM=   60 NAOKFM=F Big=F
 Integral buffers will be    131072 words long.
 Raffenetti 2 integral format.
 Two-electron integral symmetry is turned on.
 One-electron integrals computed using PRISM.
 NBasis=   268 RedAO= T EigKep=  1.42D-06  NBF=   268
 NBsUse=   268 1.00D-06 EigRej= -1.00D+00 NBFU=   268
 Initial guess from the checkpoint file:  "b3lypTHAPgd3.chk"
 B after Tr=    -0.000000    0.000000   -0.000000
         Rot=    0.999966   -0.000009    0.000012    0.008256 Ang=  -0.95 deg.
 ExpMin= 4.38D-02 ExpMax= 5.48D+03 ExpMxC= 8.25D+02 IAcc=2 IRadAn=         4 AccDes= 0.00D+00
 Harris functional with IExCor=  402 and IRadAn=       4 diagonalized for initial guess.
 HarFok:  IExCor=  402 AccDes= 0.00D+00 IRadAn=         4 IDoV= 1 UseB2=F ITyADJ=14
 ICtDFT=  3500011 ScaDFX=  1.000000  1.000000  1.000000  1.000000
 FoFCou: FMM=F IPFlag=           0 FMFlag=      100000 FMFlg1=           0
         NFxFlg=           0 DoJE=T BraDBF=F KetDBF=T FulRan=T
         wScrn=  0.000000 ICntrl=     500 IOpCl=  0 I1Cent=   200000004 NGrid=           0
         NMat0=    1 NMatS0=      1 NMatT0=    0 NMatD0=    1 NMtDS0=    0 NMtDT0=    0
 Petite list used in FoFCou.
 Keep R1 ints in memory in canonical form, NReq=659648347.
 Requested convergence on RMS density matrix=1.00D-08 within 128 cycles.
 Requested convergence on MAX density matrix=1.00D-06.
 Requested convergence on             energy=1.00D-06.
 No special actions if energy rises.
 SCF Done:  E(RB3LYP) =  -610.602977757     A.U. after   13 cycles
            NFock= 13  Conv=0.98D-08     -V/T= 2.0086
 Calling FoFJK, ICntrl=      2127 FMM=F ISym2X=0 I1Cent= 0 IOpClX= 0 NMat=1 NMatS=1 NMatT=0.
 ***** Axes restored to original set *****
 -------------------------------------------------------------------
 Center     Atomic                   Forces (Hartrees/Bohr)
 Number     Number              X              Y              Z
 -------------------------------------------------------------------
      1        6          -0.029609318    0.018651884    0.000010030
      2        6           0.001232024   -0.009583661   -0.000009262
      3        6          -0.004747500   -0.034720746    0.000038884
      4        6           0.019951242   -0.020948144   -0.000047217
      5        6           0.001261349    0.014644227    0.000008036
      6        6          -0.018637173    0.005124452   -0.000008834
      7        8           0.008921183    0.003386494   -0.000004991
      8        6           0.018340941    0.031528016   -0.000007627
      9        6          -0.005125795    0.011335343    0.000061657
     10        8           0.016255126   -0.014501011   -0.000061488
     11        8          -0.020119261   -0.012667342   -0.000028204
     12        8          -0.000549490    0.003125870   -0.000012255
     13        1           0.004791554   -0.001965211    0.000000326
     14        1           0.003058487    0.005783327   -0.000001004
     15        1           0.000618960   -0.001358191    0.000003496
     16        1          -0.001943679   -0.008274141   -0.000026644
     17        1          -0.000080350   -0.004559949   -0.004942707
     18        1          -0.000090632   -0.004543792    0.004925177
     19        1           0.007351808    0.018327484    0.000086936
     20        1          -0.000879476    0.001215090    0.000015692
 -------------------------------------------------------------------
 Cartesian Forces:  Max     0.034720746 RMS     0.010973502

 GradGradGradGradGradGradGradGradGradGradGradGradGradGradGradGradGradGrad
 Berny optimization.
 Using GEDIIS/GDIIS optimizer.
 FormGI is forming the generalized inverse of G from B-inverse, IUseBI=4.
 Internal  Forces:  Max     0.029285759 RMS     0.008289434
 Search for a local minimum.
 Step number   2 out of a maximum of  100
 All quantities printed in internal units (Hartrees-Bohrs-Radians)
 Mixed Optimization -- RFO/linear search
 Update second derivatives using D2CorX and points    1    2
 DE= -3.92D-02 DEPred=-4.05D-02 R= 9.67D-01
 TightC=F SS=  1.41D+00  RLast= 3.01D-01 DXNew= 5.0454D-01 9.0166D-01
 Trust test= 9.67D-01 RLast= 3.01D-01 DXMaxT set to 5.05D-01
 ITU=  1  0
 Use linear search instead of GDIIS.
     Eigenvalues ---    0.00325   0.01237   0.02111   0.02230   0.02242
     Eigenvalues ---    0.02416   0.02554   0.02585   0.02622   0.02661
     Eigenvalues ---    0.02785   0.02793   0.02864   0.02878   0.02918
     Eigenvalues ---    0.06041   0.07435   0.15366   0.16000   0.16000
     Eigenvalues ---    0.16000   0.16000   0.16000   0.16000   0.16228
     Eigenvalues ---    0.22516   0.23526   0.24232   0.25000   0.25000
     Eigenvalues ---    0.25000   0.25000   0.25000   0.26915   0.29198
     Eigenvalues ---    0.32093   0.32133   0.33142   0.33252   0.33648
     Eigenvalues ---    0.47430   0.49533   0.50504   0.51254   0.53077
     Eigenvalues ---    0.53201   0.53273   0.53308   0.53701   0.53910
     Eigenvalues ---    0.56139   0.57580   0.63682   0.97819
 RFO step:  Lambda=-8.35657323D-03 EMin= 3.25289903D-03
 Quartic linear search produced a step of  0.64524.
 Iteration  1 RMS(Cart)=  0.08384278 RMS(Int)=  0.00433145
 Iteration  2 RMS(Cart)=  0.00499055 RMS(Int)=  0.00013787
 Iteration  3 RMS(Cart)=  0.00002458 RMS(Int)=  0.00013706
 Iteration  4 RMS(Cart)=  0.00000000 RMS(Int)=  0.00013706
 Variable       Old X    -DE/DX   Delta X   Delta X   Delta X     New X
                                 (Linear)    (Quad)   (Total)
    R1        2.59828   0.02234   0.04759   0.00075   0.04837   2.64665
    R2        2.60835   0.01337   0.04350  -0.01844   0.02505   2.63339
    R3        2.07103  -0.00516  -0.00954  -0.01187  -0.02141   2.04962
    R4        2.59871   0.01896   0.04762  -0.00790   0.03977   2.63848
    R5        2.57025  -0.00099   0.00097  -0.00427  -0.00330   2.56694
    R6        2.59892   0.01850   0.03545   0.00859   0.04405   2.64298
    R7        2.07056  -0.00564  -0.01042  -0.01307  -0.02348   2.04708
    R8        2.65307   0.02730   0.04961   0.02011   0.06968   2.72275
    R9        2.55827  -0.01377  -0.01769  -0.02035  -0.03803   2.52024
   R10        2.65050   0.01997   0.05398  -0.01008   0.04385   2.69436
   R11        2.70837   0.02929   0.07067   0.00251   0.07319   2.78156
   R12        2.57815   0.00107   0.00715  -0.00601   0.00113   2.57928
   R13        1.82668  -0.00093  -0.00469   0.00326  -0.00143   1.82526
   R14        2.89909  -0.00706   0.00100  -0.04003  -0.03903   2.86007
   R15        2.33400   0.02139   0.02626   0.00259   0.02886   2.36286
   R16        2.06546  -0.00355  -0.00890  -0.00485  -0.01375   2.05171
   R17        2.08412  -0.00509  -0.01460  -0.00547  -0.02006   2.06406
   R18        2.08411  -0.00508  -0.01459  -0.00546  -0.02005   2.06406
   R19        1.83067   0.01661   0.00808   0.03834   0.04642   1.87709
   R20        1.82970  -0.00137  -0.00319  -0.00003  -0.00322   1.82649
    A1        2.12638  -0.00662  -0.01585  -0.02515  -0.04097   2.08541
    A2        2.06606   0.00380   0.00944   0.01506   0.02449   2.09055
    A3        2.09075   0.00282   0.00640   0.01009   0.01648   2.10723
    A4        2.05779   0.00981   0.02554   0.02921   0.05483   2.11262
    A5        2.09300  -0.01123  -0.02885  -0.03209  -0.06098   2.03202
    A6        2.13239   0.00141   0.00331   0.00288   0.00615   2.13854
    A7        2.12139  -0.00826  -0.02608  -0.01643  -0.04244   2.07895
    A8        2.08702   0.00755   0.02632   0.02134   0.04763   2.13464
    A9        2.07478   0.00071  -0.00025  -0.00491  -0.00519   2.06960
   A10        2.11768   0.00336   0.02053  -0.00376   0.01674   2.13442
   A11        2.00869   0.00511   0.01658   0.00717   0.02376   2.03245
   A12        2.15682  -0.00846  -0.03710  -0.00341  -0.04050   2.11632
   A13        2.03387  -0.00324  -0.01005  -0.00572  -0.01586   2.01802
   A14        2.06744   0.00404  -0.02164   0.05573   0.03414   2.10158
   A15        2.18188  -0.00079   0.03168  -0.05001  -0.01828   2.16359
   A16        2.10927   0.00496   0.00591   0.02185   0.02769   2.13696
   A17        2.04144   0.00896   0.02712   0.01938   0.04653   2.08797
   A18        2.13247  -0.01392  -0.03303  -0.04123  -0.07422   2.05825
   A19        1.91183  -0.00213  -0.01371   0.00009  -0.01362   1.89821
   A20        2.21702  -0.01266  -0.01630  -0.05742  -0.07372   2.14330
   A21        2.10716   0.00148  -0.01860   0.03556   0.01697   2.12412
   A22        1.95901   0.01118   0.03489   0.02186   0.05675   2.01576
   A23        2.08378  -0.00878  -0.01121  -0.06422  -0.07597   2.00781
   A24        1.88682  -0.00204  -0.01035  -0.00580  -0.01667   1.87016
   A25        1.88694  -0.00203  -0.01031  -0.00592  -0.01675   1.87019
   A26        1.86042   0.00666   0.01706   0.04290   0.05944   1.91986
   A27        1.86077   0.00662   0.01691   0.04253   0.05890   1.91967
   A28        1.87611   0.00041  -0.00036  -0.00473  -0.00561   1.87050
   A29        1.93879  -0.01955  -0.07661  -0.07380  -0.15041   1.78838
   A30        1.90812   0.00114   0.00227   0.00768   0.00995   1.91807
    D1       -0.00006   0.00001   0.00003   0.00025   0.00027   0.00022
    D2       -3.14143  -0.00000  -0.00003  -0.00009  -0.00012  -3.14155
    D3        3.14145   0.00000   0.00001   0.00012   0.00014   3.14159
    D4        0.00008  -0.00001  -0.00004  -0.00022  -0.00026  -0.00018
    D5        0.00002  -0.00000  -0.00001  -0.00006  -0.00005  -0.00003
    D6        3.14145  -0.00001  -0.00004  -0.00029  -0.00033   3.14112
    D7       -3.14148   0.00000   0.00000   0.00007   0.00009  -3.14140
    D8       -0.00006  -0.00001  -0.00003  -0.00016  -0.00019  -0.00025
    D9        0.00021  -0.00000  -0.00002  -0.00011  -0.00015   0.00006
   D10       -3.14147  -0.00001  -0.00007  -0.00049  -0.00058   3.14113
   D11        3.14157   0.00001   0.00003   0.00023   0.00026  -3.14135
   D12       -0.00011  -0.00000  -0.00002  -0.00015  -0.00017  -0.00028
   D13        3.14014   0.00002   0.00009   0.00065   0.00073   3.14087
   D14       -0.00122   0.00001   0.00003   0.00029   0.00032  -0.00090
   D15       -0.00032  -0.00001  -0.00000  -0.00021  -0.00021  -0.00053
   D16        3.14146  -0.00004  -0.00020  -0.00119  -0.00141   3.14005
   D17        3.14136   0.00001   0.00004   0.00017   0.00021   3.14157
   D18       -0.00005  -0.00003  -0.00015  -0.00081  -0.00099  -0.00104
   D19        0.00027   0.00001   0.00003   0.00039   0.00042   0.00068
   D20       -3.14134   0.00002   0.00009   0.00090   0.00100  -3.14034
   D21       -3.14152   0.00005   0.00025   0.00145   0.00168  -3.13984
   D22        0.00005   0.00006   0.00032   0.00196   0.00226   0.00231
   D23        3.13762   0.00016   0.00075   0.00635   0.00709  -3.13848
   D24       -0.00379   0.00012   0.00054   0.00535   0.00590   0.00211
   D25       -0.00012  -0.00001  -0.00002  -0.00026  -0.00028  -0.00040
   D26       -3.14154  -0.00000   0.00001  -0.00002  -0.00002  -3.14156
   D27        3.14149  -0.00002  -0.00009  -0.00080  -0.00088   3.14060
   D28        0.00007  -0.00002  -0.00006  -0.00057  -0.00063  -0.00055
   D29       -3.14124   0.00002   0.00008   0.00071   0.00079  -3.14044
   D30        0.00051   0.00004   0.00020   0.00159   0.00177   0.00229
   D31        0.00034   0.00004   0.00015   0.00126   0.00142   0.00176
   D32       -3.14110   0.00005   0.00027   0.00214   0.00241  -3.13869
   D33       -0.00022   0.00001   0.00003   0.00021   0.00024   0.00001
   D34        3.14120  -0.00000  -0.00000  -0.00001  -0.00001   3.14118
   D35        0.00166  -0.00000   0.00001   0.00046   0.00048   0.00214
   D36        2.12993   0.00084   0.00593   0.00663   0.01255   2.14248
   D37       -2.12719  -0.00081  -0.00574  -0.00507  -0.01079  -2.13797
   D38       -3.14008  -0.00002  -0.00010  -0.00035  -0.00045  -3.14053
   D39       -1.01180   0.00083   0.00582   0.00582   0.01162  -1.00019
   D40        1.01426  -0.00082  -0.00585  -0.00588  -0.01171   1.00255
         Item               Value     Threshold  Converged?
 Maximum Force            0.029286     0.000450     NO 
 RMS     Force            0.008289     0.000300     NO 
 Maximum Displacement     0.301853     0.001800     NO 
 RMS     Displacement     0.084548     0.001200     NO 
 Predicted change in Energy=-9.802266D-03
 GradGradGradGradGradGradGradGradGradGradGradGradGradGradGradGradGradGrad

                          Input orientation:                          
 ---------------------------------------------------------------------
 Center     Atomic      Atomic             Coordinates (Angstroms)
 Number     Number       Type             X           Y           Z
 ---------------------------------------------------------------------
      1          6           0       -1.914837   -0.026099    0.000870
      2          6           0       -1.879592   -1.426204    0.000400
      3          6           0       -0.665609   -2.115908    0.000166
      4          6           0        0.529657   -1.389666    0.000479
      5          6           0        0.555064    0.050928    0.000393
      6          6           0       -0.719434    0.690100    0.000847
      7          8           0       -0.750283    2.054649    0.000745
      8          6           0        1.837422    0.773536   -0.000855
      9          6           0        1.927209    2.284351    0.000455
     10          8           0        2.932121    0.169344   -0.004298
     11          8           0        1.657359   -2.101647    0.002079
     12          8           0       -3.080422   -2.061161    0.000400
     13          1           0       -2.869473    0.488732    0.001038
     14          1           0       -0.614513   -3.197971    0.000228
     15          1           0       -1.671644    2.344522    0.000714
     16          1           0        0.972529    2.801415    0.004496
     17          1           0        2.511328    2.571560    0.877570
     18          1           0        2.504716    2.573509   -0.880393
     19          1           0        2.356455   -1.396006    0.005021
     20          1           0       -2.946387   -3.018357   -0.000595
 ---------------------------------------------------------------------
                    Distance matrix (angstroms):
                    1          2          3          4          5
     1  C    0.000000
     2  C    1.400548   0.000000
     3  C    2.434722   1.396226   0.000000
     4  C    2.799084   2.409526   1.398602   0.000000
     5  C    2.471102   2.847713   2.487011   1.440819   0.000000
     6  C    1.393532   2.413443   2.806524   2.426037   1.425793
     7  O    2.384471   3.659464   4.171417   3.674447   2.391407
     8  C    3.836518   4.319149   3.822833   2.527784   1.471939
     9  C    4.483247   5.316009   5.107346   3.930847   2.621251
    10  O    4.850900   5.069357   4.262166   2.863978   2.380009
    11  O    4.131403   3.600868   2.323013   1.333653   2.418396
    12  O    2.345222   1.358368   2.415434   3.671999   4.204484
    13  H    1.084611   2.155654   3.411916   3.883616   3.452409
    14  H    3.428063   2.177059   1.083268   2.139881   3.453007
    15  H    2.383062   3.776455   4.572476   4.334731   3.196686
    16  H    4.041254   5.099742   5.183008   4.214417   2.781990
    17  H    5.206474   6.002642   5.730193   4.515265   3.309077
    18  H    5.202599   5.999638   5.728610   4.514815   3.307618
    19  H    4.485600   4.236158   3.106631   1.826815   2.310552
    20  H    3.165075   1.916508   2.452827   3.838687   4.656251
                    6          7          8          9         10
     6  C    0.000000
     7  O    1.364898   0.000000
     8  C    2.558217   2.887467   0.000000
     9  C    3.089718   2.687327   1.513481   0.000000
    10  O    3.688505   4.136968   1.250371   2.341608   0.000000
    11  O    3.666470   4.803284   2.880817   4.394292   2.604315
    12  O    3.625425   4.729635   5.676328   6.630222   6.412944
    13  H    2.159449   2.634969   4.715504   5.121758   5.810382
    14  H    3.889486   5.254374   4.667424   6.042864   4.890546
    15  H    1.908878   0.965885   3.844677   3.599357   5.091766
    16  H    2.705624   1.877699   2.204623   1.085719   3.281444
    17  H    3.840098   3.416741   2.111556   1.092251   2.593338
    18  H    3.836529   3.411837   2.111581   1.092255   2.594269
    19  H    3.716578   4.643152   2.230772   3.705308   1.667872
    20  H    4.325734   5.527953   6.104365   7.202128   6.687175
                   11         12         13         14         15
    11  O    0.000000
    12  O    4.737955   0.000000
    13  H    5.215580   2.558604   0.000000
    14  H    2.522564   2.715335   4.321646   0.000000
    15  H    5.554339   4.625440   2.208789   5.642406   0.000000
    16  H    4.950658   6.330172   4.484361   6.205751   2.683359
    17  H    4.830591   7.314314   5.836051   6.620279   4.279916
    18  H    4.832583   7.310932   5.831391   6.619294   4.274432
    19  H    0.993314   5.477416   5.555410   3.474730   5.497013
    20  H    4.694129   0.966535   3.507933   2.338782   5.512298
                   16         17         18         19         20
    16  H    0.000000
    17  H    1.784094   0.000000
    18  H    1.783975   1.757977   0.000000
    19  H    4.419683   4.065330   4.069766   0.000000
    20  H    7.016243   7.861615   7.858596   5.545466   0.000000
 Stoichiometry    C8H8O4
 Framework group  C1[X(C8H8O4)]
 Deg. of freedom    54
 Full point group                 C1      NOp   1
 Largest Abelian subgroup         C1      NOp   1
 Largest concise Abelian subgroup C1      NOp   1
                         Standard orientation:                         
 ---------------------------------------------------------------------
 Center     Atomic      Atomic             Coordinates (Angstroms)
 Number     Number       Type             X           Y           Z
 ---------------------------------------------------------------------
      1          6           0       -1.520507   -1.258153   -0.000096
      2          6           0       -2.273985   -0.077558    0.000419
      3          6           0       -1.652981    1.172962    0.000309
      4          6           0       -0.255938    1.238992   -0.000398
      5          6           0        0.570465    0.058730   -0.000376
      6          6           0       -0.128965   -1.183720   -0.000466
      7          8           0        0.608282   -2.332378   -0.000409
      8          6           0        2.037688    0.176460    0.000451
      9          6           0        2.956726   -1.026034   -0.000946
     10          8           0        2.607593    1.289396    0.003584
     11          8           0        0.281073    2.459748   -0.002314
     12          8           0       -3.624610   -0.222386    0.000811
     13          1           0       -2.024234   -2.218695    0.000007
     14          1           0       -2.215521    2.098715    0.000275
     15          1           0        0.006386   -3.087794   -0.000108
     16          1           0        2.454210   -1.988452   -0.004715
     17          1           0        3.601363   -0.937753   -0.878250
     18          1           0        3.597455   -0.942823    0.879715
     19          1           0        1.255200    2.265484   -0.005497
     20          1           0       -4.048577    0.646199    0.001803
 ---------------------------------------------------------------------
 Rotational constants (GHZ):      1.5480200      0.7547924      0.5089863
 Standard basis: 6-31+G(d,p) (6D, 7F)
 There are   268 symmetry adapted cartesian basis functions of A   symmetry.
 There are   268 symmetry adapted basis functions of A   symmetry.
   268 basis functions,   440 primitive gaussians,   268 cartesian basis functions
    44 alpha electrons       44 beta electrons
       nuclear repulsion energy       695.5903623822 Hartrees.
 NAtoms=   20 NActive=   20 NUniq=   20 SFac= 1.00D+00 NAtFMM=   60 NAOKFM=F Big=F
 Integral buffers will be    131072 words long.
 Raffenetti 2 integral format.
 Two-electron integral symmetry is turned on.
 One-electron integrals computed using PRISM.
 NBasis=   268 RedAO= T EigKep=  1.53D-06  NBF=   268
 NBsUse=   268 1.00D-06 EigRej= -1.00D+00 NBFU=   268
 Initial guess from the checkpoint file:  "b3lypTHAPgd3.chk"
 B after Tr=     0.000000   -0.000000   -0.000000
         Rot=    0.999997   -0.000047   -0.000058   -0.002254 Ang=  -0.26 deg.
 ExpMin= 4.38D-02 ExpMax= 5.48D+03 ExpMxC= 8.25D+02 IAcc=2 IRadAn=         4 AccDes= 0.00D+00
 Harris functional with IExCor=  402 and IRadAn=       4 diagonalized for initial guess.
 HarFok:  IExCor=  402 AccDes= 0.00D+00 IRadAn=         4 IDoV= 1 UseB2=F ITyADJ=14
 ICtDFT=  3500011 ScaDFX=  1.000000  1.000000  1.000000  1.000000
 FoFCou: FMM=F IPFlag=           0 FMFlag=      100000 FMFlg1=           0
         NFxFlg=           0 DoJE=T BraDBF=F KetDBF=T FulRan=T
         wScrn=  0.000000 ICntrl=     500 IOpCl=  0 I1Cent=   200000004 NGrid=           0
         NMat0=    1 NMatS0=      1 NMatT0=    0 NMatD0=    1 NMtDS0=    0 NMtDT0=    0
 Petite list used in FoFCou.
 Keep R1 ints in memory in canonical form, NReq=659648347.
 Requested convergence on RMS density matrix=1.00D-08 within 128 cycles.
 Requested convergence on MAX density matrix=1.00D-06.
 Requested convergence on             energy=1.00D-06.
 No special actions if energy rises.
 SCF Done:  E(RB3LYP) =  -610.607358659     A.U. after   13 cycles
            NFock= 13  Conv=0.85D-08     -V/T= 2.0091
 Calling FoFJK, ICntrl=      2127 FMM=F ISym2X=0 I1Cent= 0 IOpClX= 0 NMat=1 NMatS=1 NMatT=0.
 ***** Axes restored to original set *****
 -------------------------------------------------------------------
 Center     Atomic                   Forces (Hartrees/Bohr)
 Number     Number              X              Y              Z
 -------------------------------------------------------------------
      1        6           0.004621402    0.003574867    0.000000311
      2        6           0.004399763   -0.001240568   -0.000012270
      3        6          -0.004786686    0.006061392   -0.000027324
      4        6          -0.006857075    0.000467194    0.000078994
      5        6          -0.002181594   -0.001942273    0.000019674
      6        6           0.000379970   -0.004689897   -0.000017985
      7        8          -0.014868988   -0.002198093   -0.000014879
      8        6           0.001821771    0.003501317   -0.000150036
      9        6           0.000659352    0.002463270    0.000060188
     10        8          -0.009943737   -0.011354526    0.000249019
     11        8           0.003408588    0.009253079    0.000111049
     12        8          -0.000863446   -0.000879461   -0.000008298
     13        1          -0.000984379   -0.000498476   -0.000001213
     14        1          -0.000161703   -0.001289580    0.000010762
     15        1          -0.001641028    0.001265026    0.000000115
     16        1           0.008360520   -0.000188040    0.000000404
     17        1           0.002047993    0.000780301    0.001140481
     18        1           0.002022830    0.000799503   -0.001170412
     19        1           0.014995398   -0.003330240   -0.000274176
     20        1          -0.000428952   -0.000554794    0.000005596
 -------------------------------------------------------------------
 Cartesian Forces:  Max     0.014995398 RMS     0.004268336

 GradGradGradGradGradGradGradGradGradGradGradGradGradGradGradGradGradGrad
 Berny optimization.
 Using GEDIIS/GDIIS optimizer.
 FormGI is forming the generalized inverse of G from B-inverse, IUseBI=4.
 Internal  Forces:  Max     0.049092033 RMS     0.010621613
 Search for a local minimum.
 Step number   3 out of a maximum of  100
 All quantities printed in internal units (Hartrees-Bohrs-Radians)
 Mixed Optimization -- RFO/linear search
 Update second derivatives using D2CorX and points    1    2    3
 DE= -4.38D-03 DEPred=-9.80D-03 R= 4.47D-01
 Trust test= 4.47D-01 RLast= 3.14D-01 DXMaxT set to 5.05D-01
 ITU=  0  1  0
 Use linear search instead of GDIIS.
     Eigenvalues ---    0.00325   0.01222   0.02112   0.02230   0.02242
     Eigenvalues ---    0.02416   0.02553   0.02591   0.02627   0.02668
     Eigenvalues ---    0.02782   0.02800   0.02866   0.02878   0.02919
     Eigenvalues ---    0.06634   0.07587   0.12258   0.16000   0.16000
     Eigenvalues ---    0.16000   0.16000   0.16000   0.16043   0.16527
     Eigenvalues ---    0.19436   0.23551   0.24208   0.25000   0.25000
     Eigenvalues ---    0.25000   0.25000   0.25094   0.29050   0.31727
     Eigenvalues ---    0.32093   0.32850   0.33246   0.33531   0.38400
     Eigenvalues ---    0.48519   0.49601   0.50463   0.52769   0.53059
     Eigenvalues ---    0.53210   0.53254   0.53314   0.53418   0.56098
     Eigenvalues ---    0.57066   0.58436   0.71623   0.98070
 RFO step:  Lambda=-1.43706597D-02 EMin= 3.25289434D-03
 Quartic linear search produced a step of -0.36874.
 Iteration  1 RMS(Cart)=  0.14463413 RMS(Int)=  0.00494769
 Iteration  2 RMS(Cart)=  0.01131296 RMS(Int)=  0.00005328
 Iteration  3 RMS(Cart)=  0.00005697 RMS(Int)=  0.00004795
[...]
 59,-0.15232523,-0.03793857,-0.00311916,-0.04887602,0.00793515,-0.00219
 396,0.00379202,-0.01434590,0.00063840,0.70874148,0.00600398,-0.0003945
 9,0.00042010,-0.00087881,-0.00413944,0.00003606,0.00315199,-0.00699262
 ,0.00038940,-0.03832865,-0.02004911,-0.00124033,-0.05689252,-0.1571774
 5,-0.00048335,0.00668227,0.02875165,-0.00053215,-0.00105912,-0.0081476
 1,0.00009082,-0.12452827,0.64477753,-0.00014738,0.00077564,0.00533919,
 -0.00016644,-0.00038666,-0.00101862,-0.00015124,0.00033718,0.00283094,
 0.00211228,-0.00174627,0.00315806,-0.00268060,0.00040001,-0.06656068,-
 0.00215714,-0.00047097,-0.00624830,0.00031312,-0.00053455,-0.00233773,
 0.02603151,-0.01610701,0.21917644,0.00000653,-0.00008959,0.00001461,0.
 00007274,0.00011038,-0.00000577,0.00128807,-0.00184027,0.00015088,-0.0
 0751133,-0.00079335,-0.00044346,0.00706242,-0.02455534,0.00033662,-0.0
 0054276,0.00108533,-0.00005016,-0.00904662,-0.00093767,-0.00034969,-0.
 09226270,-0.03675222,0.00061019,0.61363718,-0.00068656,-0.00090293,-0.
 00001619,0.00069215,0.00055460,0.00002192,-0.00050031,0.00047723,-0.00
 005873,0.00012827,0.00197810,0.00001455,-0.00633168,-0.00980106,0.0002
 3824,0.00144567,-0.00193405,0.00011347,-0.00204788,0.00182878,-0.00016
 903,-0.02209945,-0.18781176,0.00138794,-0.01758233,0.47086555,0.000028
 60,0.00001220,-0.00025013,-0.00002027,-0.00000507,0.00013515,0.0001190
 5,-0.00012221,-0.00096148,-0.00046803,-0.00003079,0.00232864,-0.000093
 01,-0.00061691,0.01247104,-0.00006042,0.00009921,-0.00003851,-0.000319
 86,-0.00011902,-0.00120241,0.00025426,0.00069979,-0.08644669,0.0041743
 4,0.00073612,0.53345849,-0.00492805,-0.00443891,-0.00005905,0.00261210
 ,0.00683581,-0.00006005,-0.00056833,0.00033869,-0.00005007,-0.00699564
 ,0.02057562,-0.00072586,-0.08429883,0.00802314,-0.00495758,0.01059398,
 -0.01614075,0.00059700,-0.00126259,0.00595056,-0.00020932,-0.43277487,
 0.22741230,-0.02256052,-0.00291626,0.02169791,-0.00170920,0.53235493,0
 .00220556,0.00721786,-0.00010573,0.00239336,-0.00710561,0.00029326,-0.
 00760534,0.00199661,-0.00039606,0.02679084,-0.02558293,0.00182073,0.01
 976501,0.03520530,0.00049476,-0.01192392,-0.00187959,-0.00036150,0.001
 51610,0.00136943,0.00004059,0.19190014,-0.25269019,0.01342844,0.049203
 86,-0.04087740,0.00382273,-0.23488581,0.29668750,-0.00022119,-0.000415
 08,-0.00135638,0.00005036,0.00049960,0.00029740,0.00014290,-0.00002490
 ,0.00031593,-0.00087675,0.00153282,-0.00218832,-0.00524117,-0.00005403
 ,0.01701057,0.00049174,-0.00056224,0.00625620,-0.00009991,0.00024861,0
 .00008824,-0.02170239,0.01509463,-0.06952047,-0.00237194,0.00253868,0.
 02228900,0.02894100,-0.01728968,0.03708627,0.00122221,0.01490639,-0.00
 022930,0.01201227,-0.01998310,0.00081178,-0.07904920,0.02182108,-0.004
 63099,-0.27660820,0.11848422,-0.01342250,0.01323565,0.03458750,-0.0007
 1512,-0.01165108,-0.00361557,-0.00074789,0.00130007,0.00251362,-0.0000
 1209,-0.04874725,0.00076111,-0.00218501,0.00352931,-0.00157314,0.00023
 599,0.01567102,-0.05927252,0.00178127,0.56129053,0.00383229,0.00167858
 ,0.00009761,-0.00324948,-0.00668316,0.00013683,-0.01231245,0.02432596,
 -0.00095484,0.09181569,-0.18437463,0.00752978,0.04199281,-0.02883083,0
 .00292214,-0.01015213,-0.00401822,-0.00022372,0.00305811,-0.00056033,0
 .00016254,-0.00444714,0.00647626,-0.00042455,0.00233804,-0.00224758,0.
 00014522,-0.01795498,-0.03844695,0.00029343,0.03023435,0.41791798,0.00
 003834,0.00061324,-0.00164472,0.00039984,-0.00064313,0.00512814,-0.003
 79594,0.00064014,0.00854700,-0.01278035,0.00877581,-0.05194210,-0.0009
 0218,0.00257942,0.01046245,-0.00058974,0.00008337,0.00628275,-0.000024
 36,0.00013668,0.00022772,-0.00205548,-0.00018266,-0.00258068,0.0001430
 8,-0.00003659,-0.00072974,0.00077917,-0.00164019,0.00842844,0.02345888
 ,-0.00763645,0.04572985,-0.00358223,-0.01995631,0.00001187,-0.26878420
 ,-0.05447489,-0.00909627,-0.05804825,-0.02967144,-0.00249090,0.0081762
 9,0.01396455,-0.00039539,-0.00771043,-0.00878481,-0.00007626,0.0012930
 4,0.00457397,-0.00024343,0.00058345,-0.00086224,0.00005311,0.00870879,
 0.00309167,0.00034640,0.00004596,-0.00092040,0.00001653,-0.00485521,0.
 00059558,-0.00023749,-0.00470648,-0.00144823,-0.00016554,0.38234532,-0
 .05525565,-0.03743058,-0.00150383,-0.10681745,-0.15368525,-0.00233373,
 0.00670018,0.01316831,0.00026047,0.00166565,-0.00312551,0.00038165,-0.
 00801594,-0.00142725,-0.00037609,0.01305454,-0.00183349,0.00075278,-0.
 00262629,-0.00334872,-0.00004235,0.00647344,0.00252560,0.00023555,0.00
 005468,-0.00051453,0.00001986,-0.00393375,0.00173150,-0.00022890,0.001
 60834,0.00135760,0.00003220,0.04283267,0.67624417,0.00087501,0.0001468
 6,0.00660253,-0.00783955,0.00009577,-0.04525206,-0.00338265,-0.0014388
 2,0.01085947,-0.00009558,0.00095530,0.00930488,-0.00009204,-0.00041066
 ,-0.00148350,-0.00045148,0.00035507,0.00402894,0.00009536,0.00003899,-
 0.00008645,0.00025934,0.00007499,-0.00026599,-0.00000782,-0.00002580,0
 .00018212,-0.00012473,-0.00001746,-0.00010525,-0.00024085,-0.00011075,
 -0.00041254,0.01537855,-0.01357610,0.03036321,-0.27774186,0.11646268,-
 0.01472357,0.00139063,-0.00116327,-0.00002687,0.00127179,-0.00048810,-
 0.00010749,0.00012082,-0.00078413,0.00010676,-0.00187626,-0.00428401,-
 0.00021009,-0.01892491,0.01580092,-0.00136886,0.00270845,0.00086334,0.
 00033744,0.00032488,0.00144893,-0.00008741,0.00001309,-0.00004143,0.00
 000983,-0.00091291,-0.00011329,-0.00001376,0.00018084,0.00012990,-0.00
 000351,0.00071233,-0.00009641,0.00017287,0.29336948,0.11510195,-0.1182
 3099,0.00769447,0.03131134,-0.00939831,0.00175935,-0.00197295,-0.00549
 621,0.00013596,-0.00126909,-0.00109600,-0.00007535,-0.00228569,-0.0015
 0879,0.00004815,-0.01568714,0.00754687,-0.00086826,-0.00134917,0.00358
 090,-0.00027257,-0.00047900,0.00056749,0.,0.00000003,0.00002891,-0.000
 00508,-0.00028809,0.00010719,-0.00003017,0.00051085,0.00031545,0.00002
 079,-0.00011701,0.00243093,-0.00013700,-0.12514873,0.12177936,-0.01469
 407,0.00776259,-0.02503334,-0.00082077,0.00023532,0.00253580,-0.000072
 69,0.00020434,0.00381323,0.00012006,-0.00005256,-0.00174484,-0.0002578
 7,-0.00004386,0.00482471,-0.00059557,0.00060367,0.00201346,0.00039173,
 -0.00016957,-0.00493481,-0.00004103,0.00008886,0.00145567,0.00000888,-
 0.00000690,-0.00017597,-0.00000902,-0.00002165,-0.00056686,-0.00001423
 ,0.00000333,0.00018643,0.00017386,-0.00013474,-0.00292284,0.01593951,-
 0.00839363,0.01930622,-0.00441644,0.00134781,-0.00045492,0.00215786,0.
 02750615,-0.00064731,-0.05805322,0.01331232,-0.00182342,0.00593611,-0.
 02881923,0.00080314,-0.00442461,-0.00103562,-0.00039453,-0.00168696,-0
 .00004233,-0.00001902,0.00041178,-0.00006356,0.00002637,0.00085729,-0.
 00150810,0.00005079,-0.00048241,0.00000802,-0.00001600,-0.00005223,0.0
 0054051,-0.00001187,0.00223890,0.00154806,0.00023325,0.00339568,0.0007
 9091,0.00033976,0.00015245,0.00139907,-0.00006971,0.05530623,0.0025247
 9,0.00119162,0.00020212,-0.00450002,-0.01184736,0.00011923,0.01152383,
 -0.33987621,0.00822935,0.00350041,-0.01428523,0.00060757,-0.00295696,0
 .00031135,-0.00003438,-0.00029257,0.00065935,-0.00006060,-0.00001650,-
 0.00005335,-0.00000238,0.00120743,-0.00073972,0.00008878,-0.00031961,0
 .00000253,-0.00001887,-0.00032535,0.00059984,-0.00003173,0.00141334,0.
 00166369,-0.00006193,-0.00003625,0.00284599,-0.00017652,-0.00010148,-0
 .00052838,0.00003058,-0.01329374,0.36045465,-0.00048267,0.00014774,0.0
 0459666,0.00013550,0.00161107,0.00156991,-0.00177829,0.00831567,-0.026
 24458,0.00000935,-0.00090234,0.00388056,-0.00034793,0.00005497,0.00453
 705,-0.00001274,-0.00004908,-0.00125657,0.00002514,-0.00000414,-0.0001
 1990,-0.00001579,-0.00003830,0.00056628,-0.00000751,-0.00000333,-0.000
 15031,0.00000905,0.00000864,-0.00008025,0.00023759,-0.00005592,-0.0035
 5327,0.00035999,-0.00013653,-0.00427340,-0.00003330,0.00010030,0.00091
 251,0.00200769,-0.00897980,0.01958167,0.00324182,-0.00701999,0.0003950
 3,-0.00118152,0.00072951,-0.00002365,0.00058789,-0.00031166,0.00003399
 ,-0.00060981,-0.00075122,-0.00008927,0.00297802,-0.00038539,0.00002831
 ,-0.00274183,0.00038158,-0.00003470,-0.47435398,0.15156574,-0.02561666
 ,-0.00055641,-0.00079510,0.00002170,-0.00090214,-0.00050401,-0.0000350
 9,0.00049578,-0.00006406,0.00002968,-0.00001620,0.00015780,0.00000633,
 -0.00018433,-0.00037594,0.00000303,-0.00072267,0.00053222,-0.00009482,
 -0.00007877,0.00004414,-0.00000519,0.47445170,0.00126607,0.00273569,-0
 .00004461,0.00020916,-0.00191800,0.00003066,-0.00108175,0.00038885,-0.
 00005969,0.00310083,0.00057687,0.00017254,-0.00342557,-0.00652612,0.00
 006308,0.04955673,-0.02180038,0.00279536,0.09795367,-0.07808816,0.0063
 5927,0.00045372,-0.00002095,0.00000702,-0.00079250,-0.00036634,-0.0000
 2527,-0.00042824,0.00007742,-0.00002443,-0.00089310,-0.00040888,-0.000
 03755,0.00042544,0.00083354,-0.00000176,-0.00217595,-0.00025656,-0.000
 07059,-0.00016357,0.00006887,-0.00000900,-0.14375175,0.10406507,0.0001
 9172,-0.00043210,-0.00149519,-0.00001035,0.00005440,-0.00106146,0.0000
 5231,-0.00002374,0.00002179,-0.00018341,-0.00000724,0.00167680,0.00010
 346,0.00020440,0.00259105,-0.00124291,0.00050070,-0.00227195,-0.024300
 43,0.00886262,-0.00683339,-0.00000823,-0.00005114,-0.00060361,-0.00002
 806,-0.00001253,0.00010916,0.00003885,-0.00000786,-0.00010093,0.000031
 92,0.00001184,-0.00023211,-0.00001684,-0.00003922,-0.00005128,-0.00002
 832,0.00005616,0.00101908,-0.00000022,0.00000065,0.00001164,0.02543641
 ,-0.00913826,0.00675454,-0.00017349,0.00000069,0.00012988,0.00012222,0
 .00009389,0.00009963,-0.00013599,0.00023618,-0.00013059,0.00003020,0.0
 0062306,0.00013055,-0.00188299,-0.00067245,0.00031199,0.00076640,-0.00
 243631,-0.00001395,-0.00244180,0.00056716,-0.00107412,0.00140252,0.002
 38117,-0.00532744,-0.10821760,0.05017294,0.10506665,0.00100672,0.00077
 866,0.00034914,0.00025368,-0.00004424,0.00006504,-0.00018725,-0.000083
 26,-0.00001867,-0.00003851,-0.00000738,-0.00005967,0.00000834,0.000005
 01,-0.00000795,-0.00020140,0.00003940,-0.00000861,0.11557322,-0.000041
 31,0.00007707,-0.00014988,0.00014885,-0.00010632,0.00003288,-0.0002963
 3,0.00009630,-0.00039735,0.00055386,0.00005133,0.00080444,-0.00169149,
 -0.00012573,0.00236359,-0.00002209,-0.00151853,-0.00030501,-0.00001487
 ,0.00041432,0.00037530,0.01868311,-0.00927769,-0.02789362,0.05118452,-
 0.09187736,-0.09151897,-0.00026313,-0.00634233,0.00349172,-0.00084129,
 -0.00047829,-0.00017213,-0.00011384,-0.00003692,0.00005074,-0.00002150
 ,-0.00000034,-0.00003248,0.00001633,0.00000656,-0.00002739,0.00008352,
 0.00023221,0.00020603,-0.05883503,0.09878588,0.00012790,0.00055690,-0.
 00013462,0.00016514,-0.00029387,-0.00004202,-0.00021351,0.00006247,0.0
 0002731,0.00009870,0.00002103,0.00012942,-0.00023745,-0.00044276,0.000
 21371,0.00046840,-0.00185015,0.00010163,0.00069141,0.00134751,0.000465
 44,-0.00156156,0.00224148,0.00203155,0.10249093,-0.08882525,-0.2029931
 9,-0.00081284,0.00085593,-0.00103641,-0.00021636,0.00003672,-0.0000466
 9,-0.00001990,0.00006801,0.00000273,-0.00005078,0.00000370,0.00002960,
 -0.00001316,-0.00000203,-0.00000264,0.00034159,0.00022614,0.00006863,-
 0.11265575,0.09510992,0.22007939,-0.00011453,-0.00035354,0.00001069,0.
 00006476,0.00027781,-0.00000363,0.00011532,-0.00016661,0.00001784,-0.0
 0068420,0.00058686,-0.00007169,0.00100417,-0.00059335,-0.00000745,0.00
 018478,0.00102240,-0.00000499,-0.00108128,-0.00024215,-0.00008594,-0.0
 0526086,0.00008610,-0.00019591,-0.31094889,-0.06102585,-0.01079434,0.0
 0240223,0.00273782,0.00010072,0.00071369,0.00007641,0.00003448,-0.0001
 5301,-0.00013973,-0.00000411,0.00001264,0.00001523,-0.00000068,-0.0000
 2369,-0.00002867,0.00000012,-0.00009694,-0.00034336,-0.00000361,-0.011
 04134,-0.00320573,-0.00184324,0.33397953,-0.00003508,0.00029419,-0.000
 01248,0.00024929,-0.00004935,0.00001268,0.00011943,-0.00051977,0.00001
 423,-0.00206492,0.00022482,-0.00008967,0.00227101,-0.00560748,0.000276
 94,0.00084864,-0.00111655,0.00006115,0.00085127,0.00107642,0.00003506,
 -0.03782591,-0.01148042,-0.00153269,-0.05444413,-0.05987760,-0.0023353
 8,0.00105282,0.00464259,-0.00008866,0.00085858,0.00045556,0.00002765,-
 0.00015359,-0.00003889,-0.00000600,-0.00005815,0.00000627,-0.00000243,
 -0.00016555,-0.00010136,-0.00000549,0.00025083,0.00013578,0.00001225,0
 .01289518,0.00322023,0.00265970,0.06413075,0.06683423,0.00000267,-0.00
 002752,-0.00015347,-0.00000277,0.00001413,-0.00000339,0.00001083,0.000
 00016,-0.00017739,-0.00000779,0.00003514,0.00053683,-0.00007565,0.0001
 4244,0.00146253,-0.00000043,0.00006918,-0.00024614,-0.00011324,-0.0000
 1555,0.00086479,0.00071713,0.00025462,-0.00111691,-0.01095096,-0.00264
 551,-0.05080427,0.00014122,-0.00001114,-0.00112744,0.00001566,-0.00000
 884,-0.00006262,-0.00000387,-0.00000542,0.00000842,0.00000112,0.000001
 04,0.00001904,0.00000337,0.00000080,-0.00001101,-0.00001815,-0.0000160
 5,0.00015384,0.02352998,0.00745816,0.00257028,0.01197615,0.00253569,0.
 04719216,-0.00014882,0.00004754,-0.00013373,0.00014632,0.00006083,-0.0
 0008515,-0.00016730,0.00024688,0.00010120,0.00005567,0.00061552,-0.000
 16916,-0.00186412,-0.00073165,-0.00047805,0.00079720,-0.00259911,0.000
 20636,-0.00245406,0.00073546,0.00076519,0.00081032,0.00280824,0.005142
 17,-0.08944503,0.03701531,-0.09603252,0.00094612,0.00082989,-0.0002093
 5,0.00023474,-0.00004432,-0.00003625,-0.00018975,-0.00007600,0.0000044
 3,-0.00004827,-0.00000429,0.00005266,0.00000633,0.00000524,0.00000858,
 -0.00016753,0.00006057,-0.00001803,0.00521662,-0.00602261,0.01316933,-
 0.00887003,0.01191612,-0.02523134,0.09519435,-0.00006078,0.00005667,0.
 00013525,0.00014356,-0.00009279,-0.00001726,-0.00032178,0.00011281,0.0
 0036525,0.00062143,0.00001526,-0.00074460,-0.00145871,-0.00022262,-0.0
 0249222,-0.00007458,-0.00141764,0.00037382,-0.00001904,0.00033264,-0.0
 0037008,0.01601348,-0.00798648,0.03003566,0.03789084,-0.08324032,0.089
 44923,0.00009459,-0.00653190,-0.00323729,-0.00084153,-0.00047241,0.000
 11441,-0.00010829,-0.00004314,-0.00005878,-0.00002221,0.00000111,0.000
 03199,0.00001444,0.00000808,0.00002835,0.00008605,0.00021149,-0.000206
 26,-0.00555338,0.00587921,-0.01194192,-0.00242479,0.00275166,-0.007783
 28,-0.04472198,0.08967415,-0.00012800,-0.00056490,-0.00013829,-0.00015
 374,0.00030319,-0.00007914,0.00021072,-0.00004294,0.00004227,-0.000135
 63,0.00004276,0.00014123,0.00011199,0.00039674,0.00029106,-0.00039522,
 0.00168440,-0.00003233,-0.00097046,-0.00127758,0.00055525,0.00066635,-
 0.00149211,0.00131841,-0.09349935,0.08666329,-0.23035787,0.00099419,-0
 .00051250,-0.00078265,0.00028387,-0.00002016,-0.00003349,0.00000660,-0
 .00007337,0.00001119,0.00004457,-0.00000258,0.00003799,0.00001334,0.00
 000204,-0.00000207,-0.00036938,-0.00022949,0.00005574,-0.01037646,0.01
 007758,-0.02136587,0.00087631,-0.00155123,0.00086733,0.10292365,-0.093
 17109,0.24954158,-0.00050153,-0.00360639,0.00006138,-0.00347825,0.0028
 8960,-0.00033589,0.00435284,0.00335569,-0.00005424,-0.05762183,-0.0078
 8403,-0.00245444,-0.00630492,-0.00685524,-0.00006678,0.00175758,-0.000
 75205,0.00015058,0.00023456,-0.00138059,0.00004838,0.02661316,0.006909
 89,0.00104144,-0.00344092,0.00208411,-0.00036104,-0.02665056,0.0143325
 5,-0.00089927,-0.19210265,-0.12561017,-0.00485031,0.00031158,-0.000340
 44,0.00004989,-0.00004180,-0.00014281,0.00000337,-0.00026708,-0.000164
 38,0.00002678,0.00005538,-0.00001070,-0.00000080,-0.00005362,0.0006966
 8,0.00006780,-0.00022112,-0.00072601,0.00000628,-0.00004600,0.00074146
 ,-0.00009834,0.25769428,-0.00202705,-0.00656596,0.00006680,-0.00319429
 ,0.00853959,-0.00030549,0.01395474,-0.00375175,0.00083214,-0.00265441,
 0.03656184,-0.00103664,-0.01097748,-0.01235745,-0.00024675,0.00627511,
 -0.00143620,0.00029977,-0.00072782,-0.00065710,-0.00001975,0.04374271,
 -0.01576774,0.00245020,-0.00373635,0.00359018,-0.00018085,-0.01404106,
 0.02996056,-0.00175008,-0.14153319,-0.18766495,-0.00265273,0.00028920,
 -0.00178701,0.00004403,-0.00022293,-0.00028466,-0.00000373,-0.00056038
 ,-0.00027470,-0.00003788,0.00012037,0.00006483,0.00000620,-0.00018832,
 0.00098386,0.00016165,-0.00042969,-0.00086900,0.00000125,-0.00016968,0
 .00094739,-0.00022954,0.11650385,0.15078922,0.00002274,-0.00000726,0.0
 0006456,-0.00018633,-0.00001862,0.00218890,-0.00030818,0.00033797,0.00
 369222,-0.00257921,-0.00128284,-0.00117121,0.00003348,-0.00005303,-0.0
 0133553,-0.00001936,-0.00002754,-0.00109169,0.00003216,-0.00005042,-0.
 00007235,0.00014636,0.00072547,0.00082842,-0.00022162,0.00008724,0.003
 20636,-0.00020905,-0.00041851,-0.01493321,-0.00446950,-0.00190802,-0.0
 2374404,0.00003419,0.00001341,-0.00056880,0.00000497,-0.00000055,-0.00
 003156,0.00003623,-0.00001978,-0.00075405,-0.00000412,-0.00000014,0.00
 008098,0.00000549,0.00053609,-0.00010834,-0.00000068,-0.00001246,0.000
 01891,0.00000785,-0.00052062,-0.00008104,0.00768239,0.00261870,0.03371
 499,-0.00594182,-0.00148499,-0.00038498,0.00241134,-0.04655738,0.00135
 797,0.00106029,-0.00183740,0.00016302,-0.00121567,-0.00007469,-0.00000
 454,0.00007618,0.00040973,-0.00000321,0.00127998,-0.00176134,-0.000005
 67,-0.00054711,0.00033208,-0.00000646,-0.00022239,0.00000513,-0.000010
 50,0.00006138,0.00006866,0.00000455,0.00013263,0.00027507,-0.00000173,
 0.00099814,0.00007968,0.00004526,-0.05717130,0.10458046,-0.00492077,0.
 00004980,-0.00011933,0.00004006,-0.00098556,0.00181134,-0.00012841,0.0
 0000295,0.00000092,-0.00000484,-0.00000589,0.00000233,0.00000335,0.000
 01878,0.00002940,-0.00000022,-0.00000675,0.00000123,-0.00000500,-0.000
 28906,-0.00042332,-0.00000781,0.06029408,-0.00359337,0.00200798,-0.000
 14269,0.00370434,-0.02596216,0.00073497,0.00469726,0.00568761,0.000045
 08,-0.00081515,-0.00164102,-0.00002277,0.00102994,0.00111010,0.0000191
 4,0.00026796,-0.00120167,0.00009994,-0.00031807,0.00006177,-0.00003079
 ,-0.00128371,-0.00042276,-0.00005013,-0.00002431,0.00012505,-0.0000059
 2,0.00071863,-0.00013891,0.00003772,0.00085406,-0.00000489,0.00003964,
 0.05087423,-0.49786639,0.01419791,0.00001582,0.00043576,-0.00002853,-0
 .00083156,-0.00010623,-0.00001755,0.00000737,-0.00000523,0.00000310,0.
 00002703,0.00001654,0.00000483,0.00002009,0.00001867,0.00000070,0.0000
 2804,0.00001683,-0.00000250,-0.00004103,-0.00002096,0.00000090,-0.0553
 3757,0.51788992,-0.00033186,-0.00004338,0.00305837,0.00015485,-0.00159
 542,-0.00262108,0.00000361,-0.00025988,-0.00146354,0.00001272,0.000010
 57,-0.00105729,-0.00001947,-0.00001000,-0.00007330,-0.00005487,0.00000
 606,0.00234543,0.00000971,-0.00000010,-0.00058447,0.00002218,0.0000108
 4,-0.00000529,0.00000681,-0.00000159,-0.00006940,-0.00001318,0.0000172
 1,0.00002614,0.00002687,0.00000379,-0.00001077,-0.00363521,0.01668634,
 -0.00594139,0.00003688,-0.00003473,-0.00074352,-0.00006377,0.00010690,
 0.00079177,-0.00000505,0.00000279,0.00010667,-0.00001512,-0.00000962,0
 .00001010,-0.00000003,0.00000112,0.00000850,0.00001217,0.00000946,0.00
 001071,-0.00001718,-0.00001730,0.00009648,0.00386993,-0.01488306,0.006
 11587\\0.00001866,0.00001028,0.00000800,-0.00001098,-0.00001972,-0.000
 00324,-0.00001136,0.00001579,0.00000143,0.00002049,-0.00001461,0.00000
 204,0.00002630,-0.00000099,-0.00001235,-0.00002106,0.00001651,-0.00000
 260,0.00000159,0.00000325,-0.00000266,-0.00004381,-0.00000510,-0.00000
 208,0.00000995,0.00000294,0.00002340,0.00003344,-0.00001286,-0.0000016
 8,-0.00000669,0.00000972,-0.00000777,-0.00000338,-0.00000035,0.0000063
 9,-0.00000664,0.00000101,-0.00000264,-0.00000174,-0.00000630,0.0000016
 0,0.00000291,-0.00000032,-0.00000015,0.00000272,0.00000695,-0.00000220
 ,0.00000439,0.00000281,-0.00000080,-0.00000640,-0.00000532,-0.00000784
 ,-0.00000777,-0.00000502,0.00000744,-0.00000062,0.00000133,-0.00000431
 \\\@


 WE ARE REACHING THE STAGE WHERE THE PROBLEMS WE MUST SOLVE ARE 
 GOING TO BECOME INSOLUBLE WITHOUT COMPUTERS.
 I DO NOT FEAR COMPUTERS.  I FEAR THE LACK OF THEM.

                                   -- ISSAC ASIMOV
 Job cpu time:       0 days  0 hours 32 minutes 36.6 seconds.
 File lengths (MBytes):  RWF=    157 Int=      0 D2E=      0 Chk=      6 Scr=      1
 Normal termination of Gaussian 09 at Thu Jun 20 15:13:37 2024.
