 Entering Gaussian System, Link 0=g09
 Input=b3lypTHAPyanggd3.gjf
 Output=b3lypTHAPyanggd3.log
 Initial command:
 /home/phzd/g09E/g09/l1.exe "/home/phzd/g09E/scratch/Gau-93001.inp" -scrdir="/home/phzd/g09E/scratch/"
 Default is to use a total of  18 processors:
                               18 via shared-memory
                                1 via Linda
 Entering Link 1 = /home/phzd/g09E/g09/l1.exe PID=     93003.
  
 Copyright (c) 1988,1990,1992,1993,1995,1998,2003,2009,2015,
            Gaussian, Inc.  All Rights Reserved.
  
 This is part of the Gaussian(R) 09 program.  It is based on
 the Gaussian(R) 03 system (copyright 2003, Gaussian, Inc.),
 the Gaussian(R) 98 system (copyright 1998, Gaussian, Inc.),
 the Gaussian(R) 94 system (copyright 1995, Gaussian, Inc.),
 the Gaussian 92(TM) system (copyright 1992, Gaussian, Inc.),
 the Gaussian 90(TM) system (copyright 1990, Gaussian, Inc.),
 the Gaussian 88(TM) system (copyright 1988, Gaussian, Inc.),
 the Gaussian 86(TM) system (copyright 1986, Carnegie Mellon
 University), and the Gaussian 82(TM) system (copyright 1983,
 Carnegie Mellon University). Gaussian is a federally registered
 trademark of Gaussian, Inc.
  
 This software contains proprietary and confidential information,
 including trade secrets, belonging to Gaussian, Inc.
  
 This software is provided under written license and may be
 used, copied, transmitted, or stored only in accord with that
 written license.
  
 The following legend is applicable only to US Government
 contracts under FAR:
  
                    RESTRICTED RIGHTS LEGEND
  
 Use, reproduction and disclosure by the US Government is
 subject to restrictions as set forth in subparagraphs (a)
 and (c) of the Commercial Computer Software - Restricted
 Rights clause in FAR 52.227-19.
  
 Gaussian, Inc.
 340 Quinnipiac St., Bldg. 40, Wallingford CT 06492
  
  
 ---------------------------------------------------------------
 Warning -- This program may not be used in any manner that
 competes with the business of Gaussian, Inc. or will provide
 assistance to any competitor of Gaussian, Inc.  The licensee
 of this program is prohibited from giving any competitor of
 Gaussian, Inc. access to this program.  By using this program,
 the user acknowledges that Gaussian, Inc. is engaged in the
 business of creating and licensing software in the field of
 computational chemistry and represents and warrants to the
 licensee that it is not a competitor of Gaussian, Inc. and that
 it will not use this program in any manner prohibited above.
 ---------------------------------------------------------------
  

 Cite this work as:
 Gaussian 09, Revision E.01,
 M. J. Frisch, G. W. Trucks, H. B. Schlegel, G. E. Scuseria, 
 M. A. Robb, J. R. Cheeseman, G. Scalmani, V. Barone, B. Mennucci, 
 G. A. Petersson, H. Nakatsuji, M. Caricato, X. Li, H. P. Hratchian, 
 A. F. Izmaylov, J. Bloino, G. Zheng, J. L. Sonnenberg, M. Hada, 
 M. Ehara, K. Toyota, R. Fukuda, J. Hasegawa, M. Ishida, T. Nakajima, 
 Y. Honda, O. Kitao, H. Nakai, T. Vreven, J. A. Montgomery, Jr., 
 J. E. Peralta, F. Ogliaro, M. Bearpark, J. J. Heyd, E. Brothers, 
 K. N. Kudin, V. N. Staroverov, T. Keith, R. Kobayashi, J. Normand, 
 K. Raghavachari, A. Rendell, J. C. Burant, S. S. Iyengar, J. Tomasi, 
 M. Cossi, N. Rega, J. M. Millam, M. Klene, J. E. Knox, J. B. Cross, 
 V. Bakken, C. Adamo, J. Jaramillo, R. Gomperts, R. E. Stratmann, 
 O. Yazyev, A. J. Austin, R. Cammi, C. Pomelli, J. W. Ochterski, 
 R. L. Martin, K. Morokuma, V. G. Zakrzewski, G. A. Voth, 
 P. Salvador, J. J. Dannenberg, S. Dapprich, A. D. Daniels, 
 O. Farkas, J. B. Foresman, J. V. Ortiz, J. Cioslowski, 
 and D. J. Fox, Gaussian, Inc., Wallingford CT, 2013.
 
 ******************************************
 Gaussian 09:  ES64L-G09RevE.01 30-Nov-2015
                20-Jun-2024 
 ******************************************
 %chk=b3lypTHAPyang.chk
 ----------------------------
 # opt freq b3lyp/6-31+g(d,p)
 ----------------------------
 1/14=-1,18=20,19=15,26=3,38=1/1,3;
 2/9=110,12=2,17=6,18=5,40=1/2;
 3/5=1,6=6,7=111,11=2,16=1,25=1,30=1,71=1,74=-5/1,2,3;
 4//1;
 5/5=2,38=5/2;
 6/7=2,8=2,9=2,10=2,28=1/1;
 7//1,2,3,16;
 1/14=-1,18=20,19=15,26=3/3(2);
 2/9=110/2;
 99//99;
 2/9=110/2;
 3/5=1,6=6,7=111,11=2,16=1,25=1,30=1,71=1,74=-5/1,2,3;
 4/5=5,16=3,69=1/1;
 5/5=2,38=5/2;
 7//1,2,3,16;
 1/14=-1,18=20,19=15,26=3/3(-5);
 2/9=110/2;
 6/7=2,8=2,9=2,10=2,19=2,28=1/1;
 99/9=1/99;
 ----------
 [No Title]
 ----------
 Symbolic Z-matrix:
 Charge =  1 Multiplicity = 1
 C                    -1.91992   0.14026   0.02961 
 C                    -1.92178  -1.20095   0.03032 
 C                    -0.72827  -1.81179   0.0079 
 C                     0.41698  -1.11228   0.00205 
 C                     0.39643   0.24678  -0.00271 
 C                    -0.79741   0.88022   0.00455 
 O                    -0.93215   2.23308   0.02945 
 C                     1.59001   0.92247  -0.01315 
 C                     1.78825   2.42609  -0.0367 
 O                     2.54363   0.18136  -0.01319 
 O                     1.60798  -1.88213   0.0196 
 O                    -3.08288  -1.91107   0.04959 
 H                    -2.89418   0.65816   0.05234 
 H                    -0.69651  -2.914     0.00701 
 H                    -1.85869   2.47904   0.18017 
 H                     1.31365   2.88228  -0.93383 
 H                     1.40873   2.89499   0.89855 
 H                     2.87211   2.67513  -0.09678 
 H                     2.25203  -1.51392  -0.62966 
 H                     1.40868  -2.82315  -0.22356 
 H                    -2.87516  -2.85403  -0.05173 
 

 GradGradGradGradGradGradGradGradGradGradGradGradGradGradGradGradGradGrad
 Berny optimization.
 Initialization pass.
                           ----------------------------
                           !    Initial Parameters    !
                           ! (Angstroms and Degrees)  !
 --------------------------                            --------------------------
 ! Name  Definition              Value          Derivative Info.                !
 --------------------------------------------------------------------------------
 ! R1    R(1,2)                  1.3412         estimate D2E/DX2                !
 ! R2    R(1,6)                  1.3447         estimate D2E/DX2                !
 ! R3    R(1,13)                 1.1036         estimate D2E/DX2                !
 ! R4    R(2,3)                  1.3409         estimate D2E/DX2                !
 ! R5    R(2,12)                 1.3612         estimate D2E/DX2                !
 ! R6    R(3,4)                  1.342          estimate D2E/DX2                !
 ! R7    R(3,14)                 1.1027         estimate D2E/DX2                !
 ! R8    R(4,5)                  1.3592         estimate D2E/DX2                !
 ! R9    R(4,11)                 1.4183         estimate D2E/DX2                !
 ! R10   R(5,6)                  1.3515         estimate D2E/DX2                !
 ! R11   R(5,8)                  1.3716         estimate D2E/DX2                !
 ! R12   R(6,7)                  1.3598         estimate D2E/DX2                !
 ! R13   R(7,15)                 0.9704         estimate D2E/DX2                !
 ! R14   R(8,9)                  1.5168         estimate D2E/DX2                !
 ! R15   R(8,10)                 1.2077         estimate D2E/DX2                !
 ! R16   R(9,16)                 1.1127         estimate D2E/DX2                !
 ! R17   R(9,17)                 1.1129         estimate D2E/DX2                !
 ! R18   R(9,18)                 1.1137         estimate D2E/DX2                !
 ! R19   R(11,19)                0.9859         estimate D2E/DX2                !
 ! R20   R(11,20)                0.9921         estimate D2E/DX2                !
 ! R21   R(12,21)                0.9709         estimate D2E/DX2                !
 ! A1    A(2,1,6)              123.4665         estimate D2E/DX2                !
 ! A2    A(2,1,13)             117.9073         estimate D2E/DX2                !
 ! A3    A(6,1,13)             118.6262         estimate D2E/DX2                !
 ! A4    A(1,2,3)              117.0193         estimate D2E/DX2                !
 ! A5    A(1,2,12)             121.5261         estimate D2E/DX2                !
 ! A6    A(3,2,12)             121.4544         estimate D2E/DX2                !
 ! A7    A(2,3,4)              121.4797         estimate D2E/DX2                !
 ! A8    A(2,3,14)             118.7507         estimate D2E/DX2                !
 ! A9    A(4,3,14)             119.7652         estimate D2E/DX2                !
 ! A10   A(3,4,5)              120.5504         estimate D2E/DX2                !
 ! A11   A(3,4,11)             115.6992         estimate D2E/DX2                !
 ! A12   A(5,4,11)             123.7449         estimate D2E/DX2                !
 ! A13   A(4,5,6)              118.8146         estimate D2E/DX2                !
 ! A14   A(4,5,8)              118.6484         estimate D2E/DX2                !
 ! A15   A(6,5,8)              122.5369         estimate D2E/DX2                !
 ! A16   A(1,6,5)              118.6579         estimate D2E/DX2                !
 ! A17   A(1,6,7)              117.6731         estimate D2E/DX2                !
 ! A18   A(5,6,7)              123.6371         estimate D2E/DX2                !
 ! A19   A(6,7,15)             110.4641         estimate D2E/DX2                !
 ! A20   A(5,8,9)              127.0272         estimate D2E/DX2                !
 ! A21   A(5,8,10)             112.6322         estimate D2E/DX2                !
 ! A22   A(9,8,10)             120.3379         estimate D2E/DX2                !
 ! A23   A(8,9,16)             111.295          estimate D2E/DX2                !
 ! A24   A(8,9,17)             111.1025         estimate D2E/DX2                !
 ! A25   A(8,9,18)             110.4682         estimate D2E/DX2                !
 ! A26   A(16,9,17)            111.0603         estimate D2E/DX2                !
 ! A27   A(16,9,18)            106.2552         estimate D2E/DX2                !
 ! A28   A(17,9,18)            106.4393         estimate D2E/DX2                !
 ! A29   A(4,11,19)            109.7377         estimate D2E/DX2                !
 ! A30   A(4,11,20)            110.067          estimate D2E/DX2                !
 ! A31   A(19,11,20)           108.9096         estimate D2E/DX2                !
 ! A32   A(2,12,21)            108.8273         estimate D2E/DX2                !
 ! D1    D(6,1,2,3)              0.1694         estimate D2E/DX2                !
 ! D2    D(6,1,2,12)          -179.6727         estimate D2E/DX2                !
 ! D3    D(13,1,2,3)          -179.7389         estimate D2E/DX2                !
 ! D4    D(13,1,2,12)            0.419          estimate D2E/DX2                !
 ! D5    D(2,1,6,5)             -0.9027         estimate D2E/DX2                !
 ! D6    D(2,1,6,7)           -178.9244         estimate D2E/DX2                !
 ! D7    D(13,1,6,5)           179.0049         estimate D2E/DX2                !
 ! D8    D(13,1,6,7)             0.9833         estimate D2E/DX2                !
 ! D9    D(1,2,3,4)              0.8162         estimate D2E/DX2                !
 ! D10   D(1,2,3,14)          -179.9498         estimate D2E/DX2                !
 ! D11   D(12,2,3,4)          -179.3416         estimate D2E/DX2                !
 ! D12   D(12,2,3,14)           -0.1076         estimate D2E/DX2                !
 ! D13   D(1,2,12,21)          173.853          estimate D2E/DX2                !
 ! D14   D(3,2,12,21)           -5.9821         estimate D2E/DX2                !
 ! D15   D(2,3,4,5)             -1.0556         estimate D2E/DX2                !
 ! D16   D(2,3,4,11)           178.1228         estimate D2E/DX2                !
 ! D17   D(14,3,4,5)           179.718          estimate D2E/DX2                !
 ! D18   D(14,3,4,11)           -1.1035         estimate D2E/DX2                !
 ! D19   D(3,4,5,6)              0.2897         estimate D2E/DX2                !
 ! D20   D(3,4,5,8)           -179.7845         estimate D2E/DX2                !
 ! D21   D(11,4,5,6)          -178.82           estimate D2E/DX2                !
 ! D22   D(11,4,5,8)             1.1058         estimate D2E/DX2                !
 ! D23   D(3,4,11,19)          135.8557         estimate D2E/DX2                !
 ! D24   D(3,4,11,20)           16.0128         estimate D2E/DX2                !
 ! D25   D(5,4,11,19)          -44.9951         estimate D2E/DX2                !
 ! D26   D(5,4,11,20)         -164.8381         estimate D2E/DX2                !
 ! D27   D(4,5,6,1)              0.6507         estimate D2E/DX2                !
 ! D28   D(4,5,6,7)            178.5463         estimate D2E/DX2                !
 ! D29   D(8,5,6,1)           -179.2721         estimate D2E/DX2                !
 ! D30   D(8,5,6,7)             -1.3766         estimate D2E/DX2                !
 ! D31   D(4,5,8,9)            179.205          estimate D2E/DX2                !
 ! D32   D(4,5,8,10)            -0.1891         estimate D2E/DX2                !
 ! D33   D(6,5,8,9)             -0.8721         estimate D2E/DX2                !
 ! D34   D(6,5,8,10)           179.7339         estimate D2E/DX2                !
 ! D35   D(1,6,7,15)             7.3907         estimate D2E/DX2                !
 ! D36   D(5,6,7,15)          -170.5242         estimate D2E/DX2                !
 ! D37   D(5,8,9,16)           -59.1209         estimate D2E/DX2                !
 ! D38   D(5,8,9,17)            65.2003         estimate D2E/DX2                !
 ! D39   D(5,8,9,18)          -176.9063         estimate D2E/DX2                !
 ! D40   D(10,8,9,16)          120.2311         estimate D2E/DX2                !
 ! D41   D(10,8,9,17)         -115.4477         estimate D2E/DX2                !
 ! D42   D(10,8,9,18)            2.4457         estimate D2E/DX2                !
 --------------------------------------------------------------------------------
 Trust Radius=3.00D-01 FncErr=1.00D-07 GrdErr=1.00D-06
 Number of steps in this run=    105 maximum allowed number of steps=    126.
 GradGradGradGradGradGradGradGradGradGradGradGradGradGradGradGradGradGrad

                          Input orientation:                          
 ---------------------------------------------------------------------
 Center     Atomic      Atomic             Coordinates (Angstroms)
 Number     Number       Type             X           Y           Z
 ---------------------------------------------------------------------
      1          6           0       -1.919920    0.140260    0.029608
      2          6           0       -1.921782   -1.200952    0.030319
      3          6           0       -0.728272   -1.811794    0.007903
      4          6           0        0.416982   -1.112276    0.002051
      5          6           0        0.396425    0.246779   -0.002708
      6          6           0       -0.797413    0.880215    0.004547
      7          8           0       -0.932145    2.233077    0.029446
      8          6           0        1.590007    0.922471   -0.013146
      9          6           0        1.788250    2.426094   -0.036696
     10          8           0        2.543634    0.181356   -0.013191
     11          8           0        1.607982   -1.882134    0.019599
     12          8           0       -3.082882   -1.911069    0.049585
     13          1           0       -2.894184    0.658155    0.052341
     14          1           0       -0.696509   -2.914000    0.007007
     15          1           0       -1.858691    2.479040    0.180166
     16          1           0        1.313648    2.882277   -0.933830
     17          1           0        1.408728    2.894985    0.898545
     18          1           0        2.872112    2.675126   -0.096777
     19          1           0        2.252029   -1.513921   -0.629659
     20          1           0        1.408680   -2.823145   -0.223555
     21          1           0       -2.875163   -2.854028   -0.051729
 ---------------------------------------------------------------------
                    Distance matrix (angstroms):
                    1          2          3          4          5
     1  C    0.000000
     2  C    1.341213   0.000000
     3  C    2.287140   1.340931   0.000000
     4  C    2.651550   2.340615   1.342001   0.000000
     5  C    2.319018   2.733331   2.345800   1.359219   0.000000
     6  C    1.344687   2.365613   2.692899   2.333406   1.351497
     7  O    2.314213   3.573785   4.050063   3.607254   2.389877
     8  C    3.596286   4.104080   3.584838   2.348705   1.371607
     9  C    4.356599   5.188862   4.928952   3.794989   2.586068
    10  O    4.463948   4.674677   3.831248   2.489250   2.148231
    11  O    4.066481   3.594907   2.337342   1.418263   2.449620
    12  O    2.358141   1.361172   2.357070   3.590178   4.094462
    13  H    1.103595   2.098173   3.285392   3.755100   3.316680
    14  H    3.290251   2.106269   1.102664   2.118041   3.344417
    15  H    2.344421   3.683582   4.440583   4.255345   3.178361
    16  H    4.347739   5.298146   5.204863   4.199564   2.941791
    17  H    4.407205   5.350029   5.245358   4.224382   2.974897
    18  H    5.422646   6.166162   5.753796   4.514626   3.469113
    19  H    4.536089   4.237242   3.062255   1.981861   2.633704
    20  H    4.463792   3.713211   2.375493   1.990336   3.240041
    21  H    3.144021   1.910060   2.387247   3.724891   4.507848
                    6          7          8          9         10
     6  C    0.000000
     7  O    1.359782   0.000000
     8  C    2.387859   2.842667   0.000000
     9  C    3.012822   2.728036   1.516818   0.000000
    10  O    3.413402   4.036387   1.207748   2.368545   0.000000
    11  O    3.662885   4.836042   2.804854   4.312365   2.265946
    12  O    3.607861   4.669049   5.465233   6.522757   6.003321
    13  H    2.109039   2.516049   4.492451   5.005869   5.459075
    14  H    3.795557   5.152517   4.466214   5.890037   4.481090
    15  H    1.927017   0.970413   3.788640   3.653767   4.969628
    16  H    3.057022   2.528428   2.182859   1.112744   3.107317
    17  H    3.118588   2.583242   2.180563   1.112911   3.079457
    18  H    4.086243   3.831933   2.173151   1.113725   2.516699
    19  H    3.928511   4.961187   2.598917   4.011286   1.827301
    20  H    4.316683   5.577531   3.755901   5.266261   3.218602
    21  H    4.273732   5.446150   5.848177   7.044667   6.211151
                   11         12         13         14         15
    11  O    0.000000
    12  O    4.691049   0.000000
    13  H    5.169491   2.576146   0.000000
    14  H    2.524992   2.588911   4.194296   0.000000
    15  H    5.573459   4.559468   2.098620   5.519559   0.000000
    16  H    4.867779   6.578202   4.860566   6.206668   3.386343
    17  H    4.861390   6.632756   4.922857   6.242689   3.371217
    18  H    4.730770   7.517750   6.110694   6.632055   4.742957
    19  H    0.985857   5.392622   5.627304   3.325574   5.787709
    20  H    0.992143   4.591363   5.541679   2.119725   6.241143
    21  H    4.587838   0.970867   3.513776   2.180271   5.434023
                   16         17         18         19         20
    16  H    0.000000
    17  H    1.834884   0.000000
    18  H    1.781117   1.783395   0.000000
    19  H    4.505512   4.741837   4.268089   0.000000
    20  H    5.750249   5.827188   5.691106   1.609418   0.000000
    21  H    7.157474   7.232281   7.975258   5.330852   4.287399
                   21
    21  H    0.000000
 Stoichiometry    C8H9O4(1+)
 Framework group  C1[X(C8H9O4)]
 Deg. of freedom    57
 Full point group                 C1      NOp   1
 Largest Abelian subgroup         C1      NOp   1
 Largest concise Abelian subgroup C1      NOp   1
                         Standard orientation:                         
 ---------------------------------------------------------------------
 Center     Atomic      Atomic             Coordinates (Angstroms)
 Number     Number       Type             X           Y           Z
 ---------------------------------------------------------------------
      1          6           0       -1.386013   -1.264102    0.009372
      2          6           0       -2.172146   -0.177490   -0.001707
      3          6           0       -1.561358    1.016242   -0.007808
      4          6           0       -0.223328    1.118765   -0.019342
      5          6           0        0.555109    0.004645   -0.003630
      6          6           0       -0.042551   -1.207331    0.017810
      7          8           0        0.639329   -2.383728    0.006096
      8          6           0        1.918445    0.154834   -0.011727
      9          6           0        2.959109   -0.948242    0.019535
     10          8           0        2.258231    1.313537   -0.036426
     11          8           0        0.291935    2.439273   -0.066581
     12          8           0       -3.529382   -0.280925   -0.003351
     13          1           0       -1.873383   -2.254250    0.010067
     14          1           0       -2.180384    1.928714   -0.016096
     15          1           0        0.030088   -3.127733   -0.124227
     16          1           0        2.851523   -1.579644    0.929456
     17          1           0        2.914776   -1.567228   -0.904295
     18          1           0        3.984447   -0.515306    0.059946
     19          1           0        1.037172    2.528931    0.572557
     20          1           0       -0.417359    3.090242    0.173187
     21          1           0       -3.911391    0.607096    0.086487
 ---------------------------------------------------------------------
 Rotational constants (GHZ):      1.5197802      0.8262864      0.5377423
 Standard basis: 6-31+G(d,p) (6D, 7F)
 There are   273 symmetry adapted cartesian basis functions of A   symmetry.
 There are   273 symmetry adapted basis functions of A   symmetry.
   273 basis functions,   447 primitive gaussians,   273 cartesian basis functions
    44 alpha electrons       44 beta electrons
       nuclear repulsion energy       730.3447475544 Hartrees.
 NAtoms=   21 NActive=   21 NUniq=   21 SFac= 1.00D+00 NAtFMM=   60 NAOKFM=F Big=F
 Integral buffers will be    131072 words long.
 Raffenetti 2 integral format.
 Two-electron integral symmetry is turned on.
 One-electron integrals computed using PRISM.
 NBasis=   273 RedAO= T EigKep=  1.10D-06  NBF=   273
 NBsUse=   273 1.00D-06 EigRej= -1.00D+00 NBFU=   273
 ExpMin= 4.38D-02 ExpMax= 5.48D+03 ExpMxC= 8.25D+02 IAcc=2 IRadAn=         4 AccDes= 0.00D+00
 Harris functional with IExCor=  402 and IRadAn=       4 diagonalized for initial guess.
 HarFok:  IExCor=  402 AccDes= 0.00D+00 IRadAn=         4 IDoV= 1 UseB2=F ITyADJ=14
 ICtDFT=  3500011 ScaDFX=  1.000000  1.000000  1.000000  1.000000
 FoFCou: FMM=F IPFlag=           0 FMFlag=      100000 FMFlg1=           0
         NFxFlg=           0 DoJE=T BraDBF=F KetDBF=T FulRan=T
         wScrn=  0.000000 ICntrl=     500 IOpCl=  0 I1Cent=   200000004 NGrid=           0
         NMat0=    1 NMatS0=      1 NMatT0=    0 NMatD0=    1 NMtDS0=    0 NMtDT0=    0
 Petite list used in FoFCou.
 Keep R1 ints in memory in canonical form, NReq=709970467.
 Requested convergence on RMS density matrix=1.00D-08 within 128 cycles.
 Requested convergence on MAX density matrix=1.00D-06.
 Requested convergence on             energy=1.00D-06.
 No special actions if energy rises.
 SCF Done:  E(RB3LYP) =  -610.855092939     A.U. after   17 cycles
            NFock= 17  Conv=0.82D-08     -V/T= 2.0071

 **********************************************************************

            Population analysis using the SCF density.

 **********************************************************************

 Orbital symmetries:
       Occupied  (A) (A) (A) (A) (A) (A) (A) (A) (A) (A) (A) (A)
                 (A) (A) (A) (A) (A) (A) (A) (A) (A) (A) (A) (A)
                 (A) (A) (A) (A) (A) (A) (A) (A) (A) (A) (A) (A)
                 (A) (A) (A) (A) (A) (A) (A) (A)
       Virtual   (A) (A) (A) (A) (A) (A) (A) (A) (A) (A) (A) (A)
                 (A) (A) (A) (A) (A) (A) (A) (A) (A) (A) (A) (A)
                 (A) (A) (A) (A) (A) (A) (A) (A) (A) (A) (A) (A)
                 (A) (A) (A) (A) (A) (A) (A) (A) (A) (A) (A) (A)
                 (A) (A) (A) (A) (A) (A) (A) (A) (A) (A) (A) (A)
                 (A) (A) (A) (A) (A) (A) (A) (A) (A) (A) (A) (A)
                 (A) (A) (A) (A) (A) (A) (A) (A) (A) (A) (A) (A)
                 (A) (A) (A) (A) (A) (A) (A) (A) (A) (A) (A) (A)
                 (A) (A) (A) (A) (A) (A) (A) (A) (A) (A) (A) (A)
                 (A) (A) (A) (A) (A) (A) (A) (A) (A) (A) (A) (A)
                 (A) (A) (A) (A) (A) (A) (A) (A) (A) (A) (A) (A)
                 (A) (A) (A) (A) (A) (A) (A) (A) (A) (A) (A) (A)
                 (A) (A) (A) (A) (A) (A) (A) (A) (A) (A) (A) (A)
                 (A) (A) (A) (A) (A) (A) (A) (A) (A) (A) (A) (A)
                 (A) (A) (A) (A) (A) (A) (A) (A) (A) (A) (A) (A)
                 (A) (A) (A) (A) (A) (A) (A) (A) (A) (A) (A) (A)
                 (A) (A) (A) (A) (A) (A) (A) (A) (A) (A) (A) (A)
                 (A) (A) (A) (A) (A) (A) (A) (A) (A) (A) (A) (A)
                 (A) (A) (A) (A) (A) (A) (A) (A) (A) (A) (A) (A)
                 (A)
 The electronic state is 1-A.
 Alpha  occ. eigenvalues --  -19.51270 -19.35343 -19.35036 -19.29349 -10.46609
 Alpha  occ. eigenvalues --  -10.43206 -10.43179 -10.42918 -10.37841 -10.36705
 Alpha  occ. eigenvalues --  -10.35186 -10.31909  -1.38752  -1.23763  -1.23402
 Alpha  occ. eigenvalues --   -1.22125  -1.07723  -0.97007  -0.96108  -0.89354
 Alpha  occ. eigenvalues --   -0.86523  -0.85371  -0.81658  -0.78502  -0.74375
 Alpha  occ. eigenvalues --   -0.72725  -0.69077  -0.68637  -0.68003  -0.64399
 Alpha  occ. eigenvalues --   -0.61927  -0.60433  -0.58843  -0.58599  -0.55901
 Alpha  occ. eigenvalues --   -0.55840  -0.54929  -0.53650  -0.52175  -0.49906
 Alpha  occ. eigenvalues --   -0.49576  -0.42197  -0.41561  -0.41329
 Alpha virt. eigenvalues --   -0.21984  -0.20134  -0.17533  -0.14918  -0.13385
 Alpha virt. eigenvalues --   -0.12349  -0.11819  -0.09916  -0.09158  -0.08084
 Alpha virt. eigenvalues --   -0.07609  -0.06101  -0.04955  -0.04263  -0.03812
 Alpha virt. eigenvalues --   -0.03619  -0.02959  -0.02022  -0.01135  -0.00801
 Alpha virt. eigenvalues --   -0.00705   0.00018   0.01102   0.01447   0.02087
 Alpha virt. eigenvalues --    0.02496   0.02909   0.03783   0.03966   0.04195
 Alpha virt. eigenvalues --    0.05183   0.05508   0.07026   0.07636   0.08059
 Alpha virt. eigenvalues --    0.08320   0.08803   0.09262   0.09617   0.10180
 Alpha virt. eigenvalues --    0.10852   0.11868   0.12528   0.13018   0.13456
 Alpha virt. eigenvalues --    0.13983   0.15048   0.15778   0.15990   0.16913
 Alpha virt. eigenvalues --    0.17252   0.17610   0.18525   0.18944   0.19352
 Alpha virt. eigenvalues --    0.19766   0.20528   0.21117   0.21644   0.22405
 Alpha virt. eigenvalues --    0.23969   0.24882   0.25667   0.26659   0.27789
 Alpha virt. eigenvalues --    0.28716   0.30382   0.32171   0.33141   0.35429
 Alpha virt. eigenvalues --    0.38318   0.48831   0.49323   0.50463   0.52111
 Alpha virt. eigenvalues --    0.53298   0.54746   0.55856   0.56417   0.58076
 Alpha virt. eigenvalues --    0.58218   0.59864   0.60443   0.62429   0.63736
 Alpha virt. eigenvalues --    0.67883   0.68391   0.70789   0.71451   0.71964
 Alpha virt. eigenvalues --    0.74884   0.75292   0.77622   0.81968   0.84906
 Alpha virt. eigenvalues --    0.86115   0.86680   0.87030   0.90228   0.92996
 Alpha virt. eigenvalues --    0.93724   0.95153   0.95719   0.97856   0.98441
 Alpha virt. eigenvalues --    1.00302   1.01169   1.02469   1.02920   1.03967
 Alpha virt. eigenvalues --    1.04953   1.05079   1.06569   1.08286   1.09554
 Alpha virt. eigenvalues --    1.10632   1.10894   1.14083   1.15066   1.16235
 Alpha virt. eigenvalues --    1.17466   1.18416   1.21296   1.21865   1.23866
 Alpha virt. eigenvalues --    1.24556   1.26874   1.27927   1.29028   1.31973
 Alpha virt. eigenvalues --    1.34408   1.38066   1.43474   1.45480   1.49038
 Alpha virt. eigenvalues --    1.54005   1.54974   1.56458   1.58387   1.59255
 Alpha virt. eigenvalues --    1.61934   1.65485   1.66942   1.68091   1.71126
 Alpha virt. eigenvalues --    1.72195   1.73163   1.75161   1.76236   1.76690
 Alpha virt. eigenvalues --    1.79222   1.84218   1.87838   1.88571   1.90293
 Alpha virt. eigenvalues --    1.92469   1.92860   1.95859   1.97611   1.98535
 Alpha virt. eigenvalues --    2.02159   2.03501   2.04825   2.06942   2.09034
 Alpha virt. eigenvalues --    2.09277   2.11259   2.13675   2.16600   2.19427
 Alpha virt. eigenvalues --    2.23552   2.23969   2.24682   2.27015   2.28750
 Alpha virt. eigenvalues --    2.30685   2.31957   2.32962   2.35726   2.37778
 Alpha virt. eigenvalues --    2.39557   2.42424   2.43840   2.44283   2.46002
 Alpha virt. eigenvalues --    2.49994   2.50762   2.53880   2.54989   2.58058
 Alpha virt. eigenvalues --    2.58266   2.61765   2.63363   2.63937   2.67183
 Alpha virt. eigenvalues --    2.67813   2.74399   2.75952   2.78793   2.82072
 Alpha virt. eigenvalues --    2.87538   2.90347   2.99779   3.00466   3.05857
 Alpha virt. eigenvalues --    3.08030   3.13731   3.15526   3.19887   3.27336
 Alpha virt. eigenvalues --    3.28515   3.30096   3.34941   3.36421   3.38640
 Alpha virt. eigenvalues --    3.43363   3.67734   4.07227   4.10554   4.14794
 Alpha virt. eigenvalues --    4.26116   4.28312   4.30838   4.33933   4.41232
 Alpha virt. eigenvalues --    4.51893   4.64125   4.70017   4.90915
          Condensed to atoms (all electrons):
               1          2          3          4          5          6
     1  C   17.158852  -3.662900   1.362542  -5.694005  -0.128092  -7.507606
     2  C   -3.662900  10.205244  -1.786276   2.552465  -4.021545   4.945838
     3  C    1.362542  -1.786276  19.772041  -4.641220  -3.116996  -4.777223
     4  C   -5.694005   2.552465  -4.641220  27.240173  -6.461261   1.743836
     5  C   -0.128092  -4.021545  -3.116996  -6.461261  23.299287  -6.663433
     6  C   -7.507606   4.945838  -4.777223   1.743836  -6.663433  23.763843
     7  O    0.316517  -0.015451   0.039038   0.041355  -0.420514   0.020222
     8  C    2.904146  -1.446496  -1.153859  -5.045599  -0.106925  -2.875848
     9  C   -0.050562   0.028932  -0.952231  -1.950262   0.853773   0.253284
    10  O    0.073988  -0.031366   0.251779   0.095371  -0.327582  -0.379580
    11  O   -0.051389   0.117701  -0.055550  -0.477671   0.011120   0.214240
    12  O   -0.151225  -0.022861   0.076526   0.060667  -0.021153   0.029955
    13  H    0.084263   0.151464   0.063239  -0.025013   0.020121   0.021345
    14  H    0.066410   0.197449   0.104740  -0.036436   0.011023  -0.055393
    15  H   -0.120792   0.015054   0.002532   0.003388   0.157200  -0.062672
    16  H    0.002138   0.001975  -0.009944  -0.020458   0.004106   0.032709
    17  H   -0.001561   0.003109  -0.002630   0.028701   0.039703  -0.003068
    18  H   -0.003496  -0.000042  -0.000945  -0.021693   0.050956   0.026967
    19  H    0.007582  -0.000094   0.181444   0.058113  -0.181630  -0.059493
    20  H    0.009982  -0.031248  -0.253848   0.034641   0.181334  -0.015858
    21  H    0.101357  -0.032442  -0.043493   0.001591   0.028911  -0.049437
               7          8          9         10         11         12
     1  C    0.316517   2.904146  -0.050562   0.073988  -0.051389  -0.151225
     2  C   -0.015451  -1.446496   0.028932  -0.031366   0.117701  -0.022861
     3  C    0.039038  -1.153859  -0.952231   0.251779  -0.055550   0.076526
     4  C    0.041355  -5.045599  -1.950262   0.095371  -0.477671   0.060667
     5  C   -0.420514  -0.106925   0.853773  -0.327582   0.011120  -0.021153
     6  C    0.020222  -2.875848   0.253284  -0.379580   0.214240   0.029955
     7  O    8.455707  -0.007125  -0.085861   0.004708  -0.001128  -0.000353
     8  C   -0.007125  13.627801  -0.970669   0.340391  -0.070988   0.000595
     9  C   -0.085861  -0.970669   7.924215   0.015547   0.065212  -0.001386
    10  O    0.004708   0.340391   0.015547   8.473892  -0.076497   0.000101
    11  O   -0.001128  -0.070988   0.065212  -0.076497   8.319942  -0.002220
    12  O   -0.000353   0.000595  -0.001386   0.000101  -0.002220   8.344689
    13  H   -0.022824   0.010864   0.001116   0.000049   0.000118  -0.010029
    14  H    0.000081   0.030787  -0.000199  -0.000016  -0.023941  -0.021695
    15  H    0.202451   0.004519   0.012208   0.000004   0.000031  -0.000072
    16  H   -0.001876  -0.126530   0.467280   0.002303   0.000424   0.000000
    17  H   -0.001476  -0.137638   0.422238   0.004883  -0.000457  -0.000000
    18  H   -0.000001  -0.092634   0.404747  -0.007995  -0.000040  -0.000000
    19  H   -0.000017   0.000402  -0.005886   0.079667   0.189326   0.000018
    20  H    0.000023   0.078827   0.006840   0.008737   0.175176  -0.000132
    21  H    0.000025   0.003724  -0.000032   0.000004  -0.000125   0.203347
              13         14         15         16         17         18
     1  C    0.084263   0.066410  -0.120792   0.002138  -0.001561  -0.003496
     2  C    0.151464   0.197449   0.015054   0.001975   0.003109  -0.000042
     3  C    0.063239   0.104740   0.002532  -0.009944  -0.002630  -0.000945
     4  C   -0.025013  -0.036436   0.003388  -0.020458   0.028701  -0.021693
     5  C    0.020121   0.011023   0.157200   0.004106   0.039703   0.050956
     6  C    0.021345  -0.055393  -0.062672   0.032709  -0.003068   0.026967
     7  O   -0.022824   0.000081   0.202451  -0.001876  -0.001476  -0.000001
     8  C    0.010864   0.030787   0.004519  -0.126530  -0.137638  -0.092634
     9  C    0.001116  -0.000199   0.012208   0.467280   0.422238   0.404747
    10  O    0.000049  -0.000016   0.000004   0.002303   0.004883  -0.007995
    11  O    0.000118  -0.023941   0.000031   0.000424  -0.000457  -0.000040
    12  O   -0.010029  -0.021695  -0.000072   0.000000  -0.000000  -0.000000
    13  H    0.542899  -0.000223   0.010153  -0.000002  -0.000001  -0.000000
    14  H   -0.000223   0.587404  -0.000001   0.000000  -0.000000  -0.000000
    15  H    0.010153  -0.000001   0.376874   0.000349   0.000182  -0.000026
    16  H   -0.000002   0.000000   0.000349   0.494468  -0.015845  -0.025048
    17  H   -0.000001  -0.000000   0.000182  -0.015845   0.491049  -0.023445
    18  H   -0.000000  -0.000000  -0.000026  -0.025048  -0.023445   0.497217
    19  H   -0.000000   0.000403  -0.000000  -0.000057  -0.000001   0.000006
    20  H   -0.000000   0.013457  -0.000000  -0.000001  -0.000001  -0.000000
    21  H   -0.000069   0.009407   0.000001  -0.000000   0.000000  -0.000000
              19         20         21
     1  C    0.007582   0.009982   0.101357
     2  C   -0.000094  -0.031248  -0.032442
     3  C    0.181444  -0.253848  -0.043493
     4  C    0.058113   0.034641   0.001591
     5  C   -0.181630   0.181334   0.028911
     6  C   -0.059493  -0.015858  -0.049437
     7  O   -0.000017   0.000023   0.000025
     8  C    0.000402   0.078827   0.003724
     9  C   -0.005886   0.006840  -0.000032
    10  O    0.079667   0.008737   0.000004
    11  O    0.189326   0.175176  -0.000125
    12  O    0.000018  -0.000132   0.203347
    13  H   -0.000000  -0.000000  -0.000069
    14  H    0.000403   0.013457   0.009407
    15  H   -0.000000  -0.000000   0.000001
    16  H   -0.000057  -0.000001  -0.000000
    17  H   -0.000001  -0.000001   0.000000
    18  H    0.000006  -0.000000  -0.000000
    19  H    0.284431  -0.010727   0.000001
    20  H   -0.010727   0.362958   0.000022
    21  H    0.000001   0.000022   0.409135
 Mulliken charges:
               1
     1  C    1.283852
     2  C   -1.168509
     3  C    0.940334
     4  C   -1.486685
     5  C    2.791599
     6  C   -2.602628
     7  O   -0.523503
     8  C    1.032255
     9  C   -0.438304
    10  O   -0.528388
    11  O   -0.333285
    12  O   -0.484772
    13  H    0.152532
    14  H    0.116742
    15  H    0.398620
    16  H    0.194010
    17  H    0.196258
    18  H    0.195473
    19  H    0.456511
    20  H    0.439817
    21  H    0.368073
 Sum of Mulliken charges =   1.00000
 Mulliken charges with hydrogens summed into heavy atoms:
               1
     1  C    1.436383
     2  C   -1.168509
     3  C    1.057077
     4  C   -1.486685
     5  C    2.791599
     6  C   -2.602628
     7  O   -0.124883
     8  C    1.032255
     9  C    0.147436
    10  O   -0.528388
    11  O    0.563042
    12  O   -0.116699
 Electronic spatial extent (au):  <R**2>=           1972.9275
 Charge=              1.0000 electrons
 Dipole moment (field-independent basis, Debye):
    X=             -3.0348    Y=              4.4382    Z=              1.3326  Tot=              5.5393
 Quadrupole moment (field-independent basis, Debye-Ang):
   XX=            -54.0679   YY=            -32.1030   ZZ=            -67.6309
   XY=            -10.0577   XZ=              0.6970   YZ=              5.2970
 Traceless Quadrupole moment (field-independent basis, Debye-Ang):
   XX=             -2.8006   YY=             19.1642   ZZ=            -16.3636
   XY=            -10.0577   XZ=              0.6970   YZ=              5.2970
 Octapole moment (field-independent basis, Debye-Ang**2):
  XXX=            -25.5843  YYY=             42.0649  ZZZ=              0.4311  XYY=            -22.5569
  XXY=             14.1952  XXZ=              4.1388  XZZ=              4.9596  YZZ=              4.0014
  YYZ=              9.6801  XYZ=              2.9289
 Hexadecapole moment (field-independent basis, Debye-Ang**3):
 XXXX=          -1335.8109 YYYY=           -437.0045 ZZZZ=            -74.5221 XXXY=           -156.7500
 XXXZ=             -9.0402 YYYX=             15.5865 YYYZ=             45.9888 ZZZX=              0.3391
 ZZZY=              3.1869 XXYY=           -369.0723 XXZZ=           -271.3301 YYZZ=           -144.7532
 XXYZ=              6.8440 YYXZ=              8.3690 ZZXY=              0.7317
 N-N= 7.303447475544D+02 E-N=-2.872820792844D+03  KE= 6.065714959556D+02
 Calling FoFJK, ICntrl=      2127 FMM=F ISym2X=0 I1Cent= 0 IOpClX= 0 NMat=1 NMatS=1 NMatT=0.
 ***** Axes restored to original set *****
 -------------------------------------------------------------------
 Center     Atomic                   Forces (Hartrees/Bohr)
 Number     Number              X              Y              Z
 -------------------------------------------------------------------
      1        6          -0.078130721    0.031562999    0.001878954
      2        6          -0.049604982   -0.022109207   -0.000035600
      3        6           0.031083066   -0.080228278   -0.000319104
      4        6          -0.021229886   -0.016361912    0.000693715
      5        6          -0.001909722    0.012262922   -0.000531963
      6        6          -0.040477293    0.040763138    0.005246159
      7        8           0.013725810   -0.004029998   -0.000271648
      8        6           0.041943004    0.064599611   -0.001549588
      9        6           0.010208207    0.011552405    0.000561467
     10        8           0.078903031   -0.016263355   -0.009895315
     11        8           0.002192929   -0.035296420   -0.011701508
     12        8           0.009656298    0.007139034   -0.001490650
     13        1           0.007226873   -0.006169397   -0.000759546
     14        1           0.000461202    0.006664899    0.000496752
     15        1           0.002415103   -0.001142450   -0.001853834
     16        1          -0.000998983   -0.003830635    0.013664527
     17        1          -0.002091537   -0.003432869   -0.013367294
     18        1          -0.011441633   -0.010733388    0.001248404
     19        1           0.014823287    0.018509436    0.009803158
     20        1          -0.000538203    0.005132088    0.006696407
     21        1          -0.006215848    0.001411376    0.001486508
 -------------------------------------------------------------------
 Cartesian Forces:  Max     0.080228278 RMS     0.024469205

 GradGradGradGradGradGradGradGradGradGradGradGradGradGradGradGradGradGrad
 Berny optimization.
 FormGI is forming the generalized inverse of G from B-inverse, IUseBI=4.
 Internal  Forces:  Max     0.122107022 RMS     0.023994724
 Search for a local minimum.
 Step number   1 out of a maximum of  105
 All quantities printed in internal units (Hartrees-Bohrs-Radians)
 Mixed Optimization -- RFO/linear search
 Second derivative matrix not updated -- first step.
 ITU=  0
     Eigenvalues ---    0.00543   0.01251   0.01450   0.02205   0.02224
     Eigenvalues ---    0.02347   0.02464   0.02621   0.02661   0.02702
     Eigenvalues ---    0.02750   0.02809   0.02843   0.02862   0.02865
     Eigenvalues ---    0.05855   0.06928   0.07290   0.15999   0.16000
     Eigenvalues ---    0.16000   0.16000   0.16000   0.16000   0.16000
     Eigenvalues ---    0.16000   0.16000   0.23451   0.23480   0.24983
     Eigenvalues ---    0.24997   0.24998   0.24999   0.25000   0.25000
     Eigenvalues ---    0.25000   0.30675   0.32209   0.32294   0.32311
     Eigenvalues ---    0.33288   0.33389   0.42723   0.49073   0.49097
     Eigenvalues ---    0.49980   0.50264   0.50669   0.52711   0.52992
     Eigenvalues ---    0.53200   0.53293   0.54443   0.55881   0.56444
     Eigenvalues ---    0.56904   1.01024
 RFO step:  Lambda=-1.01394840D-01 EMin= 5.43476796D-03
 Linear search not attempted -- first point.
 Maximum step size (   0.300) exceeded in Quadratic search.
    -- Step size scaled by   0.697
 Iteration  1 RMS(Cart)=  0.08398613 RMS(Int)=  0.00279955
 Iteration  2 RMS(Cart)=  0.00346119 RMS(Int)=  0.00023746
 Iteration  3 RMS(Cart)=  0.00001040 RMS(Int)=  0.00023735
 Iteration  4 RMS(Cart)=  0.00000000 RMS(Int)=  0.00023735
 Variable       Old X    -DE/DX   Delta X   Delta X   Delta X     New X
                                 (Linear)    (Quad)   (Total)
    R1        2.53453   0.05038   0.00000   0.05243   0.05229   2.58682
    R2        2.54109   0.06057   0.00000   0.06404   0.06402   2.60511
    R3        2.08549  -0.00929   0.00000  -0.01490  -0.01490   2.07059
    R4        2.53399   0.07108   0.00000   0.07345   0.07332   2.60732
    R5        2.57224  -0.00740   0.00000  -0.00820  -0.00820   2.56405
    R6        2.53601   0.04424   0.00000   0.04567   0.04568   2.58170
    R7        2.08373  -0.00665   0.00000  -0.01064  -0.01064   2.07309
    R8        2.56855   0.06425   0.00000   0.07067   0.07081   2.63936
    R9        2.68013   0.02022   0.00000   0.02665   0.02665   2.70678
   R10        2.55396   0.07605   0.00000   0.08203   0.08215   2.63611
   R11        2.59196   0.12211   0.00000   0.13990   0.13990   2.73186
   R12        2.56962  -0.00678   0.00000  -0.00749  -0.00749   2.56213
   R13        1.83382  -0.00288   0.00000  -0.00317  -0.00317   1.83065
   R14        2.86637  -0.00699   0.00000  -0.01193  -0.01193   2.85444
   R15        2.28231   0.07228   0.00000   0.04530   0.04530   2.32761
   R16        2.10278  -0.01216   0.00000  -0.01996  -0.01996   2.08283
   R17        2.10310  -0.01197   0.00000  -0.01965  -0.01965   2.08345
   R18        2.10464  -0.01360   0.00000  -0.02238  -0.02238   2.08226
   R19        1.86300   0.01014   0.00000   0.01169   0.01169   1.87469
   R20        1.87488  -0.00640   0.00000  -0.00753  -0.00753   1.86735
   R21        1.83467  -0.00286   0.00000  -0.00314  -0.00314   1.83153
    A1        2.15490  -0.01079   0.00000  -0.02180  -0.02194   2.13295
    A2        2.05787   0.00326   0.00000   0.00521   0.00528   2.06315
    A3        2.07042   0.00753   0.00000   0.01659   0.01666   2.08708
    A4        2.04237   0.00760   0.00000   0.01520   0.01494   2.05731
    A5        2.12103  -0.01615   0.00000  -0.03209  -0.03196   2.08907
    A6        2.11978   0.00856   0.00000   0.01690   0.01702   2.13680
    A7        2.12022  -0.00875   0.00000  -0.01979  -0.01992   2.10030
    A8        2.07259   0.00502   0.00000   0.01158   0.01162   2.08421
    A9        2.09030   0.00371   0.00000   0.00810   0.00815   2.09845
   A10        2.10400   0.02121   0.00000   0.04170   0.04180   2.14580
   A11        2.01933  -0.00736   0.00000  -0.01447  -0.01457   2.00476
   A12        2.15976  -0.01388   0.00000  -0.02741  -0.02750   2.13226
   A13        2.07371  -0.02710   0.00000  -0.05271  -0.05246   2.02125
   A14        2.07081   0.02802   0.00000   0.05504   0.05487   2.12568
   A15        2.13867  -0.00091   0.00000  -0.00231  -0.00248   2.13620
   A16        2.07097   0.01783   0.00000   0.03740   0.03747   2.10844
   A17        2.05378   0.01071   0.00000   0.02041   0.02031   2.07409
   A18        2.15787  -0.02844   0.00000  -0.05726  -0.05737   2.10051
   A19        1.92796  -0.00079   0.00000  -0.00209  -0.00209   1.92587
   A20        2.21704  -0.02837   0.00000  -0.05629  -0.05634   2.16071
   A21        1.96580   0.05489   0.00000   0.10879   0.10872   2.07452
   A22        2.10029  -0.02654   0.00000  -0.05266  -0.05270   2.04759
   A23        1.94246   0.00100   0.00000   0.00158   0.00159   1.94405
   A24        1.93910   0.00188   0.00000   0.00376   0.00377   1.94288
   A25        1.92803  -0.01007   0.00000  -0.02456  -0.02453   1.90351
   A26        1.93837  -0.00540   0.00000  -0.01844  -0.01844   1.91992
   A27        1.85450   0.00679   0.00000   0.02047   0.02050   1.87500
   A28        1.85772   0.00602   0.00000   0.01810   0.01814   1.87585
   A29        1.91528   0.00348   0.00000   0.01712   0.01659   1.93187
   A30        1.92103   0.00332   0.00000   0.01664   0.01612   1.93715
   A31        1.90083   0.01036   0.00000   0.04304   0.04209   1.94292
   A32        1.89940   0.01068   0.00000   0.02846   0.02846   1.92786
    D1        0.00296   0.00095   0.00000   0.00518   0.00512   0.00808
    D2       -3.13588  -0.00024   0.00000  -0.00106  -0.00116  -3.13704
    D3       -3.13704   0.00008   0.00000   0.00009   0.00016  -3.13687
    D4        0.00731  -0.00111   0.00000  -0.00615  -0.00611   0.00120
    D5       -0.01576   0.00040   0.00000   0.00264   0.00308  -0.01268
    D6       -3.12282  -0.00209   0.00000  -0.01309  -0.01322  -3.13604
    D7        3.12423   0.00127   0.00000   0.00775   0.00809   3.13231
    D8        0.01716  -0.00122   0.00000  -0.00798  -0.00821   0.00895
    D9        0.01424  -0.00052   0.00000  -0.00250  -0.00276   0.01149
   D10       -3.14072  -0.00226   0.00000  -0.01202  -0.01231   3.13015
   D11       -3.13010   0.00064   0.00000   0.00365   0.00362  -3.12648
   D12       -0.00188  -0.00111   0.00000  -0.00587  -0.00594  -0.00781
   D13        3.03431   0.00141   0.00000   0.00767   0.00770   3.04201
   D14       -0.10441   0.00016   0.00000   0.00117   0.00114  -0.10327
   D15       -0.01842  -0.00167   0.00000  -0.00890  -0.00900  -0.02743
   D16        3.10883  -0.00421   0.00000  -0.02293  -0.02321   3.08562
   D17        3.13667   0.00008   0.00000   0.00069   0.00061   3.13728
   D18       -0.01926  -0.00246   0.00000  -0.01334  -0.01360  -0.03286
   D19        0.00506   0.00328   0.00000   0.01724   0.01709   0.02215
   D20       -3.13783   0.00563   0.00000   0.02990   0.02987  -3.10797
   D21       -3.12100   0.00594   0.00000   0.03227   0.03215  -3.08884
   D22        0.01930   0.00829   0.00000   0.04492   0.04493   0.06423
   D23        2.37113   0.01760   0.00000   0.09174   0.09189   2.46302
   D24        0.27948   0.00057   0.00000   0.01754   0.01695   0.29642
   D25       -0.78531   0.01530   0.00000   0.07785   0.07844  -0.70688
   D26       -2.87697  -0.00174   0.00000   0.00365   0.00350  -2.87347
   D27        0.01136  -0.00244   0.00000  -0.01365  -0.01358  -0.00222
   D28        3.11622   0.00111   0.00000   0.00487   0.00465   3.12087
   D29       -3.12889  -0.00491   0.00000  -0.02687  -0.02648   3.12781
   D30       -0.02403  -0.00136   0.00000  -0.00834  -0.00826  -0.03228
   D31        3.12772   0.00311   0.00000   0.01692   0.01622  -3.13925
   D32       -0.00330   0.00626   0.00000   0.03511   0.03534   0.03204
   D33       -0.01522   0.00553   0.00000   0.03004   0.02981   0.01459
   D34        3.13695   0.00868   0.00000   0.04823   0.04893  -3.09731
   D35        0.12899   0.00059   0.00000   0.00236   0.00213   0.13112
   D36       -2.97621  -0.00308   0.00000  -0.01635  -0.01612  -2.99233
   D37       -1.03185   0.00388   0.00000   0.01891   0.01858  -1.01328
   D38        1.13796  -0.00103   0.00000  -0.00114  -0.00144   1.13652
   D39       -3.08760   0.00124   0.00000   0.00812   0.00780  -3.07980
   D40        2.09843   0.00095   0.00000   0.00031   0.00062   2.09904
   D41       -2.01494  -0.00396   0.00000  -0.01973  -0.01940  -2.03434
   D42        0.04268  -0.00170   0.00000  -0.01047  -0.01016   0.03252
         Item               Value     Threshold  Converged?
 Maximum Force            0.122107     0.000450     NO 
 RMS     Force            0.023995     0.000300     NO 
 Maximum Displacement     0.382607     0.001800     NO 
 RMS     Displacement     0.084107     0.001200     NO 
 Predicted change in Energy=-5.197666D-02
 GradGradGradGradGradGradGradGradGradGradGradGradGradGradGradGradGradGrad

                          Input orientation:                          
 ---------------------------------------------------------------------
 Center     Atomic      Atomic             Coordinates (Angstroms)
 Number     Number       Type             X           Y           Z
 ---------------------------------------------------------------------
      1          6           0       -1.966643    0.138873    0.035555
      2          6           0       -1.970782   -1.229908    0.019207
      3          6           0       -0.753227   -1.878424   -0.006211
      4          6           0        0.410255   -1.162381   -0.000941
      5          6           0        0.442829    0.233926   -0.002491
      6          6           0       -0.798307    0.870400    0.017972
      7          8           0       -0.873797    2.223895    0.042527
      8          6           0        1.688502    0.966660   -0.038119
      9          6           0        1.776657    2.474592   -0.038347
     10          8           0        2.746101    0.338576   -0.102381
     11          8           0        1.603823   -1.953015    0.043443
     12          8           0       -3.151270   -1.898694    0.032450
     13          1           0       -2.930458    0.659473    0.060322
     14          1           0       -0.726854   -2.975136   -0.008806
     15          1           0       -1.788341    2.507592    0.189419
     16          1           0        1.232576    2.908868   -0.892859
     17          1           0        1.396332    2.898476    0.905693
     18          1           0        2.833006    2.773319   -0.133411
     19          1           0        2.306810   -1.559186   -0.535228
     20          1           0        1.416761   -2.890690   -0.206016
     21          1           0       -3.002460   -2.850699   -0.071952
 ---------------------------------------------------------------------
                    Distance matrix (angstroms):
                    1          2          3          4          5
     1  C    0.000000
     2  C    1.368886   0.000000
     3  C    2.354488   1.379732   0.000000
     4  C    2.710025   2.382080   1.366175   0.000000
     5  C    2.411646   2.822907   2.427465   1.396688   0.000000
     6  C    1.378567   2.405409   2.749300   2.364991   1.394969
     7  O    2.354076   3.623904   4.104380   3.621815   2.386526
     8  C    3.748432   4.268321   3.749341   2.483569   1.445638
     9  C    4.412860   5.269719   5.034888   3.885361   2.607866
    10  O    4.718989   4.972315   4.143625   2.778370   2.307811
    11  O    4.138150   3.647091   2.358752   1.432368   2.476434
    12  O    2.356912   1.356835   2.398440   3.636994   4.179335
    13  H    1.095708   2.119535   3.344500   3.805688   3.400603
    14  H    3.352029   2.143353   1.097032   2.139896   3.415594
    15  H    2.380397   3.745819   4.510750   4.282378   3.191317
    16  H    4.332415   5.312517   5.258110   4.248153   2.927758
    17  H    4.436456   5.400636   5.317043   4.276084   2.972169
    18  H    5.477725   6.255038   5.875028   4.623528   3.489785
    19  H    4.633746   4.325924   3.121794   2.009935   2.640736
    20  H    4.547970   3.779468   2.402801   2.010513   3.279206
    21  H    3.165758   1.923443   2.451263   3.808160   4.624906
                    6          7          8          9         10
     6  C    0.000000
     7  O    1.355821   0.000000
     8  C    2.489304   2.855262   0.000000
     9  C    3.034311   2.663512   1.510507   0.000000
    10  O    3.586106   4.084004   1.231720   2.346591   0.000000
    11  O    3.707095   4.856457   2.922041   4.431734   2.564654
    12  O    3.633803   4.709854   5.624822   6.589014   6.308925
    13  H    2.142976   2.584103   4.630210   5.045921   5.687949
    14  H    3.846293   5.201361   4.623047   5.997331   4.801131
    15  H    1.920926   0.968737   3.809814   3.572419   5.034971
    16  H    3.018187   2.404359   2.170396   1.102184   3.085776
    17  H    3.117304   2.520635   2.169806   1.102513   3.064502
    18  H    4.102493   3.751428   2.140791   1.101884   2.436491
    19  H    3.981291   4.976120   2.647512   4.098697   1.995453
    20  H    4.370641   5.609582   3.870553   5.379953   3.493715
    21  H    4.325847   5.504164   6.048017   7.155405   6.574067
                   11         12         13         14         15
    11  O    0.000000
    12  O    4.755416   0.000000
    13  H    5.233075   2.567830   0.000000
    14  H    2.545490   2.652965   4.251003   0.000000
    15  H    5.605809   4.614929   2.176382   5.588054   0.000000
    16  H    4.965117   6.571678   4.826923   6.264377   3.233928
    17  H    4.931885   6.667539   4.944583   6.312174   3.287550
    18  H    4.886757   7.593864   6.141937   6.762607   4.640224
    19  H    0.992045   5.498014   5.718925   3.388975   5.816705
    20  H    0.988159   4.680580   5.618977   2.154323   6.290508
    21  H    4.694358   0.969205   3.513401   2.279881   5.500335
                   16         17         18         19         20
    16  H    0.000000
    17  H    1.806021   0.000000
    18  H    1.776656   1.777479   0.000000
    19  H    4.609272   4.772418   4.382800   0.000000
    20  H    5.842992   5.894977   5.838837   1.635076   0.000000
    21  H    7.195974   7.304668   8.104691   5.483702   4.421435
                   21
    21  H    0.000000
 Stoichiometry    C8H9O4(1+)
 Framework group  C1[X(C8H9O4)]
 Deg. of freedom    57
 Full point group                 C1      NOp   1
 Largest Abelian subgroup         C1      NOp   1
 Largest concise Abelian subgroup C1      NOp   1
                         Standard orientation:                         
 ---------------------------------------------------------------------
 Center     Atomic      Atomic             Coordinates (Angstroms)
 Number     Number       Type             X           Y           Z
 ---------------------------------------------------------------------
      1          6           0       -1.449083   -1.285539    0.005157
      2          6           0       -2.244039   -0.171143    0.009064
      3          6           0       -1.625824    1.062299   -0.000566
      4          6           0       -0.262778    1.150827   -0.027087
      5          6           0        0.571545    0.030800   -0.013531
      6          6           0       -0.072797   -1.206348    0.001506
      7          8           0        0.648255   -2.354488   -0.008843
      8          6           0        2.011860    0.154105   -0.000979
      9          6           0        2.956067   -1.024862    0.010949
     10          8           0        2.511990    1.279228    0.032232
     11          8           0        0.252670    2.484831   -0.107225
     12          8           0       -3.593879   -0.308442    0.017919
     13          1           0       -1.934341   -2.267930    0.008202
     14          1           0       -2.238703    1.972131   -0.008644
     15          1           0        0.064403   -3.117764   -0.131230
     16          1           0        2.775684   -1.675446    0.882162
     17          1           0        2.877685   -1.610591   -0.919810
     18          1           0        3.991755   -0.655754    0.083469
     19          1           0        1.062048    2.582367    0.458060
     20          1           0       -0.438776    3.146803    0.138038
     21          1           0       -4.021746    0.556316    0.110012
 ---------------------------------------------------------------------
 Rotational constants (GHZ):      1.4930856      0.7750084      0.5123717
 Standard basis: 6-31+G(d,p) (6D, 7F)
 There are   273 symmetry adapted cartesian basis functions of A   symmetry.
 There are   273 symmetry adapted basis functions of A   symmetry.
   273 basis functions,   447 primitive gaussians,   273 cartesian basis functions
    44 alpha electrons       44 beta electrons
       nuclear repulsion energy       715.0900137009 Hartrees.
 NAtoms=   21 NActive=   21 NUniq=   21 SFac= 1.00D+00 NAtFMM=   60 NAOKFM=F Big=F
 Integral buffers will be    131072 words long.
 Raffenetti 2 integral format.
 Two-electron integral symmetry is turned on.
 One-electron integrals computed using PRISM.
 NBasis=   273 RedAO= T EigKep=  1.25D-06  NBF=   273
 NBsUse=   273 1.00D-06 EigRej= -1.00D+00 NBFU=   273
 Initial guess from the checkpoint file:  "b3lypTHAPyang.chk"
 B after Tr=     0.000000   -0.000000    0.000000
         Rot=    0.999992   -0.000401    0.000071    0.003926 Ang=  -0.45 deg.
 ExpMin= 4.38D-02 ExpMax= 5.48D+03 ExpMxC= 8.25D+02 IAcc=2 IRadAn=         4 AccDes= 0.00D+00
 Harris functional with IExCor=  402 and IRadAn=       4 diagonalized for initial guess.
 HarFok:  IExCor=  402 AccDes= 0.00D+00 IRadAn=         4 IDoV= 1 UseB2=F ITyADJ=14
 ICtDFT=  3500011 ScaDFX=  1.000000  1.000000  1.000000  1.000000
 FoFCou: FMM=F IPFlag=           0 FMFlag=      100000 FMFlg1=           0
         NFxFlg=           0 DoJE=T BraDBF=F KetDBF=T FulRan=T
         wScrn=  0.000000 ICntrl=     500 IOpCl=  0 I1Cent=   200000004 NGrid=           0
         NMat0=    1 NMatS0=      1 NMatT0=    0 NMatD0=    1 NMtDS0=    0 NMtDT0=    0
 Petite list used in FoFCou.
 Keep R1 ints in memory in canonical form, NReq=709970467.
 Requested convergence on RMS density matrix=1.00D-08 within 128 cycles.
 Requested convergence on MAX density matrix=1.00D-06.
 Requested convergence on             energy=1.00D-06.
 No special actions if energy rises.
 SCF Done:  E(RB3LYP) =  -610.896386098     A.U. after   14 cycles
            NFock= 14  Conv=0.77D-08     -V/T= 2.0086
 Calling FoFJK, ICntrl=      2127 FMM=F ISym2X=0 I1Cent= 0 IOpClX= 0 NMat=1 NMatS=1 NMatT=0.
 ***** Axes restored to original set *****
 -------------------------------------------------------------------
 Center     Atomic                   Forces (Hartrees/Bohr)
 Number     Number              X              Y              Z
 -------------------------------------------------------------------
      1        6          -0.032360264    0.016356787    0.001084546
      2        6          -0.019481371   -0.009068761   -0.000335836
      3        6           0.016231575   -0.037350625    0.000409183
      4        6          -0.025076529    0.006279637    0.000039137
      5        6           0.011421162    0.000699243    0.001069527
      6        6          -0.019082422    0.013972113    0.003591155
      7        8           0.004451813   -0.006824431    0.000614156
      8        6           0.023861658    0.023783238   -0.002745179
      9        6           0.006506318    0.007948395    0.000474775
     10        8           0.010381936   -0.023417671   -0.007036094
     11        8           0.006352142   -0.012790702   -0.009096680
     12        8           0.010093987    0.006062058   -0.001307847
     13        1           0.004686018   -0.003211119   -0.000544560
     14        1           0.000093139    0.004527929    0.000509549
     15        1           0.000170652    0.000346988   -0.001547167
     16        1          -0.000967808   -0.001576936    0.007857272
     17        1          -0.002831012   -0.001069215   -0.007261171
     18        1          -0.005054472   -0.007172455    0.000989612
     19        1           0.011809867    0.016210324    0.008519627
     20        1           0.002299411    0.005958870    0.003566446
     21        1          -0.003505801    0.000336333    0.001149548
 -------------------------------------------------------------------
 Cartesian Forces:  Max     0.037350625 RMS     0.011310789

 GradGradGradGradGradGradGradGradGradGradGradGradGradGradGradGradGradGrad
 Berny optimization.
 Using GEDIIS/GDIIS optimizer.
 FormGI is forming the generalized inverse of G from B-inverse, IUseBI=4.
 Internal  Forces:  Max     0.042413911 RMS     0.011641526
 Search for a local minimum.
 Step number   2 out of a maximum of  105
 All quantities printed in internal units (Hartrees-Bohrs-Radians)
 Mixed Optimization -- RFO/linear search
 Update second derivatives using D2CorX and points    1    2
 DE= -4.13D-02 DEPred=-5.20D-02 R= 7.94D-01
 TightC=F SS=  1.41D+00  RLast= 3.42D-01 DXNew= 5.0454D-01 1.0267D+00
 Trust test= 7.94D-01 RLast= 3.42D-01 DXMaxT set to 5.05D-01
 ITU=  1  0
 Use linear search instead of GDIIS.
     Eigenvalues ---    0.00543   0.01329   0.01441   0.02205   0.02223
     Eigenvalues ---    0.02369   0.02473   0.02613   0.02669   0.02705
     Eigenvalues ---    0.02752   0.02808   0.02842   0.02863   0.02865
     Eigenvalues ---    0.05336   0.06960   0.07396   0.15548   0.15996
     Eigenvalues ---    0.16000   0.16000   0.16000   0.16000   0.16000
     Eigenvalues ---    0.16000   0.16016   0.19493   0.23496   0.23832
     Eigenvalues ---    0.24994   0.24995   0.24997   0.24999   0.25000
     Eigenvalues ---    0.30445   0.31046   0.32244   0.32303   0.32992
     Eigenvalues ---    0.33357   0.33793   0.42673   0.47961   0.49120
     Eigenvalues ---    0.50206   0.50221   0.52561   0.52922   0.53146
     Eigenvalues ---    0.53219   0.53303   0.54390   0.56258   0.56901
     Eigenvalues ---    0.82326   1.02949
 RFO step:  Lambda=-6.01512160D-02 EMin= 5.43456365D-03
 Quartic linear search produced a step of  0.37493.
 Iteration  1 RMS(Cart)=  0.21547965 RMS(Int)=  0.01549448
 Iteration  2 RMS(Cart)=  0.02897427 RMS(Int)=  0.00154392
 Iteration  3 RMS(Cart)=  0.00063755 RMS(Int)=  0.00146231
 Iteration  4 RMS(Cart)=  0.00000152 RMS(Int)=  0.00146231
 Iteration  5 RMS(Cart)=  0.00000001 RMS(Int)=  0.00146231
 Variable       Old X    -DE/DX   Delta X   Delta X   Delta X     New X
                                 (Linear)    (Quad)   (Total)
    R1        2.58682   0.02451   0.01961   0.06218   0.08160   2.66841
    R2        2.60511   0.02218   0.02400   0.05942   0.08312   2.68823
    R3        2.07059  -0.00566  -0.00559  -0.02108  -0.02667   2.04392
    R4        2.60732   0.02925   0.02749   0.07443   0.10200   2.70931
    R5        2.56405  -0.00889  -0.00307  -0.02073  -0.02380   2.54024
    R6        2.58170   0.01013   0.01713   0.02815   0.04555   2.62724
    R7        2.07309  -0.00453  -0.00399  -0.01657  -0.02056   2.05253
    R8        2.63936  -0.00443   0.02655   0.00221   0.02903   2.66839
    R9        2.70678   0.01197   0.00999   0.03627   0.04626   2.75305
   R10        2.63611   0.02810   0.03080   0.07393   0.10462   2.74073
   R11        2.73186   0.02692   0.05245   0.08807   0.14052   2.87238
   R12        2.56213  -0.00674  -0.00281  -0.01591  -0.01872   2.54341
   R13        1.83065  -0.00030  -0.00119  -0.00127  -0.00246   1.82819
   R14        2.85444  -0.00201  -0.00447  -0.00923  -0.01370   2.84074
   R15        2.32761   0.02122   0.01698   0.03438   0.05136   2.37897
   R16        2.08283  -0.00624  -0.00748  -0.02442  -0.03190   2.05092
   R17        2.08345  -0.00565  -0.00737  -0.02246  -0.02983   2.05362
   R18        2.08226  -0.00687  -0.00839  -0.02706  -0.03545   2.04681
   R19        1.87469   0.00983   0.00438   0.02438   0.02876   1.90345
   R20        1.86735  -0.00699  -0.00282  -0.01750  -0.02032   1.84702
   R21        1.83153  -0.00100  -0.00118  -0.00275  -0.00393   1.82760
    A1        2.13295  -0.00582  -0.00823  -0.02016  -0.02892   2.10403
    A2        2.06315   0.00229   0.00198   0.00548   0.00769   2.07084
    A3        2.08708   0.00353   0.00625   0.01465   0.02113   2.10821
    A4        2.05731   0.00551   0.00560   0.03398   0.03941   2.09672
    A5        2.08907  -0.00886  -0.01198  -0.04654  -0.05850   2.03057
    A6        2.13680   0.00335   0.00638   0.01252   0.01894   2.15574
    A7        2.10030  -0.01445  -0.00747  -0.06814  -0.07538   2.02492
    A8        2.08421   0.00738   0.00436   0.03519   0.03918   2.12339
    A9        2.09845   0.00704   0.00306   0.03254   0.03541   2.13386
   A10        2.14580   0.01939   0.01567   0.08006   0.09610   2.24190
   A11        2.00476   0.02298  -0.00546   0.09382   0.08780   2.09256
   A12        2.13226  -0.04241  -0.01031  -0.17451  -0.18503   1.94723
   A13        2.02125  -0.00317  -0.01967  -0.02939  -0.04894   1.97231
   A14        2.12568  -0.03927   0.02057  -0.14599  -0.12559   2.00009
   A15        2.13620   0.04241  -0.00093   0.17500   0.17338   2.30958
   A16        2.10844  -0.00149   0.01405   0.00320   0.01657   2.12501
   A17        2.07409   0.00658   0.00761   0.02979   0.03731   2.11141
   A18        2.10051  -0.00505  -0.02151  -0.03244  -0.05397   2.04654
   A19        1.92587   0.00081  -0.00078   0.00423   0.00345   1.92932
   A20        2.16071   0.01117  -0.02112   0.03443   0.01312   2.17382
   A21        2.07452  -0.02282   0.04076  -0.07206  -0.03149   2.04304
   A22        2.04759   0.01161  -0.01976   0.03694   0.01699   2.06458
   A23        1.94405   0.00129   0.00060   0.00567   0.00633   1.95038
   A24        1.94288   0.00152   0.00141   0.00696   0.00844   1.95132
   A25        1.90351  -0.00706  -0.00920  -0.04060  -0.04964   1.85387
   A26        1.91992  -0.00421  -0.00692  -0.03517  -0.04209   1.87783
   A27        1.87500   0.00450   0.00768   0.03416   0.04200   1.91699
   A28        1.87585   0.00412   0.00680   0.03079   0.03775   1.91360
   A29        1.93187  -0.00075   0.00622   0.01620   0.01788   1.94976
   A30        1.93715   0.00635   0.00604   0.05669   0.05830   1.99545
   A31        1.94292   0.00697   0.01578   0.07946   0.08870   2.03162
   A32        1.92786   0.00634   0.01067   0.04153   0.05220   1.98006
    D1        0.00808   0.00062   0.00192   0.01022   0.01228   0.02035
    D2       -3.13704  -0.00021  -0.00043  -0.00158  -0.00232  -3.13936
    D3       -3.13687   0.00001   0.00006  -0.00014   0.00003  -3.13685
    D4        0.00120  -0.00082  -0.00229  -0.01194  -0.01457  -0.01337
    D5       -0.01268   0.00043   0.00115   0.00618   0.00814  -0.00454
    D6       -3.13604  -0.00171  -0.00496  -0.02756  -0.03383   3.11331
    D7        3.13231   0.00106   0.00303   0.01670   0.02068  -3.13019
    D8        0.00895  -0.00109  -0.00308  -0.01704  -0.02129  -0.01234
    D9        0.01149  -0.00053  -0.00103  -0.00551  -0.00762   0.00387
   D10        3.13015  -0.00189  -0.00462  -0.02549  -0.03218   3.09797
   D11       -3.12648   0.00036   0.00136   0.00676   0.00823  -3.11825
   D12       -0.00781  -0.00100  -0.00223  -0.01323  -0.01633  -0.02415
   D13        3.04201   0.00119   0.00289   0.01826   0.02131   3.06332
   D14       -0.10327   0.00031   0.00043   0.00594   0.00620  -0.09707
   D15       -0.02743  -0.00118  -0.00338  -0.01811  -0.02254  -0.04996
   D16        3.08562  -0.00337  -0.00870  -0.04549  -0.05800   3.02762
   D17        3.13728   0.00019   0.00023   0.00202   0.00215   3.13943
   D18       -0.03286  -0.00200  -0.00510  -0.02536  -0.03331  -0.06617
   D19        0.02215   0.00230   0.00641   0.03378   0.04114   0.06329
   D20       -3.10797   0.00440   0.01120   0.06848   0.07588  -3.03209
   D21       -3.08884   0.00351   0.01206   0.05844   0.07021  -3.01864
   D22        0.06423   0.00560   0.01684   0.09314   0.10494   0.16917
   D23        2.46302   0.01474   0.03445   0.22486   0.26049   2.72350
   D24        0.29642   0.00175   0.00635   0.07020   0.07335   0.36978
   D25       -0.70688   0.01368   0.02941   0.20229   0.23490  -0.47198
   D26       -2.87347   0.00069   0.00131   0.04763   0.04776  -2.82571
   D27       -0.00222  -0.00160  -0.00509  -0.02620  -0.03066  -0.03289
   D28        3.12087   0.00070   0.00174   0.00870   0.01074   3.13161
   D29        3.12781  -0.00430  -0.00993  -0.06346  -0.07596   3.05185
   D30       -0.03228  -0.00200  -0.00310  -0.02856  -0.03456  -0.06684
   D31       -3.13925   0.00196   0.00608   0.02857   0.03389  -3.10536
   D32        0.03204   0.00318   0.01325   0.05649   0.06881   0.10086
   D33        0.01459   0.00454   0.01118   0.06710   0.07921   0.09379
   D34       -3.09731   0.00576   0.01834   0.09503   0.11413  -2.98318
   D35        0.13112  -0.00021   0.00080  -0.00376  -0.00294   0.12818
   D36       -2.99233  -0.00238  -0.00604  -0.03772  -0.04379  -3.03612
   D37       -1.01328   0.00234   0.00697   0.02773   0.03469  -0.97859
   D38        1.13652  -0.00107  -0.00054  -0.00866  -0.00908   1.12744
   D39       -3.07980   0.00047   0.00292   0.00786   0.01083  -3.06896
   D40        2.09904   0.00060   0.00023  -0.00151  -0.00140   2.09765
   D41       -2.03434  -0.00281  -0.00727  -0.03791  -0.04516  -2.07951
   D42        0.03252  -0.00127  -0.00381  -0.02138  -0.02525   0.00727
         Item               Value     Threshold  Converged?
 Maximum Force            0.042414     0.000450     NO 
 RMS     Force            0.011642     0.000300     NO 
 Maximum Displacement     0.976862     0.001800     NO 
 RMS     Displacement     0.232718     0.001200     NO 
 Predicted change in Energy=-3.704687D-02
 GradGradGradGradGradGradGradGradGradGradGradGradGradGradGradGradGradGrad

                          Input orientation:                          
 ---------------------------------------------------------------------
 Center     Atomic      Atomic             Coordinates (Angstroms)
 Number     Number       Type             X           Y           Z
 ---------------------------------------------------------------------
      1          6           0       -2.160502    0.094442    0.057297
      2          6           0       -2.072461   -1.313474   -0.005516
      3          6           0       -0.790062   -1.953542   -0.041332
      4          6           0        0.314072   -1.109454   -0.005597
      5          6           0        0.340074    0.302306    0.006368
      6          6           0       -0.983336    0.893138    0.060803
      7          8           0       -1.057939    2.236714    0.087824
      8          6           0        1.728777    0.910455   -0.103408
      9          6           0        2.019007    2.384998   -0.067847
     10          8           0        2.686485    0.118512   -0.304521
     11          8           0        1.653827   -1.670729    0.105918
     12          8           0       -3.237224   -1.984520   -0.006553
     13          1           0       -3.140102    0.551940    0.087775
     14          1           0       -0.692828   -3.035302   -0.049409
     15          1           0       -1.972628    2.523351    0.218661
     16          1           0        1.465732    2.922288   -0.831447
     17          1           0        1.763218    2.823649    0.892953
     18          1           0        3.082781    2.488273   -0.243582
     19          1           0        2.352510   -1.042252   -0.256629
     20          1           0        1.723412   -2.605134   -0.172225
     21          1           0       -3.131296   -2.939143   -0.119708
 ---------------------------------------------------------------------
                    Distance matrix (angstroms):
                    1          2          3          4          5
     1  C    0.000000
     2  C    1.412064   0.000000
     3  C    2.466186   1.433708   0.000000
     4  C    2.752605   2.395238   1.390278   0.000000
     5  C    2.509717   2.903655   2.523556   1.412050   0.000000
     6  C    1.422550   2.461652   2.855061   2.387059   1.450330
     7  O    2.409545   3.693482   4.200796   3.617732   2.388097
     8  C    3.977209   4.405094   3.814562   2.467993   1.519998
     9  C    4.767662   5.515677   5.168607   3.888685   2.676178
    10  O    4.860532   4.978710   4.055743   2.688047   2.374042
    11  O    4.203249   3.745033   2.464601   1.456850   2.372494
    12  O    2.342112   1.344238   2.447606   3.657519   4.245798
    13  H    1.081596   2.151356   3.437557   3.834092   3.490066
    14  H    3.458432   2.206809   1.086152   2.173628   3.494228
    15  H    2.441502   3.844665   4.637740   4.298436   3.213518
    16  H    4.683604   5.580560   5.430156   4.273557   2.972094
    17  H    4.852058   5.712747   5.496697   4.286807   3.027960
    18  H    5.771739   6.409873   5.896570   4.545990   3.516158
    19  H    4.664536   4.440382   3.279109   2.054937   2.434524
    20  H    4.735522   4.013082   2.599856   2.061811   3.224706
    21  H    3.190048   1.943443   2.541443   3.902735   4.751136
                    6          7          8          9         10
     6  C    0.000000
     7  O    1.345917   0.000000
     8  C    2.717134   3.092139   0.000000
     9  C    3.355035   3.084448   1.503255   0.000000
    10  O    3.768433   4.319888   1.258898   2.374553   0.000000
    11  O    3.678326   4.756272   2.590743   4.075841   2.106235
    12  O    3.655881   4.751527   5.749037   6.835526   6.293000
    13  H    2.183754   2.678407   4.885802   5.477291   5.855840
    14  H    3.940709   5.286426   4.629913   6.060862   4.629404
    15  H    1.913429   0.967437   4.050378   4.004295   5.269184
    16  H    3.303254   2.772000   2.155621   1.085301   3.103071
    17  H    3.458743   2.991931   2.157367   1.086729   3.099054
    18  H    4.378402   4.161571   2.083863   1.083127   2.403442
    19  H    3.869673   4.743568   2.055623   3.448610   1.208803
    20  H    4.429299   5.589905   3.516267   4.999969   2.891929
    21  H    4.396896   5.579550   6.199999   7.407752   6.574951
                   11         12         13         14         15
    11  O    0.000000
    12  O    4.902397   0.000000
    13  H    5.284160   2.540071   0.000000
    14  H    2.719003   2.753167   4.344684   0.000000
    15  H    5.545647   4.687305   2.294904   5.710374   0.000000
    16  H    4.691464   6.846532   5.260914   6.384657   3.617208
    17  H    4.564081   6.995143   5.463654   6.422424   3.808069
    18  H    4.411503   7.746258   6.525599   6.693490   5.076619
    19  H    1.007264   5.674111   5.729646   3.645446   5.625500
    20  H    0.977403   5.002051   5.804178   2.457304   6.333629
    21  H    4.955521   0.967124   3.497254   2.441375   5.594269
                   16         17         18         19         20
    16  H    0.000000
    17  H    1.752651   0.000000
    18  H    1.774487   1.773538   0.000000
    19  H    4.102971   4.076028   3.605284   0.000000
    20  H    5.572554   5.532439   5.272169   1.686857   0.000000
    21  H    7.483021   7.628337   8.251481   5.804229   4.866468
                   21
    21  H    0.000000
 Stoichiometry    C8H9O4(1+)
 Framework group  C1[X(C8H9O4)]
 Deg. of freedom    57
 Full point group                 C1      NOp   1
 Largest Abelian subgroup         C1      NOp   1
 Largest concise Abelian subgroup C1      NOp   1
                         Standard orientation:                         
 ---------------------------------------------------------------------
 Center     Atomic      Atomic             Coordinates (Angstroms)
 Number     Number       Type             X           Y           Z
 ---------------------------------------------------------------------
      1          6           0       -1.699458   -1.202520   -0.003916
      2          6           0       -2.333793    0.058448    0.034850
      3          6           0       -1.550442    1.259081    0.015830
      4          6           0       -0.172238    1.087160   -0.046367
      5          6           0        0.563573   -0.117997   -0.038294
      6          6           0       -0.280467   -1.297426   -0.037162
      7          8           0        0.333757   -2.495008   -0.041590
      8          6           0        2.071299    0.061737    0.031358
      9          6           0        3.066205   -1.064924    0.007448
     10          8           0        2.501624    1.234556    0.186733
     11          8           0        0.697026    2.244255   -0.213466
     12          8           0       -3.677614    0.049417    0.067083
     13          1           0       -2.313807   -2.092635    0.007029
     14          1           0       -2.013232    2.241639    0.004415
     15          1           0       -0.313286   -3.208032   -0.135760
     16          1           0        2.878159   -1.784320    0.798008
     17          1           0        3.045235   -1.601925   -0.937101
     18          1           0        4.039972   -0.611640    0.146999
     19          1           0        1.625687    2.065881    0.133453
     20          1           0        0.291087    3.094013    0.048149
     21          1           0       -4.066220    0.929905    0.162248
 ---------------------------------------------------------------------
 Rotational constants (GHZ):      1.5186452      0.7316544      0.4967634
 Standard basis: 6-31+G(d,p) (6D, 7F)
 There are   273 symmetry adapted cartesian basis functions of A   symmetry.
 There are   273 symmetry adapted basis functions of A   symmetry.
   273 basis functions,   447 primitive gaussians,   273 cartesian basis functions
    44 alpha electrons       44 beta electrons
       nuclear repulsion energy       707.7696706446 Hartrees.
 NAtoms=   21 NActive=   21 NUniq=   21 SFac= 1.00D+00 NAtFMM=   60 NAOKFM=F Big=F
 Integral buffers will be    131072 words long.
 Raffenetti 2 integral format.
 Two-electron integral symmetry is turned on.
 One-electron integrals computed using PRISM.
 NBasis=   273 RedAO= T EigKep=  1.68D-06  NBF=   273
 NBsUse=   273 1.00D-06 EigRej= -1.00D+00 NBFU=   273
 Initial guess from the checkpoint file:  "b3lypTHAPyang.chk"
 B after Tr=     0.000000    0.000000    0.000000
         Rot=    0.999042    0.001691    0.000860    0.043716 Ang=   5.02 deg.
 ExpMin= 4.38D-02 ExpMax= 5.48D+03 ExpMxC= 8.25D+02 IAcc=2 IRadAn=         4 AccDes= 0.00D+00
 Harris functional with IExCor=  402 and IRadAn=       4 diagonalized for initial guess.
 HarFok:  IExCor=  402 AccDes= 0.00D+00 IRadAn=         4 IDoV= 1 UseB2=F ITyADJ=14
 ICtDFT=  3500011 ScaDFX=  1.000000  1.000000  1.000000  1.000000
 FoFCou: FMM=F IPFlag=           0 FMFlag=      100000 FMFlg1=           0
         NFxFlg=           0 DoJE=T BraDBF=F KetDBF=T FulRan=T
         wScrn=  0.000000 ICntrl=     500 IOpCl=  0 I1Cent=   200000004 NGrid=           0
         NMat0=    1 NMatS0=      1 NMatT0=    0 NMatD0=    1 NMtDS0=    0 NMtDT0=    0
 Petite list used in FoFCou.
 Keep R1 ints in memory in canonical form, NReq=709970467.
 Requested convergence on RMS density matrix=1.00D-08 within 128 cycles.
 Requested convergence on MAX density matrix=1.00D-06.
 Requested convergence on             energy=1.00D-06.
 No special actions if energy rises.
 SCF Done:  E(RB3LYP) =  -610.910786902     A.U. after   15 cycles
            NFock= 15  Conv=0.87D-08     -V/T= 2.0093
 Calling FoFJK, ICntrl=      2127 FMM=F ISym2X=0 I1Cent= 0 IOpClX= 0 NMat=1 NMatS=1 NMatT=0.
 ***** Axes restored to original set *****
[...]
 72,-0.02050690,-0.00111742,0.01072269,0.02994978,-0.00013896,-0.012193
 52,-0.00101417,0.00026203,0.00175450,-0.00043508,-0.00008604,0.1259411
 7,-0.19891668,-0.00928084,0.04933181,-0.04114455,-0.00351336,-0.094867
 10,0.66646044,0.00012889,0.00039283,-0.00144066,-0.00030189,-0.0003397
 6,0.00029007,0.00014594,0.00004324,-0.00016778,0.00049449,-0.00147685,
 -0.00336609,0.00430082,0.00006452,0.01795867,-0.00049697,0.00041727,0.
 00870072,0.00012597,-0.00030896,0.00003830,0.01562368,-0.00879628,-0.0
 5884038,0.00191131,-0.00212176,0.00934896,-0.02053339,0.02098256,0.052
 94640,0.00343113,0.01268959,0.00012712,0.00985410,-0.01943480,-0.00053
 344,-0.06842360,0.02824133,0.00425206,-0.26296223,0.04756533,0.0108363
 4,0.01332827,0.02255340,0.00015238,-0.01415587,-0.00520563,0.00059054,
 0.00177231,0.00298203,0.00002538,-0.02894842,-0.00242002,0.00111735,0.
 00099018,0.00032032,-0.00001184,0.01224454,-0.02842184,-0.00115620,0.3
 8933539,0.00137757,-0.00102209,-0.00004716,-0.00525932,-0.00225180,-0.
 00009657,-0.00598947,0.01560160,0.00035229,0.10218693,-0.16280839,-0.0
 0770816,0.04126212,-0.03016233,-0.00266923,-0.00522712,-0.00452816,0.0
 0003627,0.00298170,-0.00136545,-0.00018144,0.00402306,0.00591845,0.000
 03051,0.00139331,-0.00208850,-0.00013097,-0.01614015,-0.02169261,0.000
 01270,-0.04200825,0.71123090,-0.00017987,-0.00053757,-0.00151442,-0.00
 014210,0.00052121,0.00980784,0.00334836,-0.00113653,0.01219390,0.01232
 715,-0.00537117,-0.04208382,0.00066562,-0.00185154,0.00268381,0.000577
 20,0.00003565,0.00243704,0.00002862,-0.00018275,0.00053387,0.00128826,
 0.00030469,-0.00155705,0.00001834,-0.00008441,0.00056601,-0.00082217,0
 .00053841,0.00344109,-0.01682700,0.02065739,0.02662598,-0.00930872,-0.
 02929903,-0.00007537,-0.31010235,-0.07401681,0.00951852,-0.06009104,-0
 .02424838,0.00253866,0.00794724,0.01287463,0.00034686,-0.01230231,-0.0
 0877840,0.00024754,0.00929223,0.00679238,-0.00002675,0.00005749,-0.001
 77992,-0.00007404,0.01250415,0.00436253,-0.00043241,0.00062810,-0.0017
 8283,-0.00006853,-0.00631355,0.00267790,0.00034460,-0.00418847,0.00009
 661,0.00011943,0.41737160,-0.06149264,-0.04284110,0.00134462,-0.125036
 18,-0.16772306,0.00220995,0.00692353,0.01559129,-0.00022385,0.00195425
 ,-0.00360158,-0.00039912,-0.00942559,-0.00192206,0.00038730,0.01745444
 ,0.00021246,-0.00087936,-0.00297631,-0.00524370,0.00000707,0.00802655,
 0.00325225,-0.00025196,0.00035367,-0.00102111,-0.00004480,-0.00466102,
 0.00261143,0.00027254,0.00214281,0.00138205,-0.00001464,0.09353687,0.6
 9603605,-0.00094046,-0.00005759,0.00712101,0.00812949,-0.00002530,-0.0
 4748809,0.00337774,0.00113898,0.01266635,0.00005104,-0.00087576,0.0079
 3031,0.00023630,0.00036071,-0.00110882,0.00026138,-0.00041384,0.004526
 83,-0.00010786,-0.00004913,-0.00056251,-0.00034172,-0.00009654,-0.0002
 4959,-0.00001281,0.00004742,0.00012175,0.00014957,-0.00004605,-0.00002
 687,0.00017764,0.00007403,-0.00151707,-0.01437609,0.01391640,0.0324047
 7,-0.28020118,0.12036743,0.01418769,0.00395109,-0.00086830,-0.00004298
 ,0.00086101,-0.00091136,0.00012482,-0.00004171,-0.00077964,-0.00007177
 ,-0.00131228,-0.00345620,0.00019850,-0.01855398,0.01414655,0.00131175,
 0.00274880,0.00120853,-0.00030075,-0.00039278,0.00109816,0.00009764,0.
 00006452,0.00000076,-0.00000785,-0.00044376,-0.00016297,-0.00001454,0.
 00029364,0.00001167,-0.00001667,0.00006610,-0.00046864,-0.00014405,0.2
 9344159,0.11904366,-0.12255430,-0.00769527,0.03070518,-0.01080584,-0.0
 0171957,-0.00177949,-0.00510509,-0.00017374,-0.00116080,-0.00106240,0.
 00005404,-0.00214055,-0.00182105,-0.00009857,-0.01656181,0.00935456,0.
 00089576,-0.00082647,0.00282953,0.00024069,-0.00072193,0.00067733,0.00
 002017,-0.00002983,0.00004904,0.00000540,-0.00034432,-0.00003513,0.000
 03082,0.00037362,0.00028383,-0.00000592,0.00010359,0.00251608,0.000141
 14,-0.12779947,0.12631090,0.01415101,-0.00774334,-0.02965300,0.0008010
 4,-0.00035283,0.00341019,0.00009768,-0.00021440,0.00429480,-0.00007969
 ,0.00004074,-0.00121426,0.00023263,-0.00003816,0.00534095,0.00049143,-
 0.00045087,0.00284489,-0.00035494,0.00015314,-0.00483117,0.00004812,-0
 .00006116,0.00111829,-0.00000772,0.00000366,-0.00009457,-0.00001827,0.
 00002473,-0.00066530,-0.00000999,0.00001109,-0.00010430,-0.00012576,0.
 00016852,-0.00291973,-0.01532106,0.00839894,0.02151459,-0.00481623,0.0
 0148311,0.00041888,0.00402839,0.02876484,0.00068513,-0.05928442,0.0019
 9413,0.00147961,0.00276203,-0.02841053,-0.00072616,-0.00426436,-0.0006
 7712,0.00039779,-0.00161891,-0.00022208,0.00000854,0.00040008,0.000197
 97,-0.00001423,0.00056821,-0.00150025,-0.00001574,-0.00043467,0.000049
 15,0.00000233,0.00006693,0.00021278,0.00000127,0.00288344,-0.00064826,
 -0.00036235,0.00298350,0.00009969,-0.00027363,0.00030271,0.00141453,0.
 00004907,0.05889282,0.00248923,0.00085036,-0.00019021,-0.00378440,-0.0
 1244089,-0.00022251,0.00160372,-0.33955558,-0.00843593,0.00331301,-0.0
 1303231,-0.00058642,-0.00236888,0.00106942,-0.00001160,0.00022282,0.00
 058314,0.00004068,-0.00010019,-0.00001367,0.00000520,0.00089660,-0.000
 68717,-0.00008606,-0.00024089,0.00006897,0.00002186,-0.00026390,0.0005
 3864,0.00002758,0.00128468,0.00275895,0.00015304,-0.00044026,0.0024299
 5,0.00017341,-0.00017414,-0.00055494,-0.00002192,-0.00201235,0.3582773
 4,0.00044918,-0.00014178,0.00382288,-0.00018040,-0.00165434,0.00206100
 ,0.00146347,-0.00843924,-0.02695379,0.00012018,0.00079247,0.00353896,0
 .00035032,-0.00008714,0.00531013,0.00001962,0.00005925,-0.00128518,-0.
 00002258,-0.00000557,-0.00004108,0.00004830,0.00001755,0.00110993,-0.0
 0000443,0.00001037,-0.00039801,-0.00001216,0.00000673,-0.00003482,-0.0
 0030585,0.00023776,-0.00500276,-0.00028969,0.00015024,-0.00332546,0.00
 000565,-0.00009199,0.00054359,-0.00181297,0.00916822,0.01896141,0.0020
 0958,-0.00779130,-0.00038736,-0.00134301,0.00240983,0.00007919,0.00134
 364,-0.00028512,-0.00007167,-0.00084630,-0.00099638,0.00006937,0.00331
 869,-0.00079260,-0.00001154,0.00193923,0.00043052,-0.00016782,-0.45119
 856,0.17125301,0.02418000,-0.00119255,-0.00093496,0.00000030,-0.001041
 49,-0.00054504,0.00004978,0.00081167,-0.00033927,-0.00005472,0.0002306
 8,-0.00012465,-0.00001212,-0.00055828,-0.00079771,0.00000368,-0.000726
 91,0.00009686,0.00007478,-0.00006539,0.00004426,0.00000665,0.44801626,
 0.00156101,0.00352160,0.00008298,0.00018806,-0.00229551,-0.00004292,-0
 .00124244,0.00034053,0.00006585,0.00276857,0.00080105,-0.00013254,-0.0
 0363173,-0.00591088,-0.00009282,0.04712709,-0.02563201,-0.00270659,0.1
 1862425,-0.09271157,-0.00749215,0.00104891,0.00003829,-0.00002828,-0.0
 0079277,-0.00042668,0.00001125,-0.00065701,0.00025903,0.00004159,-0.00
 096644,-0.00019061,0.00003545,0.00068188,0.00106445,-0.00000145,-0.002
 05167,-0.00030200,0.00005665,-0.00017110,0.00007702,0.00000832,-0.1624
 7383,0.12098059,-0.00014053,0.00049049,-0.00208481,0.00002164,-0.00014
 001,-0.00098243,-0.00009717,0.00002293,-0.00009628,0.00016754,0.000030
 00,0.00135531,-0.00008775,-0.00020838,0.00340376,0.00106603,-0.0006219
 9,-0.00212414,0.02279454,-0.00984046,-0.00961177,0.00005456,0.00005754
 ,-0.00061009,0.00004366,-0.00000262,0.00047567,-0.00006188,0.00002696,
 -0.00023700,-0.00003508,0.00000097,0.00003186,0.00004324,0.00006303,0.
 00001783,0.00001567,-0.00003645,0.00088282,0.00000034,-0.00000105,0.00
 004637,-0.02383111,0.01019756,0.00907624,-0.00007878,0.00006571,-0.000
 26033,0.00080665,-0.00018919,-0.00017480,-0.00092814,0.00033481,0.0001
 9953,0.00022612,0.00176550,-0.00037121,-0.00349088,-0.00192248,-0.0002
 2227,0.00130103,-0.00400438,0.00003849,-0.00258869,0.00150117,0.001354
 83,0.00235081,0.00458833,0.00630297,-0.10488474,0.04915322,-0.10489430
 ,0.00073245,0.00009048,-0.00051915,0.00041169,-0.00031241,-0.00006066,
 -0.00062638,-0.00029082,0.00004100,-0.00005487,-0.00000212,0.00006360,
 -0.00000261,-0.00000096,0.00003542,-0.00029089,-0.00000208,-0.00001444
 ,0.11283120,0.00010257,0.00014577,0.00010869,0.00015580,-0.00028983,-0
 .00004951,-0.00029983,0.00005189,0.00034922,0.00029468,0.00014896,-0.0
 0120898,-0.00086889,-0.00014981,-0.00179490,-0.00025706,-0.00126377,0.
 00063152,-0.00001750,0.00023601,-0.00038921,0.01720032,-0.01409453,0.0
 2715475,0.05164359,-0.09256764,0.09265706,-0.00089061,-0.00475134,-0.0
 0046518,-0.00028841,-0.00008675,-0.00013718,-0.00001476,0.00003506,-0.
 00003909,-0.00000653,0.00001845,0.00000900,0.00001440,0.00000790,0.000
 08607,0.00012134,0.00031598,-0.00025968,-0.05933270,0.10281934,-0.0002
 7402,-0.00073594,-0.00023470,-0.00004630,0.00048629,-0.00003431,0.0001
 4969,-0.00002511,0.00001588,-0.00007335,0.00012316,0.00011581,-0.00023
 059,0.00009451,0.00067053,-0.00013148,0.00159794,0.00017291,-0.0007435
 2,-0.00116197,0.00037469,0.00242018,-0.00124606,0.00208940,-0.10294286
 ,0.09219820,-0.20180804,0.00111226,-0.00171737,-0.00097733,0.00013499,
 -0.00020606,-0.00010419,-0.00016886,-0.00019969,0.00000524,0.00003874,
 -0.00000020,0.00003865,0.00001006,-0.00000462,-0.00000433,-0.00031137,
 -0.00023715,0.00002939,0.11151247,-0.09798983,0.21924181,-0.00003517,0
 .00011390,0.00024762,0.00081856,-0.00023580,0.00008796,-0.00095013,0.0
 0034429,-0.00009729,0.00026824,0.00172520,0.00045410,-0.00342530,-0.00
 194152,0.00047005,0.00129069,-0.00411827,-0.00035945,-0.00261573,0.001
 65736,-0.00100532,0.00165248,0.00498736,-0.00606621,-0.08787236,0.0359
 1083,0.09710149,0.00067249,0.00019966,0.00039366,0.00040025,-0.0002950
 3,0.00000268,-0.00061173,-0.00027171,-0.00000152,-0.00006328,0.0000009
 9,-0.00005511,-0.00000651,0.00000115,-0.00003556,-0.00026277,0.0000175
 2,0.00003853,0.00455301,-0.00547236,-0.01247834,0.09456944,0.00007920,
 0.00011145,-0.00009704,0.00015774,-0.00026621,0.00002417,-0.00032221,0
 .00006911,-0.00032038,0.00039318,0.00009359,0.00117914,-0.00073044,-0.
 00024447,0.00181269,-0.00031919,-0.00114857,-0.00067600,-0.00003357,0.
 00015626,0.00037766,0.01490962,-0.01257482,-0.02933763,0.03845920,-0.0
 8263703,-0.08947041,-0.00078816,-0.00487200,0.00031992,-0.00026778,-0.
 00010651,0.00016086,-0.00002135,0.00002162,0.00004189,-0.00000544,0.00
 001898,-0.00000996,0.00000732,0.00001215,-0.00008618,0.00012550,0.0002
 8832,0.00026294,-0.00515751,0.00606144,0.01193320,-0.04523899,0.092264
 88,0.00026369,0.00074864,-0.00024644,-0.00001858,-0.00048129,-0.000070
 82,-0.00008557,-0.00000137,0.00002100,0.00008167,-0.00027091,0.0001290
 4,0.00053787,0.00001960,0.00070434,0.00001494,-0.00132759,0.00007184,0
 .00099891,0.00101962,0.00048147,-0.00156041,0.00002404,0.00126869,0.09
 529154,-0.08880828,-0.22875820,-0.00129459,0.00148894,-0.00080180,-0.0
 0019239,0.00023102,-0.00007283,0.00022082,0.00022469,0.00000367,-0.000
 03009,-0.00000097,0.00004621,-0.00000954,0.00000552,-0.00000491,0.0003
 4400,0.00025043,0.00002712,0.00998336,-0.00997840,-0.02140280,-0.10332
 571,0.09495984,0.24806459,-0.00010126,-0.00031807,-0.00001250,-0.00008
 318,0.00024946,0.00001197,0.00019272,-0.00005871,-0.00001925,-0.000292
 99,0.00024680,0.00005486,0.00092298,0.00027129,0.00004500,-0.00001717,
 0.00106185,0.00001413,-0.00107124,-0.00038053,0.00007848,-0.00363606,-
 0.00090548,0.00004464,-0.31807283,-0.05944676,0.00975543,0.00100216,0.
 00321379,0.00000935,0.00033713,0.00011131,-0.00001569,-0.00001980,-0.0
 0006404,-0.00000082,0.00002281,0.00000812,0.00000019,0.00001222,-0.000
 00412,-0.00000341,-0.00008255,-0.00030072,-0.00000107,-0.01042440,-0.0
 0280494,0.00191298,-0.00853254,-0.00211109,-0.00108714,0.33955701,0.00
 004451,0.00045891,0.00001618,0.00031745,-0.00021811,-0.00002113,0.0000
 0679,-0.00052722,-0.00000794,-0.00179741,0.00031930,0.00006297,0.00232
 375,-0.00538745,-0.00029565,0.00070842,-0.00131606,-0.00005677,0.00109
 894,0.00116228,-0.00004239,-0.03807901,-0.01185258,0.00134498,-0.05090
 847,-0.06080345,0.00184356,-0.00043684,0.00223865,0.00010418,0.0004408
 4,0.00018748,-0.00001137,-0.00010542,0.00000902,0.00000489,-0.00004921
 ,-0.00000867,0.00000124,-0.00015266,-0.00007442,0.00000643,0.00024198,
 0.00016295,-0.00000851,0.01334027,0.00355437,-0.00278400,0.01223205,0.
 00303575,0.00177990,0.06104658,0.06925134,-0.00000364,0.00003190,-0.00
 021113,0.00001445,-0.00001806,0.00004005,-0.00001828,-0.00000619,-0.00
 022147,-0.00000007,-0.00002346,0.00084561,0.00010189,-0.00020984,0.001
 81340,0.00000546,-0.00007339,-0.00034449,0.00011882,0.00002364,0.00099
 900,-0.00096987,-0.00022405,-0.00197854,0.00998835,0.00220222,-0.04979
 766,-0.00009175,-0.00005373,-0.00085927,-0.00000636,0.00000295,-0.0000
 9447,-0.00000208,0.00000296,0.00000077,-0.00000124,-0.00000122,0.00002
 354,-0.00000756,-0.00000009,-0.00006510,0.00001393,0.00001394,0.000095
 47,-0.02295712,-0.00708591,0.00248991,0.02461542,0.00737470,0.00111686
 ,-0.01077397,-0.00194782,0.04630837,-0.00028639,-0.00196511,-0.0000322
 7,-0.00127538,0.00164193,0.00010958,0.00265529,-0.00020029,-0.00009975
 ,-0.01497898,0.00496467,0.00079494,-0.00462292,-0.00307230,-0.00000507
 ,0.00197467,0.00073897,-0.00010645,0.00004498,-0.00100107,-0.00003622,
 0.01155452,0.04701164,0.00075904,-0.00506457,0.00130169,0.00074013,-0.
 06004493,-0.06530946,-0.00033881,-0.00208521,0.00286174,0.00005863,0.0
 0033511,-0.00026960,-0.00002643,0.00001689,-0.00003612,0.00000327,-0.0
 0004968,-0.00021351,-0.00000382,-0.00002777,0.00008654,0.00000792,0.00
 012127,0.00076493,0.00012605,0.00011486,0.00091888,-0.00014929,0.00023
 604,-0.00036016,-0.00002884,0.06570127,-0.00185586,-0.00440141,-0.0000
 4368,0.00005971,0.00498237,0.00012604,0.00483393,-0.00230589,-0.000284
 15,-0.01489115,0.02294224,0.00125533,-0.01372662,-0.00616404,0.0004978
 7,0.00637055,-0.00272418,-0.00032638,-0.00082989,0.00048479,0.00005280
 ,0.02733456,-0.02158171,-0.00174693,-0.00034289,0.00253837,-0.00022646
 ,-0.03527683,-0.41200877,-0.00910744,0.01275935,-0.01115328,-0.0007742
 8,-0.00141947,-0.00206378,0.00000867,-0.00016952,-0.00019599,-0.000000
 16,-0.00037931,-0.00047216,0.00000338,0.00018886,-0.00007780,-0.000012
 32,0.00017880,-0.00017945,-0.00018669,0.00019243,-0.00028160,0.0001976
 1,0.00017859,-0.00025659,-0.00000878,0.01313340,0.43512241,-0.00002939
 ,-0.00004008,0.00019330,0.00006674,0.00005830,0.00022024,0.00003663,-0
 .00006636,0.00047230,0.00025419,0.00040064,0.00028069,-0.00029601,0.00
 004287,-0.00276394,0.00004917,-0.00008221,-0.00091941,-0.00003264,0.00
 006143,-0.00016816,0.00020820,-0.00259139,-0.00093398,0.00069138,-0.00
 029597,0.01128541,0.00049349,-0.00782183,-0.02635703,0.00032820,-0.000
 35151,-0.00271385,-0.00005773,-0.00004172,-0.00009807,-0.00000068,-0.0
 0000647,0.00010837,-0.00000793,-0.00000380,0.00000195,0.00001069,-0.00
 000837,0.00009481,-0.00008637,-0.00170988,-0.00074596,0.00002962,0.001
 66148,-0.00063509,-0.00001322,0.00001473,-0.00021035,-0.00145130,0.010
 77019,0.02388888,0.00004629,-0.00039999,-0.00001535,-0.00092238,-0.000
 00743,0.00000253,0.00082049,0.00196263,-0.00006218,0.00435573,0.043035
 32,0.00087501,-0.00528107,0.00157977,0.00040498,0.00090284,0.00191937,
 0.00006795,-0.00051062,-0.00055977,0.00000792,-0.00247288,0.00080024,0
 .00009846,0.00023375,-0.00027432,-0.00003881,-0.00133864,-0.00596721,-
 0.00005983,-0.05583564,-0.08028159,0.00004544,0.00060749,-0.00003635,-
 0.00002125,-0.00002523,-0.00018150,-0.00000150,-0.00115896,-0.00166437
 ,0.00004680,-0.00005309,0.00021295,0.00000886,0.00001904,-0.00003902,-
 0.00002478,0.00002198,-0.00004959,0.00002361,0.00004957,0.00006101,0.0
 0000107,0.00592373,0.00391864,-0.00019898,0.05498192,0.00044969,0.0016
 2783,0.00002492,0.00181467,-0.00250370,-0.00012127,-0.00616182,0.00487
 002,0.00044648,0.00213730,-0.02097305,-0.00058787,0.00369368,0.0035981
 0,-0.00014847,-0.00210226,-0.00127238,0.00002301,0.00031124,0.00063975
 ,0.00000305,-0.00205476,-0.00050742,0.00009507,-0.00003245,0.00028438,
 0.00002063,0.00048057,0.00089623,-0.00002297,-0.03326256,-0.49955542,-
 0.01224606,-0.00123103,-0.00019340,0.00004467,0.00003734,0.00000802,-0
 .00000326,0.00048032,0.00008211,-0.00004440,0.00007765,-0.00020090,-0.
 00000939,0.00009142,-0.00001743,0.00003053,0.00008761,-0.00001004,-0.0
 0004049,0.00000204,0.00004917,0.00000041,-0.00094472,-0.00252570,0.000
 00047,0.03601741,0.51539660,0.00000649,0.00006205,-0.00007241,0.000050
 88,-0.00004320,-0.00084334,-0.00027787,0.00009536,-0.00176506,-0.00026
 511,-0.00233164,-0.00285831,0.00045287,-0.00005399,0.00305187,-0.00003
 658,-0.00015179,0.00131756,0.00003007,0.00004209,0.00000331,0.00002423
 ,-0.00002929,-0.00069736,-0.00003125,0.00003237,-0.00047800,0.00011693
 ,0.00025976,0.00101639,0.00135259,-0.01024340,-0.00370718,-0.00005377,
 -0.00000725,0.00014076,0.00000421,0.00000684,0.00005282,0.00010413,0.0
 0005011,0.00090228,0.00000569,-0.00001521,0.00002896,-0.00000622,0.000
 10386,0.00004054,0.00001189,-0.00010262,0.00003012,-0.00000066,-0.0000
 0223,0.00003347,-0.00033301,-0.00021311,-0.00105502,-0.00117990,0.0125
 3454,0.00473456,-0.00563262,-0.00111723,0.00041209,-0.00110119,-0.0473
 0184,-0.00141832,0.00168515,-0.00136837,-0.00020137,-0.00125049,-0.000
 39636,0.00000070,0.00022622,0.00060818,0.00000263,0.00140975,-0.001705
 15,0.00001634,-0.00054358,0.00030026,-0.00001045,-0.00049713,-0.000031
 68,0.00002178,0.00003349,0.00009179,-0.00000497,0.00021933,0.00012125,
 -0.00000447,0.00108668,-0.00001975,-0.00004110,-0.04767039,0.07529881,
 0.00381882,0.00004683,-0.00016215,-0.00003877,-0.00119858,0.00141252,0
 .00012529,0.00001981,-0.00002698,0.00000650,0.00001711,-0.00000504,0.0
 0000805,0.00001354,-0.00000530,-0.00000712,0.00000137,0.00002661,0.000
 00139,-0.00024277,-0.00025726,0.00000594,-0.00036431,0.00010867,0.0000
 2438,0.05374176,-0.00191533,0.00352580,0.00005613,0.00152698,-0.022179
 50,-0.00055196,0.00513011,0.00478372,-0.00004033,-0.00110829,-0.001685
 63,0.00003046,0.00204227,0.00137032,-0.00004904,-0.00135438,-0.0016409
 8,-0.00005958,-0.00015561,0.00049883,0.00004573,-0.00234228,-0.0007350
 9,0.00008071,-0.00012785,0.00030787,0.00001616,0.00124780,-0.00059396,
 -0.00007054,0.00092243,-0.00035134,-0.00005328,0.02201129,-0.50055193,
 -0.01434747,0.00003267,0.00037870,0.00002835,-0.00054458,0.00007519,0.
 00000386,0.00009106,-0.00010187,-0.00001155,0.00010495,0.00000537,0.00
 003086,0.00010336,0.00000771,-0.00004055,0.00000460,0.00001532,-0.0000
 0019,-0.00005204,0.00032218,0.00000946,-0.00004619,0.00030722,0.000006
 76,-0.02557099,0.51624206,0.00039217,0.00002604,0.00447435,-0.00009029
 ,0.00158673,-0.00415940,-0.00002649,0.00024471,-0.00208164,-0.00001857
 ,-0.00000177,-0.00099327,0.00004114,0.00001233,-0.00010013,0.00002277,
 -0.00004394,0.00279539,-0.00002248,0.00002514,-0.00095840,-0.00003929,
 -0.00001908,0.00004298,-0.00001066,0.00000786,-0.00013415,0.00002542,-
 0.00002226,0.00003373,-0.00001643,-0.00001250,0.00015056,0.00237139,-0
 .01668494,-0.00764307,-0.00003299,0.00003658,-0.00073738,0.00007295,-0
 .00008142,0.00081692,0.00000967,-0.00000653,0.00018090,0.00003520,0.00
 000759,0.00002690,-0.00002849,-0.00000826,0.00002795,0.00000071,-0.000
 00123,0.00001605,0.00001168,0.00001851,0.00005492,0.00001995,0.0000004
 0,0.00012403,-0.00271735,0.01491603,0.00806279\\0.00002774,-0.00001457
 ,0.00001573,-0.00000849,-0.00000399,0.00001753,0.00000226,0.00000742,-
 0.00001363,-0.00002063,0.00003535,-0.00002335,0.00008338,-0.00005438,-
 0.00002312,-0.00003928,0.00003398,-0.00001683,0.00000786,0.00002086,-0
 .00001887,-0.00009830,0.00004213,0.00006191,-0.00000689,0.00003515,-0.
 00003279,0.00006303,-0.00017361,-0.00001427,0.00004271,-0.00002737,0.0
 0002202,-0.00001781,-0.00001347,-0.00000216,-0.00000567,-0.00000807,0.
 00000372,-0.00000820,-0.00000174,0.00000567,0.00001186,-0.00000461,0.0
 0000987,0.00000445,0.00000931,0.00000420,0.00000399,0.00000356,0.00000
 761,-0.00001735,0.00000422,0.00000691,-0.00000362,0.00008769,-0.000002
 48,-0.00001791,0.00001905,-0.00000530,-0.00000311,0.00000308,-0.000002
 36\\\@


 "PERFECTION IS NOT AN ACCIDENT"
         --  EAGLE ELECTRIC MANUFACTURING CO.,INC. NY
 Job cpu time:       0 days  0 hours 35 minutes 40.6 seconds.
 File lengths (MBytes):  RWF=    168 Int=      0 D2E=      0 Chk=      7 Scr=      1
 Normal termination of Gaussian 09 at Thu Jun 20 16:35:19 2024.
