 Entering Gaussian System, Link 0=g09
 Input=B3PW91THAP.gjf
 Output=B3PW91THAP.log
 Initial command:
 /home/phzd/g09E/g09/l1.exe "/home/phzd/g09E/scratch/Gau-1425142.inp" -scrdir="/home/phzd/g09E/scratch/"
 Default is to use a total of  18 processors:
                               18 via shared-memory
                                1 via Linda
 Entering Link 1 = /home/phzd/g09E/g09/l1.exe PID=   1425144.
  
 Copyright (c) 1988,1990,1992,1993,1995,1998,2003,2009,2015,
            Gaussian, Inc.  All Rights Reserved.
  
 This is part of the Gaussian(R) 09 program.  It is based on
 the Gaussian(R) 03 system (copyright 2003, Gaussian, Inc.),
 the Gaussian(R) 98 system (copyright 1998, Gaussian, Inc.),
 the Gaussian(R) 94 system (copyright 1995, Gaussian, Inc.),
 the Gaussian 92(TM) system (copyright 1992, Gaussian, Inc.),
 the Gaussian 90(TM) system (copyright 1990, Gaussian, Inc.),
 the Gaussian 88(TM) system (copyright 1988, Gaussian, Inc.),
 the Gaussian 86(TM) system (copyright 1986, Carnegie Mellon
 University), and the Gaussian 82(TM) system (copyright 1983,
 Carnegie Mellon University). Gaussian is a federally registered
 trademark of Gaussian, Inc.
  
 This software contains proprietary and confidential information,
 including trade secrets, belonging to Gaussian, Inc.
  
 This software is provided under written license and may be
 used, copied, transmitted, or stored only in accord with that
 written license.
  
 The following legend is applicable only to US Government
 contracts under FAR:
  
                    RESTRICTED RIGHTS LEGEND
  
 Use, reproduction and disclosure by the US Government is
 subject to restrictions as set forth in subparagraphs (a)
 and (c) of the Commercial Computer Software - Restricted
 Rights clause in FAR 52.227-19.
  
 Gaussian, Inc.
 340 Quinnipiac St., Bldg. 40, Wallingford CT 06492
  
  
 ---------------------------------------------------------------
 Warning -- This program may not be used in any manner that
 competes with the business of Gaussian, Inc. or will provide
 assistance to any competitor of Gaussian, Inc.  The licensee
 of this program is prohibited from giving any competitor of
 Gaussian, Inc. access to this program.  By using this program,
 the user acknowledges that Gaussian, Inc. is engaged in the
 business of creating and licensing software in the field of
 computational chemistry and represents and warrants to the
 licensee that it is not a competitor of Gaussian, Inc. and that
 it will not use this program in any manner prohibited above.
 ---------------------------------------------------------------
  

 Cite this work as:
 Gaussian 09, Revision E.01,
 M. J. Frisch, G. W. Trucks, H. B. Schlegel, G. E. Scuseria, 
 M. A. Robb, J. R. Cheeseman, G. Scalmani, V. Barone, B. Mennucci, 
 G. A. Petersson, H. Nakatsuji, M. Caricato, X. Li, H. P. Hratchian, 
 A. F. Izmaylov, J. Bloino, G. Zheng, J. L. Sonnenberg, M. Hada, 
 M. Ehara, K. Toyota, R. Fukuda, J. Hasegawa, M. Ishida, T. Nakajima, 
 Y. Honda, O. Kitao, H. Nakai, T. Vreven, J. A. Montgomery, Jr., 
 J. E. Peralta, F. Ogliaro, M. Bearpark, J. J. Heyd, E. Brothers, 
 K. N. Kudin, V. N. Staroverov, T. Keith, R. Kobayashi, J. Normand, 
 K. Raghavachari, A. Rendell, J. C. Burant, S. S. Iyengar, J. Tomasi, 
 M. Cossi, N. Rega, J. M. Millam, M. Klene, J. E. Knox, J. B. Cross, 
 V. Bakken, C. Adamo, J. Jaramillo, R. Gomperts, R. E. Stratmann, 
 O. Yazyev, A. J. Austin, R. Cammi, C. Pomelli, J. W. Ochterski, 
 R. L. Martin, K. Morokuma, V. G. Zakrzewski, G. A. Voth, 
 P. Salvador, J. J. Dannenberg, S. Dapprich, A. D. Daniels, 
 O. Farkas, J. B. Foresman, J. V. Ortiz, J. Cioslowski, 
 and D. J. Fox, Gaussian, Inc., Wallingford CT, 2013.
 
 ******************************************
 Gaussian 09:  ES64L-G09RevE.01 30-Nov-2015
                15-Dec-2024 
 ******************************************
 %chk=B3PW91THAP.chk
 -----------------------------
 # opt freq b3pw91/6-31+g(d,p)
 -----------------------------
 1/14=-1,18=20,19=15,26=3,38=1/1,3;
 2/9=110,12=2,17=6,18=5,40=1/2;
 3/5=1,6=6,7=111,11=2,16=1,25=1,30=1,71=1,74=-6/1,2,3;
 4//1;
 5/5=2,38=5/2;
 6/7=2,8=2,9=2,10=2,28=1/1;
 7//1,2,3,16;
 1/14=-1,18=20,19=15,26=3/3(2);
 2/9=110/2;
 99//99;
 2/9=110/2;
 3/5=1,6=6,7=111,11=2,16=1,25=1,30=1,71=1,74=-6/1,2,3;
 4/5=5,16=3,69=1/1;
 5/5=2,38=5/2;
 7//1,2,3,16;
 1/14=-1,18=20,19=15,26=3/3(-5);
 2/9=110/2;
 6/7=2,8=2,9=2,10=2,19=2,28=1/1;
 99/9=1/99;
 ----------
 [No Title]
 ----------
 Symbolic Z-matrix:
 Charge =  0 Multiplicity = 1
 C                     1.52167   1.25153  -0.00006 
 C                     2.25586   0.06064  -0.00004 
 C                     1.6264   -1.17419   0.00001 
 C                     0.23005  -1.2281    0.00004 
 C                    -0.56187  -0.04019   0.00003 
 C                     0.13837   1.19213  -0.00003 
 O                    -0.58718   2.34101  -0.00003 
 C                    -2.02637  -0.17136   0.00008 
 C                    -2.94794   1.02076  -0.00003 
 O                    -2.54343  -1.29811   0.0001 
 O                    -0.32931  -2.43321   0.00005 
 O                     3.60346   0.187    -0.00006 
 H                     2.04982   2.1993   -0.00007 
 H                     2.18114  -2.10651   0.00002 
 H                     0.01034   3.09801  -0.0003 
 H                    -2.76764   1.64724  -0.87651 
 H                    -3.9708    0.64553  -0.00003 
 H                    -2.76769   1.64735   0.87638 
 H                    -1.31904  -2.28817   0.00001 
 H                     4.01846  -0.68364  -0.00004 
 

 GradGradGradGradGradGradGradGradGradGradGradGradGradGradGradGradGradGrad
 Berny optimization.
 Initialization pass.
                           ----------------------------
                           !    Initial Parameters    !
                           ! (Angstroms and Degrees)  !
 --------------------------                            --------------------------
 ! Name  Definition              Value          Derivative Info.                !
 --------------------------------------------------------------------------------
 ! R1    R(1,2)                  1.399          estimate D2E/DX2                !
 ! R2    R(1,6)                  1.3846         estimate D2E/DX2                !
 ! R3    R(1,13)                 1.085          estimate D2E/DX2                !
 ! R4    R(2,3)                  1.386          estimate D2E/DX2                !
 ! R5    R(2,12)                 1.3535         estimate D2E/DX2                !
 ! R6    R(3,4)                  1.3974         estimate D2E/DX2                !
 ! R7    R(3,14)                 1.0849         estimate D2E/DX2                !
 ! R8    R(4,5)                  1.4277         estimate D2E/DX2                !
 ! R9    R(4,11)                 1.3286         estimate D2E/DX2                !
 ! R10   R(5,6)                  1.4174         estimate D2E/DX2                !
 ! R11   R(5,8)                  1.4704         estimate D2E/DX2                !
 ! R12   R(6,7)                  1.3588         estimate D2E/DX2                !
 ! R13   R(7,15)                 0.9644         estimate D2E/DX2                !
 ! R14   R(8,9)                  1.5068         estimate D2E/DX2                !
 ! R15   R(8,10)                 1.2397         estimate D2E/DX2                !
 ! R16   R(9,16)                 1.0923         estimate D2E/DX2                !
 ! R17   R(9,17)                 1.0895         estimate D2E/DX2                !
 ! R18   R(9,18)                 1.0923         estimate D2E/DX2                !
 ! R19   R(11,19)                1.0003         estimate D2E/DX2                !
 ! R20   R(12,20)                0.9645         estimate D2E/DX2                !
 ! A1    A(2,1,6)              119.1949         estimate D2E/DX2                !
 ! A2    A(2,1,13)             119.2172         estimate D2E/DX2                !
 ! A3    A(6,1,13)             121.5878         estimate D2E/DX2                !
 ! A4    A(1,2,3)              121.3356         estimate D2E/DX2                !
 ! A5    A(1,2,12)             116.2973         estimate D2E/DX2                !
 ! A6    A(3,2,12)             122.3671         estimate D2E/DX2                !
 ! A7    A(2,3,4)              119.2213         estimate D2E/DX2                !
 ! A8    A(2,3,14)             122.236          estimate D2E/DX2                !
 ! A9    A(4,3,14)             118.5427         estimate D2E/DX2                !
 ! A10   A(3,4,5)              121.4785         estimate D2E/DX2                !
 ! A11   A(3,4,11)             117.1095         estimate D2E/DX2                !
 ! A12   A(5,4,11)             121.4121         estimate D2E/DX2                !
 ! A13   A(4,5,6)              116.7044         estimate D2E/DX2                !
 ! A14   A(4,5,8)              118.5712         estimate D2E/DX2                !
 ! A15   A(6,5,8)              124.7245         estimate D2E/DX2                !
 ! A16   A(1,6,5)              122.0653         estimate D2E/DX2                !
 ! A17   A(1,6,7)              119.8143         estimate D2E/DX2                !
 ! A18   A(5,6,7)              118.1203         estimate D2E/DX2                !
 ! A19   A(6,7,15)             109.4413         estimate D2E/DX2                !
 ! A20   A(5,8,9)              122.5878         estimate D2E/DX2                !
 ! A21   A(5,8,10)             119.7681         estimate D2E/DX2                !
 ! A22   A(9,8,10)             117.6441         estimate D2E/DX2                !
 ! A23   A(8,9,16)             110.6619         estimate D2E/DX2                !
 ! A24   A(8,9,17)             107.5607         estimate D2E/DX2                !
 ! A25   A(8,9,18)             110.6614         estimate D2E/DX2                !
 ! A26   A(16,9,17)            110.6391         estimate D2E/DX2                !
 ! A27   A(16,9,18)            106.7116         estimate D2E/DX2                !
 ! A28   A(17,9,18)            110.6392         estimate D2E/DX2                !
 ! A29   A(4,11,19)            106.5615         estimate D2E/DX2                !
 ! A30   A(2,12,20)            110.1288         estimate D2E/DX2                !
 ! D1    D(6,1,2,3)             -0.0001         estimate D2E/DX2                !
 ! D2    D(6,1,2,12)          -179.9998         estimate D2E/DX2                !
 ! D3    D(13,1,2,3)           179.9986         estimate D2E/DX2                !
 ! D4    D(13,1,2,12)           -0.0011         estimate D2E/DX2                !
 ! D5    D(2,1,6,5)              0.0006         estimate D2E/DX2                !
 ! D6    D(2,1,6,7)            179.999          estimate D2E/DX2                !
 ! D7    D(13,1,6,5)          -179.9981         estimate D2E/DX2                !
 ! D8    D(13,1,6,7)             0.0003         estimate D2E/DX2                !
 ! D9    D(1,2,3,4)              0.0002         estimate D2E/DX2                !
 ! D10   D(1,2,3,14)           179.9996         estimate D2E/DX2                !
 ! D11   D(12,2,3,4)           180.0            estimate D2E/DX2                !
 ! D12   D(12,2,3,14)           -0.0007         estimate D2E/DX2                !
 ! D13   D(1,2,12,20)         -180.0            estimate D2E/DX2                !
 ! D14   D(3,2,12,20)            0.0003         estimate D2E/DX2                !
 ! D15   D(2,3,4,5)             -0.0008         estimate D2E/DX2                !
 ! D16   D(2,3,4,11)           179.9986         estimate D2E/DX2                !
 ! D17   D(14,3,4,5)           179.9998         estimate D2E/DX2                !
 ! D18   D(14,3,4,11)           -0.0008         estimate D2E/DX2                !
 ! D19   D(3,4,5,6)              0.0013         estimate D2E/DX2                !
 ! D20   D(3,4,5,8)           -179.9989         estimate D2E/DX2                !
 ! D21   D(11,4,5,6)          -179.9982         estimate D2E/DX2                !
 ! D22   D(11,4,5,8)             0.0017         estimate D2E/DX2                !
 ! D23   D(3,4,11,19)         -179.9966         estimate D2E/DX2                !
 ! D24   D(5,4,11,19)            0.0028         estimate D2E/DX2                !
 ! D25   D(4,5,6,1)             -0.0011         estimate D2E/DX2                !
 ! D26   D(4,5,6,7)           -179.9996         estimate D2E/DX2                !
 ! D27   D(8,5,6,1)            179.999          estimate D2E/DX2                !
 ! D28   D(8,5,6,7)              0.0005         estimate D2E/DX2                !
 ! D29   D(4,5,8,9)           -179.9953         estimate D2E/DX2                !
 ! D30   D(4,5,8,10)            -0.0017         estimate D2E/DX2                !
 ! D31   D(6,5,8,9)              0.0046         estimate D2E/DX2                !
 ! D32   D(6,5,8,10)           179.9981         estimate D2E/DX2                !
 ! D33   D(1,6,7,15)             0.0155         estimate D2E/DX2                !
 ! D34   D(5,6,7,15)          -179.9859         estimate D2E/DX2                !
 ! D35   D(5,8,9,16)            59.0344         estimate D2E/DX2                !
 ! D36   D(5,8,9,17)           179.9962         estimate D2E/DX2                !
 ! D37   D(5,8,9,18)           -59.0423         estimate D2E/DX2                !
 ! D38   D(10,8,9,16)         -120.9593         estimate D2E/DX2                !
 ! D39   D(10,8,9,17)            0.0025         estimate D2E/DX2                !
 ! D40   D(10,8,9,18)          120.964          estimate D2E/DX2                !
 --------------------------------------------------------------------------------
 Trust Radius=3.00D-01 FncErr=1.00D-07 GrdErr=1.00D-06
 Number of steps in this run=    100 maximum allowed number of steps=    120.
 GradGradGradGradGradGradGradGradGradGradGradGradGradGradGradGradGradGrad

                          Input orientation:                          
 ---------------------------------------------------------------------
 Center     Atomic      Atomic             Coordinates (Angstroms)
 Number     Number       Type             X           Y           Z
 ---------------------------------------------------------------------
      1          6           0        1.521674    1.251533   -0.000056
      2          6           0        2.255861    0.060641   -0.000035
      3          6           0        1.626396   -1.174194    0.000013
      4          6           0        0.230052   -1.228100    0.000036
      5          6           0       -0.561867   -0.040186    0.000029
      6          6           0        0.138366    1.192129   -0.000030
      7          8           0       -0.587179    2.341012   -0.000030
      8          6           0       -2.026370   -0.171356    0.000080
      9          6           0       -2.947940    1.020760   -0.000027
     10          8           0       -2.543428   -1.298111    0.000095
     11          8           0       -0.329306   -2.433207    0.000053
     12          8           0        3.603459    0.186996   -0.000059
     13          1           0        2.049818    2.199296   -0.000071
     14          1           0        2.181140   -2.106506    0.000023
     15          1           0        0.010344    3.098005   -0.000296
     16          1           0       -2.767640    1.647238   -0.876505
     17          1           0       -3.970796    0.645532   -0.000030
     18          1           0       -2.767685    1.647349    0.876381
     19          1           0       -1.319039   -2.288165    0.000011
     20          1           0        4.018455   -0.683635   -0.000042
 ---------------------------------------------------------------------
                    Distance matrix (angstroms):
                    1          2          3          4          5
     1  C    0.000000
     2  C    1.399019   0.000000
     3  C    2.427986   1.386017   0.000000
     4  C    2.795866   2.400991   1.397384   0.000000
     5  C    2.451465   2.819531   2.464644   1.427682   0.000000
     6  C    1.384583   2.400844   2.795303   2.421965   1.417366
     7  O    2.373652   3.644581   4.154105   3.661479   2.381333
     8  C    3.822725   4.288511   3.787926   2.491616   1.470365
     9  C    4.475568   5.291632   5.073694   3.893200   2.611312
    10  O    4.798514   4.987924   4.171665   2.774364   2.347117
    11  O    4.123522   3.591986   2.325916   1.328595   2.404295
    12  O    2.338176   1.353509   2.400337   3.658192   4.171517
    13  H    1.084984   2.148557   3.399959   3.880540   3.440375
    14  H    3.422181   2.168435   1.084872   2.139706   3.434205
    15  H    2.386122   3.777291   4.567637   4.331681   3.189932
    16  H    4.395789   5.340510   5.294933   4.245239   2.912241
    17  H    5.525800   6.254067   5.885572   4.599741   3.477212
    18  H    4.395840   5.340577   5.295005   4.245305   2.912284
    19  H    4.538624   4.277476   3.149050   1.877078   2.372071
    20  H    3.158922   1.913292   2.441842   3.827328   4.625297
                    6          7          8          9         10
     6  C    0.000000
     7  O    1.358804   0.000000
     8  C    2.558354   2.895387   0.000000
     9  C    3.091060   2.704858   1.506795   0.000000
    10  O    3.659688   4.131601   1.239728   2.353889   0.000000
    11  O    3.655377   4.781178   2.827719   4.334413   2.488128
    12  O    3.607930   4.711818   5.641222   6.604240   6.323746
    13  H    2.160563   2.640802   4.715432   5.134835   5.773194
    14  H    3.879938   5.238703   4.631193   6.007267   4.793229
    15  H    1.910171   0.964403   3.851873   3.614746   5.084052
    16  H    3.069235   2.450294   2.150620   1.092335   3.081198
    17  H    4.145357   3.784642   2.109052   1.089509   2.411458
    18  H    3.069276   2.450280   2.150614   1.092335   3.081218
    19  H    3.773125   4.686672   2.231860   3.688130   1.574591
    20  H    4.309708   5.510023   6.066493   7.171863   6.590591
                   11         12         13         14         15
    11  O    0.000000
    12  O    4.725686   0.000000
    13  H    5.207717   2.542273   0.000000
    14  H    2.531615   2.698730   4.307804   0.000000
    15  H    5.541630   4.624332   2.228706   5.639086   0.000000
    16  H    4.833617   6.594798   4.927556   6.272904   3.254176
    17  H    4.768551   7.588122   6.217875   6.739438   4.675906
    18  H    4.833692   6.594866   4.927591   6.272982   3.254291
    19  H    1.000304   5.509756   5.611284   3.504890   5.547800
    20  H    4.686580   0.964479   3.490963   2.323852   5.510513
                   16         17         18         19         20
    16  H    0.000000
    17  H    1.794215   0.000000
    18  H    1.752886   1.794216   0.000000
    19  H    4.284171   3.954541   4.284258   0.000000
    20  H    7.228571   8.099063   7.228644   5.573451   0.000000
 Stoichiometry    C8H8O4
 Framework group  C1[X(C8H8O4)]
 Deg. of freedom    54
 Full point group                 C1      NOp   1
 Largest Abelian subgroup         C1      NOp   1
 Largest concise Abelian subgroup C1      NOp   1
                         Standard orientation:                         
 ---------------------------------------------------------------------
 Center     Atomic      Atomic             Coordinates (Angstroms)
 Number     Number       Type             X           Y           Z
 ---------------------------------------------------------------------
      1          6           0       -1.521674    1.251533    0.000056
      2          6           0       -2.255861    0.060641    0.000035
      3          6           0       -1.626396   -1.174194   -0.000013
      4          6           0       -0.230052   -1.228100   -0.000036
      5          6           0        0.561867   -0.040186   -0.000029
      6          6           0       -0.138366    1.192129    0.000030
      7          8           0        0.587179    2.341012    0.000030
      8          6           0        2.026370   -0.171356   -0.000080
      9          6           0        2.947940    1.020760    0.000027
     10          8           0        2.543428   -1.298111   -0.000095
     11          8           0        0.329306   -2.433207   -0.000053
     12          8           0       -3.603459    0.186996    0.000059
     13          1           0       -2.049818    2.199296    0.000071
     14          1           0       -2.181140   -2.106506   -0.000023
     15          1           0       -0.010344    3.098005    0.000296
     16          1           0        2.767640    1.647238    0.876505
     17          1           0        3.970796    0.645532    0.000030
     18          1           0        2.767685    1.647349   -0.876381
     19          1           0        1.319039   -2.288165   -0.000011
     20          1           0       -4.018455   -0.683635    0.000042
 ---------------------------------------------------------------------
 Rotational constants (GHZ):      1.5550511      0.7686260      0.5160062
 Standard basis: 6-31+G(d,p) (6D, 7F)
 There are   268 symmetry adapted cartesian basis functions of A   symmetry.
 There are   268 symmetry adapted basis functions of A   symmetry.
   268 basis functions,   440 primitive gaussians,   268 cartesian basis functions
    44 alpha electrons       44 beta electrons
       nuclear repulsion energy       699.3345805856 Hartrees.
 NAtoms=   20 NActive=   20 NUniq=   20 SFac= 1.00D+00 NAtFMM=   60 NAOKFM=F Big=F
 Integral buffers will be    131072 words long.
 Raffenetti 2 integral format.
 Two-electron integral symmetry is turned on.
 One-electron integrals computed using PRISM.
 NBasis=   268 RedAO= T EigKep=  1.51D-06  NBF=   268
 NBsUse=   268 1.00D-06 EigRej= -1.00D+00 NBFU=   268
 ExpMin= 4.38D-02 ExpMax= 5.48D+03 ExpMxC= 8.25D+02 IAcc=2 IRadAn=         4 AccDes= 0.00D+00
 Harris functional with IExCor=  408 and IRadAn=       4 diagonalized for initial guess.
 HarFok:  IExCor=  408 AccDes= 0.00D+00 IRadAn=         4 IDoV= 1 UseB2=F ITyADJ=14
 ICtDFT=  3500011 ScaDFX=  1.000000  1.000000  1.000000  1.000000
 FoFCou: FMM=F IPFlag=           0 FMFlag=      100000 FMFlg1=           0
         NFxFlg=           0 DoJE=T BraDBF=F KetDBF=T FulRan=T
         wScrn=  0.000000 ICntrl=     500 IOpCl=  0 I1Cent=   200000004 NGrid=           0
         NMat0=    1 NMatS0=      1 NMatT0=    0 NMatD0=    1 NMtDS0=    0 NMtDT0=    0
 Petite list used in FoFCou.
 Keep R1 ints in memory in canonical form, NReq=659648347.
 Requested convergence on RMS density matrix=1.00D-08 within 128 cycles.
 Requested convergence on MAX density matrix=1.00D-06.
 Requested convergence on             energy=1.00D-06.
 No special actions if energy rises.
 SCF Done:  E(RB3PW91) =  -610.379027391     A.U. after   15 cycles
            NFock= 15  Conv=0.43D-08     -V/T= 2.0089

 **********************************************************************

            Population analysis using the SCF density.

 **********************************************************************

 Orbital symmetries:
       Occupied  (A) (A) (A) (A) (A) (A) (A) (A) (A) (A) (A) (A)
                 (A) (A) (A) (A) (A) (A) (A) (A) (A) (A) (A) (A)
                 (A) (A) (A) (A) (A) (A) (A) (A) (A) (A) (A) (A)
                 (A) (A) (A) (A) (A) (A) (A) (A)
       Virtual   (A) (A) (A) (A) (A) (A) (A) (A) (A) (A) (A) (A)
                 (A) (A) (A) (A) (A) (A) (A) (A) (A) (A) (A) (A)
                 (A) (A) (A) (A) (A) (A) (A) (A) (A) (A) (A) (A)
                 (A) (A) (A) (A) (A) (A) (A) (A) (A) (A) (A) (A)
                 (A) (A) (A) (A) (A) (A) (A) (A) (A) (A) (A) (A)
                 (A) (A) (A) (A) (A) (A) (A) (A) (A) (A) (A) (A)
                 (A) (A) (A) (A) (A) (A) (A) (A) (A) (A) (A) (A)
                 (A) (A) (A) (A) (A) (A) (A) (A) (A) (A) (A) (A)
                 (A) (A) (A) (A) (A) (A) (A) (A) (A) (A) (A) (A)
                 (A) (A) (A) (A) (A) (A) (A) (A) (A) (A) (A) (A)
                 (A) (A) (A) (A) (A) (A) (A) (A) (A) (A) (A) (A)
                 (A) (A) (A) (A) (A) (A) (A) (A) (A) (A) (A) (A)
                 (A) (A) (A) (A) (A) (A) (A) (A) (A) (A) (A) (A)
                 (A) (A) (A) (A) (A) (A) (A) (A) (A) (A) (A) (A)
                 (A) (A) (A) (A) (A) (A) (A) (A) (A) (A) (A) (A)
                 (A) (A) (A) (A) (A) (A) (A) (A) (A) (A) (A) (A)
                 (A) (A) (A) (A) (A) (A) (A) (A) (A) (A) (A) (A)
                 (A) (A) (A) (A) (A) (A) (A) (A) (A) (A) (A) (A)
                 (A) (A) (A) (A) (A) (A) (A) (A)
 The electronic state is 1-A.
 Alpha  occ. eigenvalues --  -19.20445 -19.20182 -19.16695 -19.14592 -10.28053
 Alpha  occ. eigenvalues --  -10.27356 -10.26949 -10.26531 -10.19742 -10.18830
 Alpha  occ. eigenvalues --  -10.18317 -10.17494  -1.10254  -1.09809  -1.08498
 Alpha  occ. eigenvalues --   -1.04951  -0.87141  -0.78942  -0.76402  -0.74177
 Alpha  occ. eigenvalues --   -0.66777  -0.64954  -0.60911  -0.58544  -0.53187
 Alpha  occ. eigenvalues --   -0.52722  -0.51299  -0.48957  -0.46751  -0.45303
 Alpha  occ. eigenvalues --   -0.44152  -0.43892  -0.42465  -0.41953  -0.41812
 Alpha  occ. eigenvalues --   -0.40859  -0.38944  -0.37373  -0.37146  -0.36755
 Alpha  occ. eigenvalues --   -0.31006  -0.26974  -0.24913  -0.23696
 Alpha virt. eigenvalues --   -0.05952  -0.00736  -0.00457   0.00192   0.02581
 Alpha virt. eigenvalues --    0.02777   0.04399   0.04791   0.05285   0.05859
 Alpha virt. eigenvalues --    0.07071   0.07470   0.08483   0.08723   0.10033
 Alpha virt. eigenvalues --    0.11287   0.11404   0.11756   0.13057   0.13598
 Alpha virt. eigenvalues --    0.14156   0.14770   0.15029   0.15580   0.16350
 Alpha virt. eigenvalues --    0.16465   0.16632   0.17252   0.18335   0.18744
 Alpha virt. eigenvalues --    0.19220   0.20309   0.21291   0.21794   0.22096
 Alpha virt. eigenvalues --    0.22257   0.22292   0.23330   0.24332   0.24894
 Alpha virt. eigenvalues --    0.25532   0.25686   0.27240   0.27344   0.27481
 Alpha virt. eigenvalues --    0.28335   0.29196   0.29649   0.30315   0.30564
 Alpha virt. eigenvalues --    0.31127   0.31804   0.32423   0.32988   0.33299
 Alpha virt. eigenvalues --    0.33690   0.34753   0.35160   0.36312   0.37852
 Alpha virt. eigenvalues --    0.38932   0.39734   0.40905   0.42323   0.43190
 Alpha virt. eigenvalues --    0.44763   0.45718   0.46754   0.49079   0.51254
 Alpha virt. eigenvalues --    0.60095   0.62710   0.64697   0.66474   0.68881
 Alpha virt. eigenvalues --    0.70426   0.70994   0.71558   0.73317   0.73784
 Alpha virt. eigenvalues --    0.74504   0.75177   0.76177   0.77825   0.80857
 Alpha virt. eigenvalues --    0.83442   0.86832   0.87558   0.89247   0.91381
 Alpha virt. eigenvalues --    0.93054   0.94325   0.99400   1.00198   1.04494
 Alpha virt. eigenvalues --    1.05374   1.06943   1.08074   1.10487   1.10745
 Alpha virt. eigenvalues --    1.13672   1.16807   1.16918   1.17385   1.18703
 Alpha virt. eigenvalues --    1.19525   1.20620   1.21784   1.22131   1.23751
 Alpha virt. eigenvalues --    1.24427   1.25010   1.27668   1.28039   1.28129
 Alpha virt. eigenvalues --    1.29160   1.31561   1.34223   1.34302   1.36357
 Alpha virt. eigenvalues --    1.37751   1.37889   1.38057   1.38506   1.39729
 Alpha virt. eigenvalues --    1.41368   1.44144   1.46201   1.48580   1.56295
 Alpha virt. eigenvalues --    1.57131   1.57544   1.60781   1.62047   1.68510
 Alpha virt. eigenvalues --    1.70567   1.70900   1.72459   1.75589   1.79561
 Alpha virt. eigenvalues --    1.82610   1.83618   1.85601   1.86427   1.88582
 Alpha virt. eigenvalues --    1.89613   1.89815   1.90060   1.91512   1.93297
 Alpha virt. eigenvalues --    1.96821   1.98995   2.02187   2.02608   2.02891
 Alpha virt. eigenvalues --    2.03621   2.05820   2.07759   2.13534   2.17524
 Alpha virt. eigenvalues --    2.20492   2.21104   2.21687   2.25804   2.31130
 Alpha virt. eigenvalues --    2.33318   2.33529   2.37249   2.38817   2.40932
 Alpha virt. eigenvalues --    2.41776   2.44110   2.45107   2.49546   2.49796
 Alpha virt. eigenvalues --    2.50906   2.52992   2.54012   2.54390   2.55581
 Alpha virt. eigenvalues --    2.58180   2.63476   2.64711   2.65777   2.70537
 Alpha virt. eigenvalues --    2.71460   2.71587   2.73493   2.74051   2.75594
 Alpha virt. eigenvalues --    2.79115   2.83222   2.86309   2.88558   2.91759
 Alpha virt. eigenvalues --    2.98588   3.02699   3.07236   3.09745   3.15179
 Alpha virt. eigenvalues --    3.19944   3.21595   3.25469   3.31581   3.41895
 Alpha virt. eigenvalues --    3.43796   3.44044   3.48709   3.50824   3.53759
 Alpha virt. eigenvalues --    3.66307   3.77612   4.24062   4.25427   4.27336
 Alpha virt. eigenvalues --    4.35465   4.40049   4.45925   4.47168   4.52591
 Alpha virt. eigenvalues --    4.68424   4.77081   4.81455   4.92078
          Condensed to atoms (all electrons):
               1          2          3          4          5          6
     1  C   14.040821  -2.565019   0.841049  -3.785307  -0.424221  -4.783886
     2  C   -2.565019   7.562724  -1.338657   2.506591  -1.969207   3.216349
     3  C    0.841049  -1.338657  13.913207  -4.686355  -0.980883  -2.891813
     4  C   -3.785307   2.506591  -4.686355  16.394668  -3.227643   2.459284
     5  C   -0.424221  -1.969207  -0.980883  -3.227643  16.510194  -4.719837
     6  C   -4.783886   3.216349  -2.891813   2.459284  -4.719837  16.958508
     7  O    0.261544  -0.010915   0.000735   0.014116  -0.392697   0.121138
     8  C    1.661548  -0.748486   0.514179  -2.229793  -1.603938  -1.395198
     9  C   -0.287537   0.018288  -0.357919  -0.249837   0.075602  -0.383798
    10  O    0.009370  -0.005064  -0.052212  -0.186622  -0.108303  -0.093244
    11  O    0.044913  -0.028223  -0.423810   0.146932   0.382216   0.011493
    12  O   -0.234835   0.114348   0.070173  -0.007206  -0.020529   0.060685
    13  H    0.093067   0.161464   0.042717  -0.024622   0.007336   0.045322
    14  H   -0.023427   0.016433   0.055532   0.248020   0.020751   0.004972
    15  H   -0.159619   0.004723   0.001341   0.005010   0.170913  -0.021716
    16  H    0.007359   0.000221  -0.001698  -0.017172   0.004463   0.032616
    17  H    0.001620   0.000272  -0.003367  -0.020951   0.045089   0.024861
    18  H    0.007343   0.000219  -0.001697  -0.017147   0.004493   0.032583
    19  H    0.004699  -0.001805   0.204251   0.117221  -0.291853  -0.078212
    20  H    0.124030  -0.001095  -0.094472  -0.004098   0.020318  -0.038985
               7          8          9         10         11         12
     1  C    0.261544   1.661548  -0.287537   0.009370   0.044913  -0.234835
     2  C   -0.010915  -0.748486   0.018288  -0.005064  -0.028223   0.114348
     3  C    0.000735   0.514179  -0.357919  -0.052212  -0.423810   0.070173
     4  C    0.014116  -2.229793  -0.249837  -0.186622   0.146932  -0.007206
     5  C   -0.392697  -1.603938   0.075602  -0.108303   0.382216  -0.020529
     6  C    0.121138  -1.395198  -0.383798  -0.093244   0.011493   0.060685
     7  O    8.446377  -0.004068  -0.089350   0.001356  -0.000471  -0.000789
     8  C   -0.004068  10.421034  -1.294662   0.552999  -0.158256  -0.001729
     9  C   -0.089350  -1.294662   7.813109   0.003891  -0.058327  -0.000839
    10  O    0.001356   0.552999   0.003891   8.267802   0.002632  -0.000028
    11  O   -0.000471  -0.158256  -0.058327   0.002632   8.457224  -0.000646
    12  O   -0.000789  -0.001729  -0.000839  -0.000028  -0.000646   8.336108
    13  H   -0.018663   0.008474   0.000924   0.000022   0.000075  -0.009349
    14  H    0.000061   0.009722   0.000645   0.000096  -0.009645  -0.014453
    15  H    0.197243   0.001258   0.011214   0.000015   0.000024  -0.000097
    16  H   -0.004597  -0.076853   0.405925   0.003801   0.000149   0.000001
    17  H    0.000655  -0.105189   0.422397  -0.007562   0.000084  -0.000000
    18  H   -0.004593  -0.076838   0.405897   0.003805   0.000149   0.000001
    19  H    0.000008   0.038338   0.014903   0.078678   0.158980   0.000025
    20  H    0.000044   0.002381   0.000000   0.000001  -0.000024   0.209246
              13         14         15         16         17         18
     1  C    0.093067  -0.023427  -0.159619   0.007359   0.001620   0.007343
     2  C    0.161464   0.016433   0.004723   0.000221   0.000272   0.000219
     3  C    0.042717   0.055532   0.001341  -0.001698  -0.003367  -0.001697
     4  C   -0.024622   0.248020   0.005010  -0.017172  -0.020951  -0.017147
     5  C    0.007336   0.020751   0.170913   0.004463   0.045089   0.004493
     6  C    0.045322   0.004972  -0.021716   0.032616   0.024861   0.032583
     7  O   -0.018663   0.000061   0.197243  -0.004597   0.000655  -0.004593
     8  C    0.008474   0.009722   0.001258  -0.076853  -0.105189  -0.076838
     9  C    0.000924   0.000645   0.011214   0.405925   0.422397   0.405897
    10  O    0.000022   0.000096   0.000015   0.003801  -0.007562   0.003805
    11  O    0.000075  -0.009645   0.000024   0.000149   0.000084   0.000149
    12  O   -0.009349  -0.014453  -0.000097   0.000001  -0.000000   0.000001
    13  H    0.544390  -0.000122   0.008514  -0.000002  -0.000000  -0.000002
    14  H   -0.000122   0.539209  -0.000001   0.000000  -0.000000   0.000000
    15  H    0.008514  -0.000001   0.392186   0.000311  -0.000027   0.000311
    16  H   -0.000002   0.000000   0.000311   0.496954  -0.022139  -0.022687
    17  H   -0.000000  -0.000000  -0.000027  -0.022139   0.498259  -0.022139
    18  H   -0.000002   0.000000   0.000311  -0.022687  -0.022139   0.496954
    19  H    0.000000   0.000035   0.000000  -0.000061   0.000002  -0.000061
    20  H   -0.000060   0.006055   0.000000   0.000000  -0.000000   0.000000
              19         20
     1  C    0.004699   0.124030
     2  C   -0.001805  -0.001095
     3  C    0.204251  -0.094472
     4  C    0.117221  -0.004098
     5  C   -0.291853   0.020318
     6  C   -0.078212  -0.038985
     7  O    0.000008   0.000044
     8  C    0.038338   0.002381
     9  C    0.014903   0.000000
    10  O    0.078678   0.000001
    11  O    0.158980  -0.000024
    12  O    0.000025   0.209246
    13  H    0.000000  -0.000060
    14  H    0.000035   0.006055
    15  H    0.000000   0.000000
    16  H   -0.000061   0.000000
    17  H    0.000002  -0.000000
    18  H   -0.000061   0.000000
    19  H    0.318300   0.000000
    20  H    0.000000   0.408168
 Mulliken charges:
               1
     1  C    1.166489
     2  C   -0.933161
     3  C    1.189700
     4  C   -1.435089
     5  C    2.497735
     6  C   -2.561121
     7  O   -0.517134
     8  C    0.485076
     9  C   -0.450528
    10  O   -0.471433
    11  O   -0.525469
    12  O   -0.500087
    13  H    0.140513
    14  H    0.146117
    15  H    0.388395
    16  H    0.193409
    17  H    0.188135
    18  H    0.193409
    19  H    0.436553
    20  H    0.368490
 Sum of Mulliken charges =  -0.00000
 Mulliken charges with hydrogens summed into heavy atoms:
               1
     1  C    1.307002
     2  C   -0.933161
     3  C    1.335817
     4  C   -1.435089
     5  C    2.497735
     6  C   -2.561121
     7  O   -0.128739
     8  C    0.485076
     9  C    0.124425
    10  O   -0.471433
    11  O   -0.088916
    12  O   -0.131597
 Electronic spatial extent (au):  <R**2>=           2061.9483
 Charge=             -0.0000 electrons
 Dipole moment (field-independent basis, Debye):
    X=             -2.3268    Y=              3.0522    Z=              0.0006  Tot=              3.8379
 Quadrupole moment (field-independent basis, Debye-Ang):
   XX=            -66.2521   YY=            -64.9540   ZZ=            -71.3977
   XY=              8.6981   XZ=              0.0004   YZ=              0.0012
 Traceless Quadrupole moment (field-independent basis, Debye-Ang):
   XX=              1.2825   YY=              2.5806   ZZ=             -3.8631
   XY=              8.6981   XZ=              0.0004   YZ=              0.0012
 Octapole moment (field-independent basis, Debye-Ang**2):
  XXX=            -33.3149  YYY=             43.2745  ZZZ=             -0.0000  XYY=            -18.1769
  XXY=            -16.4604  XXZ=              0.0006  XZZ=              4.9796  YZZ=             -0.2894
  YYZ=              0.0067  XYZ=             -0.0008
 Hexadecapole moment (field-independent basis, Debye-Ang**3):
 XXXX=          -1586.3866 YYYY=           -749.4457 ZZZZ=            -80.1109 XXXY=            160.4290
 XXXZ=              0.0154 YYYX=            -30.3295 YYYZ=              0.0059 ZZZX=              0.0116
 ZZZY=             -0.0112 XXYY=           -402.4024 XXZZ=           -301.8041 YYZZ=           -157.9080
 XXYZ=             -0.0070 YYXZ=              0.0041 ZZXY=              0.1716
 N-N= 6.993345805856D+02 E-N=-2.824605690132D+03  KE= 6.050199803912D+02
 Calling FoFJK, ICntrl=      2127 FMM=F ISym2X=0 I1Cent= 0 IOpClX= 0 NMat=1 NMatS=1 NMatT=0.
 ***** Axes restored to original set *****
 -------------------------------------------------------------------
 Center     Atomic                   Forces (Hartrees/Bohr)
 Number     Number              X              Y              Z
 -------------------------------------------------------------------
      1        6           0.000785799   -0.000199247   -0.000000807
      2        6           0.001215269    0.000497778    0.000000125
      3        6          -0.001042894   -0.000885737   -0.000000120
      4        6           0.001306663   -0.001641197   -0.000000384
      5        6          -0.006185662    0.000767086    0.000003831
      6        6           0.000565478    0.001733644    0.000002258
      7        8          -0.000505252    0.001326411   -0.000002780
      8        6           0.006230306    0.008274687   -0.000015460
      9        6           0.001424836   -0.001989669    0.000006041
     10        8          -0.004197898   -0.009250988    0.000003084
     11        8           0.001836859   -0.002830895   -0.000001686
     12        8           0.002103508    0.000961519   -0.000000211
     13        1           0.000165021    0.000609354   -0.000000317
     14        1           0.000374570   -0.000417431   -0.000000182
     15        1           0.000641016   -0.000205027    0.000002300
     16        1          -0.000648940    0.000639996   -0.000297979
     17        1          -0.000961953    0.000254675    0.000000192
     18        1          -0.000650703    0.000641778    0.000297668
     19        1          -0.002179564    0.002171761    0.000004281
     20        1          -0.000276460   -0.000458495    0.000000146
 -------------------------------------------------------------------
 Cartesian Forces:  Max     0.009250988 RMS     0.002235382

 GradGradGradGradGradGradGradGradGradGradGradGradGradGradGradGradGradGrad
 Berny optimization.
 FormGI is forming the generalized inverse of G from B-inverse, IUseBI=4.
 Internal  Forces:  Max     0.010159063 RMS     0.001585705
 Search for a local minimum.
 Step number   1 out of a maximum of  100
 All quantities printed in internal units (Hartrees-Bohrs-Radians)
 Mixed Optimization -- RFO/linear search
 Second derivative matrix not updated -- first step.
 ITU=  0
     Eigenvalues ---    0.00676   0.00874   0.01158   0.01610   0.01843
     Eigenvalues ---    0.02025   0.02098   0.02131   0.02171   0.02205
     Eigenvalues ---    0.02207   0.02237   0.02238   0.02307   0.02636
     Eigenvalues ---    0.07370   0.07536   0.16000   0.16000   0.16000
     Eigenvalues ---    0.16000   0.16000   0.16000   0.16000   0.16000
     Eigenvalues ---    0.23482   0.23499   0.25000   0.25000   0.25000
     Eigenvalues ---    0.25000   0.25000   0.25000   0.25000   0.31675
     Eigenvalues ---    0.34544   0.34544   0.34869   0.35399   0.35412
     Eigenvalues ---    0.35697   0.39618   0.41121   0.43982   0.45192
     Eigenvalues ---    0.47070   0.47635   0.47828   0.53190   0.54282
     Eigenvalues ---    0.54521   0.54537   0.59839   0.87150
 RFO step:  Lambda=-5.64947302D-04 EMin= 6.76059710D-03
 Linear search not attempted -- first point.
 Iteration  1 RMS(Cart)=  0.02409995 RMS(Int)=  0.00016669
 Iteration  2 RMS(Cart)=  0.00024408 RMS(Int)=  0.00000483
 Iteration  3 RMS(Cart)=  0.00000004 RMS(Int)=  0.00000483
 Variable       Old X    -DE/DX   Delta X   Delta X   Delta X     New X
                                 (Linear)    (Quad)   (Total)
    R1        2.64376   0.00129   0.00000   0.00271   0.00271   2.64648
    R2        2.61648   0.00240   0.00000   0.00505   0.00505   2.62153
    R3        2.05032   0.00061   0.00000   0.00173   0.00173   2.05205
    R4        2.61919   0.00215   0.00000   0.00432   0.00432   2.62351
    R5        2.55776   0.00187   0.00000   0.00343   0.00343   2.56120
    R6        2.64067   0.00092   0.00000   0.00192   0.00192   2.64260
    R7        2.05011   0.00055   0.00000   0.00155   0.00155   2.05166
    R8        2.69793   0.00270   0.00000   0.00662   0.00662   2.70454
    R9        2.51068   0.00074   0.00000   0.00124   0.00124   2.51192
   R10        2.67843   0.00385   0.00000   0.00915   0.00915   2.68758
   R11        2.77859  -0.00106   0.00000  -0.00297  -0.00297   2.77562
   R12        2.56777   0.00088   0.00000   0.00165   0.00165   2.56941
   R13        1.82246   0.00024   0.00000   0.00043   0.00043   1.82289
   R14        2.84743   0.00015   0.00000   0.00048   0.00048   2.84791
   R15        2.34275   0.01016   0.00000   0.01165   0.01165   2.35440
   R16        2.06421   0.00050   0.00000   0.00144   0.00144   2.06566
   R17        2.05887   0.00082   0.00000   0.00234   0.00234   2.06121
   R18        2.06421   0.00050   0.00000   0.00144   0.00144   2.06566
   R19        1.89030   0.00247   0.00000   0.00518   0.00518   1.89548
   R20        1.82260   0.00029   0.00000   0.00054   0.00054   1.82314
    A1        2.08034   0.00102   0.00000   0.00448   0.00448   2.08483
    A2        2.08073  -0.00035   0.00000  -0.00126  -0.00126   2.07947
    A3        2.12211  -0.00067   0.00000  -0.00322  -0.00322   2.11889
    A4        2.11771  -0.00073   0.00000  -0.00349  -0.00349   2.11422
    A5        2.02977   0.00035   0.00000   0.00167   0.00168   2.03145
    A6        2.13571   0.00038   0.00000   0.00181   0.00181   2.13752
    A7        2.08080   0.00037   0.00000   0.00101   0.00101   2.08181
    A8        2.13342  -0.00030   0.00000  -0.00120  -0.00120   2.13222
    A9        2.06896  -0.00007   0.00000   0.00019   0.00019   2.06915
   A10        2.12020   0.00099   0.00000   0.00387   0.00387   2.12407
   A11        2.04395   0.00128   0.00000   0.00514   0.00514   2.04909
   A12        2.11904  -0.00227   0.00000  -0.00901  -0.00901   2.11003
   A13        2.03688  -0.00126   0.00000  -0.00465  -0.00465   2.03223
   A14        2.06946  -0.00329   0.00000  -0.01333  -0.01333   2.05613
   A15        2.17685   0.00455   0.00000   0.01798   0.01798   2.19483
   A16        2.13044  -0.00039   0.00000  -0.00123  -0.00122   2.12922
   A17        2.09115  -0.00129   0.00000  -0.00533  -0.00533   2.08582
   A18        2.06159   0.00169   0.00000   0.00656   0.00655   2.06814
   A19        1.91011  -0.00115   0.00000  -0.00715  -0.00715   1.90296
   A20        2.13956   0.00236   0.00000   0.00940   0.00940   2.14896
   A21        2.09035  -0.00123   0.00000  -0.00490  -0.00490   2.08545
   A22        2.05328  -0.00113   0.00000  -0.00450  -0.00450   2.04878
   A23        1.93141   0.00091   0.00000   0.00609   0.00607   1.93748
   A24        1.87729   0.00037   0.00000   0.00143   0.00142   1.87871
   A25        1.93141   0.00091   0.00000   0.00612   0.00610   1.93750
   A26        1.93102  -0.00078   0.00000  -0.00571  -0.00572   1.92530
   A27        1.86247  -0.00063   0.00000  -0.00222  -0.00225   1.86022
   A28        1.93102  -0.00078   0.00000  -0.00572  -0.00572   1.92530
   A29        1.85985  -0.00346   0.00000  -0.02158  -0.02158   1.83827
   A30        1.92211  -0.00081   0.00000  -0.00507  -0.00507   1.91704
    D1       -0.00000  -0.00000   0.00000  -0.00002  -0.00002  -0.00002
    D2       -3.14159  -0.00000   0.00000  -0.00001  -0.00001   3.14159
    D3        3.14157  -0.00000   0.00000  -0.00000  -0.00000   3.14156
    D4       -0.00002   0.00000   0.00000   0.00001   0.00001  -0.00001
    D5        0.00001  -0.00000   0.00000  -0.00001  -0.00001   0.00000
    D6        3.14158   0.00000   0.00000   0.00002   0.00002  -3.14159
    D7       -3.14156  -0.00000   0.00000  -0.00003  -0.00003  -3.14159
    D8        0.00001   0.00000   0.00000   0.00001   0.00001   0.00001
    D9        0.00000   0.00000   0.00000   0.00000   0.00000   0.00001
   D10        3.14159   0.00000   0.00000   0.00003   0.00003  -3.14157
   D11        3.14159  -0.00000   0.00000  -0.00001  -0.00001   3.14158
   D12       -0.00001   0.00000   0.00000   0.00002   0.00002   0.00001
   D13       -3.14159  -0.00000   0.00000  -0.00001  -0.00001   3.14158
   D14        0.00000   0.00000   0.00000   0.00000   0.00000   0.00001
   D15       -0.00001   0.00000   0.00000   0.00004   0.00004   0.00003
   D16        3.14157   0.00000   0.00000   0.00008   0.00008  -3.14153
   D17        3.14159   0.00000   0.00000   0.00001   0.00001  -3.14158
   D18       -0.00001   0.00000   0.00000   0.00006   0.00006   0.00004
   D19        0.00002  -0.00000   0.00000  -0.00007  -0.00007  -0.00005
   D20       -3.14157  -0.00000   0.00000  -0.00008  -0.00008   3.14153
   D21       -3.14156  -0.00000   0.00000  -0.00011  -0.00011   3.14151
   D22        0.00003  -0.00000   0.00000  -0.00013  -0.00013  -0.00010
   D23       -3.14153  -0.00000   0.00000  -0.00017  -0.00017   3.14148
   D24        0.00005  -0.00000   0.00000  -0.00013  -0.00013  -0.00008
   D25       -0.00002   0.00000   0.00000   0.00005   0.00005   0.00003
   D26       -3.14159   0.00000   0.00000   0.00002   0.00002  -3.14157
   D27        3.14158   0.00000   0.00000   0.00007   0.00007  -3.14154
   D28        0.00001   0.00000   0.00000   0.00004   0.00004   0.00005
   D29       -3.14151  -0.00000   0.00000  -0.00027  -0.00027   3.14141
   D30       -0.00003   0.00000   0.00000   0.00010   0.00010   0.00007
   D31        0.00008  -0.00000   0.00000  -0.00029  -0.00029  -0.00021
   D32        3.14156   0.00000   0.00000   0.00008   0.00008  -3.14154
   D33        0.00027  -0.00000   0.00000  -0.00011  -0.00011   0.00016
   D34       -3.14135  -0.00000   0.00000  -0.00008  -0.00008  -3.14142
   D35        1.03034   0.00018   0.00000   0.00265   0.00266   1.03300
   D36        3.14153   0.00000   0.00000   0.00018   0.00018  -3.14148
   D37       -1.03048  -0.00018   0.00000  -0.00227  -0.00229  -1.03277
   D38       -2.11114   0.00018   0.00000   0.00228   0.00230  -2.10884
   D39        0.00004  -0.00000   0.00000  -0.00018  -0.00018  -0.00014
   D40        2.11122  -0.00018   0.00000  -0.00264  -0.00265   2.10857
         Item               Value     Threshold  Converged?
 Maximum Force            0.010159     0.000450     NO 
 RMS     Force            0.001586     0.000300     NO 
 Maximum Displacement     0.090824     0.001800     NO 
 RMS     Displacement     0.024224     0.001200     NO 
 Predicted change in Energy=-2.830541D-04
 GradGradGradGradGradGradGradGradGradGradGradGradGradGradGradGradGradGrad

                          Input orientation:                          
 ---------------------------------------------------------------------
 Center     Atomic      Atomic             Coordinates (Angstroms)
 Number     Number       Type             X           Y           Z
 ---------------------------------------------------------------------
      1          6           0        1.535290    1.253247   -0.000068
      2          6           0        2.265657    0.058325   -0.000037
      3          6           0        1.626117   -1.173896    0.000005
      4          6           0        0.228444   -1.219021    0.000006
      5          6           0       -0.562507   -0.026259   -0.000068
      6          6           0        0.148867    1.205252   -0.000084
      7          8           0       -0.561390    2.364670   -0.000122
      8          6           0       -2.023931   -0.173205   -0.000146
      9          6           0       -2.969650    1.000171    0.000006
     10          8           0       -2.525619   -1.313625   -0.000066
     11          8           0       -0.344961   -2.418235    0.000116
     12          8           0        3.615741    0.177416   -0.000027
     13          1           0        2.068706    2.199103   -0.000073
     14          1           0        2.175560   -2.110293    0.000053
     15          1           0        0.051889    3.109252   -0.000283
     16          1           0       -2.808573    1.633457   -0.876274
     17          1           0       -3.986398    0.605269    0.000023
     18          1           0       -2.808494    1.633322    0.876370
     19          1           0       -1.332063   -2.240103    0.000204
     20          1           0        4.021627   -0.697814    0.000005
 ---------------------------------------------------------------------
                    Distance matrix (angstroms):
                    1          2          3          4          5
     1  C    0.000000
     2  C    1.400455   0.000000
     3  C    2.428841   1.388301   0.000000
     4  C    2.796419   2.404548   1.398402   0.000000
     5  C    2.457212   2.829429   2.471264   1.431183   0.000000
     6  C    1.387254   2.407539   2.800466   2.425579   1.422207
     7  O    2.373042   3.648482   4.160124   3.669697   2.390929
     8  C    3.834425   4.295832   3.784737   2.483329   1.468793
     9  C    4.512043   5.319353   5.084058   3.892636   2.616848
    10  O    4.804145   4.983831   4.154087   2.755687   2.347577
    11  O    4.124939   3.598427   2.330993   1.329250   2.401848
    12  O    2.342155   1.355326   2.405129   3.663853   4.183210
    13  H    1.085899   2.149818   3.401912   3.882027   3.446088
    14  H    3.423938   2.170489   1.085692   2.141408   3.440961
    15  H    2.375971   3.769473   4.563283   4.331873   3.195139
    16  H    4.447633   5.384853   5.321238   4.257696   2.926979
    17  H    5.559579   6.275934   5.887764   4.592704   3.481646
    18  H    4.447590   5.384767   5.321115   4.257566   2.926911
    19  H    4.519425   4.269234   3.144460   1.864883   2.343783
    20  H    3.160461   1.911852   2.442360   3.828825   4.633064
                    6          7          8          9         10
     6  C    0.000000
     7  O    1.359674   0.000000
     8  C    2.573168   2.929136   0.000000
     9  C    3.125253   2.767955   1.507049   0.000000
    10  O    3.673910   4.169898   1.245893   2.356017   0.000000
    11  O    3.656983   4.787799   2.803409   4.309814   2.444470
    12  O    3.616029   4.715136   5.650561   6.636588   6.319771
    13  H    2.161833   2.635302   4.730489   5.179041   5.783345
    14  H    3.885914   5.245588   4.624720   6.012335   4.768204
    15  H    1.906469   0.964631   3.883755   3.684823   5.119120
    16  H    3.114084   2.520347   2.155758   1.093098   3.087572
    17  H    4.178564   3.850477   2.111232   1.090745   2.411646
    18  H    3.114064   2.520433   2.155773   1.093099   3.087500
    19  H    3.750150   4.668819   2.179621   3.630574   1.510939
    20  H    4.315082   5.512064   6.068277   7.194519   6.576143
                   11         12         13         14         15
    11  O    0.000000
    12  O    4.735458   0.000000
    13  H    5.210144   2.545690   0.000000
    14  H    2.539263   2.703282   4.310721   0.000000
    15  H    5.541715   4.614836   2.212674   5.635037   0.000000
    16  H    4.822205   6.645275   4.987538   6.294855   3.335801
    17  H    4.733038   7.614170   6.261357   6.733797   4.751599
    18  H    4.822025   6.645188   4.987518   6.294711   3.335967
    19  H    1.003046   5.506829   5.592117   3.510024   5.525479
    20  H    4.693287   0.964765   3.493713   2.324449   5.500234
                   16         17         18         19         20
    16  H    0.000000
    17  H    1.792300   0.000000
    18  H    1.752644   1.792299   0.000000
    19  H    4.237071   3.891226   4.236854   0.000000
    20  H    7.270098   8.113354   7.269991   5.571414   0.000000
 Stoichiometry    C8H8O4
 Framework group  C1[X(C8H8O4)]
 Deg. of freedom    54
 Full point group                 C1      NOp   1
 Largest Abelian subgroup         C1      NOp   1
 Largest concise Abelian subgroup C1      NOp   1
                         Standard orientation:                         
 ---------------------------------------------------------------------
 Center     Atomic      Atomic             Coordinates (Angstroms)
 Number     Number       Type             X           Y           Z
 ---------------------------------------------------------------------
      1          6           0       -1.538953    1.242112    0.000033
      2          6           0       -2.262070    0.042789    0.000002
      3          6           0       -1.615079   -1.185536   -0.000040
      4          6           0       -0.217158   -1.222196   -0.000041
      5          6           0        0.566555   -0.024666    0.000033
      6          6           0       -0.152264    1.202514    0.000049
      7          8           0        0.550958    2.366213    0.000087
      8          6           0        2.028842   -0.162758    0.000111
      9          6           0        2.967437    1.016324   -0.000041
     10          8           0        2.537427   -1.300119    0.000031
     11          8           0        0.363499   -2.417915   -0.000151
     12          8           0       -3.612850    0.153701   -0.000008
     13          1           0       -2.078087    2.184720    0.000038
     14          1           0       -2.158841   -2.125244   -0.000088
     15          1           0       -0.066819    3.107067    0.000248
     16          1           0        2.802528    1.648623    0.876239
     17          1           0        3.986559    0.627587   -0.000058
     18          1           0        2.802450    1.648487   -0.876405
     19          1           0        1.349504   -2.233808   -0.000239
     20          1           0       -4.013428   -0.723971   -0.000040
 ---------------------------------------------------------------------
 Rotational constants (GHZ):      1.5528056      0.7651667      0.5141984
 Standard basis: 6-31+G(d,p) (6D, 7F)
 There are   268 symmetry adapted cartesian basis functions of A   symmetry.
 There are   268 symmetry adapted basis functions of A   symmetry.
   268 basis functions,   440 primitive gaussians,   268 cartesian basis functions
    44 alpha electrons       44 beta electrons
       nuclear repulsion energy       698.4241651329 Hartrees.
 NAtoms=   20 NActive=   20 NUniq=   20 SFac= 1.00D+00 NAtFMM=   60 NAOKFM=F Big=F
 Integral buffers will be    131072 words long.
 Raffenetti 2 integral format.
 Two-electron integral symmetry is turned on.
 One-electron integrals computed using PRISM.
 NBasis=   268 RedAO= T EigKep=  1.55D-06  NBF=   268
 NBsUse=   268 1.00D-06 EigRej= -1.00D+00 NBFU=   268
 Initial guess from the checkpoint file:  "B3PW91THAP.chk"
 B after Tr=     0.000000   -0.000000   -0.000000
         Rot=    0.999994   -0.000002    0.000008   -0.003401 Ang=  -0.39 deg.
 ExpMin= 4.38D-02 ExpMax= 5.48D+03 ExpMxC= 8.25D+02 IAcc=2 IRadAn=         4 AccDes= 0.00D+00
 Harris functional with IExCor=  408 and IRadAn=       4 diagonalized for initial guess.
 HarFok:  IExCor=  408 AccDes= 0.00D+00 IRadAn=         4 IDoV= 1 UseB2=F ITyADJ=14
 ICtDFT=  3500011 ScaDFX=  1.000000  1.000000  1.000000  1.000000
 FoFCou: FMM=F IPFlag=           0 FMFlag=      100000 FMFlg1=           0
         NFxFlg=           0 DoJE=T BraDBF=F KetDBF=T FulRan=T
         wScrn=  0.000000 ICntrl=     500 IOpCl=  0 I1Cent=   200000004 NGrid=           0
         NMat0=    1 NMatS0=      1 NMatT0=    0 NMatD0=    1 NMtDS0=    0 NMtDT0=    0
 Petite list used in FoFCou.
 Keep R1 ints in memory in canonical form, NReq=659648347.
 Requested convergence on RMS density matrix=1.00D-08 within 128 cycles.
 Requested convergence on MAX density matrix=1.00D-06.
 Requested convergence on             energy=1.00D-06.
 No special actions if energy rises.
 SCF Done:  E(RB3PW91) =  -610.379072133     A.U. after   13 cycles
            NFock= 13  Conv=0.50D-08     -V/T= 2.0089
 Calling FoFJK, ICntrl=      2127 FMM=F ISym2X=0 I1Cent= 0 IOpClX= 0 NMat=1 NMatS=1 NMatT=0.
 ***** Axes restored to original set *****
 -------------------------------------------------------------------
 Center     Atomic                   Forces (Hartrees/Bohr)
 Number     Number              X              Y              Z
 -------------------------------------------------------------------
      1        6          -0.000547618   -0.000559935    0.000000017
      2        6           0.000012125   -0.000426356    0.000000415
      3        6           0.000153986    0.000559243   -0.000001188
      4        6           0.001090189   -0.003433662    0.000004051
      5        6          -0.003636136    0.001385814   -0.000007998
      6        6           0.000575864    0.000173038   -0.000002638
      7        8          -0.001747332   -0.000777864   -0.000001898
      8        6           0.004212226    0.005497679    0.000034156
      9        6           0.001524322   -0.001041869   -0.000013993
     10        8          -0.004218275   -0.001724265   -0.000005871
     11        8           0.008365116   -0.000200215    0.000002862
     12        8          -0.000116248    0.000281091   -0.000000267
     13        1          -0.000128632    0.000139852    0.000000041
     14        1          -0.000039395   -0.000000333    0.000000470
     15        1          -0.000072365    0.000066191    0.000001334
     16        1           0.000151966    0.000182639   -0.000219704
     17        1          -0.000095311    0.000325726   -0.000000074
     18        1           0.000155984    0.000178450    0.000220052
     19        1          -0.005599981   -0.000447423   -0.000009736
     20        1          -0.000040487   -0.000177800   -0.000000029
 -------------------------------------------------------------------
 Cartesian Forces:  Max     0.008365116 RMS     0.001859614

 GradGradGradGradGradGradGradGradGradGradGradGradGradGradGradGradGradGrad
 Berny optimization.
 Using GEDIIS/GDIIS optimizer.
 FormGI is forming the generalized inverse of G from B-inverse, IUseBI=4.
 Internal  Forces:  Max     0.010648268 RMS     0.002232189
 Search for a local minimum.
 Step number   2 out of a maximum of  100
 All quantities printed in internal units (Hartrees-Bohrs-Radians)
 Mixed Optimization -- RFO/linear search
 Update second derivatives using D2CorX and points    1    2
 DE= -4.47D-05 DEPred=-2.83D-04 R= 1.58D-01
 Trust test= 1.58D-01 RLast= 4.48D-02 DXMaxT set to 3.00D-01
 ITU=  0  0
 Use linear search instead of GDIIS.
     Eigenvalues ---    0.00676   0.00873   0.01158   0.01610   0.01843
     Eigenvalues ---    0.02025   0.02097   0.02131   0.02171   0.02205
     Eigenvalues ---    0.02207   0.02237   0.02238   0.02307   0.02636
     Eigenvalues ---    0.07275   0.07504   0.13394   0.16000   0.16000
     Eigenvalues ---    0.16000   0.16000   0.16000   0.16000   0.16098
     Eigenvalues ---    0.22454   0.23514   0.24136   0.25000   0.25000
     Eigenvalues ---    0.25000   0.25000   0.25000   0.31526   0.32694
     Eigenvalues ---    0.34544   0.34645   0.34945   0.35405   0.35416
     Eigenvalues ---    0.36661   0.39759   0.43291   0.44167   0.45871
     Eigenvalues ---    0.46994   0.47214   0.53090   0.53931   0.54516
     Eigenvalues ---    0.54535   0.59701   0.75115   0.93812
 RFO step:  Lambda=-3.66262048D-04 EMin= 6.76059708D-03
 Quartic linear search produced a step of -0.45576.
 Iteration  1 RMS(Cart)=  0.01563047 RMS(Int)=  0.00006659
 Iteration  2 RMS(Cart)=  0.00011788 RMS(Int)=  0.00000131
 Iteration  3 RMS(Cart)=  0.00000001 RMS(Int)=  0.00000131
 Variable       Old X    -DE/DX   Delta X   Delta X   Delta X     New X
                                 (Linear)    (Quad)   (Total)
    R1        2.64648  -0.00045  -0.00124   0.00228   0.00104   2.64752
    R2        2.62153  -0.00110  -0.00230   0.00420   0.00190   2.62343
    R3        2.05205   0.00006  -0.00079   0.00200   0.00121   2.05326
    R4        2.62351  -0.00040  -0.00197   0.00427   0.00230   2.62581
    R5        2.56120  -0.00015  -0.00157   0.00364   0.00208   2.56327
    R6        2.64260   0.00039  -0.00088   0.00272   0.00185   2.64444
    R7        2.05166  -0.00002  -0.00071   0.00169   0.00098   2.05264
    R8        2.70454   0.00578  -0.00302   0.01512   0.01211   2.71665
    R9        2.51192  -0.00061  -0.00056   0.00082   0.00025   2.51217
   R10        2.68758  -0.00177  -0.00417   0.00791   0.00374   2.69132
   R11        2.77562  -0.00207   0.00135  -0.00643  -0.00508   2.77054
   R12        2.56941   0.00034  -0.00075   0.00217   0.00142   2.57083
   R13        1.82289   0.00001  -0.00020   0.00048   0.00029   1.82318
   R14        2.84791  -0.00136  -0.00022  -0.00180  -0.00202   2.84589
   R15        2.35440   0.00328  -0.00531   0.01489   0.00958   2.36398
   R16        2.06566   0.00031  -0.00066   0.00208   0.00142   2.06707
   R17        2.06121  -0.00003  -0.00106   0.00254   0.00147   2.06268
   R18        2.06566   0.00030  -0.00066   0.00208   0.00142   2.06708
   R19        1.89548   0.00543  -0.00236   0.01192   0.00956   1.90504
   R20        1.82314   0.00015  -0.00025   0.00074   0.00050   1.82364
    A1        2.08483  -0.00009  -0.00204   0.00402   0.00198   2.08680
    A2        2.07947   0.00023   0.00058  -0.00030   0.00028   2.07974
    A3        2.11889  -0.00014   0.00147  -0.00372  -0.00225   2.11664
    A4        2.11422   0.00016   0.00159  -0.00400  -0.00241   2.11181
    A5        2.03145  -0.00012  -0.00076   0.00184   0.00108   2.03252
    A6        2.13752  -0.00004  -0.00083   0.00216   0.00134   2.13886
    A7        2.08181   0.00107  -0.00046   0.00391   0.00345   2.08527
    A8        2.13222  -0.00050   0.00055  -0.00261  -0.00206   2.13016
    A9        2.06915  -0.00057  -0.00009  -0.00131  -0.00140   2.06776
   A10        2.12407  -0.00203  -0.00176   0.00044  -0.00132   2.12275
   A11        2.04909  -0.00382  -0.00234  -0.00288  -0.00523   2.04386
   A12        2.11003   0.00586   0.00411   0.00244   0.00655   2.11658
   A13        2.03223  -0.00064   0.00212  -0.00614  -0.00402   2.02821
   A14        2.05613   0.01065   0.00607   0.00814   0.01422   2.07035
   A15        2.19483  -0.01000  -0.00819  -0.00200  -0.01020   2.18463
   A16        2.12922   0.00153   0.00056   0.00176   0.00232   2.13154
   A17        2.08582   0.00179   0.00243  -0.00192   0.00051   2.08633
   A18        2.06814  -0.00332  -0.00299   0.00016  -0.00283   2.06532
   A19        1.90296   0.00018   0.00326  -0.00737  -0.00411   1.89885
   A20        2.14896  -0.00529  -0.00428  -0.00106  -0.00534   2.14362
   A21        2.08545   0.00637   0.00223   0.00841   0.01064   2.09609
   A22        2.04878  -0.00109   0.00205  -0.00735  -0.00530   2.04348
   A23        1.93748  -0.00019  -0.00277   0.00595   0.00318   1.94067
   A24        1.87871   0.00059  -0.00065   0.00388   0.00323   1.88194
   A25        1.93750  -0.00020  -0.00278   0.00594   0.00317   1.94067
   A26        1.92530  -0.00011   0.00260  -0.00645  -0.00385   1.92146
   A27        1.86022  -0.00000   0.00102  -0.00312  -0.00208   1.85814
   A28        1.92530  -0.00011   0.00261  -0.00645  -0.00385   1.92145
   A29        1.83827   0.00272   0.00983  -0.01482  -0.00498   1.83329
   A30        1.91704  -0.00021   0.00231  -0.00635  -0.00404   1.91301
    D1       -0.00002   0.00000   0.00001  -0.00000   0.00001  -0.00001
    D2        3.14159  -0.00000   0.00000  -0.00001  -0.00000   3.14158
    D3        3.14156   0.00000   0.00000   0.00001   0.00001   3.14158
    D4       -0.00001  -0.00000  -0.00000   0.00000  -0.00000  -0.00001
    D5        0.00000   0.00000   0.00000  -0.00000   0.00000   0.00000
    D6       -3.14159  -0.00000  -0.00001   0.00000  -0.00001  -3.14159
    D7       -3.14159   0.00000   0.00001  -0.00001   0.00000  -3.14158
    D8        0.00001  -0.00000  -0.00000  -0.00001  -0.00001   0.00000
    D9        0.00001  -0.00000  -0.00000  -0.00000  -0.00001   0.00000
   D10       -3.14157  -0.00000  -0.00001  -0.00000  -0.00002  -3.14159
   D11        3.14158   0.00000   0.00000   0.00000   0.00001   3.14159
   D12        0.00001  -0.00000  -0.00001   0.00000  -0.00001   0.00000
   D13        3.14158   0.00000   0.00001  -0.00000   0.00000   3.14158
   D14        0.00001  -0.00000  -0.00000  -0.00001  -0.00001  -0.00000
   D15        0.00003  -0.00000  -0.00002   0.00001  -0.00001   0.00002
   D16       -3.14153  -0.00000  -0.00004  -0.00001  -0.00005  -3.14159
   D17       -3.14158  -0.00000  -0.00001   0.00001   0.00000  -3.14158
   D18        0.00004  -0.00000  -0.00003  -0.00001  -0.00004   0.00000
   D19       -0.00005   0.00000   0.00003  -0.00001   0.00002  -0.00003
   D20        3.14153   0.00000   0.00004  -0.00000   0.00004   3.14156
   D21        3.14151   0.00001   0.00005   0.00002   0.00007   3.14158
   D22       -0.00010   0.00001   0.00006   0.00002   0.00008  -0.00002
   D23        3.14148   0.00001   0.00008   0.00003   0.00010   3.14159
   D24       -0.00008   0.00001   0.00006   0.00000   0.00006  -0.00002
   D25        0.00003  -0.00000  -0.00002   0.00001  -0.00002   0.00001
   D26       -3.14157  -0.00000  -0.00001   0.00000  -0.00001  -3.14157
   D27       -3.14154  -0.00000  -0.00003  -0.00000  -0.00003  -3.14157
   D28        0.00005  -0.00000  -0.00002  -0.00001  -0.00002   0.00002
   D29        3.14141   0.00001   0.00012   0.00000   0.00012   3.14153
   D30        0.00007  -0.00000  -0.00005   0.00005   0.00000   0.00008
   D31       -0.00021   0.00001   0.00013   0.00001   0.00014  -0.00007
   D32       -3.14154   0.00000  -0.00004   0.00006   0.00002  -3.14152
   D33        0.00016  -0.00000   0.00005  -0.00014  -0.00009   0.00007
   D34       -3.14142  -0.00000   0.00003  -0.00013  -0.00010  -3.14152
   D35        1.03300  -0.00013  -0.00121   0.00191   0.00070   1.03370
   D36       -3.14148  -0.00000  -0.00008   0.00003  -0.00005  -3.14153
   D37       -1.03277   0.00012   0.00104  -0.00185  -0.00081  -1.03357
   D38       -2.10884  -0.00012  -0.00105   0.00186   0.00081  -2.10803
   D39       -0.00014   0.00000   0.00008  -0.00001   0.00007  -0.00007
   D40        2.10857   0.00013   0.00121  -0.00190  -0.00069   2.10789
         Item               Value     Threshold  Converged?
 Maximum Force            0.010648     0.000450     NO 
 RMS     Force            0.002232     0.000300     NO 
 Maximum Displacement     0.056646     0.001800     NO 
 RMS     Displacement     0.015684     0.001200     NO 
 Predicted change in Energy=-2.919620D-04
 GradGradGradGradGradGradGradGradGradGradGradGradGradGradGradGradGradGrad

                          Input orientation:                          
 ---------------------------------------------------------------------
 Center     Atomic      Atomic             Coordinates (Angstroms)
 Number     Number       Type             X           Y           Z
 ---------------------------------------------------------------------
      1          6           0        1.527657    1.251141   -0.000069
      2          6           0        2.265756    0.060332   -0.000036
      3          6           0        1.630382   -1.175411    0.000012
      4          6           0        0.232097   -1.230751    0.000027
      5          6           0       -0.569523   -0.037406   -0.000029
      6          6           0        0.140446    1.197200   -0.000068
      7          8           0       -0.575725    2.353856   -0.000100
      8          6           0       -2.029433   -0.172035   -0.000047
      9          6           0       -2.958447    1.013251   -0.000027
     10          8           0       -2.554711   -1.307373    0.000068
     11          8           0       -0.326316   -2.437165    0.000083
     12          8           0        3.616302    0.186495   -0.000049
     13          1           0        2.055211    2.201013   -0.000090
     14          1           0        2.185593   -2.109003    0.000043
     15          1           0        0.037160    3.098958   -0.000188
     16          1           0       -2.791671    1.646390   -0.876284
     17          1           0       -3.982428    0.635245    0.000020
     18          1           0       -2.791604    1.646415    0.876199
     19          1           0       -1.319717   -2.265606    0.000090
     20          1           0        4.023285   -0.688515   -0.000017
 ---------------------------------------------------------------------
                    Distance matrix (angstroms):
                    1          2          3          4          5
     1  C    0.000000
     2  C    1.401006   0.000000
     3  C    2.428725   1.389518   0.000000
     4  C    2.799690   2.408872   1.399380   0.000000
     5  C    2.461405   2.836963   2.476820   1.437591   0.000000
     6  C    1.388259   2.410273   2.801641   2.429681   1.424187
     7  O    2.374910   3.651612   4.162047   3.674505   2.391270
     8  C    3.831229   4.301470   3.794866   2.497078   1.466104
     9  C    4.492406   5.310400   5.084052   3.900656   2.609758
    10  O    4.817854   5.010740   4.187173   2.787861   2.356647
    11  O    4.128052   3.599490   2.328238   1.329383   2.412052
    12  O    2.344336   1.356426   2.408042   3.668982   4.191810
    13  H    1.086541   2.151011   3.403045   3.885969   3.449602
    14  H    3.423952   2.170816   1.086211   2.141838   3.447054
    15  H    2.374029   3.768275   4.561643   4.334096   3.194502
    16  H    4.424993   5.372240   5.318365   4.264861   2.922487
    17  H    5.544399   6.274578   5.897636   4.609139   3.478559
    18  H    4.424940   5.372182   5.318304   4.264801   2.922443
    19  H    4.524936   4.273828   3.145093   1.865222   2.351099
    20  H    3.160764   1.910414   2.441936   3.829768   4.638732
                    6          7          8          9         10
     6  C    0.000000
     7  O    1.360424   0.000000
     8  C    2.565771   2.914343   0.000000
     9  C    3.104347   2.733968   1.505978   0.000000
    10  O    3.679233   4.161848   1.250962   2.355482   0.000000
    11  O    3.664216   4.797509   2.833976   4.339756   2.498434
    12  O    3.619821   4.719169   5.657108   6.626526   6.349255
    13  H    2.161936   2.635373   4.723947   5.152431   5.793112
    14  H    3.887623   5.248047   4.638781   6.017442   4.807607
    15  H    1.904561   0.964783   3.869135   3.650183   5.112098
    16  H    3.093030   2.485683   2.157654   1.093849   3.090123
    17  H    4.160995   3.815658   2.113265   1.091524   2.410838
    18  H    3.092984   2.485656   2.157655   1.093849   3.090079
    19  H    3.758072   4.678991   2.210596   3.665561   1.563144
    20  H    4.316522   5.514247   6.074714   7.186139   6.607043
                   11         12         13         14         15
    11  O    0.000000
    12  O    4.735803   0.000000
    13  H    5.213863   2.548586   0.000000
    14  H    2.533254   2.704855   4.311988   0.000000
    15  H    5.548043   4.614402   2.208809   5.633705   0.000000
    16  H    4.849888   6.630325   4.956570   6.296355   3.298451
    17  H    4.775652   7.611969   6.237364   6.750954   4.714548
    18  H    4.849830   6.630267   4.956519   6.296293   3.298460
    19  H    1.008106   5.511541   5.598288   3.508806   5.533504
    20  H    4.687943   0.965027   3.496096   2.322692   5.498559
                   16         17         18         19         20
    16  H    0.000000
    17  H    1.791151   0.000000
    18  H    1.752483   1.791150   0.000000
    19  H    4.270643   3.937635   4.270589   0.000000
    20  H    7.256945   8.114418   7.256884   5.570897   0.000000
 Stoichiometry    C8H8O4
 Framework group  C1[X(C8H8O4)]
 Deg. of freedom    54
 Full point group                 C1      NOp   1
 Largest Abelian subgroup         C1      NOp   1
 Largest concise Abelian subgroup C1      NOp   1
                         Standard orientation:                         
 ---------------------------------------------------------------------
 Center     Atomic      Atomic             Coordinates (Angstroms)
 Number     Number       Type             X           Y           Z
 ---------------------------------------------------------------------
      1          6           0       -1.529567    1.247405    0.000050
      2          6           0       -2.264480    0.054626    0.000018
      3          6           0       -1.625805   -1.179413   -0.000031
      4          6           0       -0.227377   -1.231015   -0.000046
      5          6           0        0.571050   -0.035531    0.000011
      6          6           0       -0.142217    1.197173    0.000049
      7          8           0        0.570859    2.355739    0.000081
      8          6           0        2.031315   -0.166257    0.000029
      9          6           0        2.957156    1.021509    0.000009
     10          8           0        2.559626   -1.300185   -0.000087
     11          8           0        0.334260   -2.435932   -0.000101
     12          8           0       -3.615359    0.177178    0.000031
     13          1           0       -2.059659    2.195863    0.000072
     14          1           0       -2.178518   -2.114487   -0.000062
     15          1           0       -0.044016    3.099200    0.000169
     16          1           0        2.788688    1.654200    0.876265
     17          1           0        3.982144    0.646242   -0.000038
     18          1           0        2.788621    1.654225   -0.876218
     19          1           0        1.327199   -2.261718   -0.000108
     20          1           0       -4.020001   -0.698917   -0.000001
 ---------------------------------------------------------------------
 Rotational constants (GHZ):      1.5476406      0.7632979      0.5127877
 Standard basis: 6-31+G(d,p) (6D, 7F)
 There are   268 symmetry adapted cartesian basis functions of A   symmetry.
 There are   268 symmetry adapted basis functions of A   symmetry.
   268 basis functions,   440 primitive gaussians,   268 cartesian basis functions
    44 alpha electrons       44 beta electrons
       nuclear repulsion energy       697.3903917263 Hartrees.
 NAtoms=   20 NActive=   20 NUniq=   20 SFac= 1.00D+00 NAtFMM=   60 NAOKFM=F Big=F
 Integral buffers will be    131072 words long.
 Raffenetti 2 integral format.
 Two-electron integral symmetry is turned on.
 One-electron integrals computed using PRISM.
 NBasis=   268 RedAO= T EigKep=  1.54D-06  NBF=   268
 NBsUse=   268 1.00D-06 EigRej= -1.00D+00 NBFU=   268
 Initial guess from the checkpoint file:  "B3PW91THAP.chk"
 B after Tr=    -0.000000   -0.000000    0.000000
         Rot=    0.999998   -0.000002   -0.000005    0.002043 Ang=  -0.23 deg.
 ExpMin= 4.38D-02 ExpMax= 5.48D+03 ExpMxC= 8.25D+02 IAcc=2 IRadAn=         4 AccDes= 0.00D+00
 Harris functional with IExCor=  408 and IRadAn=       4 diagonalized for initial guess.
 HarFok:  IExCor=  408 AccDes= 0.00D+00 IRadAn=         4 IDoV= 1 UseB2=F ITyADJ=14
 ICtDFT=  3500011 ScaDFX=  1.000000  1.000000  1.000000  1.000000
 FoFCou: FMM=F IPFlag=           0 FMFlag=      100000 FMFlg1=           0
         NFxFlg=           0 DoJE=T BraDBF=F KetDBF=T FulRan=T
         wScrn=  0.000000 ICntrl=     500 IOpCl=  0 I1Cent=   200000004 NGrid=           0
         NMat0=    1 NMatS0=      1 NMatT0=    0 NMatD0=    1 NMtDS0=    0 NMtDT0=    0
 Petite list used in FoFCou.
 Keep R1 ints in memory in canonical form, NReq=659648347.
 Requested convergence on RMS density matrix=1.00D-08 within 128 cycles.
 Requested convergence on MAX density matrix=1.00D-06.
 Requested convergence on             energy=1.00D-06.
 No special actions if energy rises.
 SCF Done:  E(RB3PW91) =  -610.379169236     A.U. after   12 cycles
            NFock= 12  Conv=0.59D-08     -V/T= 2.0091
 Calling FoFJK, ICntrl=      2127 FMM=F ISym2X=0 I1Cent= 0 IOpClX= 0 NMat=1 NMatS=1 NMatT=0.
 ***** Axes restored to original set *****
 -------------------------------------------------------------------
 Center     Atomic                   Forces (Hartrees/Bohr)
 Number     Number              X              Y              Z
 -------------------------------------------------------------------
      1        6          -0.000532114   -0.000431815   -0.000000010
      2        6          -0.000789041    0.000180417    0.000000242
      3        6          -0.000120667    0.000861714    0.000000296
      4        6           0.001060865    0.001268696   -0.000001253
      5        6           0.001158176   -0.000844286   -0.000003785
      6        6           0.000098323   -0.001175363   -0.000000718
      7        8           0.000340353   -0.000853853   -0.000001121
      8        6          -0.000899886   -0.001301705    0.000018573
      9        6          -0.000309570    0.000253967   -0.000005757
     10        8           0.004789402    0.001593206   -0.000006903
     11        8          -0.002910911    0.002751392   -0.000000106
     12        8          -0.001485695   -0.000501504    0.000000027
     13        1          -0.000229950   -0.000259352   -0.000000049
     14        1          -0.000273778    0.000201953    0.000000124
     15        1          -0.000296890    0.000288222    0.000000557
     16        1           0.000229442   -0.000243661    0.000166824
     17        1           0.000538617   -0.000057640   -0.000000300
     18        1           0.000230846   -0.000245301   -0.000166756
     19        1          -0.000816172   -0.001591248    0.000000124
     20        1           0.000218650    0.000106159   -0.000000008
 -------------------------------------------------------------------
 Cartesian Forces:  Max     0.004789402 RMS     0.000998249

 GradGradGradGradGradGradGradGradGradGradGradGradGradGradGradGradGradGrad
 Berny optimization.
 Using GEDIIS/GDIIS optimizer.
 FormGI is forming the generalized inverse of G from B-inverse, IUseBI=4.
 Internal  Forces:  Max     0.005471261 RMS     0.001501741
 Search for a local minimum.
 Step number   3 out of a maximum of  100
 All quantities printed in internal units (Hartrees-Bohrs-Radians)
 Mixed Optimization -- RFO/linear search
 Update second derivatives using D2CorX and points    1    2    3
 DE= -9.71D-05 DEPred=-2.92D-04 R= 3.33D-01
 Trust test= 3.33D-01 RLast= 3.38D-02 DXMaxT set to 3.00D-01
 ITU=  0  0  0
 Use linear search instead of GDIIS.
     Eigenvalues ---    0.00676   0.00875   0.01158   0.01609   0.01843
     Eigenvalues ---    0.02024   0.02097   0.02131   0.02171   0.02205
     Eigenvalues ---    0.02207   0.02237   0.02238   0.02307   0.02636
     Eigenvalues ---    0.07253   0.07471   0.13957   0.16000   0.16000
     Eigenvalues ---    0.16000   0.16000   0.16000   0.16004   0.17570
     Eigenvalues ---    0.21989   0.23522   0.24460   0.25000   0.25000
     Eigenvalues ---    0.25000   0.25000   0.26542   0.28928   0.31881
     Eigenvalues ---    0.34544   0.34613   0.34957   0.35406   0.35498
     Eigenvalues ---    0.38870   0.42697   0.43030   0.44289   0.46611
     Eigenvalues ---    0.47059   0.52460   0.53383   0.54508   0.54534
     Eigenvalues ---    0.58217   0.59681   0.78790   1.13546
 RFO step:  Lambda=-1.12786567D-04 EMin= 6.76059712D-03
 Quartic linear search produced a step of -0.40291.
 Iteration  1 RMS(Cart)=  0.00568349 RMS(Int)=  0.00001233
 Iteration  2 RMS(Cart)=  0.00001468 RMS(Int)=  0.00000045
 Iteration  3 RMS(Cart)=  0.00000000 RMS(Int)=  0.00000045
 Variable       Old X    -DE/DX   Delta X   Delta X   Delta X     New X
                                 (Linear)    (Quad)   (Total)
    R1        2.64752  -0.00049  -0.00042  -0.00033  -0.00075   2.64677
    R2        2.62343  -0.00160  -0.00077  -0.00138  -0.00215   2.62128
[...]
 43193,0.63333453,0.00000033,-0.00000018,0.01243141,0.00000021,0.000000
 49,0.00950043,0.00000014,0.00000007,-0.00154741,0.00000021,0.00000069,
 0.00357003,-0.00000130,0.00000210,0.00454901,-0.00000177,0.00000722,-0
 .04483538,-0.00002118,-0.00003517,0.02935043,0.01291731,-0.00525165,-0
 .00000038,-0.00984005,0.00662664,0.00000082,0.00088607,0.00322682,-0.0
 0000116,-0.02604809,0.04595807,-0.00000014,-0.20939073,0.00984432,0.00
 000294,-0.01877287,-0.03982454,0.00000101,-0.00698691,0.01573829,0.000
 00020,0.59281074,0.00261972,-0.00790682,0.00000040,-0.00282957,0.00071
 829,0.00000037,0.00216820,-0.00712582,-0.00000016,0.03419583,0.0359795
 5,-0.00000183,0.02879215,-0.11189567,0.00000218,-0.03821603,-0.0016804
 6,0.00000031,0.00207451,0.00272215,0.00000020,0.07942024,0.79717034,0.
 00000029,0.00000035,0.00542224,-0.00000021,0.00000020,-0.00101535,0.00
 000011,0.00000035,0.00279352,-0.00000135,0.00000049,0.00296251,0.00000
 171,0.00000258,-0.06619435,0.00000088,-0.00000138,-0.00645598,-0.00000
 024,-0.00000005,-0.00240904,0.00001022,0.00000742,0.21839540,-0.000641
 28,0.00026513,0.00000005,0.00064467,-0.00007160,-0.00000023,-0.0000854
 8,0.00155484,0.00000024,-0.00510155,-0.00393334,-0.00000005,-0.0126016
 3,0.02310442,-0.00000205,0.00037582,0.00046181,0.00000015,-0.00694240,
 -0.00498363,-0.00000008,-0.15269046,0.06849862,-0.00000277,0.56002356,
 0.00089690,-0.00024394,-0.00000003,-0.00074182,0.00001113,-0.00000002,
 0.00022031,0.00188190,-0.00000008,-0.00477643,-0.00055114,0.00000027,0
 .00512435,0.00948982,0.00000054,-0.00001180,-0.00314306,-0.00000003,-0
 .00418106,0.00013530,-0.00000009,0.05328784,-0.13825758,0.00000340,0.0
 6870440,0.53854130,-0.00000015,-0.00000012,-0.00020749,-0.00000001,-0.
 00000007,0.00006367,0.00000036,0.00000006,-0.00094500,0.00000010,0.000
 00033,0.00224298,-0.00000014,-0.00000034,0.01264023,-0.00000017,-0.000
 00001,-0.00011624,-0.00000024,-0.00000054,-0.00100964,-0.00000348,0.00
 000770,-0.08596599,-0.00000281,0.00000340,0.53644877,-0.00217349,-0.00
 194726,0.00000040,0.00392258,0.00062734,-0.00000040,-0.00336789,-0.004
 00325,0.00000037,0.00978518,0.00347055,-0.00000091,-0.03448377,-0.0547
 6837,-0.00000118,-0.00626015,0.01347008,-0.00000094,0.00302836,-0.0049
 8109,-0.00000001,-0.18848470,-0.18782967,-0.00000847,0.01865953,0.0178
 2466,-0.00000027,0.25046866,-0.00883032,0.00474974,0.00000008,0.004989
 31,-0.00896617,0.00000031,0.00465953,0.00487690,-0.00000030,-0.0043416
 0,-0.04375260,0.00000235,-0.06724540,-0.01428385,-0.00000142,0.0094989
 3,0.01536109,-0.00000050,-0.00047606,-0.00297374,0.00000012,-0.1514679
 3,-0.51160437,-0.00001421,-0.01027295,-0.06229815,-0.00000265,0.204513
 24,0.59734575,0.00000039,-0.00000044,-0.00140907,0.00000011,0.00000071
 ,0.00033804,-0.00000086,-0.00000066,0.00031810,0.00000099,0.00000167,-
 0.00214736,0.00000062,-0.00000144,0.01732467,-0.00000056,0.00000062,0.
 00647159,0.00000014,-0.00000013,0.00011020,-0.00001147,-0.00001880,-0.
 06852930,-0.00000050,0.00000170,0.02224210,0.00001146,0.00001917,0.036
 52671,0.01034073,-0.00972607,0.00000010,-0.00439695,0.02237870,-0.0000
 0056,-0.04400521,-0.06700214,0.00000417,-0.15634140,-0.10486235,0.0000
 0785,0.03694130,0.00748583,-0.00000059,-0.01604756,-0.00428490,0.00000
 014,0.00341073,-0.00000014,-0.00000001,-0.03593046,-0.02938111,-0.0000
 0092,0.00223916,0.00486407,0.00000026,-0.04097921,0.06610034,-0.000005
 39,0.53655092,0.00159985,-0.00704644,0.00000020,0.00495709,0.00977705,
 -0.00000017,-0.03225165,-0.01083797,0.00000203,-0.08052634,-0.32588064
 ,0.00001267,0.00043745,-0.05240102,0.00000276,0.00277187,0.00012207,-0
 .00000013,-0.00055176,-0.00269594,0.00000012,-0.02245755,-0.00849540,-
 0.00000045,0.00056420,-0.00095534,0.00000024,0.02054030,0.01353634,0.0
 0000096,0.05971297,0.45234232,-0.00000060,0.00000050,-0.00172741,0.000
 00015,-0.00000110,0.00530143,0.00000294,0.00000299,0.00879500,0.000006
 99,0.00001394,-0.05227153,-0.00000086,0.00000258,0.01068216,0.00000066
 ,0.00000070,0.00661216,-0.00000004,0.00000029,0.00018338,0.00000154,0.
 00000085,-0.00248731,0.00000005,0.00000015,-0.00072049,-0.00000168,-0.
 00000110,0.00888128,-0.00002022,-0.00001818,0.04602101,-0.04850626,0.0
 1264196,0.00000082,-0.32496318,-0.04910264,0.00000828,-0.04749966,-0.0
 1001651,0.00000166,0.01230704,-0.00417485,0.00000009,-0.01364433,0.000
 80959,0.00000007,0.00863378,0.00224781,0.00000002,-0.00230610,0.001690
 23,0.,0.01144218,0.00269500,0.00000008,-0.00057474,0.00101302,-0.00000
 008,-0.00444407,-0.00471232,-0.00000012,-0.00293778,-0.00134447,0.0000
 0024,0.52754354,0.04848118,0.00740006,-0.00000110,0.00385424,-0.115155
 85,0.00000212,-0.04698359,0.00192890,0.00000164,0.00834765,-0.00696507
 ,0.00000012,0.00008444,0.00439243,0.00000018,-0.00635616,-0.00915983,0
 .00000066,0.00347911,-0.00057767,-0.00000031,-0.00080769,-0.00002233,-
 0.00000012,-0.00006715,0.00006249,-0.00000025,-0.00013452,0.00137818,-
 0.00000008,-0.00454605,-0.00057089,0.00000033,-0.15216727,0.55827783,-
 0.00000053,-0.00000026,0.00661473,0.00000616,0.00000357,-0.04600464,0.
 00000299,0.00000064,0.01131639,-0.00000029,0.00000064,0.00960203,0.000
 00030,-0.00000025,-0.00152462,0.00000019,0.00000054,0.00415547,-0.0000
 0007,0.00000002,-0.00013324,-0.00000038,-0.00000013,-0.00029659,0.0000
 0003,0.,0.00020603,0.00000020,0.00000003,-0.00010972,0.00000017,-0.000
 00002,-0.00046487,-0.00000545,-0.00001664,0.03025470,-0.12401356,-0.12
 181101,0.00000614,0.01191087,0.01529803,-0.00000085,-0.00189088,0.0028
 9862,0.00000008,-0.00122946,0.00074479,-0.00000009,-0.00486702,0.00208
 382,0.00000036,-0.01039519,-0.02783207,0.00000127,0.00282627,-0.001348
 64,-0.00000016,0.00086545,-0.00129423,0.00000008,-0.00000588,0.0000327
 5,-0.00000010,-0.00080654,-0.00050336,-0.00000003,0.00054037,-0.000003
 55,0.00000004,0.00111961,-0.00087813,-0.00000002,0.12712976,-0.1203216
 8,-0.27547632,0.00001104,-0.01750905,-0.01957719,0.00000095,0.00434699
 ,-0.00240262,0.00000025,0.00123783,0.00022543,-0.00000025,0.00013729,0
 .00137839,0.00000037,0.00392465,-0.00044493,0.00000003,0.00092637,0.00
 363777,-0.00000051,0.00064962,0.00004472,0.,-0.00002755,0.00004729,-0.
 00000014,-0.00030362,-0.00000526,-0.00000001,-0.00039384,-0.00001701,0
 .00000012,-0.00069056,0.00202708,-0.00000009,0.13026552,0.29090159,0.0
 0000601,0.00001093,-0.02378990,0.00000046,0.00000035,0.00246124,0.0000
 0008,0.00000019,0.00388505,-0.00000014,-0.00000012,-0.00186463,0.00000
 021,0.00000013,0.00495911,0.00000017,0.00000066,0.00190438,-0.00000023
 ,-0.00000033,-0.00499714,0.00000002,0.00000011,0.00149571,-0.00000001,
 0.00000001,-0.00018163,0.00000007,0.,-0.00059327,0.00000009,0.00000004
 ,0.00018604,-0.00000011,-0.00000018,-0.00293113,-0.00000664,-0.0000119
 5,0.01816043,-0.00093384,-0.00279448,0.00000022,0.00842229,-0.01420598
 ,0.00000032,-0.13219119,0.12517025,-0.00000218,-0.01135587,0.03049930,
 -0.00000085,-0.00492696,-0.00230437,0.00000043,-0.00117254,-0.00117162
 ,0.00000006,0.00024870,0.00025499,-0.00000007,0.00023404,0.00220045,-0
 .00000006,-0.00050842,-0.00032699,-0.00000005,0.00028698,-0.00080188,0
 .00000007,0.00355083,-0.00053439,-0.00000015,0.00355841,-0.00037552,-0
 .00000015,0.00054306,-0.00071524,0.00000003,0.13538062,-0.00394348,-0.
 00236619,0.00000031,0.01807858,-0.01761363,0.00000042,0.12694401,-0.26
 866531,0.00000614,-0.00221399,0.00348394,0.00000016,-0.00043732,0.0006
 9417,0.00000002,-0.00090071,0.00010800,-0.00000004,0.00021694,0.000131
 07,0.00000008,-0.00055674,-0.00010788,0.00000003,0.00000505,-0.0000052
 0,0.00000007,0.00009955,0.00029122,0.,-0.00007660,0.00041271,-0.000000
 20,0.00051507,0.00279283,-0.00000031,0.00082017,-0.00093925,0.00000006
 ,-0.13632506,0.28262205,0.00000024,0.00000033,0.00474919,-0.00000087,0
 .00000094,0.00139778,-0.00000224,0.00000638,-0.02557248,0.00000030,-0.
 00000073,0.00378833,0.00000031,0.00000021,0.00463690,0.00000009,0.0000
 0002,-0.00134789,-0.00000003,-0.00000003,-0.00013117,0.00000005,-0.000
 00001,0.00054433,0.00000003,-0.00000001,-0.00014820,-0.00000003,0.,-0.
 00008015,-0.00000019,-0.00000017,-0.00359266,-0.00000017,-0.00000028,-
 0.00431591,-0.00000004,0.00000005,0.00091370,0.00000245,-0.00000675,0.
 01906044,0.00071944,0.00561355,-0.00000032,-0.00105228,-0.00015834,0.0
 0000019,-0.00009122,-0.00004196,-0.00000014,0.00084014,0.00092229,0.00
 000015,-0.00163064,0.00358121,-0.00000023,0.01431701,0.02380314,-0.000
 00188,-0.24407173,-0.26321532,0.00002358,-0.00056325,0.00044556,0.0000
 0002,-0.00133498,-0.00014294,0.00000010,0.00013956,0.00012006,-0.00000
 002,-0.00049124,-0.00020268,-0.00000005,0.00012937,-0.00006242,-0.0000
 0002,-0.00141102,-0.00150295,0.00000008,-0.00009558,-0.00015942,0.0000
 0001,0.23452369,-0.00276045,0.00567736,-0.00000023,0.00039909,-0.00220
 265,0.00000002,0.00077388,0.00111109,-0.00000010,-0.00298555,-0.000872
 70,0.00000021,0.00668153,-0.00201261,0.00000001,-0.02583857,-0.0397872
 8,0.00000268,-0.20929505,-0.31751605,0.00002490,-0.00081514,-0.0000403
 5,0.00000001,0.00014044,0.00006484,0.00000007,0.00048327,0.00045564,0.
 ,0.00086003,0.00003620,-0.00000006,-0.00091755,0.00052743,0.,0.0014760
 0,0.00026123,0.00000010,0.00006034,0.00007874,0.,0.23193213,0.35406732
 ,0.00000005,-0.00000047,-0.00165798,0.00000007,0.00000002,-0.00112036,
 -0.00000019,-0.00000008,0.00002567,0.00000031,-0.00000021,0.00167500,-
 0.00000025,0.00000008,0.00272755,0.00000086,0.00000101,-0.00209946,0.0
 0002069,0.00002740,-0.00570839,-0.00000020,-0.00000015,-0.00063492,0.0
 0000006,-0.00000004,0.00016607,0.00000005,-0.00000010,-0.00011609,-0.0
 0000003,0.,-0.00023271,0.00000003,0.00000009,-0.00004022,-0.00000002,0
 .00000015,0.00107120,0.00000002,-0.00000004,0.00001242,-0.00002144,-0.
 00002754,0.00549805,-0.00008944,-0.00015469,0.00002691,0.00016129,0.00
 010434,0.00009442,-0.00010466,-0.00039652,-0.00031194,0.00060699,-0.00
 024573,0.00055576,-0.00247520,-0.00080388,0.00168823,-0.00110864,0.002
 92983,-0.00026125,-0.00111477,-0.00174673,-0.00057937,0.00732547,0.007
 76666,-0.02035550,-0.05390705,-0.02190138,0.03461596,-0.00100292,0.002
 81464,0.00206912,-0.00040138,0.00010448,-0.00003344,-0.00022948,-0.000
 04817,0.00002229,-0.00004539,-0.00002315,-0.00006550,0.00001798,0.0000
 0055,-0.00002263,0.00001031,-0.00023303,0.00014719,0.05349086,-0.00005
 492,-0.00000735,0.00018931,0.00004174,-0.00012521,0.00002891,0.0001666
 2,0.00005352,0.00026400,-0.00022788,-0.00056085,-0.00056631,0.00001616
 ,0.00037363,-0.00184618,0.00031164,0.00052629,0.00025276,-0.00088448,-
 0.00073989,-0.00078169,-0.00711471,-0.01477843,0.02129151,-0.02317484,
 -0.13204781,0.13393745,0.00382098,-0.00449498,-0.00265006,0.00096166,0
 .00015465,0.00014892,-0.00002887,0.00000007,-0.00005475,-0.00001126,-0
 .00000115,-0.00000254,-0.00001179,-0.00000200,0.00001827,-0.00022210,0
 .00001931,-0.00015818,0.02536428,0.14581470,0.00042223,-0.00039387,-0.
 00013366,-0.00003562,0.00034031,-0.00005612,-0.00014780,-0.00016291,0.
 00003200,0.00010437,0.00007132,0.00013432,-0.00038994,0.00023871,0.000
 29570,-0.00063422,0.00171351,0.00000393,0.00125743,-0.00067840,0.00044
 972,0.00030470,-0.00244451,0.00147845,0.03434987,0.13036290,-0.2193644
 5,-0.00038092,-0.00118409,-0.00088900,-0.00018804,-0.00016260,-0.00004
 546,0.00003368,-0.00006675,0.00000562,-0.00003709,-0.00002507,0.000033
 31,-0.00001106,-0.00000594,-0.00000157,0.00041697,0.00000469,0.0000462
 9,-0.03854922,-0.14061880,0.23718969,-0.00016860,0.00004720,0.,0.00027
 091,-0.00006589,0.00000008,-0.00010480,0.00045994,-0.00000006,-0.00110
 682,-0.00147757,0.00000019,-0.00027601,0.00417299,-0.00000042,0.000664
 29,0.00014192,-0.00000005,-0.00018362,-0.00058307,0.00000008,-0.024190
 04,-0.00909295,-0.00000041,-0.29156919,-0.09144741,-0.00000694,0.00473
 448,-0.00265713,0.00000028,0.00113701,0.00031222,-0.00000007,-0.000248
 11,-0.00000141,0.,-0.00000919,-0.00002479,0.,-0.00014065,0.00000473,-0
 .00000002,-0.00007246,0.00021309,-0.00000007,-0.00152679,0.00020742,-0
 .00042594,0.31530476,-0.00027987,0.00035322,0.,-0.00003286,-0.00026075
 ,0.00000003,0.00015706,-0.00032265,-0.00000001,0.00123616,0.00064840,-
 0.00000003,0.00129139,-0.00444034,0.00000017,0.00032750,-0.00159384,0.
 00000004,-0.00168337,0.00011386,0.00000003,0.02923577,0.00816300,0.000
 00076,-0.09757534,-0.08315631,-0.00000272,-0.00125796,0.00218527,-0.00
 000006,-0.00052497,0.00012253,-0.00000002,0.00000411,0.00006320,0.,0.0
 0004891,0.00002588,0.,0.00014837,0.00001200,-0.00000001,-0.00038791,0.
 00011752,-0.00000002,-0.01531836,-0.00532665,-0.00275524,0.09917927,0.
 08881197,0.,-0.00000002,-0.00016260,0.00000002,0.,0.00000234,-0.000000
 03,0.00000002,-0.00018176,-0.00000004,-0.00000008,0.00053722,0.,0.0000
 0028,0.00155202,-0.00000006,0.00000020,-0.00025724,0.00000024,0.000000
 03,0.00085573,-0.00000201,-0.00000077,-0.00141074,-0.00000699,-0.00000
 256,-0.04938605,0.00000034,-0.00000015,-0.00113781,0.00000003,0.,-0.00
 006830,0.,0.00000003,0.00000776,0.,0.00000002,0.00001793,0.,-0.0000000
 1,-0.00001092,0.00000002,0.00000001,0.00014534,0.02439918,0.00691263,0
 .00168465,0.00000798,0.00000264,0.04610262,-0.00008936,-0.00015466,-0.
 00002687,0.00016126,0.00010438,-0.00009437,-0.00010471,-0.00039651,0.0
 0031195,0.00060689,-0.00024576,-0.00055582,-0.00247506,-0.00080369,-0.
 00168814,-0.00110848,0.00292949,0.00026102,-0.00111407,-0.00174638,0.0
 0057935,0.00732396,0.00776731,0.02035544,-0.05390179,-0.02189308,-0.03
 460105,-0.00100270,0.00281523,-0.00206898,-0.00040139,0.00010441,0.000
 03339,-0.00022946,-0.00004816,-0.00002230,-0.00004538,-0.00002315,0.00
 006549,0.00001798,0.00000055,0.00002263,0.00001037,-0.00023298,-0.0001
 4719,-0.00016063,0.00194226,0.00373545,-0.00152455,-0.01532031,-0.0243
 9865,0.05348342,-0.00005500,-0.00000728,-0.00018928,0.00004180,-0.0001
 2530,-0.00002902,0.00016651,0.00005348,-0.00026391,-0.00022765,-0.0005
 6105,0.00056626,0.00001632,0.00037371,0.00184623,0.00031173,0.00052634
 ,-0.00025276,-0.00088415,-0.00073937,0.00078160,-0.00711366,-0.0147792
 2,-0.02129158,-0.02316573,-0.13206268,-0.13394323,0.00382108,-0.004496
 27,0.00265031,0.00096180,0.00015473,-0.00014888,-0.00002886,0.00000020
 ,0.00005476,-0.00001124,-0.00000111,0.00000253,-0.00001177,-0.00000204
 ,-0.00001827,-0.00022212,0.00001930,0.00015822,0.00194050,0.01072068,0
 .01588266,0.00020805,-0.00532708,-0.00691223,0.02535475,0.14583143,-0.
 00042218,0.00039387,-0.00013364,0.00003564,-0.00034028,-0.00005613,0.0
 0014765,0.00016282,0.00003206,-0.00010421,-0.00007142,0.00013419,0.000
 38998,-0.00023868,0.00029537,0.00063413,-0.00171323,0.00000405,-0.0012
 5732,0.00067849,0.00044967,-0.00030411,0.00244536,0.00148107,-0.034334
 75,-0.13036893,-0.21935417,0.00038079,0.00118459,-0.00088917,0.0001879
 1,0.00016256,-0.00004544,-0.00003366,0.00006682,0.00000561,0.00003711,
 0.00002508,0.00003330,0.00001108,0.00000593,-0.00000156,-0.00041697,-0
 .00000473,0.00004626,-0.00373368,-0.01588451,-0.02077601,0.00042552,0.
 00275441,0.00168281,0.03853204,0.14062607,0.23717919,-0.00535492,0.004
 98218,-0.00000014,0.00008444,-0.00925073,0.00000060,0.01055865,0.00613
 924,-0.00000048,-0.03623092,-0.04199885,0.00000349,-0.01801385,0.00437
 324,-0.00000009,0.00360201,0.00424887,0.00000019,-0.00107683,0.0012306
 2,0.00000007,0.03998837,0.03030780,0.00000117,-0.00219050,-0.00644897,
 -0.00000106,-0.00854743,-0.04434880,0.00000469,-0.29395633,0.04608115,
 0.00001109,-0.00035847,0.00143350,-0.00000011,-0.00031130,0.00015769,-
 0.00000005,-0.00066936,-0.00008436,0.00000001,0.00011932,0.00005394,-0
 .00000007,0.00053987,-0.00110012,0.00017037,-0.00103296,0.00076651,-0.
 00000005,0.00054010,-0.00110065,-0.00017023,0.31276535,0.00334702,-0.0
 0231035,0.00000005,-0.00245153,0.00544619,-0.00000004,-0.00547402,-0.0
 0953544,0.00000078,-0.04285831,0.01448960,0.00000117,0.00903135,-0.002
 49967,-0.00000014,-0.00328719,-0.00323073,-0.00000016,0.00053771,0.000
 57310,0.00000002,-0.00961978,-0.02833367,0.00000057,-0.00003748,0.0023
 9181,0.00000044,-0.01314252,0.01323885,-0.00000342,0.05760715,-0.06761
 599,-0.00000168,0.00066128,-0.00121020,-0.00000003,0.00024463,-0.00005
 098,0.00000003,0.00039527,0.00004782,-0.00000004,-0.00010012,0.0000055
 5,0.,-0.00012323,0.00042595,-0.00011517,0.00040813,-0.00018313,0.,-0.0
 0012328,0.00042616,0.00011513,0.00480442,0.07780236,-0.00000028,0.0000
 0023,0.00007842,0.00000021,-0.00000036,0.00217740,0.00000036,0.0000006
 9,0.00381902,0.00000231,-0.00000205,-0.00089834,-0.00000123,0.00000013
 ,-0.00147375,0.00000028,0.00000017,-0.00119852,-0.00000005,-0.00000003
 ,-0.00007477,0.00000193,0.00000151,0.00082985,-0.00000029,-0.00000056,
 0.00346648,0.00000112,-0.00000215,-0.01634105,0.00001528,0.00000011,-0
 .02500595,-0.00000013,0.00000007,-0.00058972,-0.00000003,0.,-0.0000222
 0,-0.00000008,-0.00000003,-0.00073885,0.,-0.00000001,0.00008460,0.0003
 1105,-0.00048137,-0.00009875,-0.00000010,0.00000006,0.00001788,-0.0003
 1097,0.00048112,-0.00009882,-0.00001939,0.00000250,0.03596579,-0.00593
 246,-0.00367313,0.00000036,-0.02657210,0.04716093,-0.00000152,0.003871
 35,0.00065320,0.00000006,-0.00181327,-0.00000669,-0.00000020,0.0010804
 8,-0.00045340,0.00000031,-0.00018433,0.00247168,0.00000003,-0.00036119
 ,-0.00062384,-0.00000023,-0.00089603,-0.00030848,-0.00000008,0.0001126
 1,-0.00009641,-0.00000022,0.00052755,0.00014649,0.00000006,0.00117786,
 0.00068641,0.00000004,-0.11879231,0.14679615,-0.00000305,0.00009543,-0
 .00011038,-0.00000003,-0.00026648,-0.00198749,0.00000008,0.00000520,0.
 00000461,0.00000012,0.00001357,-0.00000179,0.00000480,0.00004233,-0.00
 001408,0.00000002,0.00001359,-0.00000170,-0.00000473,-0.00045526,0.000
 18049,0.,0.14833345,-0.00156999,0.00193197,0.00000003,-0.00363329,0.00
 213320,0.00000031,-0.00600766,0.00320481,-0.00000035,0.00078365,-0.001
 21053,0.00000031,-0.00109159,0.00014125,-0.00000048,0.00046148,0.00023
 771,0.,0.00004022,-0.00013332,0.00000032,0.00104180,0.00022994,0.00000
 012,0.00001071,0.00009535,0.00000032,-0.00030279,-0.00054361,-0.000000
 03,-0.00013436,-0.00014197,-0.00000015,0.20090582,-0.44518887,0.000012
 28,-0.00021975,0.00036645,0.,0.00085013,-0.00097307,0.00000008,0.00000
 038,-0.00000990,-0.00000015,-0.00003040,-0.00000449,-0.00000075,-0.000
 00473,-0.00000610,-0.00000004,-0.00003041,-0.00000463,0.00000066,-0.00
 024666,0.00012275,-0.00000003,-0.19082257,0.43975305,0.00000021,0.0000
 0017,0.00317551,0.00000079,-0.00000127,-0.00250899,0.00000003,-0.00000
 024,-0.00162125,0.00000004,-0.00000009,-0.00111879,0.,0.00000007,-0.00
 005922,0.00000016,0.00000012,0.00234915,0.00000001,0.00000003,-0.00060
 383,-0.00000009,-0.00000005,-0.00000348,0.00000005,-0.00000002,-0.0000
 7699,0.,0.,0.00002929,-0.00000003,0.00000002,-0.00000033,-0.00000523,0
 .00001364,-0.00575767,0.,-0.00000003,-0.00074151,-0.00000001,0.0000001
 0,0.00083825,-0.00000003,-0.00000001,0.00011170,-0.00001757,0.00000062
 ,0.00001135,-0.00000004,-0.00000002,0.00000914,0.00001757,-0.00000059,
 0.00001137,0.,0.,0.00010130,0.00000415,-0.00001244,0.00585498\\0.00001
 241,-0.00001191,0.00000047,0.00000234,0.00003425,0.,-0.00000908,-0.000
 00878,0.00000007,0.00005378,-0.00002638,-0.00000034,-0.00006745,-0.000
 01943,-0.00000416,0.00000679,-0.00000883,-0.00000117,0.00001090,-0.000
 01291,-0.00000015,0.00004828,0.00007226,0.00001713,0.00000025,-0.00003
 937,-0.00000461,-0.00000088,-0.00001257,-0.00000928,0.00006146,0.00002
 828,-0.00000267,-0.00003454,-0.00002383,-0.00000005,-0.00001091,-0.000
 00651,0.00000017,-0.00000952,0.00000696,-0.00000002,-0.00000768,-0.000
 00193,-0.00000021,-0.00000311,0.00000474,0.00000415,0.00001420,0.00001
 430,-0.00000018,-0.00000215,0.00000317,-0.00000419,-0.00007191,0.00000
 265,0.00000502,0.00000683,0.00000584,0.00000002\\\@


 LAWS OF PROGRAMMING DEFINITION:  A WORKING PROGRAM
                                  IS ONE THAT HAS
                                  ONLY UNOBSERVED
                                  BUGS.
 Job cpu time:       0 days  0 hours 35 minutes 26.3 seconds.
 File lengths (MBytes):  RWF=    157 Int=      0 D2E=      0 Chk=      6 Scr=      1
 Normal termination of Gaussian 09 at Sun Dec 15 21:01:54 2024.
