 Entering Gaussian System, Link 0=g09
 Input=B3PWTHAPyang.gjf
 Output=B3PWTHAPyang.log
 Initial command:
 /home/phzd/g09E/g09/l1.exe "/home/phzd/g09E/scratch/Gau-1427141.inp" -scrdir="/home/phzd/g09E/scratch/"
 Default is to use a total of  18 processors:
                               18 via shared-memory
                                1 via Linda
 Entering Link 1 = /home/phzd/g09E/g09/l1.exe PID=   1427143.
  
 Copyright (c) 1988,1990,1992,1993,1995,1998,2003,2009,2015,
            Gaussian, Inc.  All Rights Reserved.
  
 This is part of the Gaussian(R) 09 program.  It is based on
 the Gaussian(R) 03 system (copyright 2003, Gaussian, Inc.),
 the Gaussian(R) 98 system (copyright 1998, Gaussian, Inc.),
 the Gaussian(R) 94 system (copyright 1995, Gaussian, Inc.),
 the Gaussian 92(TM) system (copyright 1992, Gaussian, Inc.),
 the Gaussian 90(TM) system (copyright 1990, Gaussian, Inc.),
 the Gaussian 88(TM) system (copyright 1988, Gaussian, Inc.),
 the Gaussian 86(TM) system (copyright 1986, Carnegie Mellon
 University), and the Gaussian 82(TM) system (copyright 1983,
 Carnegie Mellon University). Gaussian is a federally registered
 trademark of Gaussian, Inc.
  
 This software contains proprietary and confidential information,
 including trade secrets, belonging to Gaussian, Inc.
  
 This software is provided under written license and may be
 used, copied, transmitted, or stored only in accord with that
 written license.
  
 The following legend is applicable only to US Government
 contracts under FAR:
  
                    RESTRICTED RIGHTS LEGEND
  
 Use, reproduction and disclosure by the US Government is
 subject to restrictions as set forth in subparagraphs (a)
 and (c) of the Commercial Computer Software - Restricted
 Rights clause in FAR 52.227-19.
  
 Gaussian, Inc.
 340 Quinnipiac St., Bldg. 40, Wallingford CT 06492
  
  
 ---------------------------------------------------------------
 Warning -- This program may not be used in any manner that
 competes with the business of Gaussian, Inc. or will provide
 assistance to any competitor of Gaussian, Inc.  The licensee
 of this program is prohibited from giving any competitor of
 Gaussian, Inc. access to this program.  By using this program,
 the user acknowledges that Gaussian, Inc. is engaged in the
 business of creating and licensing software in the field of
 computational chemistry and represents and warrants to the
 licensee that it is not a competitor of Gaussian, Inc. and that
 it will not use this program in any manner prohibited above.
 ---------------------------------------------------------------
  

 Cite this work as:
 Gaussian 09, Revision E.01,
 M. J. Frisch, G. W. Trucks, H. B. Schlegel, G. E. Scuseria, 
 M. A. Robb, J. R. Cheeseman, G. Scalmani, V. Barone, B. Mennucci, 
 G. A. Petersson, H. Nakatsuji, M. Caricato, X. Li, H. P. Hratchian, 
 A. F. Izmaylov, J. Bloino, G. Zheng, J. L. Sonnenberg, M. Hada, 
 M. Ehara, K. Toyota, R. Fukuda, J. Hasegawa, M. Ishida, T. Nakajima, 
 Y. Honda, O. Kitao, H. Nakai, T. Vreven, J. A. Montgomery, Jr., 
 J. E. Peralta, F. Ogliaro, M. Bearpark, J. J. Heyd, E. Brothers, 
 K. N. Kudin, V. N. Staroverov, T. Keith, R. Kobayashi, J. Normand, 
 K. Raghavachari, A. Rendell, J. C. Burant, S. S. Iyengar, J. Tomasi, 
 M. Cossi, N. Rega, J. M. Millam, M. Klene, J. E. Knox, J. B. Cross, 
 V. Bakken, C. Adamo, J. Jaramillo, R. Gomperts, R. E. Stratmann, 
 O. Yazyev, A. J. Austin, R. Cammi, C. Pomelli, J. W. Ochterski, 
 R. L. Martin, K. Morokuma, V. G. Zakrzewski, G. A. Voth, 
 P. Salvador, J. J. Dannenberg, S. Dapprich, A. D. Daniels, 
 O. Farkas, J. B. Foresman, J. V. Ortiz, J. Cioslowski, 
 and D. J. Fox, Gaussian, Inc., Wallingford CT, 2013.
 
 ******************************************
 Gaussian 09:  ES64L-G09RevE.01 30-Nov-2015
                15-Dec-2024 
 ******************************************
 %chk=B3PWTHAPyang.chk
 -----------------------------
 # opt freq b3pw91/6-31+g(d,p)
 -----------------------------
 1/14=-1,18=20,19=15,26=3,38=1/1,3;
 2/9=110,12=2,17=6,18=5,40=1/2;
 3/5=1,6=6,7=111,11=2,16=1,25=1,30=1,71=1,74=-6/1,2,3;
 4//1;
 5/5=2,38=5/2;
 6/7=2,8=2,9=2,10=2,28=1/1;
 7//1,2,3,16;
 1/14=-1,18=20,19=15,26=3/3(2);
 2/9=110/2;
 99//99;
 2/9=110/2;
 3/5=1,6=6,7=111,11=2,16=1,25=1,30=1,71=1,74=-6/1,2,3;
 4/5=5,16=3,69=1/1;
 5/5=2,38=5/2;
 7//1,2,3,16;
 1/14=-1,18=20,19=15,26=3/3(-5);
 2/9=110/2;
 6/7=2,8=2,9=2,10=2,19=2,28=1/1;
 99/9=1/99;
 ----------
 [No Title]
 ----------
 Symbolic Z-matrix:
 Charge =  1 Multiplicity = 1
 C                     1.54033  -1.26945  -0.00018 
 C                     2.27705  -0.08266   0.00002 
 C                     1.63782   1.17016   0.00002 
 C                     0.26437   1.21208  -0.0001 
 C                    -0.55302   0.03021  -0.00019 
 C                     0.16052  -1.2202   -0.00032 
 O                    -0.56706  -2.34079  -0.00058 
 C                    -1.97565   0.0882    0.0002 
 C                    -2.90037  -1.07866   0.00054 
 O                    -2.62172   1.21145   0.00035 
 O                    -0.39127   2.39702  -0.00026 
 O                     3.59808  -0.20839   0.00012 
 H                     2.07313  -2.21418  -0.00027 
 H                     2.21823   2.08777  -0.00008 
 H                    -0.0045   -3.12812  -0.00059 
 H                    -2.72053  -1.70633  -0.87569 
 H                    -2.71984  -1.70642   0.87656 
 H                    -3.92269  -0.70491   0.00096 
 H                    -2.03503   1.99695   0.00014 
 H                     0.20158   3.16143   0.00173 
 H                     4.05915   0.64146   0.00029 
 

 GradGradGradGradGradGradGradGradGradGradGradGradGradGradGradGradGradGrad
 Berny optimization.
 Initialization pass.
                           ----------------------------
                           !    Initial Parameters    !
                           ! (Angstroms and Degrees)  !
 --------------------------                            --------------------------
 ! Name  Definition              Value          Derivative Info.                !
 --------------------------------------------------------------------------------
 ! R1    R(1,2)                  1.3969         estimate D2E/DX2                !
 ! R2    R(1,6)                  1.3807         estimate D2E/DX2                !
 ! R3    R(1,13)                 1.0846         estimate D2E/DX2                !
 ! R4    R(2,3)                  1.4065         estimate D2E/DX2                !
 ! R5    R(2,12)                 1.327          estimate D2E/DX2                !
 ! R6    R(3,4)                  1.3741         estimate D2E/DX2                !
 ! R7    R(3,14)                 1.0858         estimate D2E/DX2                !
 ! R8    R(4,5)                  1.437          estimate D2E/DX2                !
 ! R9    R(4,11)                 1.3542         estimate D2E/DX2                !
 ! R10   R(5,6)                  1.4397         estimate D2E/DX2                !
 ! R11   R(5,8)                  1.4238         estimate D2E/DX2                !
 ! R12   R(6,7)                  1.3361         estimate D2E/DX2                !
 ! R13   R(7,15)                 0.9677         estimate D2E/DX2                !
 ! R14   R(8,9)                  1.4888         estimate D2E/DX2                !
 ! R15   R(8,10)                 1.2958         estimate D2E/DX2                !
 ! R16   R(9,16)                 1.0927         estimate D2E/DX2                !
 ! R17   R(9,17)                 1.0927         estimate D2E/DX2                !
 ! R18   R(9,18)                 1.0885         estimate D2E/DX2                !
 ! R19   R(10,19)                0.9804         estimate D2E/DX2                !
 ! R20   R(11,20)                0.9674         estimate D2E/DX2                !
 ! R21   R(12,21)                0.9669         estimate D2E/DX2                !
 ! A1    A(2,1,6)              119.7861         estimate D2E/DX2                !
 ! A2    A(2,1,13)             118.7476         estimate D2E/DX2                !
 ! A3    A(6,1,13)             121.4663         estimate D2E/DX2                !
 ! A4    A(1,2,3)              121.1374         estimate D2E/DX2                !
 ! A5    A(1,2,12)             116.3939         estimate D2E/DX2                !
 ! A6    A(3,2,12)             122.4687         estimate D2E/DX2                !
 ! A7    A(2,3,4)              118.7804         estimate D2E/DX2                !
 ! A8    A(2,3,14)             120.654          estimate D2E/DX2                !
 ! A9    A(4,3,14)             120.5657         estimate D2E/DX2                !
 ! A10   A(3,4,5)              122.9195         estimate D2E/DX2                !
 ! A11   A(3,4,11)             120.7043         estimate D2E/DX2                !
 ! A12   A(5,4,11)             116.3763         estimate D2E/DX2                !
 ! A13   A(4,5,6)              115.6211         estimate D2E/DX2                !
 ! A14   A(4,5,8)              122.3335         estimate D2E/DX2                !
 ! A15   A(6,5,8)              122.0454         estimate D2E/DX2                !
 ! A16   A(1,6,5)              121.7556         estimate D2E/DX2                !
 ! A17   A(1,6,7)              120.9503         estimate D2E/DX2                !
 ! A18   A(5,6,7)              117.2941         estimate D2E/DX2                !
 ! A19   A(6,7,15)             111.4585         estimate D2E/DX2                !
 ! A20   A(5,8,9)              126.0619         estimate D2E/DX2                !
 ! A21   A(5,8,10)             122.2409         estimate D2E/DX2                !
 ! A22   A(9,8,10)             111.6972         estimate D2E/DX2                !
 ! A23   A(8,9,16)             110.3512         estimate D2E/DX2                !
 ! A24   A(8,9,17)             110.3533         estimate D2E/DX2                !
 ! A25   A(8,9,18)             108.3141         estimate D2E/DX2                !
 ! A26   A(16,9,17)            106.5992         estimate D2E/DX2                !
 ! A27   A(16,9,18)            110.6161         estimate D2E/DX2                !
 ! A28   A(17,9,18)            110.6163         estimate D2E/DX2                !
 ! A29   A(8,10,19)            113.337          estimate D2E/DX2                !
 ! A30   A(4,11,20)            113.2484         estimate D2E/DX2                !
 ! A31   A(2,12,21)            113.0448         estimate D2E/DX2                !
 ! D1    D(6,1,2,3)             -0.0032         estimate D2E/DX2                !
 ! D2    D(6,1,2,12)          -179.9991         estimate D2E/DX2                !
 ! D3    D(13,1,2,3)           179.9944         estimate D2E/DX2                !
 ! D4    D(13,1,2,12)           -0.0015         estimate D2E/DX2                !
 ! D5    D(2,1,6,5)             -0.0034         estimate D2E/DX2                !
 ! D6    D(2,1,6,7)            179.9969         estimate D2E/DX2                !
 ! D7    D(13,1,6,5)           179.999          estimate D2E/DX2                !
 ! D8    D(13,1,6,7)            -0.0008         estimate D2E/DX2                !
 ! D9    D(1,2,3,4)              0.004          estimate D2E/DX2                !
 ! D10   D(1,2,3,14)          -179.9844         estimate D2E/DX2                !
 ! D11   D(12,2,3,4)           179.9996         estimate D2E/DX2                !
 ! D12   D(12,2,3,14)            0.0112         estimate D2E/DX2                !
 ! D13   D(1,2,12,21)         -179.9985         estimate D2E/DX2                !
 ! D14   D(3,2,12,21)            0.0057         estimate D2E/DX2                !
 ! D15   D(2,3,4,5)              0.002          estimate D2E/DX2                !
 ! D16   D(2,3,4,11)          -179.9924         estimate D2E/DX2                !
 ! D17   D(14,3,4,5)           179.9904         estimate D2E/DX2                !
 ! D18   D(14,3,4,11)           -0.004          estimate D2E/DX2                !
 ! D19   D(3,4,5,6)             -0.008          estimate D2E/DX2                !
 ! D20   D(3,4,5,8)            179.9754         estimate D2E/DX2                !
 ! D21   D(11,4,5,6)           179.9866         estimate D2E/DX2                !
 ! D22   D(11,4,5,8)            -0.0301         estimate D2E/DX2                !
 ! D23   D(3,4,11,20)           -0.1293         estimate D2E/DX2                !
 ! D24   D(5,4,11,20)          179.876          estimate D2E/DX2                !
 ! D25   D(4,5,6,1)              0.0087         estimate D2E/DX2                !
 ! D26   D(4,5,6,7)           -179.9915         estimate D2E/DX2                !
 ! D27   D(8,5,6,1)           -179.9747         estimate D2E/DX2                !
 ! D28   D(8,5,6,7)              0.025          estimate D2E/DX2                !
 ! D29   D(4,5,8,9)           -179.9814         estimate D2E/DX2                !
 ! D30   D(4,5,8,10)             0.0161         estimate D2E/DX2                !
 ! D31   D(6,5,8,9)              0.0009         estimate D2E/DX2                !
 ! D32   D(6,5,8,10)           179.9984         estimate D2E/DX2                !
 ! D33   D(1,6,7,15)             0.0035         estimate D2E/DX2                !
 ! D34   D(5,6,7,15)          -179.9962         estimate D2E/DX2                !
 ! D35   D(5,8,9,16)           -58.787          estimate D2E/DX2                !
 ! D36   D(5,8,9,17)            58.7672         estimate D2E/DX2                !
 ! D37   D(5,8,9,18)           179.9909         estimate D2E/DX2                !
 ! D38   D(10,8,9,16)          121.2152         estimate D2E/DX2                !
 ! D39   D(10,8,9,17)         -121.2306         estimate D2E/DX2                !
 ! D40   D(10,8,9,18)           -0.0069         estimate D2E/DX2                !
 ! D41   D(5,8,10,19)            0.0018         estimate D2E/DX2                !
 ! D42   D(9,8,10,19)          179.9996         estimate D2E/DX2                !
 --------------------------------------------------------------------------------
 Trust Radius=3.00D-01 FncErr=1.00D-07 GrdErr=1.00D-06
 Number of steps in this run=    104 maximum allowed number of steps=    126.
 GradGradGradGradGradGradGradGradGradGradGradGradGradGradGradGradGradGrad

                          Input orientation:                          
 ---------------------------------------------------------------------
 Center     Atomic      Atomic             Coordinates (Angstroms)
 Number     Number       Type             X           Y           Z
 ---------------------------------------------------------------------
      1          6           0        1.540326   -1.269451   -0.000184
      2          6           0        2.277046   -0.082657    0.000018
      3          6           0        1.637824    1.170155    0.000017
      4          6           0        0.264367    1.212078   -0.000104
      5          6           0       -0.553018    0.030205   -0.000189
      6          6           0        0.160519   -1.220195   -0.000321
      7          8           0       -0.567061   -2.340794   -0.000578
      8          6           0       -1.975650    0.088197    0.000203
      9          6           0       -2.900367   -1.078664    0.000540
     10          8           0       -2.621723    1.211453    0.000353
     11          8           0       -0.391265    2.397017   -0.000264
     12          8           0        3.598076   -0.208385    0.000123
     13          1           0        2.073129   -2.214183   -0.000268
     14          1           0        2.218231    2.087772   -0.000079
     15          1           0       -0.004499   -3.128117   -0.000590
     16          1           0       -2.720533   -1.706325   -0.875694
     17          1           0       -2.719837   -1.706417    0.876562
     18          1           0       -3.922692   -0.704909    0.000964
     19          1           0       -2.035028    1.996950    0.000143
     20          1           0        0.201576    3.161426    0.001725
     21          1           0        4.059151    0.641464    0.000285
 ---------------------------------------------------------------------
                    Distance matrix (angstroms):
                    1          2          3          4          5
     1  C    0.000000
     2  C    1.396867   0.000000
     3  C    2.441553   1.406465   0.000000
     4  C    2.790351   2.393160   1.374097   0.000000
     5  C    2.463979   2.832314   2.469671   1.436991   0.000000
     6  C    1.380686   2.402848   2.810018   2.434489   1.439665
     7  O    2.364076   3.631546   4.145875   3.648859   2.371041
     8  C    3.768991   4.256127   3.771979   2.506149   1.423814
     9  C    4.444790   5.272346   5.064816   3.906794   2.596081
    10  O    4.845362   5.066819   4.259747   2.886090   2.382202
    11  O    4.144156   3.642618   2.371158   1.354228   2.372333
    12  O    2.315210   1.327000   2.396447   3.623718   4.157945
    13  H    1.084619   2.141258   3.412218   3.874388   3.454551
    14  H    3.424982   2.171226   1.085769   2.141127   3.451580
    15  H    2.416842   3.805296   4.601344   4.348515   3.205600
    16  H    4.371761   5.327191   5.294930   4.265368   2.912073
    17  H    4.371340   5.326703   5.294545   4.265165   2.911984
    18  H    5.492110   6.230887   5.868152   4.605030   3.448927
    19  H    4.842781   4.787353   3.764762   2.429659   2.462608
    20  H    4.628707   3.851189   2.455193   1.950360   3.220863
    21  H    3.161657   1.923603   2.478374   3.837445   4.652498
                    6          7          8          9         10
     6  C    0.000000
     7  O    1.336082   0.000000
     8  C    2.505017   2.807868   0.000000
     9  C    3.064156   2.652789   1.488847   0.000000
    10  O    3.695103   4.103669   1.295806   2.307006   0.000000
    11  O    3.659056   4.741071   2.800165   4.286718   2.525966
    12  O    3.583372   4.679266   5.581611   6.556458   6.379799
    13  H    2.155479   2.643224   4.657635   5.101477   5.811765
    14  H    3.895744   5.231639   4.646175   6.018834   4.918647
    15  H    1.915045   0.967654   3.772282   3.547719   5.067714
    16  H    3.050092   2.409527   2.131280   1.092742   3.048057
    17  H    3.049883   2.409617   2.131304   1.092739   3.048169
    18  H    4.115596   3.733146   2.102377   1.088504   2.316239
    19  H    3.894926   4.579405   1.909676   3.195029   0.980417
    20  H    4.381814   5.555649   3.766305   5.253610   3.431241
    21  H    4.320313   5.504153   6.060110   7.168942   6.705145
                   11         12         13         14         15
    11  O    0.000000
    12  O    4.764762   0.000000
    13  H    5.228423   2.519661   0.000000
    14  H    2.627756   2.678863   4.304401   0.000000
    15  H    5.538655   4.637174   2.269761   5.669747   0.000000
    16  H    4.798883   6.552534   4.899335   6.289139   3.188125
    17  H    4.798879   6.551967   4.898896   6.288790   3.188054
    18  H    4.700311   7.537141   6.182862   6.746110   4.606970
    19  H    1.691748   6.049410   5.883077   4.254229   5.512655
    20  H    0.967360   4.784542   5.692090   2.284652   6.292919
    21  H    4.784158   0.966868   3.478362   2.341109   5.542833
                   16         17         18         19         20
    16  H    0.000000
    17  H    1.752256   0.000000
    18  H    1.793474   1.793474   0.000000
    19  H    3.866685   3.866782   3.295955   0.000000
    20  H    5.744875   5.744205   5.653153   2.521588   0.000000
    21  H    7.227971   7.227384   8.094599   6.243105   4.607721
                   21
    21  H    0.000000
 Stoichiometry    C8H9O4(1+)
 Framework group  C1[X(C8H9O4)]
 Deg. of freedom    57
 Full point group                 C1      NOp   1
 Largest Abelian subgroup         C1      NOp   1
 Largest concise Abelian subgroup C1      NOp   1
                         Standard orientation:                         
 ---------------------------------------------------------------------
 Center     Atomic      Atomic             Coordinates (Angstroms)
 Number     Number       Type             X           Y           Z
 ---------------------------------------------------------------------
      1          6           0        1.540326   -1.269451   -0.000184
      2          6           0        2.277046   -0.082657    0.000018
      3          6           0        1.637824    1.170155    0.000017
      4          6           0        0.264367    1.212078   -0.000104
      5          6           0       -0.553018    0.030205   -0.000189
      6          6           0        0.160519   -1.220195   -0.000321
      7          8           0       -0.567061   -2.340794   -0.000578
      8          6           0       -1.975650    0.088197    0.000203
      9          6           0       -2.900367   -1.078664    0.000540
     10          8           0       -2.621723    1.211453    0.000353
     11          8           0       -0.391265    2.397017   -0.000264
     12          8           0        3.598076   -0.208385    0.000123
     13          1           0        2.073129   -2.214183   -0.000268
     14          1           0        2.218231    2.087772   -0.000079
     15          1           0       -0.004499   -3.128117   -0.000590
     16          1           0       -2.720533   -1.706325   -0.875694
     17          1           0       -2.719837   -1.706417    0.876562
     18          1           0       -3.922692   -0.704909    0.000964
     19          1           0       -2.035028    1.996950    0.000143
     20          1           0        0.201576    3.161426    0.001725
     21          1           0        4.059151    0.641464    0.000285
 ---------------------------------------------------------------------
 Rotational constants (GHZ):      1.5298175      0.7628388      0.5106098
 Standard basis: 6-31+G(d,p) (6D, 7F)
 There are   273 symmetry adapted cartesian basis functions of A   symmetry.
 There are   273 symmetry adapted basis functions of A   symmetry.
   273 basis functions,   447 primitive gaussians,   273 cartesian basis functions
    44 alpha electrons       44 beta electrons
       nuclear repulsion energy       714.9524168728 Hartrees.
 NAtoms=   21 NActive=   21 NUniq=   21 SFac= 1.00D+00 NAtFMM=   60 NAOKFM=F Big=F
 Integral buffers will be    131072 words long.
 Raffenetti 2 integral format.
 Two-electron integral symmetry is turned on.
 One-electron integrals computed using PRISM.
 NBasis=   273 RedAO= T EigKep=  1.37D-06  NBF=   273
 NBsUse=   273 1.00D-06 EigRej= -1.00D+00 NBFU=   273
 ExpMin= 4.38D-02 ExpMax= 5.48D+03 ExpMxC= 8.25D+02 IAcc=2 IRadAn=         4 AccDes= 0.00D+00
 Harris functional with IExCor=  408 and IRadAn=       4 diagonalized for initial guess.
 HarFok:  IExCor=  408 AccDes= 0.00D+00 IRadAn=         4 IDoV= 1 UseB2=F ITyADJ=14
 ICtDFT=  3500011 ScaDFX=  1.000000  1.000000  1.000000  1.000000
 FoFCou: FMM=F IPFlag=           0 FMFlag=      100000 FMFlg1=           0
         NFxFlg=           0 DoJE=T BraDBF=F KetDBF=T FulRan=T
         wScrn=  0.000000 ICntrl=     500 IOpCl=  0 I1Cent=   200000004 NGrid=           0
         NMat0=    1 NMatS0=      1 NMatT0=    0 NMatD0=    1 NMtDS0=    0 NMtDT0=    0
 Petite list used in FoFCou.
 Keep R1 ints in memory in canonical form, NReq=709970467.
 Requested convergence on RMS density matrix=1.00D-08 within 128 cycles.
 Requested convergence on MAX density matrix=1.00D-06.
 Requested convergence on             energy=1.00D-06.
 No special actions if energy rises.
 SCF Done:  E(RB3PW91) =  -610.733931042     A.U. after   14 cycles
            NFock= 14  Conv=0.71D-08     -V/T= 2.0089

 **********************************************************************

            Population analysis using the SCF density.

 **********************************************************************

 Orbital symmetries:
       Occupied  (A) (A) (A) (A) (A) (A) (A) (A) (A) (A) (A) (A)
                 (A) (A) (A) (A) (A) (A) (A) (A) (A) (A) (A) (A)
                 (A) (A) (A) (A) (A) (A) (A) (A) (A) (A) (A) (A)
                 (A) (A) (A) (A) (A) (A) (A) (A)
       Virtual   (A) (A) (A) (A) (A) (A) (A) (A) (A) (A) (A) (A)
                 (A) (A) (A) (A) (A) (A) (A) (A) (A) (A) (A) (A)
                 (A) (A) (A) (A) (A) (A) (A) (A) (A) (A) (A) (A)
                 (A) (A) (A) (A) (A) (A) (A) (A) (A) (A) (A) (A)
                 (A) (A) (A) (A) (A) (A) (A) (A) (A) (A) (A) (A)
                 (A) (A) (A) (A) (A) (A) (A) (A) (A) (A) (A) (A)
                 (A) (A) (A) (A) (A) (A) (A) (A) (A) (A) (A) (A)
                 (A) (A) (A) (A) (A) (A) (A) (A) (A) (A) (A) (A)
                 (A) (A) (A) (A) (A) (A) (A) (A) (A) (A) (A) (A)
                 (A) (A) (A) (A) (A) (A) (A) (A) (A) (A) (A) (A)
                 (A) (A) (A) (A) (A) (A) (A) (A) (A) (A) (A) (A)
                 (A) (A) (A) (A) (A) (A) (A) (A) (A) (A) (A) (A)
                 (A) (A) (A) (A) (A) (A) (A) (A) (A) (A) (A) (A)
                 (A) (A) (A) (A) (A) (A) (A) (A) (A) (A) (A) (A)
                 (A) (A) (A) (A) (A) (A) (A) (A) (A) (A) (A) (A)
                 (A) (A) (A) (A) (A) (A) (A) (A) (A) (A) (A) (A)
                 (A) (A) (A) (A) (A) (A) (A) (A) (A) (A) (A) (A)
                 (A) (A) (A) (A) (A) (A) (A) (A) (A) (A) (A) (A)
                 (A) (A) (A) (A) (A) (A) (A) (A) (A) (A) (A) (A)
                 (A)
 The electronic state is 1-A.
 Alpha  occ. eigenvalues --  -19.38022 -19.37298 -19.35540 -19.35249 -10.46764
 Alpha  occ. eigenvalues --  -10.44585 -10.43791 -10.43526 -10.37490 -10.35372
 Alpha  occ. eigenvalues --  -10.34155 -10.32492  -1.29252  -1.26794  -1.25905
 Alpha  occ. eigenvalues --   -1.25513  -1.04004  -0.96988  -0.93145  -0.91669
 Alpha  occ. eigenvalues --   -0.84125  -0.82340  -0.80137  -0.77048  -0.74491
 Alpha  occ. eigenvalues --   -0.72384  -0.68603  -0.66477  -0.63906  -0.62403
 Alpha  occ. eigenvalues --   -0.61685  -0.61107  -0.60462  -0.58910  -0.57831
 Alpha  occ. eigenvalues --   -0.57273  -0.56095  -0.54088  -0.54078  -0.52281
 Alpha  occ. eigenvalues --   -0.51751  -0.47827  -0.41661  -0.40523
 Alpha virt. eigenvalues --   -0.24699  -0.16633  -0.13853  -0.13770  -0.11839
 Alpha virt. eigenvalues --   -0.11426  -0.09921  -0.07487  -0.06715  -0.06696
 Alpha virt. eigenvalues --   -0.06426  -0.04692  -0.03626  -0.03577  -0.02788
 Alpha virt. eigenvalues --   -0.02479  -0.00685  -0.00482   0.00150   0.00227
 Alpha virt. eigenvalues --    0.01411   0.01690   0.01779   0.02397   0.03175
 Alpha virt. eigenvalues --    0.03394   0.04124   0.04861   0.05134   0.05668
 Alpha virt. eigenvalues --    0.06316   0.06654   0.07231   0.08185   0.08849
 Alpha virt. eigenvalues --    0.09128   0.09157   0.09630   0.10410   0.10774
 Alpha virt. eigenvalues --    0.11838   0.12189   0.12642   0.13679   0.14361
 Alpha virt. eigenvalues --    0.14546   0.15363   0.15521   0.15877   0.16624
 Alpha virt. eigenvalues --    0.17227   0.17931   0.18119   0.18774   0.19390
 Alpha virt. eigenvalues --    0.20144   0.20426   0.21588   0.22973   0.23075
 Alpha virt. eigenvalues --    0.24244   0.24699   0.26971   0.27476   0.28723
 Alpha virt. eigenvalues --    0.29434   0.29770   0.30652   0.32501   0.33636
 Alpha virt. eigenvalues --    0.39107   0.43818   0.45675   0.49768   0.51883
 Alpha virt. eigenvalues --    0.53411   0.55249   0.55541   0.56653   0.57772
 Alpha virt. eigenvalues --    0.58599   0.60025   0.60093   0.61159   0.62413
 Alpha virt. eigenvalues --    0.66241   0.68523   0.71086   0.71158   0.73435
 Alpha virt. eigenvalues --    0.77323   0.78272   0.80298   0.85327   0.86947
 Alpha virt. eigenvalues --    0.88243   0.89608   0.90130   0.93296   0.93421
 Alpha virt. eigenvalues --    0.95126   0.95351   0.98410   0.99157   1.00888
 Alpha virt. eigenvalues --    1.02387   1.02948   1.03108   1.04406   1.04762
 Alpha virt. eigenvalues --    1.05574   1.06416   1.07345   1.09669   1.10526
 Alpha virt. eigenvalues --    1.11012   1.13058   1.14375   1.14671   1.16284
 Alpha virt. eigenvalues --    1.17664   1.18560   1.20476   1.20764   1.21727
 Alpha virt. eigenvalues --    1.22012   1.22874   1.27401   1.30578   1.31464
 Alpha virt. eigenvalues --    1.35236   1.35818   1.42248   1.42948   1.43684
 Alpha virt. eigenvalues --    1.43964   1.48001   1.53725   1.54523   1.56884
 Alpha virt. eigenvalues --    1.58672   1.63841   1.64337   1.67009   1.69096
 Alpha virt. eigenvalues --    1.70507   1.72406   1.72717   1.74109   1.76058
 Alpha virt. eigenvalues --    1.77441   1.79144   1.80457   1.83070   1.84349
 Alpha virt. eigenvalues --    1.86267   1.88453   1.89096   1.91569   1.97353
 Alpha virt. eigenvalues --    1.99272   2.01136   2.03257   2.03433   2.09782
 Alpha virt. eigenvalues --    2.09807   2.14179   2.14742   2.17094   2.20960
 Alpha virt. eigenvalues --    2.22288   2.25160   2.25365   2.29237   2.29299
 Alpha virt. eigenvalues --    2.29966   2.32001   2.33729   2.34232   2.36108
 Alpha virt. eigenvalues --    2.36423   2.38326   2.39853   2.44732   2.46788
 Alpha virt. eigenvalues --    2.47363   2.49279   2.49609   2.52556   2.54783
 Alpha virt. eigenvalues --    2.56410   2.57213   2.57906   2.60538   2.62612
 Alpha virt. eigenvalues --    2.66852   2.71048   2.71491   2.77692   2.85978
 Alpha virt. eigenvalues --    2.88048   2.90846   2.95344   2.97461   3.00373
 Alpha virt. eigenvalues --    3.05054   3.08474   3.16785   3.24412   3.29807
 Alpha virt. eigenvalues --    3.30341   3.31724   3.35089   3.38757   3.40248
 Alpha virt. eigenvalues --    3.48463   3.60630   4.08891   4.10929   4.13988
 Alpha virt. eigenvalues --    4.19401   4.25082   4.29360   4.33356   4.38767
 Alpha virt. eigenvalues --    4.49934   4.62409   4.66111   4.76295
          Condensed to atoms (all electrons):
               1          2          3          4          5          6
     1  C   13.162205  -2.500289   1.314573  -4.653426   0.030544  -4.878375
     2  C   -2.500289   7.721820  -1.227695   2.691375  -2.129625   3.250258
     3  C    1.314573  -1.227695  11.738637  -4.782176   0.454353  -2.372840
     4  C   -4.653426   2.691375  -4.782176  18.221622  -3.024615   2.881452
     5  C    0.030544  -2.129625   0.454353  -3.024615  15.491349  -4.765903
     6  C   -4.878375   3.250258  -2.372840   2.881452  -4.765903  16.319133
     7  O    0.184965  -0.025986   0.031175   0.022079  -0.145727   0.007326
     8  C    2.244309  -1.032602  -0.282165  -3.956247  -2.444858  -0.903779
     9  C   -0.191778  -0.036106  -0.347658  -0.057457  -0.140067  -0.946702
    10  O    0.003451   0.000638   0.014083  -0.128534   0.210218   0.047162
    11  O    0.060738   0.000790   0.473169  -0.149493  -0.072919  -0.073647
    12  O   -0.155694   0.119361  -0.029209   0.056012  -0.018751   0.059328
    13  H    0.098381   0.160158   0.028129  -0.010118  -0.007215   0.066164
    14  H    0.001725   0.112960   0.081442   0.138847   0.001879  -0.021611
    15  H   -0.102632   0.009632   0.001411   0.001033   0.101609  -0.011623
    16  H    0.004941  -0.000173   0.000275  -0.002304  -0.003100   0.017542
    17  H    0.004897  -0.000174   0.000232  -0.002420  -0.003063   0.017545
    18  H    0.001730   0.000380  -0.002495  -0.019431   0.039178   0.024425
    19  H   -0.000625  -0.000594   0.000030   0.063605  -0.186998  -0.059216
    20  H    0.003290  -0.000781  -0.115992  -0.018103   0.087853  -0.001744
    21  H    0.082963  -0.036409  -0.029258  -0.005449   0.025010  -0.037526
               7          8          9         10         11         12
     1  C    0.184965   2.244309  -0.191778   0.003451   0.060738  -0.155694
     2  C   -0.025986  -1.032602  -0.036106   0.000638   0.000790   0.119361
     3  C    0.031175  -0.282165  -0.347658   0.014083   0.473169  -0.029209
     4  C    0.022079  -3.956247  -0.057457  -0.128534  -0.149493   0.056012
     5  C   -0.145727  -2.444858  -0.140067   0.210218  -0.072919  -0.018751
     6  C    0.007326  -0.903779  -0.946702   0.047162  -0.073647   0.059328
     7  O    8.371576  -0.060619  -0.089467   0.001271  -0.000595  -0.000539
     8  C   -0.060619  12.541014  -0.670024   0.388592  -0.299035   0.002509
     9  C   -0.089467  -0.670024   7.915717  -0.475174  -0.008008   0.000208
    10  O    0.001271   0.388592  -0.475174   8.043181   0.044372  -0.000034
    11  O   -0.000595  -0.299035  -0.008008   0.044372   8.363913  -0.000744
    12  O   -0.000539   0.002509   0.000208  -0.000034  -0.000744   8.208945
    13  H   -0.016750   0.006287   0.000995   0.000014   0.000045  -0.009389
    14  H    0.000032   0.023992  -0.000337  -0.000065  -0.019949  -0.014441
    15  H    0.218051  -0.002240   0.010337   0.000002   0.000012  -0.000073
    16  H   -0.004359  -0.018382   0.352521   0.004301  -0.000088   0.000001
    17  H   -0.004370  -0.018165   0.352484   0.004294  -0.000082   0.000001
    18  H    0.001170  -0.092319   0.412664  -0.008996   0.000093  -0.000000
    19  H    0.000042   0.082639   0.096782   0.205143   0.037529   0.000004
    20  H    0.000016   0.039366   0.004206   0.001062   0.232465  -0.000067
    21  H    0.000029   0.002786  -0.000043  -0.000000  -0.000108   0.223252
              13         14         15         16         17         18
     1  C    0.098381   0.001725  -0.102632   0.004941   0.004897   0.001730
     2  C    0.160158   0.112960   0.009632  -0.000173  -0.000174   0.000380
     3  C    0.028129   0.081442   0.001411   0.000275   0.000232  -0.002495
     4  C   -0.010118   0.138847   0.001033  -0.002304  -0.002420  -0.019431
     5  C   -0.007215   0.001879   0.101609  -0.003100  -0.003063   0.039178
     6  C    0.066164  -0.021611  -0.011623   0.017542   0.017545   0.024425
     7  O   -0.016750   0.000032   0.218051  -0.004359  -0.004370   0.001170
     8  C    0.006287   0.023992  -0.002240  -0.018382  -0.018165  -0.092319
     9  C    0.000995  -0.000337   0.010337   0.352521   0.352484   0.412664
    10  O    0.000014  -0.000065   0.000002   0.004301   0.004294  -0.008996
    11  O    0.000045  -0.019949   0.000012  -0.000088  -0.000082   0.000093
    12  O   -0.009389  -0.014441  -0.000073   0.000001   0.000001  -0.000000
    13  H    0.492100  -0.000110   0.006841  -0.000001  -0.000001  -0.000000
    14  H   -0.000110   0.520961  -0.000001   0.000000   0.000000  -0.000000
    15  H    0.006841  -0.000001   0.347943   0.000301   0.000301  -0.000026
    16  H   -0.000001   0.000000   0.000301   0.454950  -0.018287  -0.018448
    17  H   -0.000001   0.000000   0.000301  -0.018287   0.454974  -0.018449
    18  H   -0.000000  -0.000000  -0.000026  -0.018448  -0.018449   0.458543
    19  H   -0.000000  -0.000004  -0.000000  -0.000264  -0.000264   0.000210
    20  H   -0.000000   0.008151  -0.000000  -0.000000  -0.000000  -0.000000
    21  H   -0.000055   0.005553   0.000000   0.000000   0.000000  -0.000000
              19         20         21
     1  C   -0.000625   0.003290   0.082963
     2  C   -0.000594  -0.000781  -0.036409
     3  C    0.000030  -0.115992  -0.029258
     4  C    0.063605  -0.018103  -0.005449
     5  C   -0.186998   0.087853   0.025010
     6  C   -0.059216  -0.001744  -0.037526
     7  O    0.000042   0.000016   0.000029
     8  C    0.082639   0.039366   0.002786
     9  C    0.096782   0.004206  -0.000043
    10  O    0.205143   0.001062  -0.000000
    11  O    0.037529   0.232465  -0.000108
    12  O    0.000004  -0.000067   0.223252
    13  H   -0.000000  -0.000000  -0.000055
    14  H   -0.000004   0.008151   0.005553
    15  H   -0.000000  -0.000000   0.000000
    16  H   -0.000264  -0.000000   0.000000
    17  H   -0.000264  -0.000000   0.000000
    18  H    0.000210  -0.000000  -0.000000
    19  H    0.301992   0.000411  -0.000000
    20  H    0.000411   0.326070   0.000012
    21  H   -0.000000   0.000012   0.378904
 Mulliken charges:
               1
     1  C    1.284108
     2  C   -1.076938
     3  C    1.051977
     4  C   -1.266253
     5  C    2.500847
     6  C   -2.617368
     7  O   -0.489319
     8  C    0.448943
     9  C   -0.183095
    10  O   -0.354980
    11  O   -0.588459
    12  O   -0.440678
    13  H    0.184525
    14  H    0.160976
    15  H    0.419121
    16  H    0.230573
    17  H    0.230548
    18  H    0.221771
    19  H    0.459577
    20  H    0.433784
    21  H    0.390338
 Sum of Mulliken charges =   1.00000
 Mulliken charges with hydrogens summed into heavy atoms:
               1
     1  C    1.468633
     2  C   -1.076938
     3  C    1.212954
     4  C   -1.266253
     5  C    2.500847
     6  C   -2.617368
     7  O   -0.070198
     8  C    0.448943
     9  C    0.499797
    10  O    0.104597
    11  O   -0.154675
    12  O   -0.050340
 Electronic spatial extent (au):  <R**2>=           2059.3452
 Charge=              1.0000 electrons
 Dipole moment (field-independent basis, Debye):
    X=              1.6162    Y=              1.7008    Z=              0.0037  Tot=              2.3462
 Quadrupole moment (field-independent basis, Debye-Ang):
   XX=            -42.0998   YY=            -35.7331   ZZ=            -69.2700
   XY=              8.6904   XZ=              0.0001   YZ=              0.0139
 Traceless Quadrupole moment (field-independent basis, Debye-Ang):
   XX=              6.9346   YY=             13.3012   ZZ=            -20.2357
   XY=              8.6904   XZ=              0.0001   YZ=              0.0139
 Octapole moment (field-independent basis, Debye-Ang**2):
  XXX=             30.4561  YYY=             13.6483  ZZZ=              0.0018  XYY=             14.8248
  XXY=             20.6253  XXZ=              0.0084  XZZ=             -5.1623  YZZ=             -0.0070
  YYZ=              0.0374  XYZ=              0.0088
 Hexadecapole moment (field-independent basis, Debye-Ang**3):
 XXXX=          -1285.5429 YYYY=           -468.5034 ZZZZ=            -73.3244 XXXY=            149.1236
 XXXZ=              0.0567 YYYX=            -13.8642 YYYZ=              0.1423 ZZZX=              0.0439
 ZZZY=             -0.0267 XXYY=           -346.9133 XXZZ=           -287.6324 YYZZ=           -152.0575
 XXYZ=             -0.0076 YYXZ=              0.0159 ZZXY=              1.4501
 N-N= 7.149524168728D+02 E-N=-2.841264835660D+03  KE= 6.053626240490D+02
 Calling FoFJK, ICntrl=      2127 FMM=F ISym2X=0 I1Cent= 0 IOpClX= 0 NMat=1 NMatS=1 NMatT=0.
 ***** Axes restored to original set *****
 -------------------------------------------------------------------
 Center     Atomic                   Forces (Hartrees/Bohr)
 Number     Number              X              Y              Z
 -------------------------------------------------------------------
      1        6           0.000428536    0.000481451   -0.000000415
      2        6           0.000226965    0.000874718    0.000000938
      3        6           0.000288047   -0.000710285    0.000001219
      4        6           0.000191377    0.000808866   -0.000001622
      5        6          -0.002744159   -0.000024196    0.000002041
      6        6           0.000976597   -0.000999789   -0.000002396
      7        8          -0.000763068   -0.001993675    0.000001031
      8        6           0.002643799   -0.005417691   -0.000002874
      9        6           0.002139686    0.002854127   -0.000001503
     10        8          -0.005643849    0.004527956   -0.000000925
     11        8          -0.002190074    0.001555808    0.000016594
     12        8           0.003188261   -0.001093123    0.000000449
     13        1           0.000069220   -0.000433655    0.000000014
     14        1           0.000326894    0.000443997    0.000001618
     15        1           0.000442058    0.000507737   -0.000000694
     16        1          -0.000708073   -0.000612230   -0.000204026
     17        1          -0.000705911   -0.000613284    0.000204510
     18        1          -0.000965081   -0.000382386   -0.000000159
     19        1           0.003087796    0.000405861    0.000001926
     20        1          -0.000002428   -0.000443838   -0.000015086
     21        1          -0.000286593    0.000263632   -0.000000637
 -------------------------------------------------------------------
 Cartesian Forces:  Max     0.005643849 RMS     0.001545395

 GradGradGradGradGradGradGradGradGradGradGradGradGradGradGradGradGradGrad
 Berny optimization.
 FormGI is forming the generalized inverse of G from B-inverse, IUseBI=4.
 Internal  Forces:  Max     0.005550522 RMS     0.001448842
 Search for a local minimum.
 Step number   1 out of a maximum of  104
 All quantities printed in internal units (Hartrees-Bohrs-Radians)
 Mixed Optimization -- RFO/linear search
 Second derivative matrix not updated -- first step.
 ITU=  0
     Eigenvalues ---    0.00913   0.01553   0.01617   0.01754   0.01774
     Eigenvalues ---    0.02003   0.02073   0.02118   0.02153   0.02204
     Eigenvalues ---    0.02245   0.02271   0.02297   0.02537   0.02657
     Eigenvalues ---    0.03070   0.07559   0.07596   0.16000   0.16000
     Eigenvalues ---    0.16000   0.16000   0.16000   0.16000   0.16000
     Eigenvalues ---    0.16000   0.16000   0.23482   0.23492   0.25000
     Eigenvalues ---    0.25000   0.25000   0.25000   0.25000   0.25000
     Eigenvalues ---    0.25000   0.33576   0.34498   0.34498   0.34986
     Eigenvalues ---    0.35306   0.35442   0.38055   0.38988   0.41891
     Eigenvalues ---    0.43419   0.44729   0.47306   0.49714   0.51304
     Eigenvalues ---    0.53859   0.53920   0.54022   0.54132   0.58092
     Eigenvalues ---    0.60220   0.68371
 RFO step:  Lambda=-6.79686904D-04 EMin= 9.13476482D-03
 Linear search not attempted -- first point.
 Iteration  1 RMS(Cart)=  0.03208092 RMS(Int)=  0.00034779
 Iteration  2 RMS(Cart)=  0.00057833 RMS(Int)=  0.00000473
 Iteration  3 RMS(Cart)=  0.00000024 RMS(Int)=  0.00000473
 Variable       Old X    -DE/DX   Delta X   Delta X   Delta X     New X
                                 (Linear)    (Quad)   (Total)
    R1        2.63970   0.00127   0.00000   0.00268   0.00268   2.64238
    R2        2.60912   0.00212   0.00000   0.00435   0.00435   2.61347
    R3        2.04963   0.00041   0.00000   0.00116   0.00116   2.05079
    R4        2.65783   0.00106   0.00000   0.00226   0.00226   2.66010
    R5        2.50767   0.00297   0.00000   0.00492   0.00492   2.51259
    R6        2.59667   0.00212   0.00000   0.00419   0.00419   2.60086
    R7        2.05181   0.00055   0.00000   0.00156   0.00156   2.05336
    R8        2.71552   0.00106   0.00000   0.00273   0.00273   2.71825
    R9        2.55912   0.00204   0.00000   0.00376   0.00376   2.56288
   R10        2.72057   0.00309   0.00000   0.00790   0.00790   2.72847
   R11        2.69062   0.00018   0.00000   0.00043   0.00043   2.69105
   R12        2.52483   0.00142   0.00000   0.00244   0.00244   2.52727
   R13        1.82860  -0.00016   0.00000  -0.00029  -0.00029   1.82831
   R14        2.81351  -0.00083   0.00000  -0.00245  -0.00245   2.81106
   R15        2.44872   0.00555   0.00000   0.00811   0.00811   2.45683
   R16        2.06498   0.00040   0.00000   0.00116   0.00116   2.06614
   R17        2.06498   0.00040   0.00000   0.00116   0.00116   2.06614
   R18        2.05697   0.00077   0.00000   0.00221   0.00221   2.05918
   R19        1.85272   0.00217   0.00000   0.00423   0.00423   1.85695
   R20        1.82805  -0.00035   0.00000  -0.00065  -0.00065   1.82739
   R21        1.82712   0.00010   0.00000   0.00018   0.00018   1.82729
    A1        2.09066   0.00123   0.00000   0.00531   0.00531   2.09597
    A2        2.07254  -0.00046   0.00000  -0.00169  -0.00169   2.07085
    A3        2.11999  -0.00077   0.00000  -0.00362  -0.00362   2.11636
    A4        2.11425  -0.00112   0.00000  -0.00492  -0.00492   2.10933
    A5        2.03146   0.00022   0.00000   0.00110   0.00110   2.03255
    A6        2.13748   0.00090   0.00000   0.00382   0.00382   2.14131
    A7        2.07311   0.00063   0.00000   0.00241   0.00241   2.07551
    A8        2.10581  -0.00035   0.00000  -0.00145  -0.00144   2.10436
    A9        2.10427  -0.00028   0.00000  -0.00096  -0.00096   2.10331
   A10        2.14535   0.00053   0.00000   0.00203   0.00203   2.14738
   A11        2.10669   0.00126   0.00000   0.00506   0.00506   2.11174
   A12        2.03115  -0.00179   0.00000  -0.00709  -0.00709   2.02406
   A13        2.01797  -0.00070   0.00000  -0.00264  -0.00264   2.01533
   A14        2.13512  -0.00470   0.00000  -0.01885  -0.01885   2.11627
   A15        2.13009   0.00541   0.00000   0.02148   0.02148   2.15158
   A16        2.12504  -0.00057   0.00000  -0.00219  -0.00219   2.12285
   A17        2.11098  -0.00100   0.00000  -0.00402  -0.00402   2.10696
   A18        2.04717   0.00157   0.00000   0.00621   0.00621   2.05338
   A19        1.94532  -0.00120   0.00000  -0.00746  -0.00746   1.93786
   A20        2.20020   0.00382   0.00000   0.01524   0.01524   2.21543
   A21        2.13351  -0.00427   0.00000  -0.01705  -0.01705   2.11646
   A22        1.94948   0.00045   0.00000   0.00181   0.00181   1.95129
   A23        1.92599   0.00095   0.00000   0.00628   0.00626   1.93225
   A24        1.92603   0.00095   0.00000   0.00627   0.00625   1.93228
   A25        1.89044   0.00052   0.00000   0.00249   0.00249   1.89293
   A26        1.86051  -0.00068   0.00000  -0.00273  -0.00276   1.85774
   A27        1.93061  -0.00087   0.00000  -0.00617  -0.00618   1.92444
   A28        1.93062  -0.00087   0.00000  -0.00616  -0.00616   1.92445
   A29        1.97810  -0.00413   0.00000  -0.02572  -0.02572   1.95238
   A30        1.97656  -0.00049   0.00000  -0.00306  -0.00306   1.97350
   A31        1.97300  -0.00069   0.00000  -0.00430  -0.00430   1.96870
    D1       -0.00006  -0.00000   0.00000  -0.00001  -0.00001  -0.00006
    D2       -3.14158   0.00000   0.00000   0.00002   0.00002  -3.14156
    D3        3.14150  -0.00000   0.00000  -0.00001  -0.00001   3.14148
    D4       -0.00003   0.00000   0.00000   0.00001   0.00001  -0.00002
    D5       -0.00006  -0.00000   0.00000  -0.00002  -0.00002  -0.00008
    D6        3.14154  -0.00000   0.00000  -0.00001  -0.00001   3.14152
    D7        3.14157  -0.00000   0.00000  -0.00001  -0.00001   3.14157
    D8       -0.00001  -0.00000   0.00000  -0.00000  -0.00001  -0.00002
    D9        0.00007   0.00000   0.00000   0.00002   0.00002   0.00009
   D10       -3.14132  -0.00000   0.00000  -0.00000  -0.00000  -3.14132
   D11        3.14159  -0.00000   0.00000  -0.00000  -0.00000   3.14159
   D12        0.00020  -0.00000   0.00000  -0.00002  -0.00002   0.00017
   D13       -3.14157  -0.00000   0.00000  -0.00003  -0.00003   3.14159
   D14        0.00010  -0.00000   0.00000  -0.00001  -0.00001   0.00009
   D15        0.00003  -0.00000   0.00000  -0.00002  -0.00002   0.00002
   D16       -3.14146   0.00000   0.00000   0.00007   0.00007  -3.14139
   D17        3.14142   0.00000   0.00000   0.00001   0.00001   3.14143
   D18       -0.00007   0.00000   0.00000   0.00009   0.00009   0.00002
   D19       -0.00014  -0.00000   0.00000  -0.00000  -0.00000  -0.00014
   D20        3.14116   0.00000   0.00000   0.00013   0.00013   3.14129
   D21        3.14136  -0.00000   0.00000  -0.00008  -0.00008   3.14127
   D22       -0.00052   0.00000   0.00000   0.00005   0.00005  -0.00047
   D23       -0.00226   0.00001   0.00000   0.00048   0.00048  -0.00177
   D24        3.13943   0.00001   0.00000   0.00056   0.00056   3.13999
   D25        0.00015   0.00000   0.00000   0.00002   0.00002   0.00017
   D26       -3.14145   0.00000   0.00000   0.00002   0.00002  -3.14143
   D27       -3.14115  -0.00000   0.00000  -0.00011  -0.00011  -3.14126
   D28        0.00044  -0.00000   0.00000  -0.00011  -0.00011   0.00032
   D29       -3.14127  -0.00000   0.00000  -0.00019  -0.00019  -3.14146
   D30        0.00028  -0.00000   0.00000  -0.00019  -0.00019   0.00009
   D31        0.00002  -0.00000   0.00000  -0.00005  -0.00005  -0.00003
   D32        3.14157  -0.00000   0.00000  -0.00004  -0.00004   3.14152
   D33        0.00006  -0.00000   0.00000  -0.00003  -0.00003   0.00003
   D34       -3.14153  -0.00000   0.00000  -0.00002  -0.00002  -3.14155
   D35       -1.02603  -0.00017   0.00000  -0.00220  -0.00221  -1.02824
   D36        1.02568   0.00016   0.00000   0.00211   0.00212   1.02780
   D37        3.14143  -0.00000   0.00000  -0.00004  -0.00004   3.14139
   D38        2.11561  -0.00017   0.00000  -0.00221  -0.00222   2.11339
   D39       -2.11587   0.00016   0.00000   0.00211   0.00212  -2.11375
   D40       -0.00012  -0.00000   0.00000  -0.00004  -0.00004  -0.00016
   D41        0.00003  -0.00000   0.00000  -0.00008  -0.00008  -0.00005
   D42        3.14159  -0.00000   0.00000  -0.00008  -0.00008   3.14151
         Item               Value     Threshold  Converged?
 Maximum Force            0.005551     0.000450     NO 
 RMS     Force            0.001449     0.000300     NO 
 Maximum Displacement     0.137655     0.001800     NO 
 RMS     Displacement     0.032407     0.001200     NO 
 Predicted change in Energy=-3.408032D-04
 GradGradGradGradGradGradGradGradGradGradGradGradGradGradGradGradGradGrad

                          Input orientation:                          
 ---------------------------------------------------------------------
 Center     Atomic      Atomic             Coordinates (Angstroms)
 Number     Number       Type             X           Y           Z
 ---------------------------------------------------------------------
      1          6           0        1.556293   -1.270638   -0.000143
      2          6           0        2.285674   -0.077655    0.000030
      3          6           0        1.631265    1.168645    0.000048
      4          6           0        0.255261    1.197829    0.000002
      5          6           0       -0.554315    0.008844   -0.000043
      6          6           0        0.173688   -1.238030   -0.000226
      7          8           0       -0.536413   -2.371312   -0.000472
      8          6           0       -1.976410    0.083303    0.000274
      9          6           0       -2.931239   -1.057355    0.000429
     10          8           0       -2.592111    1.228366    0.000509
     11          8           0       -0.418311    2.374954   -0.000214
     12          8           0        3.610249   -0.193182    0.000063
     13          1           0        2.097395   -2.211349   -0.000257
     14          1           0        2.202652    2.092873   -0.000071
     15          1           0        0.044471   -3.145025   -0.000540
     16          1           0       -2.774702   -1.692740   -0.875473
     17          1           0       -2.774048   -1.693091    0.875957
     18          1           0       -3.945260   -0.658421    0.000877
     19          1           0       -1.962184    1.982555    0.000482
     20          1           0        0.165645    3.145739    0.001252
     21          1           0        4.060971    0.662309    0.000179
 ---------------------------------------------------------------------
                    Distance matrix (angstroms):
                    1          2          3          4          5
     1  C    0.000000
     2  C    1.398286   0.000000
     3  C    2.440434   1.407663   0.000000
     4  C    2.790343   2.397799   1.376314   0.000000
     5  C    2.468146   2.841307   2.474247   1.438437   0.000000
     6  C    1.382990   2.409763   2.813648   2.437225   1.443844
     7  O    2.364509   3.636624   4.150918   3.655888   2.380223
     8  C    3.783273   4.265123   3.767398   2.494499   1.424043
     9  C    4.492598   5.308106   5.076566   3.903798   2.605100
    10  O    4.842962   5.049602   4.223798   2.847535   2.374836
    11  O    4.146010   3.650593   2.378223   1.356215   2.370015
    12  O    2.319406   1.329604   2.402280   3.631923   4.169462
    13  H    1.085232   2.141984   3.411984   3.875042   3.458442
    14  H    3.425053   2.172116   1.086592   2.143231   3.456016
    15  H    2.408097   3.798914   4.596266   4.347967   3.210207
    16  H    4.438681   5.383531   5.326030   4.278144   2.931191
    17  H    4.438229   5.383091   5.325743   4.278017   2.931070
    18  H    5.535513   6.257942   5.868203   4.592390   3.455973
    19  H    4.791967   4.721098   3.684471   2.352202   2.424383
    20  H    4.630150   3.858082   2.461086   1.949970   3.218455
    21  H    3.163810   1.923337   2.481904   3.843203   4.661318
                    6          7          8          9         10
     6  C    0.000000
     7  O    1.337374   0.000000
     8  C    2.523658   2.845826   0.000000
     9  C    3.110179   2.731606   1.487548   0.000000
    10  O    3.705773   4.145307   1.300098   2.310742   0.000000
    11  O    3.661163   4.747734   2.771161   4.253887   2.457655
    12  O    3.591888   4.683915   5.593497   6.598323   6.363181
    13  H    2.155921   2.638661   4.675609   5.159347   5.815763
    14  H    3.900207   5.237502   4.637126   6.023352   4.872076
    15  H    1.911367   0.967501   3.808683   3.634999   5.106673
    16  H    3.108990   2.497203   2.135071   1.093353   3.055084
    17  H    3.108686   2.497023   2.135094   1.093352   3.055229
    18  H    4.159530   3.815001   2.103931   1.089673   2.321849
    19  H    3.864469   4.581373   1.899305   3.190630   0.982654
    20  H    4.383777   5.561541   3.737233   5.220794   3.358800
    21  H    4.326922   5.508066   6.065082   7.200572   6.677119
                   11         12         13         14         15
    11  O    0.000000
    12  O    4.777512   0.000000
    13  H    5.230960   2.522246   0.000000
    14  H    2.636099   2.684656   4.305509   0.000000
    15  H    5.539344   4.629055   2.255270   5.665096   0.000000
    16  H    4.781713   6.616860   4.977176   6.314368   3.289738
    17  H    4.781858   6.616357   4.976676   6.314151   3.289439
    18  H    4.651961   7.569820   6.239011   6.735462   4.701187
    19  H    1.592960   5.982127   5.836866   4.166297   5.506246
    20  H    0.967014   4.797259   5.694738   2.293017   6.291931
    21  H    4.795531   0.966962   3.480452   2.345178   5.534262
                   16         17         18         19         20
    16  H    0.000000
    17  H    1.751430   0.000000
    18  H    1.791092   1.791102   0.000000
    19  H    3.864618   3.864706   3.302628   0.000000
    20  H    5.729325   5.728977   5.600998   2.425006   0.000000
    21  H    7.282818   7.282334   8.114436   6.166153   4.619630
                   21
    21  H    0.000000
 Stoichiometry    C8H9O4(1+)
 Framework group  C1[X(C8H9O4)]
 Deg. of freedom    57
 Full point group                 C1      NOp   1
 Largest Abelian subgroup         C1      NOp   1
 Largest concise Abelian subgroup C1      NOp   1
                         Standard orientation:                         
 ---------------------------------------------------------------------
 Center     Atomic      Atomic             Coordinates (Angstroms)
 Number     Number       Type             X           Y           Z
 ---------------------------------------------------------------------
      1          6           0        1.560802   -1.257864   -0.000185
      2          6           0        2.283111   -0.060586   -0.000012
      3          6           0        1.621339    1.181820    0.000006
      4          6           0        0.245186    1.202862   -0.000040
      5          6           0       -0.557340    0.009107   -0.000085
      6          6           0        0.178028   -1.233438   -0.000268
      7          8           0       -0.525354   -2.370901   -0.000514
      8          6           0       -1.979851    0.075150    0.000232
      9          6           0       -2.927913   -1.071138    0.000387
     10          8           0       -2.602316    1.216550    0.000468
     11          8           0       -0.435339    2.375980   -0.000256
     12          8           0        3.608347   -0.168274    0.000021
     13          1           0        2.107460   -2.195357   -0.000299
     14          1           0        2.187247    2.109413   -0.000113
     15          1           0        0.060098   -3.141163   -0.000582
     16          1           0       -2.767619   -1.705585   -0.875514
     17          1           0       -2.766964   -1.705933    0.875916
     18          1           0       -3.944278   -0.678212    0.000835
     19          1           0       -1.976863    1.974453    0.000441
     20          1           0        0.144046    3.150207    0.001211
     21          1           0        4.053998    0.689870    0.000137
 ---------------------------------------------------------------------
 Rotational constants (GHZ):      1.5279303      0.7600835      0.5091629
 Standard basis: 6-31+G(d,p) (6D, 7F)
 There are   273 symmetry adapted cartesian basis functions of A   symmetry.
 There are   273 symmetry adapted basis functions of A   symmetry.
   273 basis functions,   447 primitive gaussians,   273 cartesian basis functions
    44 alpha electrons       44 beta electrons
       nuclear repulsion energy       714.2621826079 Hartrees.
 NAtoms=   21 NActive=   21 NUniq=   21 SFac= 1.00D+00 NAtFMM=   60 NAOKFM=F Big=F
 Integral buffers will be    131072 words long.
 Raffenetti 2 integral format.
 Two-electron integral symmetry is turned on.
 One-electron integrals computed using PRISM.
 NBasis=   273 RedAO= T EigKep=  1.41D-06  NBF=   273
 NBsUse=   273 1.00D-06 EigRej= -1.00D+00 NBFU=   273
 Initial guess from the checkpoint file:  "B3PWTHAPyang.chk"
 B after Tr=     0.000000    0.000000   -0.000000
         Rot=    0.999993   -0.000002   -0.000005   -0.003775 Ang=  -0.43 deg.
 ExpMin= 4.38D-02 ExpMax= 5.48D+03 ExpMxC= 8.25D+02 IAcc=2 IRadAn=         4 AccDes= 0.00D+00
 Harris functional with IExCor=  408 and IRadAn=       4 diagonalized for initial guess.
 HarFok:  IExCor=  408 AccDes= 0.00D+00 IRadAn=         4 IDoV= 1 UseB2=F ITyADJ=14
 ICtDFT=  3500011 ScaDFX=  1.000000  1.000000  1.000000  1.000000
 FoFCou: FMM=F IPFlag=           0 FMFlag=      100000 FMFlg1=           0
         NFxFlg=           0 DoJE=T BraDBF=F KetDBF=T FulRan=T
         wScrn=  0.000000 ICntrl=     500 IOpCl=  0 I1Cent=   200000004 NGrid=           0
         NMat0=    1 NMatS0=      1 NMatT0=    0 NMatD0=    1 NMtDS0=    0 NMtDT0=    0
 Petite list used in FoFCou.
 Keep R1 ints in memory in canonical form, NReq=709970467.
 Requested convergence on RMS density matrix=1.00D-08 within 128 cycles.
 Requested convergence on MAX density matrix=1.00D-06.
 Requested convergence on             energy=1.00D-06.
 No special actions if energy rises.
 SCF Done:  E(RB3PW91) =  -610.733722574     A.U. after   12 cycles
            NFock= 12  Conv=0.58D-08     -V/T= 2.0089
 Calling FoFJK, ICntrl=      2127 FMM=F ISym2X=0 I1Cent= 0 IOpClX= 0 NMat=1 NMatS=1 NMatT=0.
 ***** Axes restored to original set *****
 -------------------------------------------------------------------
 Center     Atomic                   Forces (Hartrees/Bohr)
 Number     Number              X              Y              Z
 -------------------------------------------------------------------
      1        6           0.000087032    0.001104068    0.000000127
      2        6          -0.000522060   -0.000209836   -0.000001567
      3        6          -0.000606395    0.000684031    0.000002645
      4        6           0.001683487   -0.003079167   -0.000009652
      5        6           0.000721980   -0.001198283   -0.000001708
      6        6          -0.000058289    0.000608616    0.000000653
      7        8          -0.002478746    0.001169830    0.000002112
      8        6          -0.001503990   -0.001070184   -0.000000100
      9        6           0.002602281    0.000392686    0.000000262
     10        8          -0.005328298   -0.003739854    0.000003816
     11        8           0.004359700    0.003269845    0.000015004
     12        8           0.000204631   -0.000218581    0.000000761
     13        1          -0.000068342   -0.000143316    0.000000250
     14        1           0.000025813    0.000098656    0.000001572
     15        1          -0.000179250   -0.000055583   -0.000000244
     16        1           0.000233244   -0.000369275   -0.000263045
     17        1           0.000233684   -0.000368506    0.000261236
     18        1          -0.000038423   -0.000307884   -0.000000586
     19        1           0.000843228    0.002633032   -0.000002483
     20        1          -0.000184736    0.000651232   -0.000008943
     21        1          -0.000026550    0.000148472   -0.000000112
 -------------------------------------------------------------------
 Cartesian Forces:  Max     0.005328298 RMS     0.001356044

 GradGradGradGradGradGradGradGradGradGradGradGradGradGradGradGradGradGrad
 Berny optimization.
 Using GEDIIS/GDIIS optimizer.
 FormGI is forming the generalized inverse of G from B-inverse, IUseBI=4.
 Internal  Forces:  Max     0.015660902 RMS     0.003049881
 Search for a local minimum.
 Step number   2 out of a maximum of  104
 All quantities printed in internal units (Hartrees-Bohrs-Radians)
 Mixed Optimization -- RFO/linear search
 Update second derivatives using D2CorX and points    2    1
 DE=  2.08D-04 DEPred=-3.41D-04 R=-6.12D-01
 Trust test=-6.12D-01 RLast= 5.27D-02 DXMaxT set to 1.50D-01
 ITU= -1  0
 Use linear search instead of GDIIS.
 Energy rises -- skip Quadratic/GDIIS search.
 Quartic linear search produced a step of -0.61365.
 Iteration  1 RMS(Cart)=  0.01986933 RMS(Int)=  0.00013494
 Iteration  2 RMS(Cart)=  0.00018118 RMS(Int)=  0.00000112
 Iteration  3 RMS(Cart)=  0.00000001 RMS(Int)=  0.00000112
 Variable       Old X    -DE/DX   Delta X   Delta X   Delta X     New X
                                 (Linear)    (Quad)   (Total)
    R1        2.64238  -0.00112  -0.00165   0.00000  -0.00165   2.64073
    R2        2.61347  -0.00062  -0.00267   0.00000  -0.00267   2.61080
    R3        2.05079   0.00009  -0.00071   0.00000  -0.00071   2.05008
    R4        2.66010  -0.00044  -0.00139   0.00000  -0.00139   2.65871
    R5        2.51259   0.00018  -0.00302   0.00000  -0.00302   2.50957
    R6        2.60086  -0.00031  -0.00257   0.00000  -0.00257   2.59829
    R7        2.05336   0.00010  -0.00095   0.00000  -0.00095   2.05241
    R8        2.71825   0.00502  -0.00168   0.00000  -0.00168   2.71657
    R9        2.56288   0.00133  -0.00230   0.00000  -0.00230   2.56057
   R10        2.72847  -0.00320  -0.00485   0.00000  -0.00485   2.72362
   R11        2.69105   0.00280  -0.00027   0.00000  -0.00027   2.69079
   R12        2.52727   0.00046  -0.00150   0.00000  -0.00150   2.52577
   R13        1.82831  -0.00006   0.00018   0.00000   0.00018   1.82849
   R14        2.81106  -0.00144   0.00151   0.00000   0.00151   2.81257
   R15        2.45683   0.00115  -0.00498   0.00000  -0.00498   2.45185
   R16        2.06614   0.00046  -0.00071   0.00000  -0.00071   2.06543
   R17        2.06614   0.00046  -0.00071   0.00000  -0.00071   2.06543
   R18        2.05918  -0.00008  -0.00136   0.00000  -0.00136   2.05783
   R19        1.85695   0.00256  -0.00259   0.00000  -0.00259   1.85435
   R20        1.82739   0.00041   0.00040   0.00000   0.00040   1.82779
   R21        1.82729   0.00012  -0.00011   0.00000  -0.00011   1.82718
    A1        2.09597  -0.00028  -0.00326   0.00000  -0.00326   2.09271
    A2        2.07085   0.00027   0.00104   0.00000   0.00104   2.07189
    A3        2.11636   0.00001   0.00222   0.00000   0.00222   2.11859
    A4        2.10933  -0.00022   0.00302   0.00000   0.00302   2.11235
    A5        2.03255   0.00014  -0.00067   0.00000  -0.00067   2.03188
    A6        2.14131   0.00007  -0.00235   0.00000  -0.00235   2.13896
    A7        2.07551   0.00085  -0.00148   0.00000  -0.00148   2.07404
    A8        2.10436  -0.00039   0.00089   0.00000   0.00089   2.10525
    A9        2.10331  -0.00046   0.00059   0.00000   0.00059   2.10390
   A10        2.14738  -0.00106  -0.00125   0.00000  -0.00125   2.14613
   A11        2.11174  -0.00610  -0.00310   0.00000  -0.00310   2.10864
   A12        2.02406   0.00716   0.00435   0.00000   0.00435   2.02841
   A13        2.01533  -0.00156   0.00162   0.00000   0.00162   2.01695
   A14        2.11627   0.01566   0.01157   0.00000   0.01157   2.12784
   A15        2.15158  -0.01410  -0.01318   0.00000  -0.01318   2.13839
   A16        2.12285   0.00226   0.00134   0.00000   0.00134   2.12419
   A17        2.10696   0.00261   0.00247   0.00000   0.00247   2.10943
   A18        2.05338  -0.00487  -0.00381   0.00000  -0.00381   2.04957
   A19        1.93786   0.00032   0.00458   0.00000   0.00458   1.94243
   A20        2.21543  -0.01014  -0.00935   0.00000  -0.00935   2.20608
   A21        2.11646   0.01154   0.01046   0.00000   0.01046   2.12692
   A22        1.95129  -0.00140  -0.00111   0.00000  -0.00111   1.95018
   A23        1.93225  -0.00016  -0.00384   0.00000  -0.00384   1.92841
   A24        1.93228  -0.00016  -0.00384   0.00000  -0.00383   1.92845
   A25        1.89293   0.00056  -0.00153   0.00000  -0.00152   1.89140
   A26        1.85774  -0.00014   0.00170   0.00000   0.00170   1.85945
   A27        1.92444  -0.00006   0.00379   0.00000   0.00379   1.92823
   A28        1.92445  -0.00006   0.00378   0.00000   0.00378   1.92824
   A29        1.95238   0.00193   0.01578   0.00000   0.01578   1.96817
   A30        1.97350   0.00099   0.00188   0.00000   0.00188   1.97538
   A31        1.96870  -0.00018   0.00264   0.00000   0.00264   1.97134
    D1       -0.00006   0.00000   0.00000   0.00000   0.00000  -0.00006
    D2       -3.14156  -0.00000  -0.00001   0.00000  -0.00001  -3.14157
    D3        3.14148   0.00000   0.00001   0.00000   0.00001   3.14149
    D4       -0.00002  -0.00000  -0.00000   0.00000  -0.00000  -0.00002
    D5       -0.00008   0.00000   0.00001   0.00000   0.00001  -0.00007
    D6        3.14152   0.00000   0.00001   0.00000   0.00001   3.14153
    D7        3.14157  -0.00000   0.00001   0.00000   0.00001   3.14157
    D8       -0.00002   0.00000   0.00000   0.00000   0.00000  -0.00002
    D9        0.00009  -0.00000  -0.00001   0.00000  -0.00001   0.00008
   D10       -3.14132  -0.00000   0.00000   0.00000   0.00000  -3.14132
   D11        3.14159   0.00000   0.00000   0.00000   0.00000   3.14159
   D12        0.00017  -0.00000   0.00002   0.00000   0.00002   0.00019
   D13        3.14159   0.00000   0.00002   0.00000   0.00002  -3.14158
   D14        0.00009  -0.00000   0.00001   0.00000   0.00001   0.00010
   D15        0.00002   0.00000   0.00001   0.00000   0.00001   0.00003
   D16       -3.14139  -0.00000  -0.00004   0.00000  -0.00004  -3.14143
   D17        3.14143   0.00000  -0.00000   0.00000  -0.00000   3.14143
   D18        0.00002  -0.00000  -0.00006   0.00000  -0.00006  -0.00003
   D19       -0.00014   0.00000   0.00000   0.00000   0.00000  -0.00014
   D20        3.14129  -0.00000  -0.00008   0.00000  -0.00008   3.14121
   D21        3.14127   0.00000   0.00005   0.00000   0.00005   3.14133
   D22       -0.00047  -0.00000  -0.00003   0.00000  -0.00003  -0.00050
   D23       -0.00177   0.00001  -0.00030   0.00000  -0.00030  -0.00207
   D24        3.13999   0.00001  -0.00034   0.00000  -0.00034   3.13965
   D25        0.00017  -0.00000  -0.00001   0.00000  -0.00001   0.00016
   D26       -3.14143  -0.00000  -0.00001   0.00000  -0.00001  -3.14144
   D27       -3.14126  -0.00000   0.00007   0.00000   0.00007  -3.14119
   D28        0.00032  -0.00000   0.00007   0.00000   0.00007   0.00039
   D29       -3.14146  -0.00000   0.00012   0.00000   0.00012  -3.14134
   D30        0.00009   0.00000   0.00011   0.00000   0.00011   0.00021
   D31       -0.00003  -0.00000   0.00003   0.00000   0.00003  -0.00000
   D32        3.14152  -0.00000   0.00003   0.00000   0.00003   3.14155
   D33        0.00003  -0.00000   0.00002   0.00000   0.00002   0.00005
   D34       -3.14155   0.00000   0.00001   0.00000   0.00001  -3.14154
   D35       -1.02824   0.00019   0.00136   0.00000   0.00136  -1.02688
   D36        1.02780  -0.00019  -0.00130   0.00000  -0.00130   1.02650
   D37        3.14139   0.00000   0.00002   0.00000   0.00002   3.14142
   D38        2.11339   0.00019   0.00136   0.00000   0.00136   2.11475
   D39       -2.11375  -0.00019  -0.00130   0.00000  -0.00130  -2.11506
   D40       -0.00016  -0.00000   0.00003   0.00000   0.00003  -0.00014
   D41       -0.00005   0.00000   0.00005   0.00000   0.00005   0.00000
   D42        3.14151   0.00000   0.00005   0.00000   0.00005   3.14156
         Item               Value     Threshold  Converged?
 Maximum Force            0.015661     0.000450     NO 
 RMS     Force            0.003050     0.000300     NO 
 Maximum Displacement     0.084302     0.001800     NO 
 RMS     Displacement     0.019880     0.001200     NO 
 Predicted change in Energy=-1.386823D-04
 GradGradGradGradGradGradGradGradGradGradGradGradGradGradGradGradGradGrad

                          Input orientation:                          
 ---------------------------------------------------------------------
 Center     Atomic      Atomic             Coordinates (Angstroms)
 Number     Number       Type             X           Y           Z
 ---------------------------------------------------------------------
      1          6           0        1.546534   -1.269921   -0.000168
      2          6           0        2.280422   -0.080729    0.000023
      3          6           0        1.635322    1.169588    0.000029
      4          6           0        0.260867    1.206592   -0.000063
      5          6           0       -0.553506    0.021964   -0.000133
      6          6           0        0.165622   -1.227092   -0.000285
      7          8           0       -0.555229   -2.352625   -0.000537
      8          6           0       -1.975953    0.086316    0.000230
      9          6           0       -2.912388   -1.070517    0.000497
     10          8           0       -2.610381    1.218091    0.000412
     11          8           0       -0.401709    2.388543   -0.000244
     12          8           0        3.602831   -0.202518    0.000100
     13          1           0        2.082549   -2.213107   -0.000264
     14          1           0        2.212251    2.089771   -0.000076
     15          1           0        0.014452   -3.134739   -0.000571
     16          1           0       -2.741519   -1.701262   -0.875610
     17          1           0       -2.740839   -1.701454    0.876332
     18          1           0       -3.931580   -0.687017    0.000930
     19          1           0       -2.006795    1.991781    0.000273
     20          1           0        0.187707    3.155429    0.001543
     21          1           0        4.059913    0.649526    0.000244
 ---------------------------------------------------------------------
                    Distance matrix (angstroms):
                    1          2          3          4          5
     1  C    0.000000
     2  C    1.397415   0.000000
     3  C    2.441124   1.406928   0.000000
     4  C    2.790350   2.394953   1.374953   0.000000
     5  C    2.465590   2.835788   2.471439   1.437549   0.000000
     6  C    1.381576   2.405520   2.811422   2.435547   1.441279
     7  O    2.364245   3.633514   4.147830   3.651580   2.374589
     8  C    3.774559   4.259652   3.770251   2.501676   1.423902
     9  C    4.463379   5.286299   5.069491   3.905736   2.599584
    10  O    4.844600   5.060325   4.245980   2.871271   2.379381
    11  O    4.144877   3.645700   2.373888   1.354996   2.371443
    12  O    2.316831   1.328006   2.398701   3.626888   4.162395
    13  H    1.084856   2.141539   3.412130   3.874644   3.456056
    14  H    3.425012   2.171570   1.086087   2.141940   3.453294
    15  H    2.413467   3.802841   4.599397   4.348319   3.207390
    16  H    4.397711   5.349090   5.307096   4.270424   2.919481
    17  H    4.397277   5.348620   5.306748   4.270250   2.919381
    18  H    5.509040   6.241519   5.868338   4.600257   3.451672
    19  H    4.823365   4.761883   3.733767   2.399752   2.447903
    20  H    4.629269   3.853852   2.457470   1.950210   3.219938
    21  H    3.162491   1.923502   2.479738   3.839671   4.655907
                    6          7          8          9         10
     6  C    0.000000
     7  O    1.336581   0.000000
     8  C    2.512247   2.822568   0.000000
     9  C    3.081990   2.683282   1.488345   0.000000
    10  O    3.699340   4.119910   1.297465   2.308449   0.000000
    11  O    3.659875   4.743652   2.788996   4.274179   2.499638
    12  O    3.586664   4.681070   5.586257   6.572785   6.373550
    13  H    2.155651   2.641465   4.664631   5.123954   5.813493
    14  H    3.897470   5.233911   4.642725   6.020743   4.900776
    15  H    1.913627   0.967595   3.786411   3.581537   5.082999
    16  H    3.072866   2.443336   2.132750   1.092978   3.050777
    17  H    3.072620   2.443320   2.132774   1.092976   3.050901
    18  H    4.132645   3.764837   2.102979   1.088956   2.318406
    19  H    3.883368   4.580492   1.905715   3.193395   0.981281
    20  H    4.382577   5.557932   3.755114   5.241107   3.403317
    21  H    4.322869   5.505674   6.062086   7.181332   6.694481
                   11         12         13         14         15
    11  O    0.000000
    12  O    4.769689   0.000000
    13  H    5.229408   2.520659   0.000000
    14  H    2.630979   2.681101   4.304832   0.000000
    15  H    5.538938   4.634046   2.264162   5.667965   0.000000
    16  H    4.792441   6.577529   4.929488   6.299075   3.227372
    17  H    4.792493   6.576986   4.929024   6.298776   3.227211
    18  H    4.681780   7.549973   6.204732   6.742197   4.643546
    19  H    1.653397   6.023525   5.865476   4.220184   5.510595
    20  H    0.967226   4.789456   5.693119   2.287884   6.292554
    21  H    4.788553   0.966904   3.479172   2.342681   5.539533
                   16         17         18         19         20
    16  H    0.000000
    17  H    1.751942   0.000000
    18  H    1.792557   1.792561   0.000000
    19  H    3.865949   3.866043   3.298600   0.000000
    20  H    5.739095   5.738549   5.633197   2.483931   0.000000
    21  H    7.249332   7.248783   8.102488   6.213420   4.612323
                   21
    21  H    0.000000
 Stoichiometry    C8H9O4(1+)
 Framework group  C1[X(C8H9O4)]
 Deg. of freedom    57
 Full point group                 C1      NOp   1
 Largest Abelian subgroup         C1      NOp   1
 Largest concise Abelian subgroup C1      NOp   1
                         Standard orientation:                         
 ---------------------------------------------------------------------
 Center     Atomic      Atomic             Coordinates (Angstroms)
 Number     Number       Type             X           Y           Z
 ---------------------------------------------------------------------
      1          6           0        1.548293   -1.265006   -0.000185
      2          6           0        2.279455   -0.074136    0.000007
      3          6           0        1.631492    1.174699    0.000013
      4          6           0        0.256955    1.208554   -0.000079
      5          6           0       -0.554702    0.022063   -0.000149
      6          6           0        0.167287   -1.225342   -0.000301
      7          8           0       -0.550983   -2.352523   -0.000553
      8          6           0       -1.977292    0.083155    0.000214
      9          6           0       -2.911074   -1.075820    0.000481
     10          8           0       -2.614311    1.213474    0.000396
     11          8           0       -0.408327    2.388984   -0.000261
     12          8           0        3.602139   -0.192895    0.000083
     13          1           0        2.086468   -2.206961   -0.000280
     14          1           0        2.206311    2.096202   -0.000092
     15          1           0        0.020488   -3.133330   -0.000587
     16          1           0       -2.738761   -1.706172   -0.875627
     17          1           0       -2.738080   -1.706362    0.876316
     18          1           0       -3.931142   -0.694656    0.000914
     19          1           0       -2.012500    1.988545    0.000257
     20          1           0        0.179329    3.157218    0.001527
     21          1           0        4.057267    0.660195    0.000228
 ---------------------------------------------------------------------
 Rotational constants (GHZ):      1.5290437      0.7617625      0.5100407
 Standard basis: 6-31+G(d,p) (6D, 7F)
 There are   273 symmetry adapted cartesian basis functions of A   symmetry.
 There are   273 symmetry adapted basis functions of A   symmetry.
   273 basis functions,   447 primitive gaussians,   273 cartesian basis functions
    44 alpha electrons       44 beta electrons
       nuclear repulsion energy       714.6696444350 Hartrees.
 NAtoms=   21 NActive=   21 NUniq=   21 SFac= 1.00D+00 NAtFMM=   60 NAOKFM=F Big=F
 Integral buffers will be    131072 words long.
 Raffenetti 2 integral format.
 Two-electron integral symmetry is turned on.
 One-electron integrals computed using PRISM.
 NBasis=   273 RedAO= T EigKep=  1.39D-06  NBF=   273
 NBsUse=   273 1.00D-06 EigRej= -1.00D+00 NBFU=   273
 Lowest energy guess from the checkpoint file:  "B3PWTHAPyang.chk"
 B after Tr=     0.000000    0.000000    0.000000
         Rot=    0.999999   -0.000001   -0.000002   -0.001461 Ang=  -0.17 deg.
 B after Tr=     0.000000    0.000000    0.000000
         Rot=    0.999997    0.000001    0.000003    0.002314 Ang=   0.27 deg.
 Keep R1 ints in memory in canonical form, NReq=709970467.
 Requested convergence on RMS density matrix=1.00D-08 within 128 cycles.
 Requested convergence on MAX density matrix=1.00D-06.
 Requested convergence on             energy=1.00D-06.
 No special actions if energy rises.
 SCF Done:  E(RB3PW91) =  -610.734062574     A.U. after    8 cycles
            NFock=  8  Conv=0.98D-08     -V/T= 2.0089
 Calling FoFJK, ICntrl=      2127 FMM=F ISym2X=0 I1Cent= 0 IOpClX= 0 NMat=1 NMatS=1 NMatT=0.
 ***** Axes restored to original set *****
 -------------------------------------------------------------------
 Center     Atomic                   Forces (Hartrees/Bohr)
 Number     Number              X              Y              Z
 -------------------------------------------------------------------
      1        6           0.000288946    0.000719823   -0.000000202
      2        6          -0.000058121    0.000462111   -0.000000024
      3        6          -0.000053206   -0.000173151    0.000001786
      4        6           0.000738432   -0.000651459   -0.000004818
      5        6          -0.001424131   -0.000489993    0.000000651
      6        6           0.000570254   -0.000378929   -0.000001186
      7        8          -0.001529580   -0.000727912    0.000001481
      8        6           0.001073627   -0.003780907   -0.000001930
      9        6           0.002392521    0.001880835   -0.000000704
     10        8          -0.005319494    0.001536057    0.000000771
     11        8           0.000131340    0.002132746    0.000016053
     12        8           0.002026509   -0.000749642    0.000000527
     13        1           0.000016421   -0.000321328    0.000000103
     14        1           0.000208116    0.000310992    0.000001598
     15        1           0.000190637    0.000294776   -0.000000513
     16        1          -0.000319995   -0.000523407   -0.000229296
     17        1          -0.000318601   -0.000523651    0.000228808
     18        1          -0.000607723   -0.000358756   -0.000000373
     19        1           0.002244631    0.001151759    0.000000346
     20        1          -0.000064369   -0.000029097   -0.000012649
     21        1          -0.000186216    0.000219131   -0.000000430
 -------------------------------------------------------------------
 Cartesian Forces:  Max     0.005319494 RMS     0.001128302

 GradGradGradGradGradGradGradGradGradGradGradGradGradGradGradGradGradGrad
 Berny optimization.
[...]
 .00259010,0.00497705,0.00000050,-0.19546732,0.11751395,0.00003780,0.01
 606552,-0.01956184,-0.00000264,0.44845328,0.00670939,0.00468189,0.0000
 0048,-0.00742564,-0.00303583,-0.00000111,0.00129966,0.00066986,-0.0000
 0028,-0.00288494,-0.03445538,-0.00000106,0.05357099,-0.00827239,-0.000
 01069,-0.01013548,0.01569184,0.00000174,-0.00012074,-0.00470164,-0.000
 00091,0.12882233,-0.36409954,-0.00005068,0.01324331,-0.06093672,-0.000
 00715,0.04323825,0.70855080,0.00000047,-0.00000016,-0.00148767,-0.0000
 0133,0.00000059,0.00030973,0.00000127,-0.00000070,-0.00017518,-0.00000
 182,-0.00000408,-0.00331581,0.00001263,-0.00001229,0.01837437,0.000002
 22,0.00000275,0.00876791,-0.00000068,-0.00000101,0.00007016,0.00003777
 ,-0.00004816,-0.05861218,0.00000070,-0.00000323,0.00961572,-0.00007092
 ,0.00004600,0.05223494,0.00854457,0.00666989,0.00000032,-0.00491910,-0
 .01800585,-0.00000351,-0.03439506,0.06044655,-0.00000255,-0.17080426,0
 .05607772,-0.00004096,0.02987587,-0.01564399,0.00000066,-0.01622956,0.
 00222486,0.00000191,0.00362478,-0.00019455,0.00000031,-0.01858935,0.01
 354973,0.00000504,0.00091223,-0.00170177,0.00000038,-0.01907631,-0.032
 75190,-0.00000202,0.45197614,-0.00460317,-0.00607131,-0.00000002,-0.00
 368298,0.01240906,-0.00000017,0.02532247,-0.01855502,0.00000599,0.1117
 0684,-0.27290525,-0.00000887,0.00333113,-0.04713442,-0.00000054,0.0018
 6157,-0.00247881,-0.00000212,-0.00011381,-0.00324212,-0.00000066,0.019
 73910,-0.00476128,-0.00000383,-0.00053823,-0.00208413,-0.00000053,-0.0
 1930842,0.00816829,0.00000813,0.12497928,0.67594423,0.00000100,0.00000
 168,-0.00168823,0.00000135,-0.00000329,0.01010489,-0.00000328,-0.00000
 030,0.01234065,-0.00001595,-0.00005276,-0.04157973,0.00001312,-0.00000
 900,0.00230572,-0.00000462,-0.00000229,0.00280428,0.00000079,-0.000001
 72,0.00049994,0.00000127,0.00000236,-0.00139748,0.00000001,0.00000119,
 0.00059119,-0.00000884,-0.00000045,0.00351727,0.00032666,0.00041895,0.
 02514629,-0.06015850,-0.01803959,-0.00000230,-0.37620395,0.04996780,0.
 00000487,-0.04623729,0.01497483,0.00000363,0.01139971,0.00344108,-0.00
 000122,-0.01753745,0.00121860,0.00000171,0.01776286,-0.00440622,-0.000
 00056,-0.00371555,-0.00286293,-0.00000051,0.01557206,-0.00335710,-0.00
 000225,-0.00058430,-0.00223927,-0.00000083,-0.00463417,0.00731255,0.00
 000139,-0.00164059,0.00202517,0.00000040,0.60003022,-0.05085296,0.0080
 5410,0.00000016,-0.00168316,-0.11916425,-0.00000831,0.04670064,0.00136
 145,-0.00000168,-0.00763697,-0.00714457,-0.00000067,0.00053040,0.00340
 707,0.00000028,0.00643795,-0.00835386,-0.00000172,-0.00410540,-0.00157
 981,-0.00000031,0.00027811,0.00029719,0.00000011,0.00002487,0.00011697
 ,0.00000014,-0.00003885,0.00098397,0.00000002,0.00414676,-0.00125039,-
 0.00000018,0.16661675,0.54043126,-0.00000672,-0.00000073,0.00703880,-0
 .00000209,-0.00000765,-0.04782958,0.00000525,-0.00000028,0.01295896,-0
 .00000202,-0.00000016,0.00816934,-0.00000020,0.00000042,-0.00116867,0.
 00000129,-0.00000183,0.00467672,-0.00000049,0.,-0.00060507,0.00000031,
 -0.00000002,-0.00026763,0.00000002,-0.00000004,0.00012671,-0.00000005,
 0.00000033,-0.00002200,0.00000098,-0.00000065,-0.00158870,0.00002470,0
 .00006348,0.03207130,-0.12689492,0.12455020,0.00001665,0.01316576,-0.0
 1620568,-0.00000247,-0.00206042,-0.00289077,-0.00000008,-0.00125300,-0
 .00070345,-0.00000012,-0.00407614,-0.00201931,-0.00000015,-0.01109291,
 0.02740397,0.00000385,0.00300044,0.00106321,0.00000034,0.00010973,0.00
 150192,-0.00000013,0.00004348,-0.00000841,0.,-0.00057687,0.00018432,0.
 00000024,0.00048218,-0.00010487,0.00000011,0.00057023,0.00086051,0.000
 00016,0.12980651,0.12314883,-0.27919211,-0.00003544,0.01567375,-0.0196
 3079,-0.00000325,-0.00370887,-0.00225793,-0.00000082,-0.00108612,0.000
 11445,0.00000029,-0.00076790,0.00083974,-0.00000065,-0.00356288,0.0024
 5106,-0.00000014,-0.00100455,0.00266624,0.00000108,-0.00032691,0.00019
 982,-0.00000008,-0.00002416,0.00006451,0.00000006,-0.00002056,0.000093
 21,0.00000011,0.00026816,0.00012156,-0.00000007,0.00128571,0.00197646,
 0.00000068,-0.13149898,0.29266681,0.00001611,-0.00003641,-0.02843091,0
 .00000290,-0.00000280,0.00332491,-0.00000084,-0.00000034,0.00442031,-0
 .00000035,0.00000008,-0.00135079,0.00000032,-0.00000114,0.00548470,0.0
 0000010,0.00000064,0.00266584,-0.00000028,0.00000077,-0.00486781,-0.00
 000010,0.00000016,0.00112856,0.,0.00000009,-0.00009326,-0.00000008,-0.
 00000001,-0.00068143,0.00000041,0.00000038,-0.00010081,-0.00000032,0.0
 0000073,-0.00292298,-0.00001812,0.00003821,0.02041617,-0.00137194,0.00
 295303,0.00000074,0.01060385,0.01412750,-0.00000055,-0.13903312,-0.127
 51691,0.00000549,-0.01265766,-0.02826714,0.00000044,-0.00420082,0.0025
 8775,0.00000038,-0.00101398,0.00079553,-0.00000009,0.00033851,-0.00001
 482,0.00000002,-0.00005875,-0.00192709,-0.00000060,-0.00040202,0.00033
 253,0.00000026,0.00019890,0.00046276,0.,0.00322340,-0.00082250,-0.0000
 0107,0.00260048,-0.00002411,-0.00000003,0.00062072,0.00068747,0.000000
 27,0.14365823,0.00392715,-0.00268614,-0.00000023,-0.01865011,-0.018514
 19,0.00000048,-0.12795797,-0.26273308,0.00000526,0.00379386,0.00293235
 ,0.,0.00095772,0.00089462,0.00000012,0.00124201,-0.00005872,0.00000004
 ,-0.00032761,0.00006849,0.,0.00048197,-0.00003499,0.,0.00004343,0.0000
 1231,-0.00000003,-0.00003177,0.00041138,0.00000004,0.00108891,0.002530
 31,0.00000105,-0.00059513,0.00283778,-0.00000017,-0.00093899,-0.000888
 16,-0.00000022,0.13611532,0.27577379,0.00000092,-0.00000074,0.00395975
 ,-0.00000031,-0.00000331,0.00195992,0.00000603,0.00001073,-0.02635129,
 0.00000047,-0.00000133,0.00339709,-0.00000014,0.00000013,0.00543469,-0
 .00000038,0.00000006,-0.00139390,0.00000023,0.00000037,-0.00004126,-0.
 00000040,-0.00000032,0.00111238,-0.00000014,0.00000015,-0.00040100,0.0
 0000024,-0.00000014,-0.00003930,0.00000086,0.00000235,-0.00504452,-0.0
 0000095,0.00000015,-0.00335459,-0.00000008,-0.00000021,0.00053094,-0.0
 0000694,-0.00000539,0.01843434,-0.00016590,-0.00538441,-0.00000087,-0.
 00049546,0.00128275,0.00000028,0.00037745,-0.00028629,-0.00000017,0.00
 044617,-0.00075833,0.00000014,-0.00134265,-0.00369306,-0.00000080,0.01
 537713,-0.02614593,-0.00000366,-0.22007319,0.25494932,0.00003320,-0.00
 080106,-0.00042374,-0.00000008,-0.00149154,0.00013538,0.00000056,0.000
 20240,-0.00031777,-0.00000004,-0.00040108,-0.00000135,-0.00000026,-0.0
 0016274,-0.00004476,0.,-0.00158009,0.00102662,0.00000008,-0.00008758,0
 .00015539,0.00000003,0.21017931,0.00405970,0.00600409,0.00000120,-0.00
 099551,-0.00325668,-0.00000018,-0.00126223,0.00133628,0.00000017,0.003
 01516,-0.00049938,-0.00000042,-0.00656130,-0.00134108,0.00000001,0.021
 03141,-0.03988816,-0.00000536,0.20188672,-0.33249935,-0.00004495,0.001
 59847,-0.00037668,-0.00000008,-0.00012828,-0.00001878,-0.00000035,-0.0
 0063130,0.00088725,0.00000025,-0.00085233,0.00043025,-0.00000043,0.001
 49873,0.00067338,0.00000008,-0.00130797,0.00040168,-0.00000008,-0.0000
 7042,0.00009386,-0.00000006,-0.22158837,0.36839099,0.00000050,0.000001
 29,-0.00223603,-0.00000008,-0.00000005,-0.00104874,0.00000006,0.000000
 14,-0.00009013,0.00000054,-0.00000045,0.00135398,-0.00000142,-0.000000
 43,0.00353376,0.00000332,-0.00000704,-0.00199835,0.00002521,-0.0000435
 3,-0.00850730,0.00000002,0.00000021,-0.00064882,0.00000061,-0.00000007
 ,0.00052887,-0.00000018,0.00000044,-0.00024981,-0.00000003,-0.00000001
 ,0.00003231,0.00000020,0.00000007,0.00003344,-0.00000022,-0.00000005,0
 .00094233,0.,0.,0.00004779,-0.00002870,0.00004993,0.00787232,0.0001148
 7,0.00014775,0.00015245,0.00045489,-0.00071801,0.00013549,-0.00064197,
 0.00080520,-0.00030774,0.00116892,0.00108420,0.00099259,-0.00380740,0.
 00036490,0.00127163,-0.00145509,-0.00411062,-0.00049324,-0.00094428,0.
 00241898,-0.00081622,0.00704734,-0.00787078,-0.02035228,-0.05320546,0.
 02106425,0.03676843,-0.00123897,-0.00218244,0.00061093,-0.00001053,-0.
 00035493,0.00011445,-0.00055894,0.00010225,0.00000373,-0.00004258,0.00
 003653,-0.00005435,0.00000494,0.00000499,-0.00007810,-0.00003982,0.000
 27012,0.00019071,0.05369188,0.00010180,-0.00003005,-0.00022327,-0.0003
 4054,0.00009249,-0.00003436,0.00015967,-0.00025982,-0.00021166,-0.0003
 3628,-0.00083159,0.00079042,0.00155743,0.00011163,0.00136609,-0.000161
 51,0.00164462,-0.00047145,0.00060082,-0.00131151,0.00092010,0.00349768
 ,-0.01818821,-0.02050918,0.02390360,-0.13023962,-0.13395764,-0.0032283
 6,-0.00289784,0.00011273,-0.00034467,0.00032583,0.00011506,0.00038295,
 -0.00002733,0.00004605,0.00003553,-0.00000060,0.00002256,0.00001687,0.
 00000031,-0.00005418,0.00034233,0.00006335,0.00019597,-0.02488045,0.14
 710197,0.00062896,0.00047566,-0.00024142,-0.00025269,-0.00041466,-0.00
 004506,-0.00008692,0.00007442,0.00001108,-0.00003766,-0.00020833,0.000
 13184,0.00030374,-0.00022318,0.00072446,-0.00074741,-0.00127487,0.0000
 8726,0.00116674,0.00048181,0.00037612,-0.00111004,0.00195949,0.0014567
 5,0.03582125,-0.13257681,-0.21763616,-0.00013785,0.00207423,-0.0008900
 9,-0.00001441,0.00027343,-0.00009608,0.00028449,0.00007494,0.00000411,
 -0.00002830,0.00001590,0.00004176,-0.00000434,0.00000981,-0.00000450,0
 .00040455,0.00003218,0.00001371,-0.03921658,0.14155850,0.23573210,0.00
 011434,0.00014762,-0.00015243,0.00045490,-0.00071750,-0.00013567,-0.00
 064158,0.00080491,0.00030802,0.00116815,0.00108468,-0.00099248,-0.0038
 0687,0.00036519,-0.00126956,-0.00145507,-0.00411086,0.00049244,-0.0009
 4733,0.00242060,0.00081776,0.00706153,-0.00787522,0.02034595,-0.053255
 52,0.02115945,-0.03686337,-0.00123972,-0.00218587,-0.00061182,-0.00001
 063,-0.00035500,-0.00011385,-0.00055899,0.00010221,-0.00000372,-0.0000
 4259,0.00003649,0.00005448,0.00000490,0.00000499,0.00007808,-0.0000403
 6,0.00027053,-0.00019040,-0.00007438,-0.00151874,0.00354952,0.05374570
 ,0.00010202,-0.00002989,0.00022326,-0.00034082,0.00009248,0.00003443,0
 .00015982,-0.00026008,0.00021131,-0.00033683,-0.00083143,-0.00079010,0
 .00155743,0.00011143,-0.00136674,-0.00016150,0.00164459,0.00047186,0.0
 0060205,-0.00131206,-0.00092091,0.00351064,-0.01819382,0.02049780,0.02
 399993,-0.13034603,0.13398022,-0.00322941,-0.00289876,-0.00011062,-0.0
 0034496,0.00032600,-0.00011529,0.00038323,-0.00002729,-0.00004604,0.00
 003553,-0.00000059,-0.00002259,0.00001684,0.00000031,0.00005418,0.0003
 4264,0.00006330,-0.00019613,-0.00152701,0.01014449,-0.01545676,-0.0249
 8500,0.14721591,-0.00062920,-0.00047575,-0.00024145,0.00025221,0.00041
 545,-0.00004489,0.00008767,-0.00007512,0.00001095,0.00003642,0.0002070
 2,0.00013213,-0.00029995,0.00022289,0.00072476,0.00074850,0.00127828,0
 .00008790,-0.00116618,-0.00048459,0.00037570,0.00110603,-0.00196437,0.
 00145068,-0.03591330,0.13260403,-0.21749580,0.00013684,-0.00207361,-0.
 00088995,0.00001414,-0.00027304,-0.00009598,-0.00028392,-0.00007503,0.
 00000406,0.00002832,-0.00001594,0.00004173,0.00000434,-0.00000981,-0.0
 0000450,-0.00040446,-0.00003216,0.00001400,-0.00356362,0.01546999,-0.0
 2080196,0.03932205,-0.14158134,0.23558033,-0.00005936,0.00001717,-0.00
 000011,0.00012350,0.00002824,0.00000005,-0.00003598,-0.00038447,-0.000
 00012,-0.00084282,0.00096078,0.00000044,0.00028335,-0.00334851,0.00000
 023,0.00041777,-0.00000877,-0.00000009,-0.00015345,0.00043907,0.000000
 36,-0.02327016,0.00705354,0.00000756,-0.29739815,0.09037154,0.00009139
 ,0.00253552,0.00293274,-0.00000073,0.00056043,-0.00010184,-0.00000018,
 -0.00007431,-0.00000195,0.,-0.00000463,0.00000525,0.,-0.00008566,0.000
 00276,-0.00000003,-0.00004384,-0.00017626,0.00000003,-0.00104502,-0.00
 006775,-0.00047400,-0.00105846,-0.00006416,0.00047553,0.32007976,0.000
 38539,0.00042632,0.00000010,0.00008678,-0.00043600,-0.00000003,-0.0003
 0034,-0.00031324,0.00000007,-0.00111162,0.00085890,-0.00000003,-0.0012
 8639,-0.00479486,-0.00000083,-0.00040589,-0.00176515,-0.00000011,0.001
 94197,0.00016217,-0.00000060,-0.03053942,0.00841362,0.00001127,0.09850
 451,-0.08484570,-0.00003451,-0.00045856,0.00071665,0.00000021,0.000241
 82,-0.00000067,-0.00000014,-0.00003530,0.00007916,0.,-0.00005267,0.000
 01796,0.,-0.00015228,0.00002272,0.,0.00037454,0.00012908,-0.00000009,0
 .01547439,-0.00502635,0.00295842,0.01548062,-0.00502714,-0.00297078,-0
 .09765738,0.09147794,0.00000003,0.00000006,-0.00022841,-0.00000007,0.0
 0000006,0.00005229,0.00000007,0.00000007,-0.00023229,0.00000003,-0.000
 00068,0.00085769,0.00000053,0.00000013,0.00191074,-0.00000004,0.000000
 31,-0.00034802,-0.00000006,-0.00000054,0.00099030,-0.00000024,-0.00000
 180,-0.00228668,0.00009289,-0.00003115,-0.04843754,-0.00000080,-0.0000
 0017,-0.00086111,-0.00000031,0.00000011,-0.00009846,0.00000007,0.,-0.0
 0000043,0.,0.,0.00002250,0.00000002,0.,-0.00006806,0.00000008,0.000000
 09,0.00009024,0.02376554,-0.00646873,0.00174797,-0.02375762,0.00646547
 ,0.00176394,-0.00010002,0.00003676,0.04529735,-0.00329440,-0.00281683,
 -0.00000010,0.00133631,0.00415746,0.00000075,0.00351569,-0.00399692,0.
 00000135,-0.00870363,0.02628947,0.00000148,-0.01314332,0.00095161,0.00
 000117,0.00391551,-0.00356099,-0.00000085,-0.00069038,-0.00030646,-0.0
 0000007,0.03628260,0.00969501,-0.00000631,-0.00244585,0.00469436,0.000
 00230,-0.21034584,-0.19556785,0.00001976,0.00364269,-0.00549369,0.0000
 1330,-0.00114409,-0.00092496,-0.00000031,-0.00014976,-0.00007850,0.,-0
 .00046905,-0.00023332,0.00000002,0.00008850,-0.00001902,-0.00000008,0.
 00049271,0.00039603,-0.00002422,0.00049306,0.00039595,0.00002379,-0.00
 002551,-0.00055917,-0.00000009,0.18575897,-0.00267579,-0.00151315,-0.0
 0000023,0.00242961,0.00250868,0.00000072,0.00138340,-0.00316317,-0.000
 00007,0.00535963,0.01721617,0.00000012,-0.00985761,0.00187339,0.000001
 86,0.00222020,-0.00466757,-0.00000045,-0.00012436,0.00118754,0.0000001
 8,-0.00914665,-0.04677237,-0.00000225,0.00282239,-0.00012494,-0.000001
 95,-0.16674033,-0.26143606,0.00001178,0.00533434,-0.01580268,-0.000001
 34,-0.00202595,-0.00064367,-0.00000017,-0.00021890,-0.00004811,-0.0000
 0001,-0.00043041,-0.00007867,0.00000004,0.00009236,-0.00019195,-0.0000
 0010,-0.00026260,-0.00060642,0.00023713,-0.00026245,-0.00060596,-0.000
 23726,0.00001972,-0.00010833,0.00000006,0.17266785,0.31423310,0.000000
 19,0.00000032,0.00020784,-0.00000027,-0.00000017,0.00021533,-0.0000002
 8,0.00000029,0.00050358,-0.00000059,-0.00000139,0.00022318,0.00000109,
 0.00000001,-0.00286452,-0.00000059,0.00000045,-0.00099100,0.00000021,0
 .00000002,-0.00016992,-0.00000862,-0.00000622,-0.00077496,0.00000377,-
 0.00000210,0.01144921,0.00002294,0.00001780,-0.02674879,0.00001000,-0.
 00000711,-0.00269408,0.00000022,0.00000015,-0.00010239,0.,0.,0.0001154
 6,0.00000015,0.00000002,-0.00000003,-0.00000003,0.,0.00009761,0.000959
 90,0.00141842,-0.00067916,-0.00096082,-0.00141764,-0.00067891,-0.00000
 034,0.00000024,-0.00022460,-0.00002104,-0.00000758,0.02422821,0.000534
 85,0.00028330,0.00000047,-0.00061101,-0.00128080,-0.00000014,0.0002771
 7,0.00499662,-0.00000042,0.01753994,0.01881152,0.00002499,-0.00032101,
 0.00410646,-0.00000056,0.00021104,0.00098370,-0.00000061,-0.00030396,0
 .00003646,-0.00000016,-0.00253352,0.00212351,0.00000098,0.00011236,-0.
 00017444,-0.00000054,-0.00336389,-0.00356190,0.00000215,-0.23788755,-0
 .25253326,-0.00032446,-0.00021764,-0.00003260,0.00000012,-0.00008666,-
 0.00013255,-0.00000027,-0.00143032,-0.00088656,0.00000083,0.00003902,0
 .00006380,-0.00000006,0.00003242,-0.00007495,0.00000195,0.00003249,-0.
 00007488,-0.00000193,0.00007924,0.00004520,0.,0.00512092,-0.00066530,-
 0.00000588,0.22292154,0.00115322,0.00115854,-0.00000026,0.00057787,-0.
 00292268,0.00000282,-0.00315007,0.00569200,0.00000218,-0.02233846,-0.0
 3464659,-0.00002815,0.00620524,-0.00142969,-0.00000445,-0.00304515,-0.
 00058688,0.00000094,0.00091611,0.00042853,0.00000023,-0.00080385,-0.00
 056542,0.00000073,0.00009494,0.00043832,0.00000016,0.00322751,0.002890
 68,-0.00000216,-0.20520716,-0.32560417,-0.00035309,-0.00127435,0.00063
 048,-0.00000031,0.00009543,0.00006301,-0.00000018,0.00141055,0.0002100
 2,-0.00000279,-0.00007447,-0.00029939,-0.00000008,0.00006065,-0.000026
 98,-0.00004467,0.00006068,-0.00002706,0.00004460,-0.00001971,0.0000175
 3,-0.00000001,-0.00600195,-0.00156718,0.00000455,0.22770655,0.35605226
 ,-0.00000034,-0.00000070,-0.00005946,-0.00000055,0.00000117,-0.0009163
 0,0.00000067,0.00000209,-0.00184730,-0.00000136,0.00002176,-0.00288062
 ,-0.00000638,0.00000401,0.00321475,0.00000237,0.00000051,0.00131293,-0
 .00000027,0.00000143,0.00000450,0.00000167,-0.00000272,-0.00076571,-0.
 00000017,-0.00000027,-0.00049672,0.00000861,0.00000538,0.00104576,-0.0
 0029795,-0.00041189,-0.00312955,-0.00000076,0.00000048,0.00016102,-0.0
 0000001,0.00000012,0.00005494,0.00000172,-0.00000111,0.00095636,0.0000
 0015,0.00000019,0.00003085,-0.00005171,-0.00009626,0.00003863,0.000051
 43,0.00009647,0.00003865,0.00000003,0.00000003,0.00003542,-0.00001089,
 -0.00000050,-0.00116768,0.00030356,0.00037989,0.00424608,-0.00444417,0
 .00388932,0.00000054,-0.02854571,-0.04407179,-0.00000556,0.00435977,-0
 .00113054,-0.00000012,-0.00211139,-0.00017559,0.00000018,0.00178221,0.
 00037554,-0.00000020,-0.00087185,-0.00223124,-0.00000040,-0.00018209,0
 .00074381,0.00000011,-0.00167222,0.00054553,0.00000028,0.00011432,0.00
 024641,0.00000010,0.00061463,-0.00064175,-0.00000016,0.00112171,-0.000
 95150,0.00000003,-0.13450706,-0.16045474,-0.00002093,0.00006150,0.0000
 4314,0.00000004,-0.00044302,0.00180295,-0.00000023,0.00001533,-0.00010
 165,-0.00000002,0.00005644,-0.00004146,-0.00002678,0.00005644,-0.00004
 149,0.00002671,0.00001779,0.00002380,-0.00000001,-0.00023515,0.0000808
 6,0.00000001,-0.00014541,0.00040642,0.00000019,0.16495791,0.00310823,0
 .00225415,-0.00000027,0.00534506,0.00450439,0.00000103,0.00545383,0.00
 235272,0.00000005,-0.00088813,-0.00094826,0.00000015,0.00182233,-0.000
 17017,-0.00000029,-0.00191474,0.00063912,-0.00000012,0.00028445,0.0001
 3401,0.00000013,-0.00182068,0.00041074,0.00000028,0.00001179,0.0002627
 5,0.00000013,0.00049293,-0.00101165,-0.00000018,0.00001916,-0.00036526
 ,0.00000005,-0.21427155,-0.42265809,-0.00005297,0.00021937,0.00034177,
 0.00000017,-0.00028049,-0.00079430,0.00000031,0.00001716,-0.00010205,-
 0.00000003,0.00007266,-0.00003837,-0.00002663,0.00007266,-0.00003840,0
 .00002656,-0.00000001,-0.00000463,0.,0.00031192,0.00031135,-0.00000005
 ,0.00026010,0.00009468,-0.00000010,0.20168397,0.41482551,0.00000005,-0
 .00000050,0.00459095,0.00000129,0.00000135,-0.00410973,0.00000044,0.,-
 0.00221494,0.00000004,-0.00000022,-0.00105725,0.00000024,0.00000008,-0
 .00008206,-0.00000002,-0.00000038,0.00281171,0.00000006,0.00000021,-0.
 00098545,-0.00000021,0.00000005,0.00004027,-0.00000003,0.00000005,-0.0
 0014019,0.00000008,-0.00000013,0.00003746,0.00000006,0.00000011,0.0001
 7107,-0.00002807,-0.00005279,-0.00738245,0.00000002,0.00000020,-0.0007
 4218,-0.00000021,0.00000013,0.00086969,0.,-0.00000005,0.00018796,-0.00
 003201,0.00001082,0.00002863,0.00003204,-0.00001084,0.00002862,0.,0.,0
 .00001719,0.00000005,0.00000004,0.00005563,-0.00000003,0.00000005,0.00
 012344,0.00002622,0.00005181,0.00775165\\-0.00004274,0.00000544,0.0000
 0017,-0.00003647,0.00004076,0.00000013,-0.00004546,-0.00003470,-0.0000
 0101,0.00001322,0.00000491,0.00000312,0.00008002,-0.00004336,0.0000007
 9,0.00003451,0.00003565,0.00000015,0.00006864,-0.00002400,-0.00000066,
 -0.00004574,0.00004934,-0.00000043,-0.00002478,-0.00002102,0.00000108,
 -0.00005908,-0.00011427,0.00000014,0.00004886,-0.00002421,-0.00000852,
 -0.00000354,-0.00002598,-0.00000009,0.00000589,-0.00000847,-0.00000010
 ,0.00000682,0.00001153,-0.00000090,0.00001342,-0.00002535,0.00000016,-
 0.00000231,0.00002746,-0.00000140,-0.00000238,0.00002701,0.00000115,-0
 .00001158,0.00001547,0.00000009,0.00001537,0.00006980,0.00000015,-0.00
 000213,0.00001769,0.00000580,-0.00001054,0.00001629,0.00000019\\\@


 Other things may change us, but we start and end with family.
 -- Anthony Brandt
 Job cpu time:       0 days  0 hours 38 minutes  5.5 seconds.
 File lengths (MBytes):  RWF=    167 Int=      0 D2E=      0 Chk=      7 Scr=      1
 Normal termination of Gaussian 09 at Sun Dec 15 21:21:26 2024.
