 Entering Gaussian System, Link 0=g09
 Input=camb3lypTHAPgd3.gjf
 Output=camb3lypTHAPgd3.log
 Initial command:
 /home/phzd/g09E/g09/l1.exe "/home/phzd/g09E/scratch/Gau-88455.inp" -scrdir="/home/phzd/g09E/scratch/"
 Default is to use a total of  18 processors:
                               18 via shared-memory
                                1 via Linda
 Entering Link 1 = /home/phzd/g09E/g09/l1.exe PID=     88457.
  
 Copyright (c) 1988,1990,1992,1993,1995,1998,2003,2009,2015,
            Gaussian, Inc.  All Rights Reserved.
  
 This is part of the Gaussian(R) 09 program.  It is based on
 the Gaussian(R) 03 system (copyright 2003, Gaussian, Inc.),
 the Gaussian(R) 98 system (copyright 1998, Gaussian, Inc.),
 the Gaussian(R) 94 system (copyright 1995, Gaussian, Inc.),
 the Gaussian 92(TM) system (copyright 1992, Gaussian, Inc.),
 the Gaussian 90(TM) system (copyright 1990, Gaussian, Inc.),
 the Gaussian 88(TM) system (copyright 1988, Gaussian, Inc.),
 the Gaussian 86(TM) system (copyright 1986, Carnegie Mellon
 University), and the Gaussian 82(TM) system (copyright 1983,
 Carnegie Mellon University). Gaussian is a federally registered
 trademark of Gaussian, Inc.
  
 This software contains proprietary and confidential information,
 including trade secrets, belonging to Gaussian, Inc.
  
 This software is provided under written license and may be
 used, copied, transmitted, or stored only in accord with that
 written license.
  
 The following legend is applicable only to US Government
 contracts under FAR:
  
                    RESTRICTED RIGHTS LEGEND
  
 Use, reproduction and disclosure by the US Government is
 subject to restrictions as set forth in subparagraphs (a)
 and (c) of the Commercial Computer Software - Restricted
 Rights clause in FAR 52.227-19.
  
 Gaussian, Inc.
 340 Quinnipiac St., Bldg. 40, Wallingford CT 06492
  
  
 ---------------------------------------------------------------
 Warning -- This program may not be used in any manner that
 competes with the business of Gaussian, Inc. or will provide
 assistance to any competitor of Gaussian, Inc.  The licensee
 of this program is prohibited from giving any competitor of
 Gaussian, Inc. access to this program.  By using this program,
 the user acknowledges that Gaussian, Inc. is engaged in the
 business of creating and licensing software in the field of
 computational chemistry and represents and warrants to the
 licensee that it is not a competitor of Gaussian, Inc. and that
 it will not use this program in any manner prohibited above.
 ---------------------------------------------------------------
  

 Cite this work as:
 Gaussian 09, Revision E.01,
 M. J. Frisch, G. W. Trucks, H. B. Schlegel, G. E. Scuseria, 
 M. A. Robb, J. R. Cheeseman, G. Scalmani, V. Barone, B. Mennucci, 
 G. A. Petersson, H. Nakatsuji, M. Caricato, X. Li, H. P. Hratchian, 
 A. F. Izmaylov, J. Bloino, G. Zheng, J. L. Sonnenberg, M. Hada, 
 M. Ehara, K. Toyota, R. Fukuda, J. Hasegawa, M. Ishida, T. Nakajima, 
 Y. Honda, O. Kitao, H. Nakai, T. Vreven, J. A. Montgomery, Jr., 
 J. E. Peralta, F. Ogliaro, M. Bearpark, J. J. Heyd, E. Brothers, 
 K. N. Kudin, V. N. Staroverov, T. Keith, R. Kobayashi, J. Normand, 
 K. Raghavachari, A. Rendell, J. C. Burant, S. S. Iyengar, J. Tomasi, 
 M. Cossi, N. Rega, J. M. Millam, M. Klene, J. E. Knox, J. B. Cross, 
 V. Bakken, C. Adamo, J. Jaramillo, R. Gomperts, R. E. Stratmann, 
 O. Yazyev, A. J. Austin, R. Cammi, C. Pomelli, J. W. Ochterski, 
 R. L. Martin, K. Morokuma, V. G. Zakrzewski, G. A. Voth, 
 P. Salvador, J. J. Dannenberg, S. Dapprich, A. D. Daniels, 
 O. Farkas, J. B. Foresman, J. V. Ortiz, J. Cioslowski, 
 and D. J. Fox, Gaussian, Inc., Wallingford CT, 2013.
 
 ******************************************
 Gaussian 09:  ES64L-G09RevE.01 30-Nov-2015
                20-Jun-2024 
 ******************************************
 %chk=camb3lypTHAPgd3.chk
 --------------------------------
 # opt freq cam-b3lyp/6-31+g(d,p)
 --------------------------------
 1/14=-1,18=20,19=15,26=3,38=1/1,3;
 2/9=110,12=2,17=6,18=5,40=1/2;
 3/5=1,6=6,7=111,11=2,16=1,25=1,30=1,71=1,74=-40/1,2,3;
 4//1;
 5/5=2,38=5/2;
 6/7=2,8=2,9=2,10=2,28=1/1;
 7//1,2,3,16;
 1/14=-1,18=20,19=15,26=3/3(2);
 2/9=110/2;
 99//99;
 2/9=110/2;
 3/5=1,6=6,7=111,11=2,16=1,25=1,30=1,71=1,74=-40/1,2,3;
 4/5=5,16=3,69=1/1;
 5/5=2,38=5/2;
 7//1,2,3,16;
 1/14=-1,18=20,19=15,26=3/3(-5);
 2/9=110/2;
 6/7=2,8=2,9=2,10=2,19=2,28=1/1;
 99/9=1/99;
 ----------
 [No Title]
 ----------
 Symbolic Z-matrix:
 Charge =  0 Multiplicity = 1
 C                    -1.5302   -1.25088   0.00001 
 C                    -2.26422  -0.05642  -0.00015 
 C                    -1.62758   1.17923  -0.00005 
 C                    -0.22857   1.23092   0.00019 
 C                     0.56913   0.03567   0.00025 
 C                    -0.14286  -1.19791   0.00025 
 O                     0.57743  -2.35911   0.00055 
 C                     2.03116   0.16689  -0.00011 
 C                     2.96442  -1.02109  -0.00067 
 O                     2.55254   1.30405   0.00002 
 O                     0.33578   2.44041   0.00028 
 O                    -3.62006  -0.17952  -0.00043 
 H                    -2.05847  -2.19926   0.0001 
 H                    -2.18132   2.11272  -0.00022 
 H                    -0.02934  -3.11156   0.00051 
 H                     2.79567  -1.65328  -0.8768 
 H                     3.98683  -0.64097  -0.001 
 H                     2.79625  -1.65327   0.8756 
 H                     1.3296    2.28556   0.00018 
 H                    -4.03245   0.69503  -0.00009 
 

 GradGradGradGradGradGradGradGradGradGradGradGradGradGradGradGradGradGrad
 Berny optimization.
 Initialization pass.
                           ----------------------------
                           !    Initial Parameters    !
                           ! (Angstroms and Degrees)  !
 --------------------------                            --------------------------
 ! Name  Definition              Value          Derivative Info.                !
 --------------------------------------------------------------------------------
 ! R1    R(1,2)                  1.402          estimate D2E/DX2                !
 ! R2    R(1,6)                  1.3884         estimate D2E/DX2                !
 ! R3    R(1,13)                 1.0856         estimate D2E/DX2                !
 ! R4    R(2,3)                  1.39           estimate D2E/DX2                !
 ! R5    R(2,12)                 1.3614         estimate D2E/DX2                !
 ! R6    R(3,4)                  1.4            estimate D2E/DX2                !
 ! R7    R(3,14)                 1.0854         estimate D2E/DX2                !
 ! R8    R(4,5)                  1.437          estimate D2E/DX2                !
 ! R9    R(4,11)                 1.3347         estimate D2E/DX2                !
 ! R10   R(5,6)                  1.4243         estimate D2E/DX2                !
 ! R11   R(5,8)                  1.4679         estimate D2E/DX2                !
 ! R12   R(6,7)                  1.3665         estimate D2E/DX2                !
 ! R13   R(7,15)                 0.9666         estimate D2E/DX2                !
 ! R14   R(8,9)                  1.5107         estimate D2E/DX2                !
 ! R15   R(8,10)                 1.251          estimate D2E/DX2                !
 ! R16   R(9,16)                 1.0935         estimate D2E/DX2                !
 ! R17   R(9,17)                 1.0908         estimate D2E/DX2                !
 ! R18   R(9,18)                 1.0935         estimate D2E/DX2                !
 ! R19   R(11,19)                1.0058         estimate D2E/DX2                !
 ! R20   R(12,20)                0.9669         estimate D2E/DX2                !
 ! A1    A(2,1,6)              119.3849         estimate D2E/DX2                !
 ! A2    A(2,1,13)             119.3097         estimate D2E/DX2                !
 ! A3    A(6,1,13)             121.3053         estimate D2E/DX2                !
 ! A4    A(1,2,3)              121.1694         estimate D2E/DX2                !
 ! A5    A(1,2,12)             116.3837         estimate D2E/DX2                !
 ! A6    A(3,2,12)             122.4469         estimate D2E/DX2                !
 ! A7    A(2,3,4)              119.3751         estimate D2E/DX2                !
 ! A8    A(2,3,14)             122.0645         estimate D2E/DX2                !
 ! A9    A(4,3,14)             118.5604         estimate D2E/DX2                !
 ! A10   A(3,4,5)              121.603          estimate D2E/DX2                !
 ! A11   A(3,4,11)             117.13           estimate D2E/DX2                !
 ! A12   A(5,4,11)             121.267          estimate D2E/DX2                !
 ! A13   A(4,5,6)              116.2887         estimate D2E/DX2                !
 ! A14   A(4,5,8)              118.5904         estimate D2E/DX2                !
 ! A15   A(6,5,8)              125.1209         estimate D2E/DX2                !
 ! A16   A(1,6,5)              122.1788         estimate D2E/DX2                !
 ! A17   A(1,6,7)              119.6244         estimate D2E/DX2                !
 ! A18   A(5,6,7)              118.1968         estimate D2E/DX2                !
 ! A19   A(6,7,15)             109.3066         estimate D2E/DX2                !
 ! A20   A(5,8,9)              123.024          estimate D2E/DX2                !
 ! A21   A(5,8,10)             119.7595         estimate D2E/DX2                !
 ! A22   A(9,8,10)             117.2166         estimate D2E/DX2                !
 ! A23   A(8,9,16)             111.0749         estimate D2E/DX2                !
 ! A24   A(8,9,17)             107.758          estimate D2E/DX2                !
 ! A25   A(8,9,18)             111.0578         estimate D2E/DX2                !
 ! A26   A(16,9,17)            110.2355         estimate D2E/DX2                !
 ! A27   A(16,9,18)            106.5037         estimate D2E/DX2                !
 ! A28   A(17,9,18)            110.2339         estimate D2E/DX2                !
 ! A29   A(4,11,19)            106.1578         estimate D2E/DX2                !
 ! A30   A(2,12,20)            110.0582         estimate D2E/DX2                !
 ! D1    D(6,1,2,3)             -0.0008         estimate D2E/DX2                !
 ! D2    D(6,1,2,12)           179.9975         estimate D2E/DX2                !
 ! D3    D(13,1,2,3)           179.9898         estimate D2E/DX2                !
 ! D4    D(13,1,2,12)           -0.012          estimate D2E/DX2                !
 ! D5    D(2,1,6,5)             -0.0043         estimate D2E/DX2                !
 ! D6    D(2,1,6,7)            179.9932         estimate D2E/DX2                !
 ! D7    D(13,1,6,5)          -179.9946         estimate D2E/DX2                !
 ! D8    D(13,1,6,7)             0.0029         estimate D2E/DX2                !
 ! D9    D(1,2,3,4)              0.0008         estimate D2E/DX2                !
 ! D10   D(1,2,3,14)           179.9969         estimate D2E/DX2                !
 ! D11   D(12,2,3,4)          -179.9974         estimate D2E/DX2                !
 ! D12   D(12,2,3,14)           -0.0013         estimate D2E/DX2                !
 ! D13   D(1,2,12,20)          179.9724         estimate D2E/DX2                !
 ! D14   D(3,2,12,20)           -0.0294         estimate D2E/DX2                !
 ! D15   D(2,3,4,5)              0.0043         estimate D2E/DX2                !
 ! D16   D(2,3,4,11)          -179.9995         estimate D2E/DX2                !
 ! D17   D(14,3,4,5)          -179.992          estimate D2E/DX2                !
 ! D18   D(14,3,4,11)            0.0042         estimate D2E/DX2                !
 ! D19   D(3,4,5,6)             -0.0088         estimate D2E/DX2                !
 ! D20   D(3,4,5,8)            179.9724         estimate D2E/DX2                !
 ! D21   D(11,4,5,6)           179.9951         estimate D2E/DX2                !
 ! D22   D(11,4,5,8)            -0.0238         estimate D2E/DX2                !
 ! D23   D(3,4,11,19)         -179.9834         estimate D2E/DX2                !
 ! D24   D(5,4,11,19)            0.0129         estimate D2E/DX2                !
 ! D25   D(4,5,6,1)              0.0088         estimate D2E/DX2                !
 ! D26   D(4,5,6,7)           -179.9887         estimate D2E/DX2                !
 ! D27   D(8,5,6,1)           -179.971          estimate D2E/DX2                !
 ! D28   D(8,5,6,7)              0.0315         estimate D2E/DX2                !
 ! D29   D(4,5,8,9)           -179.9734         estimate D2E/DX2                !
 ! D30   D(4,5,8,10)             0.0257         estimate D2E/DX2                !
 ! D31   D(6,5,8,9)              0.006          estimate D2E/DX2                !
 ! D32   D(6,5,8,10)          -179.9949         estimate D2E/DX2                !
 ! D33   D(1,6,7,15)             0.0026         estimate D2E/DX2                !
 ! D34   D(5,6,7,15)          -179.9998         estimate D2E/DX2                !
 ! D35   D(5,8,9,16)            59.1523         estimate D2E/DX2                !
 ! D36   D(5,8,9,17)           179.9918         estimate D2E/DX2                !
 ! D37   D(5,8,9,18)           -59.1809         estimate D2E/DX2                !
 ! D38   D(10,8,9,16)         -120.8468         estimate D2E/DX2                !
 ! D39   D(10,8,9,17)           -0.0073         estimate D2E/DX2                !
 ! D40   D(10,8,9,18)          120.8199         estimate D2E/DX2                !
 --------------------------------------------------------------------------------
 Trust Radius=3.00D-01 FncErr=1.00D-07 GrdErr=1.00D-06
 Number of steps in this run=    100 maximum allowed number of steps=    120.
 GradGradGradGradGradGradGradGradGradGradGradGradGradGradGradGradGradGrad

                          Input orientation:                          
 ---------------------------------------------------------------------
 Center     Atomic      Atomic             Coordinates (Angstroms)
 Number     Number       Type             X           Y           Z
 ---------------------------------------------------------------------
      1          6           0       -1.530204   -1.250881    0.000011
      2          6           0       -2.264222   -0.056422   -0.000148
      3          6           0       -1.627575    1.179226   -0.000053
      4          6           0       -0.228570    1.230917    0.000190
      5          6           0        0.569131    0.035674    0.000253
      6          6           0       -0.142857   -1.197910    0.000251
      7          8           0        0.577425   -2.359109    0.000547
      8          6           0        2.031163    0.166893   -0.000110
      9          6           0        2.964422   -1.021090   -0.000668
     10          8           0        2.552536    1.304052    0.000023
     11          8           0        0.335783    2.440405    0.000284
     12          8           0       -3.620056   -0.179523   -0.000434
     13          1           0       -2.058471   -2.199259    0.000100
     14          1           0       -2.181322    2.112716   -0.000223
     15          1           0       -0.029341   -3.111556    0.000506
     16          1           0        2.795668   -1.653281   -0.876796
     17          1           0        3.986827   -0.640972   -0.000996
     18          1           0        2.796249   -1.653269    0.875604
     19          1           0        1.329603    2.285556    0.000177
     20          1           0       -4.032449    0.695030   -0.000086
 ---------------------------------------------------------------------
                    Distance matrix (angstroms):
                    1          2          3          4          5
     1  C    0.000000
     2  C    1.401968   0.000000
     3  C    2.432057   1.390016   0.000000
     4  C    2.802423   2.408552   1.399960   0.000000
     5  C    2.462200   2.834849   2.476536   1.436987   0.000000
     6  C    1.388358   2.408980   2.802706   2.430339   1.424309
     7  O    2.381233   3.657503   4.169153   3.679391   2.394797
     8  C    3.833199   4.301186   3.796206   2.497707   1.467909
     9  C    4.500496   5.316888   5.091937   3.907267   2.618047
    10  O    4.816269   5.005202   4.181974   2.782067   2.354289
    11  O    4.136121   3.604743   2.333527   1.334674   2.416026
    12  O    2.348465   1.361411   2.411676   3.673080   4.194711
    13  H    1.085581   2.152692   3.405853   3.887756   3.449524
    14  H    3.426038   2.170722   1.085375   2.142618   3.446606
    15  H    2.390544   3.785305   4.578773   4.347041   3.203627
    16  H    4.432142   5.377821   5.325115   4.270096   2.929036
    17  H    5.550641   6.278321   5.902087   4.612325   3.484035
    18  H    4.432468   5.378218   5.325413   4.270177   2.928963
    19  H    4.548064   4.289573   3.157351   1.881533   2.374929
    20  H    3.169826   1.921277   2.453134   3.841441   4.648579
                    6          7          8          9         10
     6  C    0.000000
     7  O    1.366451   0.000000
     8  C    2.566915   2.914454   0.000000
     9  C    3.112306   2.736430   1.510720   0.000000
    10  O    3.677629   4.161708   1.250984   2.361342   0.000000
    11  O    3.669664   4.805593   2.836048   4.346457   2.491042
    12  O    3.623262   4.729635   5.661827   6.638041   6.348377
    13  H    2.161545   2.640739   4.724805   5.159219   5.790904
    14  H    3.887877   5.254322   4.640179   6.024900   4.802432
    15  H    1.917010   0.966613   3.872196   3.651392   5.115045
    16  H    3.100242   2.487675   2.160111   1.093501   3.094147
    17  H    4.167070   3.817855   2.115956   1.090780   2.416673
    18  H    3.100313   2.487391   2.159912   1.093520   3.093830
    19  H    3.781888   4.705176   2.231797   3.688705   1.568093
    20  H    4.325754   5.529801   6.086569   7.204254   6.613088
                   11         12         13         14         15
    11  O    0.000000
    12  O    4.744753   0.000000
    13  H    5.221009   2.553014   0.000000
    14  H    2.538346   2.706347   4.313725   0.000000
    15  H    5.563954   4.635736   2.224782   5.650136   0.000000
    16  H    4.855777   6.640895   4.962832   6.302503   3.298015
    17  H    4.777553   7.620866   6.242907   6.754914   4.715230
    18  H    4.855743   6.641411   4.963156   6.302851   3.297932
    19  H    1.005811   5.529533   5.620730   3.515177   5.565568
    20  H    4.704018   0.966908   3.503355   2.331631   5.524036
                   16         17         18         19         20
    16  H    0.000000
    17  H    1.791830   0.000000
    18  H    1.752400   1.791828   0.000000
    19  H    4.293351   3.952899   4.293223   0.000000
    20  H    7.273676   8.129803   7.274095   5.592975   0.000000
 Stoichiometry    C8H8O4
 Framework group  C1[X(C8H8O4)]
 Deg. of freedom    54
 Full point group                 C1      NOp   1
 Largest Abelian subgroup         C1      NOp   1
 Largest concise Abelian subgroup C1      NOp   1
                         Standard orientation:                         
 ---------------------------------------------------------------------
 Center     Atomic      Atomic             Coordinates (Angstroms)
 Number     Number       Type             X           Y           Z
 ---------------------------------------------------------------------
      1          6           0       -1.530204    1.250881   -0.000011
      2          6           0       -2.264222    0.056422    0.000148
      3          6           0       -1.627575   -1.179226    0.000053
      4          6           0       -0.228570   -1.230917   -0.000190
      5          6           0        0.569131   -0.035674   -0.000253
      6          6           0       -0.142857    1.197910   -0.000251
      7          8           0        0.577425    2.359109   -0.000547
      8          6           0        2.031163   -0.166893    0.000110
      9          6           0        2.964422    1.021090    0.000668
     10          8           0        2.552536   -1.304052   -0.000023
     11          8           0        0.335783   -2.440405   -0.000284
     12          8           0       -3.620056    0.179523    0.000434
     13          1           0       -2.058471    2.199259   -0.000100
     14          1           0       -2.181322   -2.112716    0.000223
     15          1           0       -0.029341    3.111556   -0.000506
     16          1           0        2.795668    1.653281    0.876796
     17          1           0        3.986827    0.640972    0.000996
     18          1           0        2.796249    1.653269   -0.875604
     19          1           0        1.329603   -2.285556   -0.000177
     20          1           0       -4.032449   -0.695030    0.000086
 ---------------------------------------------------------------------
 Rotational constants (GHZ):      1.5426088      0.7622577      0.5117653
 Standard basis: 6-31+G(d,p) (6D, 7F)
 There are   268 symmetry adapted cartesian basis functions of A   symmetry.
 There are   268 symmetry adapted basis functions of A   symmetry.
   268 basis functions,   440 primitive gaussians,   268 cartesian basis functions
    44 alpha electrons       44 beta electrons
       nuclear repulsion energy       696.5717512618 Hartrees.
 NAtoms=   20 NActive=   20 NUniq=   20 SFac= 1.00D+00 NAtFMM=   60 NAOKFM=F Big=F
 Integral buffers will be    131072 words long.
 Raffenetti 2 integral format.
 Two-electron integral symmetry is turned on.
 One-electron integrals computed using PRISM.
 NBasis=   268 RedAO= T EigKep=  1.54D-06  NBF=   268
 NBsUse=   268 1.00D-06 EigRej= -1.00D+00 NBFU=   268
 ExpMin= 4.38D-02 ExpMax= 5.48D+03 ExpMxC= 8.25D+02 IAcc=2 IRadAn=         4 AccDes= 0.00D+00
 Harris functional with IExCor=20419 and IRadAn=       4 diagonalized for initial guess.
 HarFok:  IExCor=20419 AccDes= 0.00D+00 IRadAn=         4 IDoV= 1 UseB2=F ITyADJ=14
 ICtDFT=  3500011 ScaDFX=  1.000000  1.000000  1.000000  1.000000
 FoFCou: FMM=F IPFlag=           0 FMFlag=      100000 FMFlg1=           0
         NFxFlg=           0 DoJE=T BraDBF=F KetDBF=T FulRan=T
         wScrn=  0.000000 ICntrl=     500 IOpCl=  0 I1Cent=   200000004 NGrid=           0
         NMat0=    1 NMatS0=      1 NMatT0=    0 NMatD0=    1 NMtDS0=    0 NMtDT0=    0
 Petite list used in FoFCou.
 Requested convergence on RMS density matrix=1.00D-08 within 128 cycles.
 Requested convergence on MAX density matrix=1.00D-06.
 Requested convergence on             energy=1.00D-06.
 No special actions if energy rises.
 SCF Done:  E(RCAM-B3LYP) =  -610.345580544     A.U. after   15 cycles
            NFock= 15  Conv=0.76D-08     -V/T= 2.0091

 **********************************************************************

            Population analysis using the SCF density.

 **********************************************************************

 Orbital symmetries:
       Occupied  (A) (A) (A) (A) (A) (A) (A) (A) (A) (A) (A) (A)
                 (A) (A) (A) (A) (A) (A) (A) (A) (A) (A) (A) (A)
                 (A) (A) (A) (A) (A) (A) (A) (A) (A) (A) (A) (A)
                 (A) (A) (A) (A) (A) (A) (A) (A)
       Virtual   (A) (A) (A) (A) (A) (A) (A) (A) (A) (A) (A) (A)
                 (A) (A) (A) (A) (A) (A) (A) (A) (A) (A) (A) (A)
                 (A) (A) (A) (A) (A) (A) (A) (A) (A) (A) (A) (A)
                 (A) (A) (A) (A) (A) (A) (A) (A) (A) (A) (A) (A)
                 (A) (A) (A) (A) (A) (A) (A) (A) (A) (A) (A) (A)
                 (A) (A) (A) (A) (A) (A) (A) (A) (A) (A) (A) (A)
                 (A) (A) (A) (A) (A) (A) (A) (A) (A) (A) (A) (A)
                 (A) (A) (A) (A) (A) (A) (A) (A) (A) (A) (A) (A)
                 (A) (A) (A) (A) (A) (A) (A) (A) (A) (A) (A) (A)
                 (A) (A) (A) (A) (A) (A) (A) (A) (A) (A) (A) (A)
                 (A) (A) (A) (A) (A) (A) (A) (A) (A) (A) (A) (A)
                 (A) (A) (A) (A) (A) (A) (A) (A) (A) (A) (A) (A)
                 (A) (A) (A) (A) (A) (A) (A) (A) (A) (A) (A) (A)
                 (A) (A) (A) (A) (A) (A) (A) (A) (A) (A) (A) (A)
                 (A) (A) (A) (A) (A) (A) (A) (A) (A) (A) (A) (A)
                 (A) (A) (A) (A) (A) (A) (A) (A) (A) (A) (A) (A)
                 (A) (A) (A) (A) (A) (A) (A) (A) (A) (A) (A) (A)
                 (A) (A) (A) (A) (A) (A) (A) (A) (A) (A) (A) (A)
                 (A) (A) (A) (A) (A) (A) (A) (A)
 The electronic state is 1-A.
 Alpha  occ. eigenvalues --  -19.28840 -19.28539 -19.24941 -19.23082 -10.37415
 Alpha  occ. eigenvalues --  -10.36614 -10.36146 -10.35765 -10.28580 -10.27611
 Alpha  occ. eigenvalues --  -10.27080 -10.26390  -1.17714  -1.17201  -1.15911
 Alpha  occ. eigenvalues --   -1.12220  -0.94983  -0.86750  -0.84071  -0.81889
 Alpha  occ. eigenvalues --   -0.74024  -0.72036  -0.67616  -0.65808  -0.60042
 Alpha  occ. eigenvalues --   -0.59443  -0.58123  -0.55572  -0.53746  -0.51988
 Alpha  occ. eigenvalues --   -0.50831  -0.50636  -0.49016  -0.48630  -0.48526
 Alpha  occ. eigenvalues --   -0.47469  -0.45517  -0.43837  -0.43740  -0.42947
 Alpha  occ. eigenvalues --   -0.37323  -0.33462  -0.30152  -0.28940
 Alpha virt. eigenvalues --   -0.01689   0.01427   0.02173   0.03609   0.04440
 Alpha virt. eigenvalues --    0.05960   0.06410   0.06857   0.07309   0.07415
 Alpha virt. eigenvalues --    0.08704   0.09022   0.10365   0.10791   0.11512
 Alpha virt. eigenvalues --    0.12742   0.13123   0.13330   0.14790   0.15809
 Alpha virt. eigenvalues --    0.15989   0.16758   0.17341   0.18420   0.18550
 Alpha virt. eigenvalues --    0.18620   0.19261   0.20051   0.20663   0.20840
 Alpha virt. eigenvalues --    0.22421   0.22884   0.23747   0.24066   0.24307
 Alpha virt. eigenvalues --    0.24991   0.25997   0.26716   0.27478   0.27651
 Alpha virt. eigenvalues --    0.28238   0.29363   0.29966   0.30347   0.30780
 Alpha virt. eigenvalues --    0.31841   0.31920   0.32063   0.33609   0.33672
 Alpha virt. eigenvalues --    0.34740   0.34929   0.35707   0.36072   0.36832
 Alpha virt. eigenvalues --    0.37332   0.37600   0.38162   0.39591   0.41516
 Alpha virt. eigenvalues --    0.42439   0.43075   0.44639   0.45524   0.48099
 Alpha virt. eigenvalues --    0.49060   0.50637   0.51405   0.53903   0.54927
 Alpha virt. eigenvalues --    0.65273   0.68080   0.69611   0.71355   0.74084
 Alpha virt. eigenvalues --    0.75505   0.76004   0.76550   0.78221   0.79021
 Alpha virt. eigenvalues --    0.79305   0.80258   0.81336   0.82967   0.85995
 Alpha virt. eigenvalues --    0.88234   0.92044   0.92669   0.94384   0.96710
 Alpha virt. eigenvalues --    0.98301   0.99777   1.04741   1.05359   1.10014
 Alpha virt. eigenvalues --    1.10916   1.12473   1.13516   1.15928   1.16274
 Alpha virt. eigenvalues --    1.18981   1.22390   1.22706   1.23000   1.24886
 Alpha virt. eigenvalues --    1.26199   1.26921   1.27955   1.27995   1.29613
 Alpha virt. eigenvalues --    1.30253   1.30587   1.33483   1.33762   1.35139
 Alpha virt. eigenvalues --    1.35319   1.38953   1.40202   1.41913   1.42239
 Alpha virt. eigenvalues --    1.43693   1.44148   1.45249   1.45989   1.46900
 Alpha virt. eigenvalues --    1.47408   1.50315   1.52141   1.54535   1.64009
 Alpha virt. eigenvalues --    1.64750   1.65187   1.66309   1.68393   1.74775
 Alpha virt. eigenvalues --    1.77615   1.77860   1.80151   1.82242   1.86096
 Alpha virt. eigenvalues --    1.88959   1.90364   1.92878   1.93123   1.95257
 Alpha virt. eigenvalues --    1.96625   1.97007   1.97445   1.98075   2.00058
 Alpha virt. eigenvalues --    2.03452   2.05419   2.08223   2.09251   2.10089
 Alpha virt. eigenvalues --    2.10746   2.12566   2.15175   2.21245   2.24465
 Alpha virt. eigenvalues --    2.26949   2.27753   2.28890   2.33451   2.38842
 Alpha virt. eigenvalues --    2.39947   2.41143   2.44000   2.45433   2.48180
 Alpha virt. eigenvalues --    2.48828   2.50590   2.51783   2.56324   2.57152
 Alpha virt. eigenvalues --    2.57349   2.60500   2.60772   2.61863   2.62876
 Alpha virt. eigenvalues --    2.65021   2.71115   2.72560   2.73261   2.77012
 Alpha virt. eigenvalues --    2.78529   2.78739   2.80615   2.80770   2.81909
 Alpha virt. eigenvalues --    2.85853   2.90057   2.93804   2.95156   2.98752
 Alpha virt. eigenvalues --    3.05195   3.09268   3.13833   3.16388   3.21296
 Alpha virt. eigenvalues --    3.26679   3.27890   3.32131   3.38086   3.48486
 Alpha virt. eigenvalues --    3.50517   3.51049   3.55333   3.57601   3.60169
 Alpha virt. eigenvalues --    3.73181   3.83952   4.30171   4.31472   4.32853
 Alpha virt. eigenvalues --    4.40538   4.45592   4.51429   4.52785   4.58215
 Alpha virt. eigenvalues --    4.73402   4.81383   4.85877   4.97277
          Condensed to atoms (all electrons):
               1          2          3          4          5          6
     1  C   12.167137  -1.647905   0.471443  -2.731929  -0.747727  -3.887631
     2  C   -1.647905   7.003898  -1.022596   1.922467  -1.633811   2.441674
     3  C    0.471443  -1.022596  12.028014  -3.068567  -1.168836  -2.383810
     4  C   -2.731929   1.922467  -3.068567  14.341708  -3.222533   1.412306
     5  C   -0.747727  -1.633811  -1.168836  -3.222533  16.092990  -3.336878
     6  C   -3.887631   2.441674  -2.383810   1.412306  -3.336878  15.538744
     7  O    0.218155   0.010306  -0.006109   0.023990  -0.428347   0.175150
     8  C    1.634889  -0.669647   0.725948  -1.383770  -2.250076  -1.772051
     9  C   -0.301622   0.017137  -0.323214  -0.393520   0.420632  -0.108629
    10  O    0.010438  -0.005107  -0.046505  -0.185949  -0.098061  -0.076471
    11  O    0.024323   0.005675  -0.406908   0.155240   0.323657   0.035928
    12  O   -0.253370   0.145858  -0.001131   0.024363  -0.036878   0.098713
    13  H    0.279236   0.076008   0.063998  -0.042415   0.027219  -0.081723
    14  H   -0.007829  -0.090304   0.250424   0.118610   0.057531  -0.005417
    15  H   -0.117080   0.004942   0.001967   0.004635   0.162066  -0.058105
    16  H   -0.005789   0.001065  -0.004166  -0.012611   0.062859   0.012225
    17  H    0.000293   0.000178  -0.002747  -0.024172   0.027467   0.026047
    18  H   -0.005724   0.001065  -0.004182  -0.012629   0.062643   0.012173
    19  H    0.006875  -0.005188   0.175188   0.101272  -0.264836  -0.068460
    20  H    0.108368  -0.030694  -0.055501   0.000256   0.022155  -0.042314
               7          8          9         10         11         12
     1  C    0.218155   1.634889  -0.301622   0.010438   0.024323  -0.253370
     2  C    0.010306  -0.669647   0.017137  -0.005107   0.005675   0.145858
     3  C   -0.006109   0.725948  -0.323214  -0.046505  -0.406908  -0.001131
     4  C    0.023990  -1.383770  -0.393520  -0.185949   0.155240   0.024363
     5  C   -0.428347  -2.250076   0.420632  -0.098061   0.323657  -0.036878
     6  C    0.175150  -1.772051  -0.108629  -0.076471   0.035928   0.098713
     7  O    8.472780   0.003434  -0.088887   0.001466  -0.000662  -0.000981
     8  C    0.003434  10.704766  -1.676808   0.538883  -0.173819  -0.001566
     9  C   -0.088887  -1.676808   7.642281  -0.013339  -0.050776  -0.000620
    10  O    0.001466   0.538883  -0.013339   8.318910  -0.009613  -0.000025
    11  O   -0.000662  -0.173819  -0.050776  -0.009613   8.504546  -0.000846
    12  O   -0.000981  -0.001566  -0.000620  -0.000025  -0.000846   8.367938
    13  H   -0.016166   0.007209   0.000421   0.000018   0.000051  -0.007642
    14  H    0.000040   0.005049   0.000463   0.000119  -0.008025  -0.012156
    15  H    0.204016  -0.000344   0.010744   0.000020   0.000023  -0.000068
    16  H   -0.002785  -0.148309   0.451356   0.003807   0.000142   0.000001
    17  H    0.000173  -0.125017   0.465652  -0.007192   0.000107  -0.000000
    18  H   -0.002778  -0.148093   0.451360   0.003801   0.000141   0.000001
    19  H   -0.000021   0.051776   0.010013   0.073066   0.165185   0.000027
    20  H    0.000040   0.002452   0.000003   0.000001  -0.000005   0.215303
              13         14         15         16         17         18
     1  C    0.279236  -0.007829  -0.117080  -0.005789   0.000293  -0.005724
     2  C    0.076008  -0.090304   0.004942   0.001065   0.000178   0.001065
     3  C    0.063998   0.250424   0.001967  -0.004166  -0.002747  -0.004182
     4  C   -0.042415   0.118610   0.004635  -0.012611  -0.024172  -0.012629
     5  C    0.027219   0.057531   0.162066   0.062859   0.027467   0.062643
     6  C   -0.081723  -0.005417  -0.058105   0.012225   0.026047   0.012173
     7  O   -0.016166   0.000040   0.204016  -0.002785   0.000173  -0.002778
     8  C    0.007209   0.005049  -0.000344  -0.148309  -0.125017  -0.148093
     9  C    0.000421   0.000463   0.010744   0.451356   0.465652   0.451360
    10  O    0.000018   0.000119   0.000020   0.003807  -0.007192   0.003801
    11  O    0.000051  -0.008025   0.000023   0.000142   0.000107   0.000141
    12  O   -0.007642  -0.012156  -0.000068   0.000001  -0.000000   0.000001
    13  H    0.560547  -0.000117   0.007954  -0.000001  -0.000000  -0.000001
    14  H   -0.000117   0.554243  -0.000001   0.000000  -0.000000   0.000000
    15  H    0.007954  -0.000001   0.389870   0.000349  -0.000025   0.000350
    16  H   -0.000001   0.000000   0.000349   0.505535  -0.023627  -0.023567
    17  H   -0.000000  -0.000000  -0.000025  -0.023627   0.510380  -0.023624
    18  H   -0.000001   0.000000   0.000350  -0.023567  -0.023624   0.505535
    19  H    0.000000   0.000070   0.000000  -0.000054   0.000005  -0.000053
    20  H   -0.000002   0.005523   0.000000   0.000000  -0.000000   0.000000
              19         20
     1  C    0.006875   0.108368
     2  C   -0.005188  -0.030694
     3  C    0.175188  -0.055501
     4  C    0.101272   0.000256
     5  C   -0.264836   0.022155
     6  C   -0.068460  -0.042314
     7  O   -0.000021   0.000040
     8  C    0.051776   0.002452
     9  C    0.010013   0.000003
    10  O    0.073066   0.000001
    11  O    0.165185  -0.000005
    12  O    0.000027   0.215303
    13  H    0.000000  -0.000002
    14  H    0.000070   0.005523
    15  H    0.000000   0.000000
    16  H   -0.000054   0.000000
    17  H    0.000005  -0.000000
    18  H   -0.000053   0.000000
    19  H    0.311863   0.000000
    20  H    0.000000   0.405165
 Mulliken charges:
               1
     1  C    0.785451
     2  C   -0.525022
     3  C    0.777292
     4  C   -1.026751
     5  C    1.928763
     6  C   -1.931469
     7  O   -0.562815
     8  C    0.675096
     9  C   -0.512646
    10  O   -0.508267
    11  O   -0.564364
    12  O   -0.536921
    13  H    0.125406
    14  H    0.131779
    15  H    0.388688
    16  H    0.183569
    17  H    0.176103
    18  H    0.183584
    19  H    0.443272
    20  H    0.369251
 Sum of Mulliken charges =  -0.00000
 Mulliken charges with hydrogens summed into heavy atoms:
               1
     1  C    0.910857
     2  C   -0.525022
     3  C    0.909071
     4  C   -1.026751
     5  C    1.928763
     6  C   -1.931469
     7  O   -0.174127
     8  C    0.675096
     9  C    0.030610
    10  O   -0.508267
    11  O   -0.121092
    12  O   -0.167670
 Electronic spatial extent (au):  <R**2>=           2080.5331
 Charge=             -0.0000 electrons
 Dipole moment (field-independent basis, Debye):
    X=             -2.2981    Y=              3.1634    Z=              0.0001  Tot=              3.9100
 Quadrupole moment (field-independent basis, Debye-Ang):
   XX=            -67.5690   YY=            -66.5481   ZZ=            -72.1596
   XY=              9.0756   XZ=              0.0043   YZ=             -0.0013
 Traceless Quadrupole moment (field-independent basis, Debye-Ang):
   XX=              1.1899   YY=              2.2108   ZZ=             -3.4007
   XY=              9.0756   XZ=              0.0043   YZ=             -0.0013
 Octapole moment (field-independent basis, Debye-Ang**2):
  XXX=            -31.2642  YYY=             44.6043  ZZZ=             -0.0003  XYY=            -19.1974
  XXY=            -16.0661  XXZ=             -0.0074  XZZ=              4.9808  YZZ=             -0.3014
  YYZ=              0.0000  XYZ=              0.0048
 Hexadecapole moment (field-independent basis, Debye-Ang**3):
 XXXX=          -1634.3811 YYYY=           -774.2067 ZZZZ=            -83.7292 XXXY=            168.7373
 XXXZ=              0.0449 YYYX=            -30.8615 YYYZ=             -0.0238 ZZZX=             -0.0040
 ZZZY=             -0.0009 XXYY=           -411.7670 XXZZ=           -308.8684 YYZZ=           -162.2544
 XXYZ=             -0.0031 YYXZ=              0.0016 ZZXY=              0.1829
 N-N= 6.965717512618D+02 E-N=-2.818591147353D+03  KE= 6.048465755546D+02
 Calling FoFJK, ICntrl=      2127 FMM=F ISym2X=0 I1Cent= 0 IOpClX= 0 NMat=1 NMatS=1 NMatT=0.
 ***** Axes restored to original set *****
 -------------------------------------------------------------------
 Center     Atomic                   Forces (Hartrees/Bohr)
 Number     Number              X              Y              Z
 -------------------------------------------------------------------
      1        6           0.002760648    0.003189534    0.000008508
      2        6           0.001114622    0.000212608   -0.000003608
      3        6           0.000990359   -0.004087526    0.000002711
      4        6           0.001367454   -0.001018796    0.000000046
      5        6          -0.004117004    0.001342029   -0.000014415
      6        6           0.000175403    0.000810276   -0.000000848
      7        8          -0.003937753    0.004108097   -0.000004711
      8        6           0.004302386    0.005639331    0.000000339
      9        6          -0.001700895    0.001552778    0.000025034
     10        8          -0.005611503   -0.009595035   -0.000004394
     11        8           0.000099263   -0.006551387   -0.000008071
     12        8           0.005551365    0.002334067    0.000008577
     13        1           0.000268541    0.000585224   -0.000002590
     14        1           0.000442493   -0.000470379    0.000001733
     15        1           0.001080729    0.001171565   -0.000000185
     16        1          -0.000273898    0.000794487    0.000710843
     17        1          -0.000897401    0.000128651   -0.000000589
     18        1          -0.000259536    0.000790000   -0.000721313
     19        1          -0.001949838    0.000567305    0.000007767
     20        1           0.000594565   -0.001502830   -0.000004833
 -------------------------------------------------------------------
 Cartesian Forces:  Max     0.009595035 RMS     0.002460419

 GradGradGradGradGradGradGradGradGradGradGradGradGradGradGradGradGradGrad
 Berny optimization.
 FormGI is forming the generalized inverse of G from B-inverse, IUseBI=4.
 Internal  Forces:  Max     0.011060278 RMS     0.002472912
 Search for a local minimum.
 Step number   1 out of a maximum of  100
 All quantities printed in internal units (Hartrees-Bohrs-Radians)
 Mixed Optimization -- RFO/linear search
 Second derivative matrix not updated -- first step.
 ITU=  0
     Eigenvalues ---    0.00624   0.00857   0.01190   0.01549   0.01747
     Eigenvalues ---    0.01947   0.02024   0.02074   0.02126   0.02136
     Eigenvalues ---    0.02156   0.02160   0.02186   0.02202   0.02556
     Eigenvalues ---    0.07257   0.07457   0.16000   0.16000   0.16000
     Eigenvalues ---    0.16000   0.16000   0.16000   0.16000   0.16000
     Eigenvalues ---    0.23479   0.23497   0.25000   0.25000   0.25000
     Eigenvalues ---    0.25000   0.25000   0.25000   0.25000   0.31278
     Eigenvalues ---    0.34409   0.34411   0.34723   0.35328   0.35353
     Eigenvalues ---    0.35992   0.38545   0.40261   0.43409   0.44637
     Eigenvalues ---    0.46449   0.46681   0.47172   0.51665   0.52663
     Eigenvalues ---    0.54014   0.54075   0.58415   0.82874
 RFO step:  Lambda=-1.12864940D-03 EMin= 6.24136425D-03
 Linear search not attempted -- first point.
 Iteration  1 RMS(Cart)=  0.01392908 RMS(Int)=  0.00001036
 Iteration  2 RMS(Cart)=  0.00001796 RMS(Int)=  0.00000215
 Iteration  3 RMS(Cart)=  0.00000000 RMS(Int)=  0.00000215
 Variable       Old X    -DE/DX   Delta X   Delta X   Delta X     New X
                                 (Linear)    (Quad)   (Total)
    R1        2.64934  -0.00510   0.00000  -0.01115  -0.01116   2.63818
    R2        2.62362  -0.00644   0.00000  -0.01353  -0.01353   2.61009
    R3        2.05145  -0.00064   0.00000  -0.00181  -0.00181   2.04964
    R4        2.62675  -0.00614   0.00000  -0.01284  -0.01284   2.61391
    R5        2.57269  -0.00620   0.00000  -0.01174  -0.01174   2.56095
    R6        2.64554  -0.00529   0.00000  -0.01152  -0.01152   2.63402
    R7        2.05106  -0.00063   0.00000  -0.00178  -0.00178   2.04928
    R8        2.71551  -0.00818   0.00000  -0.02047  -0.02046   2.69505
    R9        2.52217  -0.00621   0.00000  -0.01060  -0.01060   2.51157
   R10        2.69155  -0.00706   0.00000  -0.01696  -0.01695   2.67460
   R11        2.77395  -0.00448   0.00000  -0.01242  -0.01242   2.76153
   R12        2.58222  -0.00599   0.00000  -0.01157  -0.01157   2.57065
   R13        1.82663  -0.00159   0.00000  -0.00294  -0.00294   1.82370
   R14        2.85485  -0.00450   0.00000  -0.01435  -0.01435   2.84050
   R15        2.36402  -0.01106   0.00000  -0.01333  -0.01333   2.35069
   R16        2.06642  -0.00099   0.00000  -0.00286  -0.00286   2.06356
   R17        2.06128  -0.00080   0.00000  -0.00228  -0.00228   2.05899
   R18        2.06645  -0.00100   0.00000  -0.00288  -0.00288   2.06357
   R19        1.90071  -0.00201   0.00000  -0.00431  -0.00431   1.89640
   R20        1.82719  -0.00161   0.00000  -0.00298  -0.00298   1.82421
    A1        2.08366  -0.00093   0.00000  -0.00394  -0.00394   2.07972
    A2        2.08235   0.00041   0.00000   0.00165   0.00165   2.08400
    A3        2.11718   0.00052   0.00000   0.00228   0.00228   2.11946
    A4        2.11481   0.00082   0.00000   0.00377   0.00377   2.11857
    A5        2.03128  -0.00016   0.00000  -0.00088  -0.00088   2.03040
    A6        2.13710  -0.00066   0.00000  -0.00289  -0.00289   2.13421
    A7        2.08349  -0.00095   0.00000  -0.00378  -0.00379   2.07970
    A8        2.13043   0.00062   0.00000   0.00278   0.00278   2.13321
    A9        2.06927   0.00033   0.00000   0.00100   0.00100   2.07027
   A10        2.12237   0.00001   0.00000   0.00012   0.00012   2.12249
   A11        2.04430   0.00082   0.00000   0.00323   0.00323   2.04754
   A12        2.11651  -0.00083   0.00000  -0.00335  -0.00335   2.11316
   A13        2.02962   0.00101   0.00000   0.00379   0.00380   2.03342
   A14        2.06979  -0.00066   0.00000  -0.00251  -0.00251   2.06728
   A15        2.18377  -0.00035   0.00000  -0.00129  -0.00129   2.18248
   A16        2.13242   0.00004   0.00000   0.00003   0.00004   2.13246
   A17        2.08784   0.00054   0.00000   0.00220   0.00220   2.09004
   A18        2.06292  -0.00058   0.00000  -0.00224  -0.00224   2.06068
   A19        1.90776   0.00019   0.00000   0.00121   0.00121   1.90897
   A20        2.14717  -0.00014   0.00000  -0.00055  -0.00055   2.14663
   A21        2.09020  -0.00123   0.00000  -0.00492  -0.00492   2.08528
   A22        2.04582   0.00137   0.00000   0.00546   0.00546   2.05128
   A23        1.93862  -0.00052   0.00000  -0.00342  -0.00343   1.93519
   A24        1.88073  -0.00037   0.00000  -0.00194  -0.00194   1.87879
   A25        1.93832  -0.00049   0.00000  -0.00321  -0.00322   1.93511
   A26        1.92397   0.00051   0.00000   0.00348   0.00348   1.92745
   A27        1.85884   0.00040   0.00000   0.00177   0.00176   1.86060
   A28        1.92395   0.00050   0.00000   0.00347   0.00347   1.92742
   A29        1.85280   0.00050   0.00000   0.00307   0.00307   1.85588
   A30        1.92088   0.00019   0.00000   0.00118   0.00118   1.92206
    D1       -0.00001  -0.00000   0.00000  -0.00002  -0.00002  -0.00004
    D2        3.14155   0.00000   0.00000   0.00000   0.00000   3.14155
    D3        3.14141   0.00000   0.00000   0.00007   0.00007   3.14149
    D4       -0.00021   0.00000   0.00000   0.00010   0.00010  -0.00011
    D5       -0.00007   0.00000   0.00000   0.00007   0.00007  -0.00000
    D6        3.14147   0.00000   0.00000   0.00009   0.00008   3.14156
    D7       -3.14150  -0.00000   0.00000  -0.00002  -0.00002  -3.14152
    D8        0.00005  -0.00000   0.00000  -0.00001  -0.00001   0.00004
    D9        0.00001  -0.00000   0.00000  -0.00002  -0.00002  -0.00001
   D10        3.14154   0.00000   0.00000   0.00006   0.00006  -3.14159
   D11       -3.14155  -0.00000   0.00000  -0.00005  -0.00005   3.14159
   D12       -0.00002   0.00000   0.00000   0.00003   0.00003   0.00001
   D13        3.14111   0.00000   0.00000   0.00014   0.00014   3.14125
   D14       -0.00051   0.00000   0.00000   0.00017   0.00017  -0.00034
   D15        0.00007   0.00000   0.00000   0.00001   0.00001   0.00009
   D16       -3.14158   0.00000   0.00000   0.00011   0.00011  -3.14147
   D17       -3.14145  -0.00000   0.00000  -0.00006  -0.00006  -3.14152
   D18        0.00007   0.00000   0.00000   0.00004   0.00004   0.00011
   D19       -0.00015   0.00000   0.00000   0.00003   0.00003  -0.00012
   D20        3.14111   0.00000   0.00000   0.00019   0.00019   3.14130
   D21        3.14151  -0.00000   0.00000  -0.00007  -0.00007   3.14144
   D22       -0.00041   0.00000   0.00000   0.00009   0.00009  -0.00033
   D23       -3.14130  -0.00001   0.00000  -0.00031  -0.00031   3.14158
   D24        0.00023  -0.00001   0.00000  -0.00021  -0.00021   0.00002
   D25        0.00015  -0.00000   0.00000  -0.00008  -0.00008   0.00008
   D26       -3.14140  -0.00000   0.00000  -0.00009  -0.00009  -3.14148
   D27       -3.14109  -0.00000   0.00000  -0.00025  -0.00025  -3.14133
   D28        0.00055  -0.00000   0.00000  -0.00026  -0.00026   0.00029
   D29       -3.14113  -0.00000   0.00000  -0.00033  -0.00033  -3.14145
   D30        0.00045  -0.00001   0.00000  -0.00044  -0.00044   0.00001
   D31        0.00010  -0.00000   0.00000  -0.00015  -0.00015  -0.00005
   D32       -3.14150  -0.00000   0.00000  -0.00026  -0.00026   3.14142
   D33        0.00005   0.00000   0.00000   0.00000   0.00000   0.00005
   D34       -3.14159   0.00000   0.00000   0.00002   0.00002  -3.14157
   D35        1.03240  -0.00008   0.00000  -0.00120  -0.00120   1.03120
   D36        3.14145  -0.00000   0.00000  -0.00023  -0.00023   3.14122
   D37       -1.03290   0.00008   0.00000   0.00087   0.00087  -1.03204
   D38       -2.10917  -0.00008   0.00000  -0.00110  -0.00109  -2.11027
   D39       -0.00013  -0.00000   0.00000  -0.00012  -0.00012  -0.00025
   D40        2.10871   0.00008   0.00000   0.00098   0.00098   2.10968
         Item               Value     Threshold  Converged?
 Maximum Force            0.011060     0.000450     NO 
 RMS     Force            0.002473     0.000300     NO 
 Maximum Displacement     0.040871     0.001800     NO 
 RMS     Displacement     0.013925     0.001200     NO 
 Predicted change in Energy=-5.657672D-04
 GradGradGradGradGradGradGradGradGradGradGradGradGradGradGradGradGradGrad

                          Input orientation:                          
 ---------------------------------------------------------------------
 Center     Atomic      Atomic             Coordinates (Angstroms)
 Number     Number       Type             X           Y           Z
 ---------------------------------------------------------------------
      1          6           0       -1.521655   -1.248349   -0.000006
      2          6           0       -2.250333   -0.057542   -0.000086
      3          6           0       -1.619110    1.173253   -0.000057
      4          6           0       -0.226101    1.222061    0.000061
      5          6           0        0.563465    0.034412    0.000047
      6          6           0       -0.141571   -1.192823    0.000060
      7          8           0        0.580390   -2.345760    0.000177
      8          6           0        2.018857    0.166091   -0.000198
      9          6           0        2.947632   -1.015758   -0.000410
     10          8           0        2.530908    1.299744   -0.000374
     11          8           0        0.342062    2.423560    0.000229
     12          8           0       -3.600104   -0.178718   -0.000197
     13          1           0       -2.049677   -2.195766    0.000070
     14          1           0       -2.171534    2.106433   -0.000112
     15          1           0       -0.021292   -3.100292    0.000154
     16          1           0        2.775779   -1.645615   -0.875729
     17          1           0        3.968099   -0.633902   -0.000956
     18          1           0        2.776588   -1.645185    0.875384
     19          1           0        1.333310    2.267014    0.000311
     20          1           0       -4.011971    0.694339    0.000062
 ---------------------------------------------------------------------
                    Distance matrix (angstroms):
                    1          2          3          4          5
     1  C    0.000000
     2  C    1.396064   0.000000
     3  C    2.423562   1.383220   0.000000
     4  C    2.789513   2.394765   1.393864   0.000000
     5  C    2.448101   2.815300   2.461827   1.426158   0.000000
     6  C    1.381200   2.394941   2.789522   2.416363   1.415337
     7  O    2.371266   3.639908   4.149849   3.657837   2.380232
     8  C    3.812593   4.275044   3.774809   2.480909   1.461337
     9  C    4.475335   5.285548   5.064277   3.883351   2.605208
    10  O    4.787070   4.970161   4.151946   2.758104   2.339209
    11  O    4.117810   3.588368   2.325826   1.329064   2.399385
    12  O    2.337533   1.355199   2.398366   3.653228   4.169020
    13  H    1.084623   2.147619   3.396421   3.873884   3.435434
    14  H    3.417149   2.165409   1.084434   2.137013   3.431252
    15  H    2.383439   3.771863   4.562478   4.327203   3.188779
    16  H    4.403709   5.343270   5.294136   4.242860   2.912698
    17  H    5.524033   6.245085   5.872198   4.586493   3.469607
    18  H    4.404393   5.343875   5.294540   4.243045   2.912932
    19  H    4.528642   4.271541   3.148507   1.877149   2.361604
    20  H    3.158435   1.915383   2.440315   3.822473   4.622782
                    6          7          8          9         10
     6  C    0.000000
     7  O    1.360327   0.000000
     8  C    2.552273   2.894579   0.000000
     9  C    3.094273   2.715279   1.503127   0.000000
    10  O    3.654454   4.134516   1.243931   2.352702   0.000000
    11  O    3.648579   4.775271   2.812083   4.314847   2.460490
    12  O    3.604145   4.708778   5.629531   6.601021   6.306755
    13  H    2.155636   2.634341   4.704396   5.134737   5.761975
    14  H    3.873737   5.234033   4.617825   5.996160   4.771133
    15  H    1.911258   0.965060   3.851165   3.627643   5.086654
    16  H    3.079441   2.465188   2.149829   1.091988   3.082426
    17  H    4.147502   3.795659   2.107020   1.089571   2.409254
    18  H    3.080012   2.465782   2.149772   1.091994   3.082194
    19  H    3.761082   4.673817   2.209944   3.658227   1.539433
    20  H    4.305969   5.507447   6.053918   7.166624   6.570828
                   11         12         13         14         15
    11  O    0.000000
    12  O    4.723614   0.000000
    13  H    5.201788   2.544073   0.000000
    14  H    2.533523   2.694945   4.303925   0.000000
    15  H    5.535790   4.619901   2.220926   5.633252   0.000000
    16  H    4.821667   6.600775   4.935050   6.270605   3.272135
    17  H    4.743018   7.581878   6.217158   6.723432   4.690237
    18  H    4.821566   6.601467   4.935803   6.270969   3.272843
    19  H    1.003533   5.506376   5.600090   3.508521   5.535605
    20  H    4.684849   0.965330   3.493322   2.319745   5.506790
                   16         17         18         19         20
    16  H    0.000000
    17  H    1.791764   0.000000
    18  H    1.751114   1.791748   0.000000
    19  H    4.261083   3.918856   4.260763   0.000000
    20  H    7.232976   8.089853   7.233539   5.571834   0.000000
 Stoichiometry    C8H8O4
 Framework group  C1[X(C8H8O4)]
 Deg. of freedom    54
 Full point group                 C1      NOp   1
 Largest Abelian subgroup         C1      NOp   1
 Largest concise Abelian subgroup C1      NOp   1
                         Standard orientation:                         
 ---------------------------------------------------------------------
 Center     Atomic      Atomic             Coordinates (Angstroms)
 Number     Number       Type             X           Y           Z
 ---------------------------------------------------------------------
      1          6           0       -1.522793    1.246843   -0.000059
      2          6           0       -2.250954    0.055720    0.000021
      3          6           0       -1.619196   -1.174801   -0.000007
      4          6           0       -0.226166   -1.223004   -0.000126
      5          6           0        0.562884   -0.035011   -0.000112
      6          6           0       -0.142685    1.191916   -0.000124
      7          8           0        0.578774    2.345167   -0.000242
      8          6           0        2.018334   -0.166058    0.000134
      9          6           0        2.946595    1.016194    0.000346
     10          8           0        2.530877   -1.299488    0.000310
     11          8           0        0.342520   -2.424256   -0.000294
     12          8           0       -3.600777    0.176309    0.000132
     13          1           0       -2.051227    2.194031   -0.000135
     14          1           0       -2.171214   -2.108221    0.000048
     15          1           0       -0.023236    3.099438   -0.000219
     16          1           0        2.774468    1.645977    0.875665
     17          1           0        3.967227    0.634783    0.000891
     18          1           0        2.775277    1.645547   -0.875448
     19          1           0        1.333699   -2.267279   -0.000375
     20          1           0       -4.012264   -0.696927   -0.000127
 ---------------------------------------------------------------------
 Rotational constants (GHZ):      1.5594814      0.7713553      0.5177207
 Standard basis: 6-31+G(d,p) (6D, 7F)
 There are   268 symmetry adapted cartesian basis functions of A   symmetry.
 There are   268 symmetry adapted basis functions of A   symmetry.
   268 basis functions,   440 primitive gaussians,   268 cartesian basis functions
    44 alpha electrons       44 beta electrons
       nuclear repulsion energy       700.3679103222 Hartrees.
 NAtoms=   20 NActive=   20 NUniq=   20 SFac= 1.00D+00 NAtFMM=   60 NAOKFM=F Big=F
 Integral buffers will be    131072 words long.
 Raffenetti 2 integral format.
 Two-electron integral symmetry is turned on.
 One-electron integrals computed using PRISM.
 NBasis=   268 RedAO= T EigKep=  1.47D-06  NBF=   268
 NBsUse=   268 1.00D-06 EigRej= -1.00D+00 NBFU=   268
 Initial guess from the checkpoint file:  "camb3lypTHAPgd3.chk"
 B after Tr=    -0.000000    0.000000   -0.000000
         Rot=    1.000000   -0.000001    0.000018   -0.000103 Ang=  -0.01 deg.
 ExpMin= 4.38D-02 ExpMax= 5.48D+03 ExpMxC= 8.25D+02 IAcc=2 IRadAn=         4 AccDes= 0.00D+00
 Harris functional with IExCor=20419 and IRadAn=       4 diagonalized for initial guess.
 HarFok:  IExCor=20419 AccDes= 0.00D+00 IRadAn=         4 IDoV= 1 UseB2=F ITyADJ=14
 ICtDFT=  3500011 ScaDFX=  1.000000  1.000000  1.000000  1.000000
 FoFCou: FMM=F IPFlag=           0 FMFlag=      100000 FMFlg1=           0
         NFxFlg=           0 DoJE=T BraDBF=F KetDBF=T FulRan=T
         wScrn=  0.000000 ICntrl=     500 IOpCl=  0 I1Cent=   200000004 NGrid=           0
         NMat0=    1 NMatS0=      1 NMatT0=    0 NMatD0=    1 NMtDS0=    0 NMtDT0=    0
 Petite list used in FoFCou.
 Requested convergence on RMS density matrix=1.00D-08 within 128 cycles.
 Requested convergence on MAX density matrix=1.00D-06.
 Requested convergence on             energy=1.00D-06.
 No special actions if energy rises.
 SCF Done:  E(RCAM-B3LYP) =  -610.346006515     A.U. after   13 cycles
            NFock= 13  Conv=0.32D-08     -V/T= 2.0087
 Calling FoFJK, ICntrl=      2127 FMM=F ISym2X=0 I1Cent= 0 IOpClX= 0 NMat=1 NMatS=1 NMatT=0.
 ***** Axes restored to original set *****
 -------------------------------------------------------------------
 Center     Atomic                   Forces (Hartrees/Bohr)
 Number     Number              X              Y              Z
 -------------------------------------------------------------------
      1        6           0.000041121   -0.000691970    0.000001564
      2        6          -0.001445816    0.000056793   -0.000002501
      3        6          -0.000856196    0.000075199    0.000000771
      4        6           0.001210852    0.002489439    0.000007475
      5        6          -0.000481411    0.000050500   -0.000002448
      6        6           0.000836901   -0.001462323    0.000002266
      7        8          -0.001033254   -0.000114492   -0.000000282
      8        6           0.000835384    0.000120637   -0.000013742
      9        6           0.000417529    0.000233243    0.000001434
     10        8           0.002472715   -0.001010644    0.000016745
     11        8          -0.002834892    0.000025121    0.000003938
     12        8           0.000188479    0.000527557    0.000004562
     13        1          -0.000131441    0.000022161   -0.000001798
     14        1          -0.000040393    0.000031505    0.000001125
     15        1           0.000303740   -0.000170296   -0.000000009
     16        1           0.000113583   -0.000031834    0.000101908
     17        1           0.000121880   -0.000117725    0.000001398
     18        1           0.000113509   -0.000034850   -0.000102144
     19        1           0.000420808    0.000253740   -0.000017104
     20        1          -0.000253097   -0.000251761   -0.000003157
 -------------------------------------------------------------------
 Cartesian Forces:  Max     0.002834892 RMS     0.000731973

 GradGradGradGradGradGradGradGradGradGradGradGradGradGradGradGradGradGrad
 Berny optimization.
 Using GEDIIS/GDIIS optimizer.
 FormGI is forming the generalized inverse of G from B-inverse, IUseBI=4.
 Internal  Forces:  Max     0.004601982 RMS     0.001169778
 Search for a local minimum.
 Step number   2 out of a maximum of  100
 All quantities printed in internal units (Hartrees-Bohrs-Radians)
 Mixed Optimization -- RFO/linear search
 Update second derivatives using D2CorX and points    1    2
 DE= -4.26D-04 DEPred=-5.66D-04 R= 7.53D-01
 TightC=F SS=  1.41D+00  RLast= 5.05D-02 DXNew= 5.0454D-01 1.5138D-01
 Trust test= 7.53D-01 RLast= 5.05D-02 DXMaxT set to 3.00D-01
 ITU=  1  0
 Use linear search instead of GDIIS.
     Eigenvalues ---    0.00624   0.00856   0.01190   0.01549   0.01747
     Eigenvalues ---    0.01947   0.02024   0.02073   0.02126   0.02136
     Eigenvalues ---    0.02156   0.02160   0.02186   0.02202   0.02556
     Eigenvalues ---    0.07295   0.07483   0.15782   0.16000   0.16000
     Eigenvalues ---    0.16000   0.16000   0.16000   0.16000   0.16047
     Eigenvalues ---    0.22538   0.23523   0.23951   0.25000   0.25000
     Eigenvalues ---    0.25000   0.25000   0.25000   0.25420   0.31534
     Eigenvalues ---    0.34361   0.34410   0.34717   0.35318   0.35347
     Eigenvalues ---    0.36442   0.39637   0.40909   0.43434   0.46081
     Eigenvalues ---    0.46380   0.46715   0.50554   0.52256   0.53961
     Eigenvalues ---    0.54056   0.57534   0.61380   0.82449
 RFO step:  Lambda=-2.28990118D-04 EMin= 6.24137075D-03
 Quartic linear search produced a step of -0.19972.
 Iteration  1 RMS(Cart)=  0.01531675 RMS(Int)=  0.00007455
 Iteration  2 RMS(Cart)=  0.00010069 RMS(Int)=  0.00000079
 Iteration  3 RMS(Cart)=  0.00000000 RMS(Int)=  0.00000079
 Variable       Old X    -DE/DX   Delta X   Delta X   Delta X     New X
                                 (Linear)    (Quad)   (Total)
    R1        2.63818   0.00053   0.00223  -0.00383  -0.00160   2.63658
    R2        2.61009   0.00083   0.00270  -0.00416  -0.00146   2.60863
    R3        2.04964   0.00004   0.00036  -0.00064  -0.00028   2.04936
    R4        2.61391   0.00023   0.00257  -0.00501  -0.00244   2.61147
    R5        2.56095   0.00004   0.00234  -0.00471  -0.00237   2.55859
    R6        2.63402   0.00168   0.00230  -0.00170   0.00060   2.63462
    R7        2.04928   0.00005   0.00036  -0.00062  -0.00026   2.04902
    R8        2.69505   0.00412   0.00409   0.00012   0.00421   2.69926
    R9        2.51157  -0.00078   0.00212  -0.00538  -0.00326   2.50831
   R10        2.67460   0.00229   0.00339  -0.00236   0.00102   2.67562
   R11        2.76153   0.00398   0.00248   0.00377   0.00625   2.76778
   R12        2.57065  -0.00014   0.00231  -0.00493  -0.00262   2.56803
   R13        1.82370  -0.00006   0.00059  -0.00128  -0.00069   1.82301
   R14        2.84050   0.00043   0.00287  -0.00478  -0.00191   2.83859
   R15        2.35069   0.00010   0.00266  -0.00530  -0.00264   2.34805
   R16        2.06356  -0.00008   0.00057  -0.00136  -0.00079   2.06277
   R17        2.05899   0.00007   0.00046  -0.00077  -0.00031   2.05868
   R18        2.06357  -0.00008   0.00058  -0.00137  -0.00079   2.06278
   R19        1.89640   0.00038   0.00086  -0.00111  -0.00025   1.89615
   R20        1.82421  -0.00012   0.00060  -0.00139  -0.00080   1.82341
    A1        2.07972   0.00048   0.00079  -0.00054   0.00025   2.07997
    A2        2.08400  -0.00037  -0.00033  -0.00050  -0.00083   2.08317
    A3        2.11946  -0.00011  -0.00046   0.00104   0.00058   2.12004
    A4        2.11857  -0.00031  -0.00075  -0.00025  -0.00100   2.11757
    A5        2.03040   0.00020   0.00018   0.00069   0.00087   2.03127
    A6        2.13421   0.00011   0.00058  -0.00044   0.00013   2.13435
    A7        2.07970   0.00105   0.00076   0.00187   0.00263   2.08233
    A8        2.13321  -0.00054  -0.00056  -0.00067  -0.00122   2.13199
    A9        2.07027  -0.00050  -0.00020  -0.00121  -0.00141   2.06887
   A10        2.12249  -0.00055  -0.00002  -0.00132  -0.00134   2.12115
   A11        2.04754  -0.00292  -0.00065  -0.00820  -0.00884   2.03870
   A12        2.11316   0.00347   0.00067   0.00951   0.01018   2.12334
   A13        2.03342  -0.00141  -0.00076  -0.00228  -0.00304   2.03038
   A14        2.06728   0.00460   0.00050   0.01336   0.01386   2.08114
   A15        2.18248  -0.00320   0.00026  -0.01108  -0.01082   2.17166
   A16        2.13246   0.00074  -0.00001   0.00251   0.00250   2.13497
   A17        2.09004  -0.00104  -0.00044  -0.00249  -0.00293   2.08711
   A18        2.06068   0.00030   0.00045  -0.00002   0.00043   2.06111
   A19        1.90897   0.00063  -0.00024   0.00364   0.00340   1.91237
   A20        2.14663  -0.00090   0.00011  -0.00310  -0.00299   2.14364
   A21        2.08528   0.00359   0.00098   0.00944   0.01042   2.09570
   A22        2.05128  -0.00269  -0.00109  -0.00634  -0.00743   2.04384
   A23        1.93519   0.00013   0.00068  -0.00078  -0.00009   1.93510
   A24        1.87879   0.00016   0.00039  -0.00001   0.00038   1.87917
   A25        1.93511   0.00014   0.00064  -0.00067  -0.00003   1.93508
   A26        1.92745  -0.00015  -0.00069   0.00072   0.00002   1.92747
   A27        1.86060  -0.00014  -0.00035   0.00004  -0.00031   1.86029
   A28        1.92742  -0.00015  -0.00069   0.00071   0.00002   1.92744
   A29        1.85588   0.00060  -0.00061   0.00428   0.00367   1.85955
   A30        1.92206   0.00062  -0.00024   0.00356   0.00333   1.92538
    D1       -0.00004   0.00000   0.00000   0.00005   0.00006   0.00002
    D2        3.14155   0.00000  -0.00000   0.00003   0.00003   3.14158
    D3        3.14149   0.00000  -0.00001   0.00008   0.00007   3.14155
    D4       -0.00011   0.00000  -0.00002   0.00006   0.00004  -0.00007
    D5       -0.00000  -0.00000  -0.00001   0.00002   0.00001   0.00001
    D6        3.14156  -0.00000  -0.00002  -0.00005  -0.00006   3.14150
    D7       -3.14152  -0.00000   0.00000  -0.00001  -0.00000  -3.14152
    D8        0.00004  -0.00000   0.00000  -0.00007  -0.00007  -0.00003
    D9       -0.00001   0.00000   0.00000  -0.00001  -0.00001  -0.00001
   D10       -3.14159  -0.00000  -0.00001  -0.00007  -0.00008   3.14152
   D11        3.14159   0.00000   0.00001   0.00002   0.00002  -3.14157
   D12        0.00001  -0.00000  -0.00001  -0.00004  -0.00005  -0.00004
   D13        3.14125   0.00000  -0.00003   0.00019   0.00016   3.14141
   D14       -0.00034   0.00000  -0.00003   0.00016   0.00013  -0.00022
   D15        0.00009  -0.00000  -0.00000  -0.00011  -0.00011  -0.00003
   D16       -3.14147  -0.00001  -0.00002  -0.00027  -0.00029   3.14143
   D17       -3.14152  -0.00000   0.00001  -0.00006  -0.00004  -3.14156
   D18        0.00011  -0.00001  -0.00001  -0.00021  -0.00022  -0.00011
   D19       -0.00012   0.00000  -0.00001   0.00018   0.00017   0.00005
   D20        3.14130   0.00001  -0.00004   0.00048   0.00044  -3.14144
   D21        3.14144   0.00001   0.00001   0.00034   0.00035  -3.14140
   D22       -0.00033   0.00001  -0.00002   0.00064   0.00062   0.00030
   D23        3.14158   0.00002   0.00006   0.00043   0.00049  -3.14111
   D24        0.00002   0.00001   0.00004   0.00028   0.00032   0.00034
   D25        0.00008  -0.00000   0.00002  -0.00013  -0.00012  -0.00004
   D26       -3.14148  -0.00000   0.00002  -0.00007  -0.00005  -3.14153
   D27       -3.14133  -0.00001   0.00005  -0.00046  -0.00041   3.14145
   D28        0.00029  -0.00001   0.00005  -0.00039  -0.00034  -0.00005
   D29       -3.14145   0.00000   0.00006  -0.00013  -0.00007  -3.14152
   D30        0.00001   0.00001   0.00009   0.00057   0.00066   0.00067
   D31       -0.00005   0.00001   0.00003   0.00020   0.00023   0.00018
   D32        3.14142   0.00001   0.00005   0.00090   0.00096  -3.14081
   D33        0.00005   0.00000  -0.00000   0.00004   0.00004   0.00009
   D34       -3.14157  -0.00000  -0.00000  -0.00003  -0.00003   3.14158
   D35        1.03120   0.00001   0.00024  -0.00006   0.00017   1.03137
   D36        3.14122   0.00001   0.00005   0.00034   0.00039  -3.14158
   D37       -1.03204   0.00000  -0.00017   0.00081   0.00064  -1.03140
   D38       -2.11027  -0.00000   0.00022  -0.00076  -0.00054  -2.11080
   D39       -0.00025  -0.00000   0.00002  -0.00035  -0.00032  -0.00057
   D40        2.10968  -0.00000  -0.00019   0.00012  -0.00008   2.10961
         Item               Value     Threshold  Converged?
 Maximum Force            0.004602     0.000450     NO 
 RMS     Force            0.001170     0.000300     NO 
 Maximum Displacement     0.063529     0.001800     NO 
 RMS     Displacement     0.015305     0.001200     NO 
 Predicted change in Energy=-1.432198D-04
 GradGradGradGradGradGradGradGradGradGradGradGradGradGradGradGradGradGrad

                          Input orientation:                          
 ---------------------------------------------------------------------
 Center     Atomic      Atomic             Coordinates (Angstroms)
 Number     Number       Type             X           Y           Z
 ---------------------------------------------------------------------
      1          6           0       -1.514475   -1.245768   -0.000007
      2          6           0       -2.248118   -0.059007    0.000097
      3          6           0       -1.621849    1.172867    0.000043
      4          6           0       -0.228852    1.230289   -0.000102
      5          6           0        0.567689    0.044621   -0.000167
      6          6           0       -0.135414   -1.184345   -0.000139
      7          8           0        0.587381   -2.335121   -0.000129
      8          6           0        2.027509    0.163429   -0.000127
      9          6           0        2.941400   -1.028693   -0.000280
     10          8           0        2.560911    1.285645    0.000688
     11          8           0        0.320493    2.438614   -0.000342
     12          8           0       -3.596186   -0.185032    0.000212
     13          1           0       -2.038902   -2.195013    0.000076
     14          1           0       -2.178643    2.103282    0.000056
     15          1           0       -0.010472   -3.092225   -0.000102
     16          1           0        2.762273   -1.655962   -0.875479
     17          1           0        3.966367   -0.659570   -0.000194
     18          1           0        2.762246   -1.656182    0.874763
     19          1           0        1.314361    2.300632   -0.000878
     20          1           0       -4.013978    0.684737    0.000442
 ---------------------------------------------------------------------
                    Distance matrix (angstroms):
                    1          2          3          4          5
     1  C    0.000000
     2  C    1.395218   0.000000
     3  C    2.421017   1.381929   0.000000
     4  C    2.789925   2.395771   1.394180   0.000000
     5  C    2.449594   2.817713   2.463131   1.428385   0.000000
     6  C    1.380428   2.393722   2.786743   2.416441   1.415879
     7  O    2.367381   3.636035   4.145682   3.657648   2.379824
     8  C    3.812018   4.281409   3.786393   2.495867   1.464646
     9  C    4.461159   5.279336   5.066567   3.892749   2.605093
    10  O    4.797585   4.993481   4.184280   2.790312   2.347994
    11  O    4.116039   3.582719   2.318363   1.327339   2.406721
    12  O    2.336381   1.353945   2.396225   3.652680   4.170203
    13  H    1.084477   2.146227   3.393604   3.874141   3.436608
    14  H    3.414273   2.163405   1.084294   2.136306   3.432263
    15  H    2.381476   3.769280   4.559335   4.328027   3.189683
    16  H    4.384665   5.331128   5.290495   4.247771   2.911075
    17  H    5.512101   6.243437   5.880984   4.601242   3.470864
    18  H    4.384518   5.331018   5.290456   4.247795   2.911067
    19  H    4.536437   4.273073   3.145343   1.878068   2.376364
    20  H    3.158222   1.916094   2.441425   3.824240   4.626167
                    6          7          8          9         10
     6  C    0.000000
     7  O    1.358940   0.000000
     8  C    2.548476   2.883872   0.000000
     9  C    3.080748   2.692241   1.502116   0.000000
    10  O    3.656640   4.123684   1.242533   2.345407   0.000000
    11  O    3.651532   4.781190   2.844358   4.346421   2.519685
    12  O    3.602161   4.703734   5.634480   6.591797   6.330302
    13  H    2.155160   2.630018   4.700845   5.115047   5.768298
    14  H    3.870824   5.229753   4.631927   6.002009   4.809564
    15  H    1.911967   0.964694   3.840917   3.601626   5.077180
    16  H    3.063533   2.440830   2.148558   1.091570   3.075917
    17  H    4.135214   3.771607   2.106300   1.089408   2.399827
    18  H    3.063415   2.440580   2.148546   1.091576   3.075530
    19  H    3.774508   4.692410   2.253047   3.705626   1.607510
    20  H    4.305430   5.503822   6.063937   7.163318   6.602292
                   11         12         13         14         15
    11  O    0.000000
    12  O    4.714222   0.000000
    13  H    5.199735   2.542667   0.000000
    14  H    2.521533   2.691804   4.300566   0.000000
    15  H    5.540733   4.616179   2.217998   5.629766   0.000000
    16  H    4.847031   6.584867   4.910036   6.269859   3.243032
    17  H    4.784469   7.577426   6.198455   6.737544   4.661873
    18  H    4.847197   6.584737   4.909830   6.269854   3.242772
    19  H    1.003400   5.503816   5.608493   3.498575   5.553205
    20  H    4.675867   0.964909   3.491975   2.319639   5.503953
                   16         17         18         19         20
    16  H    0.000000
    17  H    1.791302   0.000000
    18  H    1.750241   1.791282   0.000000
    19  H    4.303024   3.974410   4.303428   0.000000
    20  H    7.222444   8.092779   7.222295   5.567972   0.000000
 Stoichiometry    C8H8O4
 Framework group  C1[X(C8H8O4)]
 Deg. of freedom    54
 Full point group                 C1      NOp   1
 Largest Abelian subgroup         C1      NOp   1
 Largest concise Abelian subgroup C1      NOp   1
                         Standard orientation:                         
 ---------------------------------------------------------------------
 Center     Atomic      Atomic             Coordinates (Angstroms)
 Number     Number       Type             X           Y           Z
 ---------------------------------------------------------------------
      1          6           0       -1.512954    1.251616   -0.000016
      2          6           0       -2.250968    0.067568   -0.000120
      3          6           0       -1.629245   -1.166607   -0.000066
      4          6           0       -0.236470   -1.229165    0.000080
      5          6           0        0.564438   -0.046443    0.000144
      6          6           0       -0.134129    1.185108    0.000117
      7          8           0        0.592905    2.333211    0.000106
      8          6           0        2.023809   -0.170632    0.000104
      9          6           0        2.942090    1.018111    0.000258
     10          8           0        2.553070   -1.294808   -0.000710
     11          8           0        0.308416   -2.439508    0.000320
     12          8           0       -3.598562    0.198563   -0.000234
     13          1           0       -2.033877    2.202788   -0.000099
     14          1           0       -2.189467   -2.094963   -0.000079
     15          1           0       -0.002153    3.092514    0.000080
     16          1           0        2.765278    1.646036    0.875456
     17          1           0        3.965689    0.645211    0.000172
     18          1           0        2.765251    1.646256   -0.874785
     19          1           0        1.302785   -2.305192    0.000856
     20          1           0       -4.019559   -0.669659   -0.000464
 ---------------------------------------------------------------------
 Rotational constants (GHZ):      1.5579667      0.7697622      0.5168344
 Standard basis: 6-31+G(d,p) (6D, 7F)
 There are   268 symmetry adapted cartesian basis functions of A   symmetry.
 There are   268 symmetry adapted basis functions of A   symmetry.
   268 basis functions,   440 primitive gaussians,   268 cartesian basis functions
    44 alpha electrons       44 beta electrons
       nuclear repulsion energy       699.8505482827 Hartrees.
 NAtoms=   20 NActive=   20 NUniq=   20 SFac= 1.00D+00 NAtFMM=   60 NAOKFM=F Big=F
 Integral buffers will be    131072 words long.
 Raffenetti 2 integral format.
 Two-electron integral symmetry is turned on.
 One-electron integrals computed using PRISM.
 NBasis=   268 RedAO= T EigKep=  1.46D-06  NBF=   268
 NBsUse=   268 1.00D-06 EigRej= -1.00D+00 NBFU=   268
 Initial guess from the checkpoint file:  "camb3lypTHAPgd3.chk"
 B after Tr=    -0.000000   -0.000000    0.000000
         Rot=    0.999998   -0.000012   -0.000008    0.002129 Ang=  -0.24 deg.
 ExpMin= 4.38D-02 ExpMax= 5.48D+03 ExpMxC= 8.25D+02 IAcc=2 IRadAn=         4 AccDes= 0.00D+00
 Harris functional with IExCor=20419 and IRadAn=       4 diagonalized for initial guess.
 HarFok:  IExCor=20419 AccDes= 0.00D+00 IRadAn=         4 IDoV= 1 UseB2=F ITyADJ=14
 ICtDFT=  3500011 ScaDFX=  1.000000  1.000000  1.000000  1.000000
 FoFCou: FMM=F IPFlag=           0 FMFlag=      100000 FMFlg1=           0
         NFxFlg=           0 DoJE=T BraDBF=F KetDBF=T FulRan=T
         wScrn=  0.000000 ICntrl=     500 IOpCl=  0 I1Cent=   200000004 NGrid=           0
         NMat0=    1 NMatS0=      1 NMatT0=    0 NMatD0=    1 NMtDS0=    0 NMtDT0=    0
 Petite list used in FoFCou.
 Requested convergence on RMS density matrix=1.00D-08 within 128 cycles.
 Requested convergence on MAX density matrix=1.00D-06.
 Requested convergence on             energy=1.00D-06.
 No special actions if energy rises.
 SCF Done:  E(RCAM-B3LYP) =  -610.345883049     A.U. after   13 cycles
            NFock= 13  Conv=0.67D-08     -V/T= 2.0087
 Calling FoFJK, ICntrl=      2127 FMM=F ISym2X=0 I1Cent= 0 IOpClX= 0 NMat=1 NMatS=1 NMatT=0.
 ***** Axes restored to original set *****
 -------------------------------------------------------------------
 Center     Atomic                   Forces (Hartrees/Bohr)
 Number     Number              X              Y              Z
 -------------------------------------------------------------------
      1        6          -0.000995308   -0.000581878    0.000001369
      2        6          -0.001214859   -0.000672770   -0.000000652
      3        6           0.000127495    0.000964333    0.000004660
      4        6          -0.000257757   -0.002434871   -0.000014061
      5        6          -0.000841031    0.001007580   -0.000019038
      6        6           0.000793710   -0.000645828    0.000002257
      7        8          -0.000310643   -0.001052296   -0.000004657
      8        6           0.001497379    0.001246256    0.000084679
      9        6           0.000733495   -0.000906059   -0.000017032
     10        8          -0.003608615    0.002551187   -0.000065054
     11        8           0.007415505    0.000626827   -0.000028110
     12        8          -0.000875189   -0.000164580    0.000002571
     13        1          -0.000094994   -0.000126883   -0.000000324
     14        1          -0.000048072    0.000186062   -0.000000821
     15        1          -0.000157938   -0.000185146    0.000000281
     16        1           0.000281466   -0.000268486   -0.000040033
     17        1           0.000090972    0.000117031   -0.000001093
     18        1           0.000277486   -0.000260957    0.000038044
     19        1          -0.002614375    0.000430901    0.000058473
     20        1          -0.000198727    0.000169579   -0.000001459
 -------------------------------------------------------------------
 Cartesian Forces:  Max     0.007415505 RMS     0.001307549

 GradGradGradGradGradGradGradGradGradGradGradGradGradGradGradGradGradGrad
 Berny optimization.
 Using GEDIIS/GDIIS optimizer.
 FormGI is forming the generalized inverse of G from B-inverse, IUseBI=4.
 Internal  Forces:  Max     0.010284115 RMS     0.002076938
 Search for a local minimum.
 Step number   3 out of a maximum of  100
 All quantities printed in internal units (Hartrees-Bohrs-Radians)
 Mixed Optimization -- RFO/linear search
 Update second derivatives using D2CorX and points    1    3    2
 DE=  1.23D-04 DEPred=-1.43D-04 R=-8.62D-01
 Trust test=-8.62D-01 RLast= 2.91D-02 DXMaxT set to 1.50D-01
 ITU= -1  1  0
 Use linear search instead of GDIIS.
 Energy rises -- skip Quadratic/GDIIS search.
 Quartic linear search produced a step of -0.66365.
 Iteration  1 RMS(Cart)=  0.01013427 RMS(Int)=  0.00003260
 Iteration  2 RMS(Cart)=  0.00004846 RMS(Int)=  0.00000018
 Iteration  3 RMS(Cart)=  0.00000000 RMS(Int)=  0.00000018
 Variable       Old X    -DE/DX   Delta X   Delta X   Delta X     New X
                                 (Linear)    (Quad)   (Total)
    R1        2.63658   0.00185   0.00106   0.00000   0.00106   2.63764
    R2        2.60863   0.00246   0.00097   0.00000   0.00097   2.60960
    R3        2.04936   0.00016   0.00018   0.00000   0.00018   2.04955
    R4        2.61147   0.00217   0.00162   0.00000   0.00162   2.61309
    R5        2.55859   0.00107   0.00157   0.00000   0.00157   2.56016
    R6        2.63462   0.00084  -0.00040   0.00000  -0.00040   2.63422
    R7        2.04902   0.00018   0.00018   0.00000   0.00018   2.04919
    R8        2.69926  -0.00391  -0.00279   0.00000  -0.00279   2.69646
    R9        2.50831   0.00295   0.00216   0.00000   0.00216   2.51047
   R10        2.67562   0.00219  -0.00068   0.00000  -0.00068   2.67494
   R11        2.76778  -0.00052  -0.00415   0.00000  -0.00415   2.76363
   R12        2.56803   0.00080   0.00174   0.00000   0.00174   2.56976
   R13        1.82301   0.00024   0.00046   0.00000   0.00046   1.82347
   R14        2.83859   0.00188   0.00127   0.00000   0.00127   2.83986
[...]
 4129,-0.03899985,0.05727877,-0.00000007,-0.00188231,-0.01625983,0.0000
 0056,0.00544908,0.00700159,-0.00000029,-0.01361996,-0.00078904,0.00000
 086,0.02638418,-0.01310741,-0.00000053,-0.17551512,0.06580087,0.000001
 40,0.45252313,0.02301198,-0.01423131,0.00000049,-0.00336239,0.00596598
 ,0.00000030,0.00160479,-0.00527221,-0.00000013,-0.00322201,-0.00138008
 ,0.00000018,0.00990547,-0.04853060,0.00000117,0.12101777,-0.25563685,0
 .00000151,0.11214847,0.64328433,0.00000117,-0.00000110,0.01317745,0.00
 000056,0.00000059,0.00955277,-0.00000031,-0.00000008,-0.00148784,0.000
 00050,-0.00000003,0.00368867,-0.00000074,0.00000146,0.00529027,0.00000
 017,0.00000293,-0.04683936,-0.00000971,-0.00001225,0.03037850,0.014164
 86,-0.00646157,-0.00000003,-0.01080930,0.00775044,-0.00000010,0.000110
 54,0.00334675,0.00000031,-0.02518078,0.04728919,0.00000151,-0.20552969
 ,0.01205503,0.00000469,-0.01983635,-0.04159956,0.00000031,-0.00748025,
 0.01642822,0.,0.60046879,0.00268940,-0.00814357,-0.00000011,-0.0029887
 3,0.00088860,0.00000006,0.00181668,-0.00711661,0.00000017,0.03627652,0
 .03716808,-0.00000104,0.03064384,-0.11628091,-0.00000238,-0.03888642,-
 0.00114278,0.00000160,0.00222294,0.00305151,-0.00000026,0.08770806,0.8
 2814227,-0.00000035,0.00000035,0.00559245,0.00000050,-0.00000012,-0.00
 103182,-0.00000013,-0.00000040,0.00316134,0.00000238,-0.00000225,0.003
 34706,0.00000852,-0.00000156,-0.06961891,0.00000045,0.00000247,-0.0056
 9269,0.00000059,-0.00000117,-0.00263713,-0.00002924,0.00000545,0.22584
 277,-0.00079573,0.00039376,0.00000002,0.00070289,-0.00020311,0.0000000
 1,-0.00004809,0.00150591,-0.00000032,-0.00505614,-0.00388268,0.0000006
 0,-0.01201245,0.02346142,0.00000436,0.00055149,0.00026145,-0.00000018,
 -0.00786266,-0.00540371,0.00000092,-0.15622189,0.07055342,0.00000909,0
 .57206262,0.00087040,-0.00027737,0.00000004,-0.00065867,0.00008758,0.0
 0000004,0.00011133,0.00175877,-0.00000009,-0.00463558,-0.00079245,-0.0
 0000004,0.00449275,0.00972474,-0.00000165,-0.00001766,-0.00277304,0.00
 000007,-0.00401060,-0.00002630,0.00000054,0.05389211,-0.14330261,-0.00
 000999,0.06883863,0.55068897,0.00000004,0.,-0.00024716,0.00000001,0.,0
 .00011826,-0.00000006,-0.00000018,-0.00100275,0.00000056,0.,0.00220064
 ,0.00000014,-0.00000261,0.01352226,-0.00000020,0.00000060,-0.00011161,
 0.00000164,0.00000073,-0.00121649,0.00001397,-0.00001675,-0.08971988,0
 .00000057,0.00000009,0.54715261,-0.00255792,-0.00174193,0.,0.00419346,
 0.00036325,-0.00000004,-0.00322171,-0.00385500,0.00000011,0.00969284,0
 .00208767,-0.00000051,-0.03633476,-0.05608923,0.00000342,-0.00625843,0
 .01405310,0.00000064,0.00319512,-0.00517921,-0.00000009,-0.19579504,-0
 .19981496,0.00000791,0.01866546,0.01839292,0.00000217,0.25645905,-0.00
 933895,0.00528915,0.00000030,0.00514349,-0.00940481,0.00000005,0.00519
 016,0.00501719,-0.00000004,-0.00564262,-0.04348408,-0.00000008,-0.0678
 4035,-0.01347558,0.00000397,0.00991735,0.01571121,-0.00000034,-0.00046
 437,-0.00324165,0.00000031,-0.16157597,-0.53719871,0.00000671,-0.01161
 207,-0.06303817,-0.00000117,0.21705719,0.62259758,0.00000015,0.0000000
 7,-0.00138860,-0.00000027,0.00000006,0.00028567,0.00000013,0.00000018,
 0.00031303,-0.00000080,0.00000028,-0.00219477,0.00000284,0.00000356,0.
 01823861,0.00000073,-0.00000113,0.00599852,-0.00000027,0.00000042,0.00
 010408,0.00000870,0.00001173,-0.07071704,0.00000190,-0.00000524,0.0236
 0462,-0.00001422,-0.00000745,0.03610436,0.01114930,-0.01078560,-0.0000
 0041,-0.00469846,0.02332778,-0.00000007,-0.04533898,-0.06858918,0.0000
 0227,-0.15755677,-0.10331249,0.00000466,0.03825334,0.00869099,-0.00000
 112,-0.01714757,-0.00484191,0.00000087,0.00334740,0.00031920,-0.000000
 15,-0.03436676,-0.02808335,0.00000113,0.00220648,0.00457883,0.00000057
 ,-0.03661277,0.06173254,0.00000127,0.56834196,0.00206717,-0.00849020,-
 0.00000015,0.00465615,0.01105193,-0.00000027,-0.03435895,-0.01172416,0
 .00000110,-0.07620611,-0.32583176,0.00000572,0.00270960,-0.05243370,0.
 00000026,0.00181450,-0.00088435,0.00000007,-0.00062917,-0.00210018,0.0
 0000004,-0.02428825,-0.00939786,0.00000145,0.00063656,-0.00078632,-0.0
 0000006,0.02001665,0.01436175,-0.00000124,0.06073896,0.45327701,-0.000
 00042,0.00000050,-0.00168304,0.00000012,-0.00000085,0.00535676,0.00000
 206,0.00000212,0.00932014,0.00000375,0.00000664,-0.05384745,-0.0000004
 0,-0.00000005,0.01141451,0.00000094,0.00000027,0.00672455,-0.00000017,
 -0.00000005,0.00012271,0.00000117,0.00000067,-0.00290705,-0.00000020,-
 0.00000005,-0.00070943,0.00000130,-0.00000234,0.00841079,-0.00001466,-
 0.00000624,0.04580511,-0.04966108,0.01347853,0.00000189,-0.32775720,-0
 .04810425,0.00000770,-0.04849222,-0.01184845,0.00000144,0.01290536,-0.
 00475920,-0.00000021,-0.01581845,0.00095809,0.00000074,0.00895475,0.00
 292729,-0.00000005,-0.00207540,0.00135231,-0.00000002,0.01254319,0.003
 00513,-0.00000074,-0.00063775,0.00089486,-0.00000001,-0.00469956,-0.00
 502165,0.00000032,-0.00257011,-0.00109064,0.00000007,0.53674257,0.0497
 8232,0.00770869,-0.00000143,0.00347798,-0.11767861,-0.00000168,-0.0482
 7516,0.00231782,0.00000142,0.00884389,-0.00738361,-0.00000016,0.000164
 03,0.00521830,-0.00000006,-0.00696991,-0.00964543,0.00000051,0.0034169
 7,-0.00049789,-0.00000013,-0.00084328,-0.00004146,0.00000005,-0.000042
 44,0.00005484,0.,-0.00009271,0.00131869,0.,-0.00436870,-0.00056585,0.0
 0000012,-0.15518921,0.56008454,0.00000130,-0.00000001,0.00722326,0.000
 01063,0.00000013,-0.04793590,0.00000243,0.00000026,0.01203191,-0.00000
 021,0.00000037,0.00961738,0.00000005,-0.00000017,-0.00147947,0.0000003
 8,0.00000002,0.00440332,0.00000010,-0.00000010,-0.00020751,-0.00000011
 ,-0.00000003,-0.00029899,0.00000004,-0.00000002,0.00016508,0.00000005,
 -0.00000002,-0.00008399,0.00000025,0.00000010,-0.00050663,-0.00002609,
 0.00002812,0.03099629,-0.12594871,-0.12222569,0.00000712,0.01248923,0.
 01542513,-0.00000080,-0.00185909,0.00288078,0.00000021,-0.00125183,0.0
 0069152,-0.00000005,-0.00479462,0.00207383,0.00000030,-0.01046603,-0.0
 2822153,0.00000114,0.00286457,-0.00125105,-0.00000029,0.00079337,-0.00
 123875,0.,0.00001039,0.00001992,-0.00000002,-0.00076435,-0.00047165,0.
 00000004,0.00053103,0.00005136,-0.00000002,0.00108972,-0.00093830,-0.0
 0000016,0.12844428,-0.12081741,-0.27846150,0.00001119,-0.01744147,-0.0
 1969405,0.00000122,0.00422288,-0.00243541,0.,0.00125234,0.00016629,-0.
 00000008,0.00009784,0.00132660,0.00000012,0.00363015,0.00006940,-0.000
 00010,0.00076564,0.00338768,-0.00000024,0.00060383,0.00006564,0.,-0.00
 001603,0.00004297,0.,-0.00026800,-0.00000415,0.,-0.00035318,0.00001400
 ,0.00000002,-0.00078595,0.00210957,-0.00000009,0.13095933,0.29359259,0
 .00000704,0.00001168,-0.02556231,0.00000001,-0.00000042,0.00300969,0.0
 0000029,0.00000006,0.00394741,-0.00000015,-0.00000009,-0.00170876,0.00
 000017,-0.00000006,0.00494527,0.00000038,0.00000110,0.00253637,-0.0000
 0022,-0.00000023,-0.00527343,0.00000011,0.00000006,0.00136735,-0.00000
 001,0.,-0.00015508,-0.00000001,-0.00000001,-0.00052615,0.00000006,0.00
 000007,0.00018451,-0.00000020,0.,-0.00312073,-0.00000764,-0.00001207,0
 .01914469,-0.00093464,-0.00276807,0.00000022,0.00909161,-0.01428320,0.
 ,-0.13409134,0.12550701,0.00000121,-0.01146676,0.03078169,0.00000007,-
 0.00487669,-0.00222386,0.00000019,-0.00120333,-0.00116898,0.,0.0002452
 6,0.00023184,-0.00000002,0.00021226,0.00211873,0.00000001,-0.00045881,
 -0.00030256,0.00000005,0.00024327,-0.00078876,0.,0.00355853,-0.0004476
 3,-0.00000017,0.00343814,-0.00016569,-0.00000028,0.00054483,-0.0006696
 5,0.,0.13674242,-0.00383430,-0.00237480,0.00000022,0.01796430,-0.01787
 850,-0.00000027,0.12744150,-0.27148681,-0.00000018,-0.00204543,0.00395
 883,0.00000003,-0.00036392,0.00067278,0.00000009,-0.00091539,0.0000484
 2,0.,0.00017252,0.00017277,0.,-0.00055582,-0.00008094,0.00000003,0.000
 00327,-0.00001142,0.,0.00008932,0.00028034,0.,-0.00017877,0.00036368,-
 0.00000004,0.00053713,0.00275713,-0.00000013,0.00076807,-0.00090206,0.
 ,-0.13696922,0.28517336,0.00000011,0.00000016,0.00488226,-0.00000028,0
 .00000066,0.00206689,0.00000105,-0.00000017,-0.02725758,0.00000063,-0.
 00000083,0.00422800,0.00000034,0.00000022,0.00455681,0.,-0.00000008,-0
 .00124558,-0.00000005,0.00000006,-0.00012705,0.,-0.00000006,0.00051367
 ,-0.00000002,0.00000002,-0.00012970,0.00000001,0.00000002,-0.00008075,
 -0.00000025,-0.00000007,-0.00371398,-0.00000035,0.00000003,-0.00457683
 ,0.00000003,0.00000002,0.00080150,-0.00000140,0.00000010,0.01998085,0.
 00027154,0.00532140,-0.00000018,-0.00097188,-0.00008122,-0.00000002,-0
 .00023158,0.00001208,0.00000007,0.00091464,0.00099900,0.,-0.00169068,0
 .00353314,0.,0.01528309,0.02352358,-0.00000064,-0.24247072,-0.26364576
 ,0.00000686,-0.00056085,0.00037694,0.,-0.00137293,-0.00012395,0.000000
 30,0.00013365,0.00017620,-0.00000002,-0.00056073,-0.00029870,0.0000000
 1,0.00019881,-0.00010150,-0.00000001,-0.00141194,-0.00117659,0.0000001
 6,-0.00008882,-0.00014596,-0.00000001,0.23252478,-0.00303063,0.0056928
 6,-0.00000008,0.00046423,-0.00227259,0.00000005,0.00080932,0.00120553,
 -0.00000005,-0.00287265,-0.00092271,0.00000025,0.00648529,-0.00193914,
 -0.00000019,-0.02548785,-0.03923455,0.00000102,-0.21002460,-0.32371823
 ,0.00000772,-0.00090792,-0.00011890,0.,0.00025261,0.00006025,0.0000000
 2,0.00051385,0.00047689,-0.00000003,0.00083934,0.00014892,-0.00000006,
 -0.00094270,0.00050570,0.00000003,0.00143044,0.00039844,-0.00000007,0.
 00005378,0.00007486,-0.00000001,0.23261559,0.35945079,-0.00000014,-0.0
 0000027,-0.00170691,-0.00000003,-0.00000011,-0.00104223,0.00000012,0.0
 0000003,0.00001837,-0.00000003,0.00000016,0.00163174,-0.00000006,-0.00
 000012,0.00268770,0.00000017,0.00000064,-0.00200972,0.00000604,0.00000
 816,-0.00582254,-0.00000006,-0.00000008,-0.00062445,0.00000026,0.,0.00
 005518,-0.00000001,-0.00000008,-0.00008418,0.,0.00000002,-0.00023797,0
 .00000003,0.00000002,-0.00005719,0.00000011,0.00000005,0.00109246,0.,0
 .,0.00002137,-0.00000648,-0.00000862,0.00557261,-0.00009514,-0.0001324
 8,-0.00004083,0.00014475,0.00007942,-0.00008732,-0.00006266,-0.0003693
 8,0.00030249,0.00053830,-0.00020292,-0.00053617,-0.00236390,-0.0008296
 5,-0.00172587,-0.00114601,0.00278313,0.00033365,-0.00134854,-0.0018455
 5,0.00054057,0.00778820,0.00753410,0.02079030,-0.05642489,-0.02291980,
 -0.03635630,-0.00094405,0.00306687,-0.00221540,-0.00042540,0.00009359,
 0.00003896,-0.00020612,-0.00004696,-0.00001729,-0.00004269,-0.00002207
 ,0.00005957,0.00001716,0.00000204,0.00001839,-0.00002381,-0.00021482,-
 0.00008314,0.05528127,-0.00006729,0.00000285,-0.00019774,0.00004550,-0
 .00012546,-0.00002008,0.00016596,0.00004986,-0.00026074,-0.00022735,-0
 .00049656,0.00053859,0.00011201,0.00036835,0.00191419,0.00033935,0.000
 49142,-0.00024479,-0.00113682,-0.00092074,0.00084583,-0.00741480,-0.01
 443322,-0.02192373,-0.02350743,-0.13473547,-0.13473845,0.00362582,-0.0
 0473704,0.00286292,0.00083848,0.00014478,-0.00012890,-0.00003397,-0.00
 000055,0.00004898,-0.00001111,-0.00000095,0.00000542,-0.00001029,-0.00
 000118,-0.00001541,-0.00025622,0.00004478,0.00019837,0.02646186,0.1475
 7516,-0.00045071,0.00041682,-0.00014582,0.00003970,-0.00035853,-0.0000
 5144,0.00015242,0.00017678,0.00002824,-0.00010620,-0.00006982,0.000130
 88,0.00039450,-0.00024246,0.00021692,0.00065508,-0.00175195,0.00004257
 ,-0.00155926,0.00057501,0.00050388,-0.00001122,0.00247670,0.00178578,-
 0.03527974,-0.13111798,-0.22252326,0.00027395,0.00105207,-0.00092344,0
 .00017321,0.00016747,-0.00002983,-0.00003913,0.00006694,0.00000693,0.0
 0003923,0.00002621,0.00003308,0.00001025,0.00000549,-0.00000126,-0.000
 41102,0.00002561,0.00008101,0.04016626,0.14158707,0.23967270,-0.000173
 39,0.00004328,-0.00000003,0.00026632,-0.00007062,0.,-0.00009290,0.0004
 2695,-0.00000003,-0.00110090,-0.00139013,0.00000009,-0.00020639,0.0040
 9903,0.00000054,0.00065862,0.00016072,-0.00000010,-0.00012323,-0.00056
 211,0.00000016,-0.02457114,-0.00890087,0.00000389,-0.29488493,-0.09062
 754,0.00004511,0.00494006,-0.00272978,-0.00000118,0.00103740,0.0003156
 7,-0.00000002,-0.00024528,0.00000094,0.,-0.00000906,-0.00002149,0.,-0.
 00012506,0.00000304,0.,-0.00007073,0.00019247,0.00000005,-0.00132930,-
 0.00009311,-0.00008824,0.31822815,-0.00027136,0.00034924,0.,-0.0000427
 1,-0.00025429,0.,0.00015769,-0.00028390,0.,0.00118912,0.00063826,0.000
 00004,0.00121605,-0.00441373,-0.00000021,0.00031237,-0.00158635,0.,-0.
 00178861,0.00008433,0.00000020,0.03006320,0.00809586,-0.00000555,-0.09
 784053,-0.08432387,0.00001683,-0.00113953,0.00226564,0.00000043,-0.000
 46129,0.00008453,0.00000002,0.00001850,0.00005843,0.,0.00004888,0.0000
 2624,0.,0.00013096,0.00001224,0.,-0.00037208,0.00012553,0.00000007,-0.
 01537604,-0.00515174,0.00270602,0.09887450,0.08958029,0.00000002,0.,-0
 .00015121,-0.00000006,0.,-0.00000191,0.00000003,-0.00000006,-0.0001770
 4,0.00000015,0.00000028,0.00050906,0.00000017,-0.00000067,0.00148375,-
 0.00000002,-0.00000028,-0.00025701,-0.00000019,0.00000014,0.00091695,0
 .00000366,0.00000251,-0.00109625,0.00004494,0.00001518,-0.05158126,-0.
 00000104,0.00000013,-0.00119692,-0.00000015,-0.00000005,-0.00006188,0.
 00000006,0.,0.00000819,0.,0.,0.00001867,0.00000002,0.,-0.00000675,0.,-
 0.00000004,0.00016334,-0.02471353,-0.00672471,0.00215994,-0.00004986,-
 0.00001790,0.04708802,-0.00009500,-0.00013255,0.00004077,0.00014476,0.
 00007951,0.00008730,-0.00006274,-0.00036941,-0.00030249,0.00053833,-0.
 00020303,0.00053633,-0.00236428,-0.00082948,0.00172648,-0.00114587,0.0
 0278327,-0.00033339,-0.00134695,-0.00184502,-0.00053971,0.00778041,0.0
 0753430,-0.02079246,-0.05639543,-0.02286842,0.03629184,-0.00094308,0.0
 0306543,0.00221511,-0.00042520,0.00009362,-0.00003894,-0.00020613,-0.0
 0004698,0.00001730,-0.00004270,-0.00002209,-0.00005954,0.00001715,0.00
 000204,-0.00001839,-0.00002357,-0.00021467,0.00008323,0.00007686,0.002
 11994,-0.00380275,-0.00132023,-0.01537739,0.02471566,0.05524791,-0.000
 06724,0.00000285,0.00019770,0.00004546,-0.00012541,0.00002010,0.000165
 93,0.00004985,0.00026072,-0.00022729,-0.00049642,-0.00053860,0.0001120
 6,0.00036828,-0.00191427,0.00033931,0.00049116,0.00024478,-0.00113630,
 -0.00092023,-0.00084546,-0.00740623,-0.01443410,0.02192829,-0.02345552
 ,-0.13472488,0.13474048,0.00362443,-0.00473636,-0.00286483,0.00083822,
 0.00014475,0.00012887,-0.00003394,-0.00000055,-0.00004899,-0.00001110,
 -0.00000095,-0.00000541,-0.00001028,-0.00000118,0.00001541,-0.00025612
 ,0.00004483,-0.00019828,0.00211375,0.01153618,-0.01583575,-0.00009071,
 -0.00515205,0.00672550,0.02640590,0.14756483,0.00045066,-0.00041675,-0
 .00014579,-0.00003972,0.00035846,-0.00005148,-0.00015239,-0.00017664,0
 .00002838,0.00010594,0.00006977,0.00013063,-0.00039371,0.00024304,0.00
 021626,-0.00065447,0.00175087,0.00004250,0.00155958,-0.00057427,0.0005
 0378,0.00000819,-0.00247754,0.00179332,0.03521710,0.13111911,-0.222553
 30,-0.00027396,-0.00105334,-0.00092447,-0.00017299,-0.00016743,-0.0000
 2976,0.00003917,-0.00006692,0.00000693,-0.00003921,-0.00002620,0.00003
 309,-0.00001026,-0.00000549,-0.00000125,0.00041098,-0.00002556,0.00008
 084,0.00379442,0.01583418,-0.02089796,0.00008963,-0.00269987,0.0021502
 1,-0.04009500,-0.14159124,0.23970715,-0.00525061,0.00513367,0.00000019
 ,0.00011296,-0.00896359,0.00000023,0.01026133,0.00581542,-0.00000006,-
 0.03422086,-0.03924786,0.00000106,-0.01713818,0.00417806,0.00000061,0.
 00381118,0.00432698,-0.00000015,-0.00102229,0.00097943,0.00000008,0.03
 740850,0.02773030,-0.00000193,-0.00214045,-0.00584678,-0.00000036,-0.0
 0992747,-0.04001080,0.00000100,-0.32989811,0.04339389,0.00000667,-0.00
 048562,0.00127607,-0.00000010,-0.00027737,0.00014020,-0.00000002,-0.00
 063128,-0.00006307,0.,0.00015198,0.00000481,-0.00000003,0.00055949,-0.
 00094892,-0.00015499,-0.00091791,0.00067017,0.00000014,0.00055927,-0.0
 0094871,0.00015470,0.34949223,0.00339716,-0.00239483,-0.00000012,-0.00
 254313,0.00529569,0.,-0.00523920,-0.00933621,0.00000025,-0.04434747,0.
 01361163,0.00000113,0.00890996,-0.00214820,-0.00000052,-0.00349218,-0.
 00330018,0.00000016,0.00050452,0.00070927,-0.00000007,-0.00919835,-0.0
 2598454,0.00000007,0.00006247,0.00229668,0.00000050,-0.01132444,0.0125
 5805,0.00000024,0.05915104,-0.06725468,-0.00000063,0.00081981,-0.00109
 956,0.00000004,0.00021696,-0.00004358,0.,0.00034505,0.00006291,-0.0000
 0002,-0.00011611,-0.00000527,0.00000002,-0.00015040,0.00039427,0.00009
 507,0.00037716,-0.00015175,-0.00000006,-0.00015032,0.00039413,-0.00009
 498,0.00262491,0.07626822,0.00000019,-0.00000022,0.00006876,0.00000003
 ,0.00000035,0.00212677,-0.00000027,-0.00000006,0.00380017,0.00000175,0
 .00000163,-0.00096155,0.00000071,-0.00000007,-0.00136762,-0.00000020,-
 0.00000019,-0.00108748,0.00000004,0.,-0.00007096,-0.00000174,-0.000000
 71,0.00093182,0.00000067,-0.00000002,0.00319211,0.00000029,0.00000124,
 -0.01495399,0.00000565,-0.00000074,-0.02359248,0.00000005,-0.00000005,
 -0.00054225,0.,0.,-0.00002825,0.,-0.00000002,-0.00075843,0.,0.,0.00007
 879,-0.00028359,0.00042056,-0.00009833,0.,-0.00000006,0.00002437,0.000
 28348,-0.00042060,-0.00009849,-0.00000710,-0.00000104,0.03324407,-0.00
 572674,-0.00354972,0.00000046,-0.02579176,0.04684735,0.00000254,0.0039
 5980,0.00063001,-0.00000027,-0.00186598,-0.00000809,-0.00000013,0.0011
 0239,-0.00053013,0.,-0.00026352,0.00243468,-0.00000010,-0.00026145,-0.
 00068267,0.00000003,-0.00091804,-0.00029728,0.00000006,0.00011282,-0.0
 0008019,-0.00000001,0.00053626,0.00014773,-0.00000003,0.00117541,0.000
 73173,-0.00000005,-0.12301763,0.15011866,0.00001173,0.00010099,-0.0000
 7828,0.,-0.00023390,-0.00191133,0.00000021,-0.00000023,0.00003409,0.,0
 .00000650,-0.00000162,-0.00000134,0.00003991,-0.00001191,0.,0.00000650
 ,-0.00000162,0.00000134,-0.00044677,0.00015254,0.00000002,0.15148546,-
 0.00174377,0.00184203,-0.00000002,-0.00310832,0.00291727,0.00000047,-0
 .00601720,0.00268239,0.00000020,0.00083766,-0.00113775,0.00000005,-0.0
 0130070,0.00010103,0.00000009,0.00055723,0.00037027,-0.00000005,0.0000
 3445,-0.00017962,0.,0.00111492,0.00026424,-0.00000009,-0.00000596,0.00
 007710,0.,-0.00031919,-0.00055596,0.00000002,-0.00008089,-0.00012229,0
 .,0.20381830,-0.44522022,-0.00002851,-0.00019703,0.00034324,-0.0000000
 4,0.00063913,-0.00084041,-0.00000004,0.00001629,-0.00001800,0.,-0.0000
 2468,-0.00000473,-0.00000077,-0.00000742,-0.00000290,0.,-0.00002468,-0
 .00000473,0.00000078,-0.00024417,0.00012794,0.,-0.19394395,0.43936109,
 0.00000026,0.,0.00315799,-0.00000073,-0.00000128,-0.00251666,-0.000000
 23,0.00000001,-0.00160072,0.00000003,-0.00000003,-0.00103746,0.0000001
 5,0.00000011,-0.00006790,-0.00000025,-0.00000004,0.00225491,-0.0000000
 4,0.00000003,-0.00055676,-0.00000013,-0.00000002,0.00000863,-0.0000000
 1,0.,-0.00006083,0.00000002,0.00000007,0.00001464,-0.00000013,-0.00000
 005,-0.00001958,0.00001533,-0.00002678,-0.00564979,-0.00000001,-0.0000
 0004,-0.00073938,0.00000009,0.00000016,0.00084781,0.,0.,0.00010177,0.0
 0001483,-0.00000157,0.00000941,0.,0.,0.00000773,-0.00001482,0.00000158
 ,0.00000941,0.00000007,-0.00000004,0.00009296,-0.00001443,0.00002789,0
 .00574383\\-0.00000177,-0.00002617,0.00000041,-0.00008783,0.00001667,0
 .00000046,-0.00001911,-0.00001364,-0.00000050,0.00005056,0.00013044,0.
 00000097,-0.00000689,-0.00001015,-0.00000454,0.00003123,-0.00007484,-0
 .00000147,-0.00000476,0.00003329,0.00000021,-0.00001142,-0.00003184,0.
 00001695,-0.00000399,-0.00000013,-0.00000726,0.00001790,0.00004439,-0.
 00000564,-0.00004775,-0.00005416,-0.00000072,0.00003168,0.00000247,-0.
 00000086,-0.00000240,-0.00000396,0.00000024,-0.00000184,0.00000574,0.0
 0000003,0.00000865,0.00000873,-0.00000018,0.00000052,-0.00001283,-0.00
 000272,0.00000397,0.00000224,0.00000013,-0.00000066,-0.00001077,0.0000
 0368,0.00003383,0.00000704,0.00000027,0.00001008,-0.00001253,0.0000005
 5\\\@


 ONE THORN OF EXPERIENCE IS WORTH A WHOLE WILDERNESS OF
 WARNING....  LOWELL - AMONG MY BOOKS
 Job cpu time:       0 days  0 hours 57 minutes 58.3 seconds.
 File lengths (MBytes):  RWF=    155 Int=      0 D2E=      0 Chk=      6 Scr=      1
 Normal termination of Gaussian 09 at Thu Jun 20 15:22:10 2024.
