 Entering Gaussian System, Link 0=g09
 Input=camb3lypTHAPyanggd3.gjf
 Output=camb3lypTHAPyanggd3.log
 Initial command:
 /home/phzd/g09E/g09/l1.exe "/home/phzd/g09E/scratch/Gau-98948.inp" -scrdir="/home/phzd/g09E/scratch/"
 Default is to use a total of  18 processors:
                               18 via shared-memory
                                1 via Linda
 Entering Link 1 = /home/phzd/g09E/g09/l1.exe PID=     98950.
  
 Copyright (c) 1988,1990,1992,1993,1995,1998,2003,2009,2015,
            Gaussian, Inc.  All Rights Reserved.
  
 This is part of the Gaussian(R) 09 program.  It is based on
 the Gaussian(R) 03 system (copyright 2003, Gaussian, Inc.),
 the Gaussian(R) 98 system (copyright 1998, Gaussian, Inc.),
 the Gaussian(R) 94 system (copyright 1995, Gaussian, Inc.),
 the Gaussian 92(TM) system (copyright 1992, Gaussian, Inc.),
 the Gaussian 90(TM) system (copyright 1990, Gaussian, Inc.),
 the Gaussian 88(TM) system (copyright 1988, Gaussian, Inc.),
 the Gaussian 86(TM) system (copyright 1986, Carnegie Mellon
 University), and the Gaussian 82(TM) system (copyright 1983,
 Carnegie Mellon University). Gaussian is a federally registered
 trademark of Gaussian, Inc.
  
 This software contains proprietary and confidential information,
 including trade secrets, belonging to Gaussian, Inc.
  
 This software is provided under written license and may be
 used, copied, transmitted, or stored only in accord with that
 written license.
  
 The following legend is applicable only to US Government
 contracts under FAR:
  
                    RESTRICTED RIGHTS LEGEND
  
 Use, reproduction and disclosure by the US Government is
 subject to restrictions as set forth in subparagraphs (a)
 and (c) of the Commercial Computer Software - Restricted
 Rights clause in FAR 52.227-19.
  
 Gaussian, Inc.
 340 Quinnipiac St., Bldg. 40, Wallingford CT 06492
  
  
 ---------------------------------------------------------------
 Warning -- This program may not be used in any manner that
 competes with the business of Gaussian, Inc. or will provide
 assistance to any competitor of Gaussian, Inc.  The licensee
 of this program is prohibited from giving any competitor of
 Gaussian, Inc. access to this program.  By using this program,
 the user acknowledges that Gaussian, Inc. is engaged in the
 business of creating and licensing software in the field of
 computational chemistry and represents and warrants to the
 licensee that it is not a competitor of Gaussian, Inc. and that
 it will not use this program in any manner prohibited above.
 ---------------------------------------------------------------
  

 Cite this work as:
 Gaussian 09, Revision E.01,
 M. J. Frisch, G. W. Trucks, H. B. Schlegel, G. E. Scuseria, 
 M. A. Robb, J. R. Cheeseman, G. Scalmani, V. Barone, B. Mennucci, 
 G. A. Petersson, H. Nakatsuji, M. Caricato, X. Li, H. P. Hratchian, 
 A. F. Izmaylov, J. Bloino, G. Zheng, J. L. Sonnenberg, M. Hada, 
 M. Ehara, K. Toyota, R. Fukuda, J. Hasegawa, M. Ishida, T. Nakajima, 
 Y. Honda, O. Kitao, H. Nakai, T. Vreven, J. A. Montgomery, Jr., 
 J. E. Peralta, F. Ogliaro, M. Bearpark, J. J. Heyd, E. Brothers, 
 K. N. Kudin, V. N. Staroverov, T. Keith, R. Kobayashi, J. Normand, 
 K. Raghavachari, A. Rendell, J. C. Burant, S. S. Iyengar, J. Tomasi, 
 M. Cossi, N. Rega, J. M. Millam, M. Klene, J. E. Knox, J. B. Cross, 
 V. Bakken, C. Adamo, J. Jaramillo, R. Gomperts, R. E. Stratmann, 
 O. Yazyev, A. J. Austin, R. Cammi, C. Pomelli, J. W. Ochterski, 
 R. L. Martin, K. Morokuma, V. G. Zakrzewski, G. A. Voth, 
 P. Salvador, J. J. Dannenberg, S. Dapprich, A. D. Daniels, 
 O. Farkas, J. B. Foresman, J. V. Ortiz, J. Cioslowski, 
 and D. J. Fox, Gaussian, Inc., Wallingford CT, 2013.
 
 ******************************************
 Gaussian 09:  ES64L-G09RevE.01 30-Nov-2015
                20-Jun-2024 
 ******************************************
 %chk=b3lypTHAPyang.chk
 --------------------------------
 # opt freq cam-b3lyp/6-31+g(d,p)
 --------------------------------
 1/14=-1,18=20,19=15,26=3,38=1/1,3;
 2/9=110,12=2,17=6,18=5,40=1/2;
 3/5=1,6=6,7=111,11=2,16=1,25=1,30=1,71=1,74=-40/1,2,3;
 4//1;
 5/5=2,38=5/2;
 6/7=2,8=2,9=2,10=2,28=1/1;
 7//1,2,3,16;
 1/14=-1,18=20,19=15,26=3/3(2);
 2/9=110/2;
 99//99;
 2/9=110/2;
 3/5=1,6=6,7=111,11=2,16=1,25=1,30=1,71=1,74=-40/1,2,3;
 4/5=5,16=3,69=1/1;
 5/5=2,38=5/2;
 7//1,2,3,16;
 1/14=-1,18=20,19=15,26=3/3(-5);
 2/9=110/2;
 6/7=2,8=2,9=2,10=2,19=2,28=1/1;
 99/9=1/99;
 ----------
 [No Title]
 ----------
 Symbolic Z-matrix:
 Charge =  1 Multiplicity = 1
 C                    -1.55073  -1.26693  -0.00027 
 C                    -2.28677  -0.07618  -0.00034 
 C                    -1.63748   1.17496   0.00028 
 C                    -0.26057   1.21205   0.00054 
 C                     0.55916   0.02433   0.0005 
 C                    -0.16712  -1.22626   0.00053 
 O                     0.55548  -2.35894   0.00127 
 C                     1.98387   0.08227  -0.00032 
 C                     2.91717  -1.08062  -0.00104 
 O                     2.63003   1.21802  -0.00033 
 O                     0.40226   2.40293   0.00038 
 O                    -3.61622  -0.19871  -0.00085 
 H                    -2.08465  -2.21144  -0.00051 
 H                    -2.21322   2.09614   0.00007 
 H                    -0.01678  -3.1415    0.00046 
 H                     2.74814  -1.71364   0.87466 
 H                     2.74642  -1.71386  -0.87626 
 H                     3.94004  -0.70499  -0.00213 
 H                     2.02613   1.99537   0.00028 
 H                    -0.18917   3.17053   0.00103 
 H                    -4.07449   0.65523  -0.00062 
 

 GradGradGradGradGradGradGradGradGradGradGradGradGradGradGradGradGradGrad
 Berny optimization.
 Initialization pass.
                           ----------------------------
                           !    Initial Parameters    !
                           ! (Angstroms and Degrees)  !
 --------------------------                            --------------------------
 ! Name  Definition              Value          Derivative Info.                !
 --------------------------------------------------------------------------------
 ! R1    R(1,2)                  1.3999         estimate D2E/DX2                !
 ! R2    R(1,6)                  1.3842         estimate D2E/DX2                !
 ! R3    R(1,13)                 1.085          estimate D2E/DX2                !
 ! R4    R(2,3)                  1.4096         estimate D2E/DX2                !
 ! R5    R(2,12)                 1.3351         estimate D2E/DX2                !
 ! R6    R(3,4)                  1.3774         estimate D2E/DX2                !
 ! R7    R(3,14)                 1.0863         estimate D2E/DX2                !
 ! R8    R(4,5)                  1.4431         estimate D2E/DX2                !
 ! R9    R(4,11)                 1.3629         estimate D2E/DX2                !
 ! R10   R(5,6)                  1.4462         estimate D2E/DX2                !
 ! R11   R(5,8)                  1.4259         estimate D2E/DX2                !
 ! R12   R(6,7)                  1.3435         estimate D2E/DX2                !
 ! R13   R(7,15)                 0.9695         estimate D2E/DX2                !
 ! R14   R(8,9)                  1.4911         estimate D2E/DX2                !
 ! R15   R(8,10)                 1.3067         estimate D2E/DX2                !
 ! R16   R(9,16)                 1.0937         estimate D2E/DX2                !
 ! R17   R(9,17)                 1.0937         estimate D2E/DX2                !
 ! R18   R(9,18)                 1.0897         estimate D2E/DX2                !
 ! R19   R(10,19)                0.9844         estimate D2E/DX2                !
 ! R20   R(11,20)                0.969          estimate D2E/DX2                !
 ! R21   R(12,21)                0.9691         estimate D2E/DX2                !
 ! A1    A(2,1,6)              120.038          estimate D2E/DX2                !
 ! A2    A(2,1,13)             118.7992         estimate D2E/DX2                !
 ! A3    A(6,1,13)             121.1628         estimate D2E/DX2                !
 ! A4    A(1,2,3)              120.8509         estimate D2E/DX2                !
 ! A5    A(1,2,12)             116.4559         estimate D2E/DX2                !
 ! A6    A(3,2,12)             122.6932         estimate D2E/DX2                !
 ! A7    A(2,3,4)              118.9704         estimate D2E/DX2                !
 ! A8    A(2,3,14)             120.5671         estimate D2E/DX2                !
 ! A9    A(4,3,14)             120.4625         estimate D2E/DX2                !
 ! A10   A(3,4,5)              123.0696         estimate D2E/DX2                !
 ! A11   A(3,4,11)             120.6427         estimate D2E/DX2                !
 ! A12   A(5,4,11)             116.2877         estimate D2E/DX2                !
 ! A13   A(4,5,6)              115.2415         estimate D2E/DX2                !
 ! A14   A(4,5,8)              122.2839         estimate D2E/DX2                !
 ! A15   A(6,5,8)              122.4746         estimate D2E/DX2                !
 ! A16   A(1,6,5)              121.8296         estimate D2E/DX2                !
 ! A17   A(1,6,7)              120.8524         estimate D2E/DX2                !
 ! A18   A(5,6,7)              117.318          estimate D2E/DX2                !
 ! A19   A(6,7,15)             111.2871         estimate D2E/DX2                !
 ! A20   A(5,8,9)              126.4207         estimate D2E/DX2                !
 ! A21   A(5,8,10)             121.9655         estimate D2E/DX2                !
 ! A22   A(9,8,10)             111.6138         estimate D2E/DX2                !
 ! A23   A(8,9,16)             110.7496         estimate D2E/DX2                !
 ! A24   A(8,9,17)             110.7455         estimate D2E/DX2                !
 ! A25   A(8,9,18)             108.5849         estimate D2E/DX2                !
 ! A26   A(16,9,17)            106.3496         estimate D2E/DX2                !
 ! A27   A(16,9,18)            110.2061         estimate D2E/DX2                !
 ! A28   A(17,9,18)            110.2026         estimate D2E/DX2                !
 ! A29   A(8,10,19)            112.5204         estimate D2E/DX2                !
 ! A30   A(4,11,20)            113.2864         estimate D2E/DX2                !
 ! A31   A(2,12,21)            112.9546         estimate D2E/DX2                !
 ! D1    D(6,1,2,3)              0.0062         estimate D2E/DX2                !
 ! D2    D(6,1,2,12)          -179.9865         estimate D2E/DX2                !
 ! D3    D(13,1,2,3)           179.9847         estimate D2E/DX2                !
 ! D4    D(13,1,2,12)           -0.008          estimate D2E/DX2                !
 ! D5    D(2,1,6,5)             -0.0382         estimate D2E/DX2                !
 ! D6    D(2,1,6,7)            179.9668         estimate D2E/DX2                !
 ! D7    D(13,1,6,5)           179.9838         estimate D2E/DX2                !
 ! D8    D(13,1,6,7)            -0.0113         estimate D2E/DX2                !
 ! D9    D(1,2,3,4)              0.0191         estimate D2E/DX2                !
 ! D10   D(1,2,3,14)           179.9904         estimate D2E/DX2                !
 ! D11   D(12,2,3,4)          -179.9886         estimate D2E/DX2                !
 ! D12   D(12,2,3,14)           -0.0174         estimate D2E/DX2                !
 ! D13   D(1,2,12,21)          179.9836         estimate D2E/DX2                !
 ! D14   D(3,2,12,21)           -0.0089         estimate D2E/DX2                !
 ! D15   D(2,3,4,5)             -0.0131         estimate D2E/DX2                !
 ! D16   D(2,3,4,11)           179.963          estimate D2E/DX2                !
 ! D17   D(14,3,4,5)          -179.9844         estimate D2E/DX2                !
 ! D18   D(14,3,4,11)           -0.0082         estimate D2E/DX2                !
 ! D19   D(3,4,5,6)             -0.0165         estimate D2E/DX2                !
 ! D20   D(3,4,5,8)            179.9477         estimate D2E/DX2                !
 ! D21   D(11,4,5,6)          -179.9936         estimate D2E/DX2                !
 ! D22   D(11,4,5,8)            -0.0294         estimate D2E/DX2                !
 ! D23   D(3,4,11,20)            0.0621         estimate D2E/DX2                !
 ! D24   D(5,4,11,20)         -179.9602         estimate D2E/DX2                !
 ! D25   D(4,5,6,1)              0.0423         estimate D2E/DX2                !
 ! D26   D(4,5,6,7)           -179.9625         estimate D2E/DX2                !
 ! D27   D(8,5,6,1)           -179.9218         estimate D2E/DX2                !
 ! D28   D(8,5,6,7)              0.0734         estimate D2E/DX2                !
 ! D29   D(4,5,8,9)           -179.9716         estimate D2E/DX2                !
 ! D30   D(4,5,8,10)             0.0393         estimate D2E/DX2                !
 ! D31   D(6,5,8,9)             -0.01           estimate D2E/DX2                !
 ! D32   D(6,5,8,10)          -179.9991         estimate D2E/DX2                !
 ! D33   D(1,6,7,15)             0.044          estimate D2E/DX2                !
 ! D34   D(5,6,7,15)          -179.9512         estimate D2E/DX2                !
 ! D35   D(5,8,9,16)           -58.8948         estimate D2E/DX2                !
 ! D36   D(5,8,9,17)            58.841          estimate D2E/DX2                !
 ! D37   D(5,8,9,18)           179.9696         estimate D2E/DX2                !
 ! D38   D(10,8,9,16)          121.0953         estimate D2E/DX2                !
 ! D39   D(10,8,9,17)         -121.1689         estimate D2E/DX2                !
 ! D40   D(10,8,9,18)           -0.0403         estimate D2E/DX2                !
 ! D41   D(5,8,10,19)           -0.0004         estimate D2E/DX2                !
 ! D42   D(9,8,10,19)         -179.991          estimate D2E/DX2                !
 --------------------------------------------------------------------------------
 Trust Radius=3.00D-01 FncErr=1.00D-07 GrdErr=1.00D-06
 Number of steps in this run=    104 maximum allowed number of steps=    126.
 GradGradGradGradGradGradGradGradGradGradGradGradGradGradGradGradGradGrad

                          Input orientation:                          
 ---------------------------------------------------------------------
 Center     Atomic      Atomic             Coordinates (Angstroms)
 Number     Number       Type             X           Y           Z
 ---------------------------------------------------------------------
      1          6           0       -1.550730   -1.266928   -0.000274
      2          6           0       -2.286773   -0.076182   -0.000338
      3          6           0       -1.637483    1.174960    0.000276
      4          6           0       -0.260572    1.212049    0.000542
      5          6           0        0.559162    0.024334    0.000498
      6          6           0       -0.167120   -1.226258    0.000528
      7          8           0        0.555480   -2.358938    0.001271
      8          6           0        1.983873    0.082271   -0.000324
      9          6           0        2.917168   -1.080618   -0.001036
     10          8           0        2.630034    1.218020   -0.000326
     11          8           0        0.402256    2.402929    0.000378
     12          8           0       -3.616218   -0.198711   -0.000852
     13          1           0       -2.084653   -2.211436   -0.000505
     14          1           0       -2.213221    2.096137    0.000066
     15          1           0       -0.016783   -3.141501    0.000460
     16          1           0        2.748141   -1.713640    0.874663
     17          1           0        2.746421   -1.713860   -0.876256
     18          1           0        3.940044   -0.704993   -0.002125
     19          1           0        2.026133    1.995365    0.000284
     20          1           0       -0.189173    3.170530    0.001033
     21          1           0       -4.074488    0.655227   -0.000617
 ---------------------------------------------------------------------
                    Distance matrix (angstroms):
                    1          2          3          4          5
     1  C    0.000000
     2  C    1.399870   0.000000
     3  C    2.443429   1.409587   0.000000
     4  C    2.794608   2.401048   1.377410   0.000000
     5  C    2.473662   2.847710   2.479756   1.443132   0.000000
     6  C    1.384208   2.411556   2.815638   2.440097   1.446190
     7  O    2.372469   3.645460   4.159029   3.663044   2.383275
     8  C    3.783353   4.273585   3.782617   2.512754   1.425889
     9  C    4.471781   5.299990   5.082566   3.918463   2.604057
    10  O    4.863513   5.084285   4.267734   2.890612   2.390271
    11  O    4.157163   3.657440   2.380849   1.362915   2.383765
    12  O    2.325366   1.335080   2.408810   3.640138   4.181333
    13  H    1.084974   2.144799   3.415793   3.879114   3.462431
    14  H    3.427696   2.173564   1.086297   2.143467   3.460993
    15  H    2.422193   3.814320   4.610695   4.360370   3.217798
    16  H    4.409689   5.366307   5.323745   4.286735   2.928540
    17  H    4.408242   5.364910   5.322800   4.286225   2.928159
    18  H    5.519454   6.258487   5.885834   4.617384   3.458654
    19  H    4.841126   4.784607   3.754350   2.417148   2.457024
    20  H    4.641645   3.865368   2.465746   1.959782   3.233969
    21  H    3.172386   1.931550   2.491810   3.854349   4.676402
                    6          7          8          9         10
     6  C    0.000000
     7  O    1.343546   0.000000
     8  C    2.517741   2.828394   0.000000
     9  C    3.087725   2.685457   1.491091   0.000000
    10  O    3.714642   4.135022   1.306694   2.316502   0.000000
    11  O    3.673580   4.764332   2.808374   4.296497   2.523292
    12  O    3.598907   4.697835   5.607136   6.592639   6.404904
    13  H    2.155808   2.644251   4.670546   5.128056   5.830046
    14  H    3.901902   5.245322   4.655239   6.034291   4.922216
    15  H    1.921134   0.969479   3.794118   3.585430   5.100104
    16  H    3.082272   2.446832   2.138926   1.093680   3.061729
    17  H    3.081433   2.446712   2.138884   1.093691   3.062143
    18  H    4.140111   3.767070   2.108647   1.089665   2.326824
    19  H    3.897334   4.595952   1.913561   3.202439   0.984359
    20  H    4.396843   5.579384   3.776172   5.265132   3.429318
    21  H    4.336763   5.524654   6.085394   7.203916   6.728102
                   11         12         13         14         15
    11  O    0.000000
    12  O    4.787135   0.000000
    13  H    5.241859   2.529180   0.000000
    14  H    2.633409   2.689745   4.309491   0.000000
    15  H    5.560243   4.649295   2.267401   5.679542   0.000000
    16  H    4.818059   6.600500   4.936559   6.316204   3.232309
    17  H    4.817836   6.598877   4.934957   6.315225   3.231422
    18  H    4.709048   7.573204   6.210181   6.760843   4.646833
    19  H    1.674242   6.053932   5.881814   4.240552   5.528191
    20  H    0.969020   4.805874   5.705997   2.291526   6.314385
    21  H    4.805799   0.969134   3.489585   2.353835   5.556988
                   16         17         18         19         20
    16  H    0.000000
    17  H    1.750920   0.000000
    18  H    1.790743   1.790713   0.000000
    19  H    3.878473   3.878851   3.309833   0.000000
    20  H    5.765948   5.765814   5.663049   2.507707   0.000000
    21  H    7.275020   7.273522   8.129140   6.246083   4.628437
                   21
    21  H    0.000000
 Stoichiometry    C8H9O4(1+)
 Framework group  C1[X(C8H9O4)]
 Deg. of freedom    57
 Full point group                 C1      NOp   1
 Largest Abelian subgroup         C1      NOp   1
 Largest concise Abelian subgroup C1      NOp   1
                         Standard orientation:                         
 ---------------------------------------------------------------------
 Center     Atomic      Atomic             Coordinates (Angstroms)
 Number     Number       Type             X           Y           Z
 ---------------------------------------------------------------------
      1          6           0        1.550730   -1.266928    0.000274
      2          6           0        2.286773   -0.076182    0.000338
      3          6           0        1.637483    1.174960   -0.000276
      4          6           0        0.260572    1.212049   -0.000542
      5          6           0       -0.559162    0.024334   -0.000498
      6          6           0        0.167120   -1.226258   -0.000528
      7          8           0       -0.555481   -2.358938   -0.001271
      8          6           0       -1.983873    0.082271    0.000324
      9          6           0       -2.917168   -1.080618    0.001036
     10          8           0       -2.630034    1.218020    0.000326
     11          8           0       -0.402256    2.402929   -0.000378
     12          8           0        3.616218   -0.198712    0.000852
     13          1           0        2.084653   -2.211436    0.000505
     14          1           0        2.213221    2.096137   -0.000066
     15          1           0        0.016782   -3.141501   -0.000460
     16          1           0       -2.748141   -1.713640   -0.874663
     17          1           0       -2.746421   -1.713860    0.876256
     18          1           0       -3.940044   -0.704992    0.002125
     19          1           0       -2.026133    1.995365   -0.000284
     20          1           0        0.189173    3.170530   -0.001033
     21          1           0        4.074488    0.655226    0.000617
 ---------------------------------------------------------------------
 Rotational constants (GHZ):      1.5183730      0.7561919      0.5063544
 Standard basis: 6-31+G(d,p) (6D, 7F)
 There are   273 symmetry adapted cartesian basis functions of A   symmetry.
 There are   273 symmetry adapted basis functions of A   symmetry.
   273 basis functions,   447 primitive gaussians,   273 cartesian basis functions
    44 alpha electrons       44 beta electrons
       nuclear repulsion energy       712.1628965004 Hartrees.
 NAtoms=   21 NActive=   21 NUniq=   21 SFac= 1.00D+00 NAtFMM=   60 NAOKFM=F Big=F
 Integral buffers will be    131072 words long.
 Raffenetti 2 integral format.
 Two-electron integral symmetry is turned on.
 One-electron integrals computed using PRISM.
 NBasis=   273 RedAO= T EigKep=  1.40D-06  NBF=   273
 NBsUse=   273 1.00D-06 EigRej= -1.00D+00 NBFU=   273
 ExpMin= 4.38D-02 ExpMax= 5.48D+03 ExpMxC= 8.25D+02 IAcc=2 IRadAn=         4 AccDes= 0.00D+00
 Harris functional with IExCor=20419 and IRadAn=       4 diagonalized for initial guess.
 HarFok:  IExCor=20419 AccDes= 0.00D+00 IRadAn=         4 IDoV= 1 UseB2=F ITyADJ=14
 ICtDFT=  3500011 ScaDFX=  1.000000  1.000000  1.000000  1.000000
 FoFCou: FMM=F IPFlag=           0 FMFlag=      100000 FMFlg1=           0
         NFxFlg=           0 DoJE=T BraDBF=F KetDBF=T FulRan=T
         wScrn=  0.000000 ICntrl=     500 IOpCl=  0 I1Cent=   200000004 NGrid=           0
         NMat0=    1 NMatS0=      1 NMatT0=    0 NMatD0=    1 NMtDS0=    0 NMtDT0=    0
 Petite list used in FoFCou.
 Requested convergence on RMS density matrix=1.00D-08 within 128 cycles.
 Requested convergence on MAX density matrix=1.00D-06.
 Requested convergence on             energy=1.00D-06.
 No special actions if energy rises.
 SCF Done:  E(RCAM-B3LYP) =  -610.695748391     A.U. after   15 cycles
            NFock= 15  Conv=0.46D-08     -V/T= 2.0091

 **********************************************************************

            Population analysis using the SCF density.

 **********************************************************************

 Orbital symmetries:
       Occupied  (A) (A) (A) (A) (A) (A) (A) (A) (A) (A) (A) (A)
                 (A) (A) (A) (A) (A) (A) (A) (A) (A) (A) (A) (A)
                 (A) (A) (A) (A) (A) (A) (A) (A) (A) (A) (A) (A)
                 (A) (A) (A) (A) (A) (A) (A) (A)
       Virtual   (A) (A) (A) (A) (A) (A) (A) (A) (A) (A) (A) (A)
                 (A) (A) (A) (A) (A) (A) (A) (A) (A) (A) (A) (A)
                 (A) (A) (A) (A) (A) (A) (A) (A) (A) (A) (A) (A)
                 (A) (A) (A) (A) (A) (A) (A) (A) (A) (A) (A) (A)
                 (A) (A) (A) (A) (A) (A) (A) (A) (A) (A) (A) (A)
                 (A) (A) (A) (A) (A) (A) (A) (A) (A) (A) (A) (A)
                 (A) (A) (A) (A) (A) (A) (A) (A) (A) (A) (A) (A)
                 (A) (A) (A) (A) (A) (A) (A) (A) (A) (A) (A) (A)
                 (A) (A) (A) (A) (A) (A) (A) (A) (A) (A) (A) (A)
                 (A) (A) (A) (A) (A) (A) (A) (A) (A) (A) (A) (A)
                 (A) (A) (A) (A) (A) (A) (A) (A) (A) (A) (A) (A)
                 (A) (A) (A) (A) (A) (A) (A) (A) (A) (A) (A) (A)
                 (A) (A) (A) (A) (A) (A) (A) (A) (A) (A) (A) (A)
                 (A) (A) (A) (A) (A) (A) (A) (A) (A) (A) (A) (A)
                 (A) (A) (A) (A) (A) (A) (A) (A) (A) (A) (A) (A)
                 (A) (A) (A) (A) (A) (A) (A) (A) (A) (A) (A) (A)
                 (A) (A) (A) (A) (A) (A) (A) (A) (A) (A) (A) (A)
                 (A) (A) (A) (A) (A) (A) (A) (A) (A) (A) (A) (A)
                 (A) (A) (A) (A) (A) (A) (A) (A) (A) (A) (A) (A)
                 (A)
 The electronic state is 1-A.
 Alpha  occ. eigenvalues --  -19.46375 -19.45634 -19.43826 -19.43485 -10.56192
 Alpha  occ. eigenvalues --  -10.53807 -10.53013 -10.52743 -10.46195 -10.44088
 Alpha  occ. eigenvalues --  -10.42828 -10.41270  -1.36655  -1.34104  -1.33256
 Alpha  occ. eigenvalues --   -1.32783  -1.11825  -1.04739  -1.00751  -0.99258
 Alpha  occ. eigenvalues --   -0.91175  -0.89547  -0.87022  -0.83615  -0.81413
 Alpha  occ. eigenvalues --   -0.79238  -0.75284  -0.73018  -0.70867  -0.69020
 Alpha  occ. eigenvalues --   -0.68320  -0.67894  -0.67122  -0.65643  -0.64358
 Alpha  occ. eigenvalues --   -0.63786  -0.62532  -0.60609  -0.60352  -0.58776
 Alpha  occ. eigenvalues --   -0.58263  -0.54072  -0.46749  -0.45829
 Alpha virt. eigenvalues --   -0.20515  -0.11973  -0.11478  -0.09487  -0.09229
 Alpha virt. eigenvalues --   -0.08903  -0.07609  -0.05417  -0.05161  -0.04518
 Alpha virt. eigenvalues --   -0.03859  -0.02920  -0.01910  -0.01159  -0.01111
 Alpha virt. eigenvalues --   -0.00230   0.01270   0.01443   0.02381   0.02755
 Alpha virt. eigenvalues --    0.03511   0.04285   0.04379   0.05161   0.05769
 Alpha virt. eigenvalues --    0.06184   0.06586   0.06642   0.07679   0.08150
 Alpha virt. eigenvalues --    0.08265   0.09448   0.10410   0.10866   0.11299
 Alpha virt. eigenvalues --    0.12181   0.12370   0.12541   0.13259   0.13626
 Alpha virt. eigenvalues --    0.14512   0.15541   0.16169   0.16614   0.16714
 Alpha virt. eigenvalues --    0.17611   0.17683   0.18109   0.18746   0.20027
 Alpha virt. eigenvalues --    0.20156   0.20554   0.21318   0.22030   0.22548
 Alpha virt. eigenvalues --    0.23044   0.23380   0.24085   0.26049   0.26366
 Alpha virt. eigenvalues --    0.27758   0.27998   0.29772   0.30693   0.32371
 Alpha virt. eigenvalues --    0.33575   0.34321   0.35122   0.36778   0.37607
 Alpha virt. eigenvalues --    0.42639   0.49141   0.50967   0.54614   0.56706
 Alpha virt. eigenvalues --    0.58568   0.60324   0.60389   0.61544   0.62622
 Alpha virt. eigenvalues --    0.63431   0.64771   0.65146   0.66184   0.67520
 Alpha virt. eigenvalues --    0.71365   0.73580   0.76013   0.76357   0.78570
 Alpha virt. eigenvalues --    0.82557   0.83453   0.85723   0.90690   0.92062
 Alpha virt. eigenvalues --    0.93924   0.94901   0.95597   0.98577   0.98966
 Alpha virt. eigenvalues --    1.00292   1.00888   1.03742   1.04491   1.07033
 Alpha virt. eigenvalues --    1.08558   1.08937   1.09868   1.10050   1.10643
 Alpha virt. eigenvalues --    1.11733   1.11970   1.13304   1.15354   1.16420
 Alpha virt. eigenvalues --    1.18299   1.18723   1.20102   1.22119   1.22391
 Alpha virt. eigenvalues --    1.25153   1.26057   1.26495   1.27701   1.27938
 Alpha virt. eigenvalues --    1.28342   1.30393   1.33391   1.36365   1.37396
 Alpha virt. eigenvalues --    1.41797   1.43167   1.49636   1.49992   1.50780
 Alpha virt. eigenvalues --    1.51887   1.53803   1.60952   1.61033   1.63285
 Alpha virt. eigenvalues --    1.65275   1.70644   1.71566   1.73506   1.75454
 Alpha virt. eigenvalues --    1.77181   1.79124   1.80135   1.81571   1.83004
 Alpha virt. eigenvalues --    1.83882   1.85467   1.86997   1.89713   1.90852
 Alpha virt. eigenvalues --    1.92501   1.95489   1.96614   1.99046   2.05129
 Alpha virt. eigenvalues --    2.05839   2.07921   2.10336   2.10885   2.16222
 Alpha virt. eigenvalues --    2.17514   2.21103   2.21630   2.24833   2.27628
 Alpha virt. eigenvalues --    2.29633   2.31917   2.32217   2.36194   2.36715
 Alpha virt. eigenvalues --    2.36909   2.38667   2.40673   2.41873   2.43018
 Alpha virt. eigenvalues --    2.44111   2.45874   2.46575   2.51820   2.54507
 Alpha virt. eigenvalues --    2.54817   2.56567   2.57344   2.59728   2.61636
 Alpha virt. eigenvalues --    2.63854   2.64038   2.65075   2.67491   2.69433
 Alpha virt. eigenvalues --    2.73872   2.78382   2.78850   2.84457   2.92640
 Alpha virt. eigenvalues --    2.94497   2.97352   3.02068   3.04231   3.07118
 Alpha virt. eigenvalues --    3.11793   3.15287   3.23488   3.30744   3.36936
 Alpha virt. eigenvalues --    3.36955   3.38344   3.42220   3.45363   3.46853
 Alpha virt. eigenvalues --    3.55747   3.67133   4.15058   4.16851   4.19192
 Alpha virt. eigenvalues --    4.24808   4.30862   4.35227   4.38623   4.44441
 Alpha virt. eigenvalues --    4.55321   4.66450   4.70691   4.81403
          Condensed to atoms (all electrons):
               1          2          3          4          5          6
     1  C   11.341520  -1.558623   0.992731  -3.788798  -0.165889  -3.866229
     2  C   -1.558623   7.073385  -0.609180   1.921162  -1.889244   2.503980
     3  C    0.992731  -0.609180  10.106722  -3.210137  -0.079531  -2.069550
     4  C   -3.788798   1.921162  -3.210137  16.263047  -2.951431   2.208327
     5  C   -0.165889  -1.889244  -0.079531  -2.951431  14.673227  -3.618805
     6  C   -3.866229   2.503980  -2.069550   2.208327  -3.618805  14.667508
     7  O    0.140889  -0.001022   0.017671   0.038602  -0.198889   0.069617
     8  C    2.056019  -0.958146  -0.001284  -3.387161  -2.101006  -1.019815
     9  C   -0.202866  -0.025246  -0.331712  -0.070618   0.064303  -0.789676
    10  O   -0.000697   0.003266   0.004035  -0.125428   0.224930   0.051889
    11  O    0.044934   0.029924   0.409268  -0.112991  -0.079201  -0.041872
    12  O   -0.174559   0.148152  -0.095412   0.083254  -0.032233   0.100764
    13  H    0.260083   0.085670   0.048744  -0.025575   0.013911  -0.050620
    14  H    0.018984   0.027156   0.250660   0.011289   0.036536  -0.029990
    15  H   -0.062795   0.008684   0.002520   0.000601   0.096666  -0.048765
    16  H   -0.005142   0.000581  -0.002448  -0.001434   0.047113   0.003330
    17  H   -0.005525   0.000586  -0.002364  -0.001113   0.048294   0.003363
    18  H   -0.000009   0.000268  -0.001817  -0.019852   0.022312   0.021788
    19  H    0.001100  -0.000587   0.007499   0.071136  -0.198489  -0.057029
    20  H    0.004905  -0.004431  -0.062159  -0.067494   0.094238  -0.000886
    21  H    0.067848  -0.063383   0.008226  -0.001670   0.026617  -0.041436
               7          8          9         10         11         12
     1  C    0.140889   2.056019  -0.202866  -0.000697   0.044934  -0.174559
     2  C   -0.001022  -0.958146  -0.025246   0.003266   0.029924   0.148152
     3  C    0.017671  -0.001284  -0.331712   0.004035   0.409268  -0.095412
     4  C    0.038602  -3.387161  -0.070618  -0.125428  -0.112991   0.083254
     5  C   -0.198889  -2.101006   0.064303   0.224930  -0.079201  -0.032233
     6  C    0.069617  -1.019815  -0.789676   0.051889  -0.041872   0.100764
     7  O    8.398347  -0.040540  -0.093155   0.001720  -0.000868  -0.000721
     8  C   -0.040540  11.866920  -0.969217   0.347368  -0.301825   0.001350
     9  C   -0.093155  -0.969217   7.780171  -0.441326  -0.012771   0.000213
    10  O    0.001720   0.347368  -0.441326   8.080005   0.034359  -0.000030
    11  O   -0.000868  -0.301825  -0.012771   0.034359   8.402999  -0.000988
    12  O   -0.000721   0.001350   0.000213  -0.000030  -0.000988   8.241444
    13  H   -0.014472   0.005382   0.000749   0.000010   0.000029  -0.007973
    14  H    0.000015   0.019394  -0.000354  -0.000032  -0.016818  -0.012456
    15  H    0.223173  -0.003109   0.009985   0.000008   0.000011  -0.000045
    16  H   -0.002443  -0.081667   0.393001   0.003944  -0.000037   0.000000
    17  H   -0.002470  -0.082696   0.392760   0.003976  -0.000041   0.000000
    18  H    0.000560  -0.113051   0.456672  -0.007668   0.000125  -0.000000
    19  H   -0.000029   0.093492   0.078553   0.208819   0.031234   0.000004
    20  H    0.000015   0.026480   0.002908   0.002071   0.238949  -0.000029
    21  H    0.000027   0.002825  -0.000031  -0.000000  -0.000066   0.228382
              13         14         15         16         17         18
     1  C    0.260083   0.018984  -0.062795  -0.005142  -0.005525  -0.000009
     2  C    0.085670   0.027156   0.008684   0.000581   0.000586   0.000268
     3  C    0.048744   0.250660   0.002520  -0.002448  -0.002364  -0.001817
     4  C   -0.025575   0.011289   0.000601  -0.001434  -0.001113  -0.019852
     5  C    0.013911   0.036536   0.096666   0.047113   0.048294   0.022312
     6  C   -0.050620  -0.029990  -0.048765   0.003330   0.003363   0.021788
     7  O   -0.014472   0.000015   0.223173  -0.002443  -0.002470   0.000560
     8  C    0.005382   0.019394  -0.003109  -0.081667  -0.082696  -0.113051
     9  C    0.000749  -0.000354   0.009985   0.393001   0.392760   0.456672
    10  O    0.000010  -0.000032   0.000008   0.003944   0.003976  -0.007668
    11  O    0.000029  -0.016818   0.000011  -0.000037  -0.000041   0.000125
    12  O   -0.007973  -0.012456  -0.000045   0.000000   0.000000  -0.000000
    13  H    0.509424  -0.000106   0.006465  -0.000000  -0.000000  -0.000000
    14  H   -0.000106   0.538167  -0.000000   0.000000   0.000000  -0.000000
    15  H    0.006465  -0.000000   0.347459   0.000346   0.000344  -0.000025
    16  H   -0.000000   0.000000   0.000346   0.463470  -0.018877  -0.019892
    17  H   -0.000000   0.000000   0.000344  -0.018877   0.463619  -0.019907
    18  H   -0.000000  -0.000000  -0.000025  -0.019892  -0.019907   0.471739
    19  H   -0.000000  -0.000005  -0.000000  -0.000249  -0.000249   0.000262
    20  H   -0.000000   0.007468  -0.000000  -0.000000  -0.000000  -0.000000
    21  H   -0.000000   0.005124   0.000000   0.000000   0.000000  -0.000000
              19         20         21
     1  C    0.001100   0.004905   0.067848
     2  C   -0.000587  -0.004431  -0.063383
     3  C    0.007499  -0.062159   0.008226
     4  C    0.071136  -0.067494  -0.001670
     5  C   -0.198489   0.094238   0.026617
     6  C   -0.057029  -0.000886  -0.041436
     7  O   -0.000029   0.000015   0.000027
     8  C    0.093492   0.026480   0.002825
     9  C    0.078553   0.002908  -0.000031
    10  O    0.208819   0.002071  -0.000000
    11  O    0.031234   0.238949  -0.000066
    12  O    0.000004  -0.000029   0.228382
    13  H   -0.000000  -0.000000  -0.000000
    14  H   -0.000005   0.007468   0.005124
    15  H   -0.000000  -0.000000   0.000000
    16  H   -0.000249  -0.000000   0.000000
    17  H   -0.000249  -0.000000   0.000000
    18  H    0.000262  -0.000000  -0.000000
    19  H    0.300763   0.000210  -0.000000
    20  H    0.000210   0.323663   0.000010
    21  H   -0.000000   0.000010   0.376973
 Mulliken charges:
               1
     1  C    0.902116
     2  C   -0.692951
     3  C    0.617519
     4  C   -0.833714
     5  C    1.966571
     6  C   -1.995893
     7  O   -0.536028
     8  C    0.640283
     9  C   -0.242344
    10  O   -0.391219
    11  O   -0.624352
    12  O   -0.479118
    13  H    0.168281
    14  H    0.144968
    15  H    0.418477
    16  H    0.220404
    17  H    0.220301
    18  H    0.208495
    19  H    0.463566
    20  H    0.434082
    21  H    0.390556
 Sum of Mulliken charges =   1.00000
 Mulliken charges with hydrogens summed into heavy atoms:
               1
     1  C    1.070397
     2  C   -0.692951
     3  C    0.762487
     4  C   -0.833714
     5  C    1.966571
     6  C   -1.995893
     7  O   -0.117551
     8  C    0.640283
     9  C    0.406856
    10  O    0.072347
    11  O   -0.190270
    12  O   -0.088562
 Electronic spatial extent (au):  <R**2>=           2077.9963
 Charge=              1.0000 electrons
 Dipole moment (field-independent basis, Debye):
    X=              1.5879    Y=              1.7033    Z=              0.0001  Tot=              2.3287
 Quadrupole moment (field-independent basis, Debye-Ang):
   XX=            -43.5133   YY=            -36.9060   ZZ=            -69.9663
   XY=              9.1000   XZ=             -0.0030   YZ=             -0.0104
 Traceless Quadrupole moment (field-independent basis, Debye-Ang):
   XX=              6.6153   YY=             13.2225   ZZ=            -19.8378
   XY=              9.1000   XZ=             -0.0030   YZ=             -0.0104
 Octapole moment (field-independent basis, Debye-Ang**2):
  XXX=             28.4688  YYY=             14.0839  ZZZ=              0.0012  XYY=             15.8568
  XXY=             20.0920  XXZ=              0.0089  XZZ=             -5.1877  YZZ=              0.0639
  YYZ=             -0.0128  XYZ=              0.0110
 Hexadecapole moment (field-independent basis, Debye-Ang**3):
 XXXX=          -1331.3318 YYYY=           -485.5929 ZZZZ=            -76.3691 XXXY=            157.9956
 XXXZ=             -0.0132 YYYX=            -14.6975 YYYZ=             -0.0839 ZZZX=              0.0095
 ZZZY=              0.0036 XXYY=           -356.5907 XXZZ=           -294.2977 YYZZ=           -155.9501
 XXYZ=              0.0060 YYXZ=              0.0026 ZZXY=              1.4302
 N-N= 7.121628965004D+02 E-N=-2.835246128959D+03  KE= 6.051909594820D+02
 Calling FoFJK, ICntrl=      2127 FMM=F ISym2X=0 I1Cent= 0 IOpClX= 0 NMat=1 NMatS=1 NMatT=0.
 ***** Axes restored to original set *****
 -------------------------------------------------------------------
 Center     Atomic                   Forces (Hartrees/Bohr)
 Number     Number              X              Y              Z
 -------------------------------------------------------------------
      1        6           0.002307680    0.003320172    0.000020829
      2        6           0.000345621   -0.001185862    0.000017923
      3        6           0.002725804   -0.002652376   -0.000015010
      4        6           0.000266506   -0.000304049   -0.000029539
      5        6          -0.001768930    0.000050790   -0.000019012
      6        6           0.000774482    0.000402507   -0.000019800
      7        8          -0.004040344    0.004601542   -0.000025699
      8        6           0.002470280    0.004545574    0.000058737
      9        6          -0.001631164    0.001138668   -0.000033437
     10        8          -0.006115573   -0.007227043   -0.000006093
     11        8          -0.003270541   -0.004943281    0.000026635
     12        8           0.006235122    0.002303452    0.000000493
     13        1           0.000184075    0.000474777    0.000003855
     14        1           0.000336625   -0.000457838    0.000005610
     15        1           0.000896085    0.000968461    0.000011962
     16        1          -0.000296924    0.000745503   -0.000643465
     17        1          -0.000291754    0.000740813    0.000655553
     18        1          -0.000772155    0.000201243    0.000006854
     19        1           0.000239601   -0.000508572   -0.000005800
     20        1           0.000849157   -0.000851456   -0.000007566
     21        1           0.000556345   -0.001363026   -0.000003031
 -------------------------------------------------------------------
 Cartesian Forces:  Max     0.007227043 RMS     0.002117885

 GradGradGradGradGradGradGradGradGradGradGradGradGradGradGradGradGradGrad
 Berny optimization.
 FormGI is forming the generalized inverse of G from B-inverse, IUseBI=4.
 Internal  Forces:  Max     0.009629024 RMS     0.002384730
 Search for a local minimum.
 Step number   1 out of a maximum of  104
 All quantities printed in internal units (Hartrees-Bohrs-Radians)
 Mixed Optimization -- RFO/linear search
 Second derivative matrix not updated -- first step.
 ITU=  0
     Eigenvalues ---    0.00884   0.01504   0.01542   0.01689   0.01746
     Eigenvalues ---    0.01935   0.02010   0.02067   0.02098   0.02156
     Eigenvalues ---    0.02182   0.02201   0.02226   0.02439   0.02551
     Eigenvalues ---    0.02926   0.07464   0.07521   0.16000   0.16000
     Eigenvalues ---    0.16000   0.16000   0.16000   0.16000   0.16000
     Eigenvalues ---    0.16000   0.16000   0.23479   0.23491   0.25000
     Eigenvalues ---    0.25000   0.25000   0.25000   0.25000   0.25000
     Eigenvalues ---    0.25000   0.33330   0.34390   0.34391   0.34851
     Eigenvalues ---    0.35244   0.35400   0.37332   0.38199   0.41586
     Eigenvalues ---    0.42916   0.44224   0.46734   0.49093   0.50547
     Eigenvalues ---    0.52363   0.53483   0.53554   0.53578   0.56418
     Eigenvalues ---    0.58322   0.65368
 RFO step:  Lambda=-1.14623218D-03 EMin= 8.83802994D-03
 Linear search not attempted -- first point.
 Iteration  1 RMS(Cart)=  0.01584676 RMS(Int)=  0.00002071
 Iteration  2 RMS(Cart)=  0.00003598 RMS(Int)=  0.00000231
 Iteration  3 RMS(Cart)=  0.00000000 RMS(Int)=  0.00000231
 Variable       Old X    -DE/DX   Delta X   Delta X   Delta X     New X
                                 (Linear)    (Quad)   (Total)
    R1        2.64537  -0.00523   0.00000  -0.01132  -0.01133   2.63405
    R2        2.61577  -0.00615   0.00000  -0.01267  -0.01267   2.60310
    R3        2.05030  -0.00050   0.00000  -0.00142  -0.00142   2.04889
    R4        2.66373  -0.00483   0.00000  -0.01084  -0.01084   2.65289
    R5        2.52293  -0.00685   0.00000  -0.01172  -0.01172   2.51121
    R6        2.60293  -0.00655   0.00000  -0.01320  -0.01320   2.58973
    R7        2.05280  -0.00057   0.00000  -0.00160  -0.00160   2.05120
    R8        2.72712  -0.00708   0.00000  -0.01814  -0.01813   2.70899
    R9        2.57554  -0.00624   0.00000  -0.01189  -0.01189   2.56364
   R10        2.73290  -0.00699   0.00000  -0.01808  -0.01808   2.71482
   R11        2.69454  -0.00641   0.00000  -0.01536  -0.01536   2.67918
   R12        2.53893  -0.00639   0.00000  -0.01130  -0.01130   2.52764
   R13        1.83205  -0.00131   0.00000  -0.00245  -0.00245   1.82960
   R14        2.81775  -0.00408   0.00000  -0.01219  -0.01219   2.80556
   R15        2.46929  -0.00963   0.00000  -0.01470  -0.01470   2.45459
   R16        2.06676  -0.00090   0.00000  -0.00261  -0.00261   2.06414
   R17        2.06678  -0.00091   0.00000  -0.00263  -0.00263   2.06414
   R18        2.05917  -0.00066   0.00000  -0.00187  -0.00187   2.05730
   R19        1.86017  -0.00055   0.00000  -0.00108  -0.00108   1.85909
   R20        1.83118  -0.00119   0.00000  -0.00222  -0.00222   1.82896
   R21        1.83140  -0.00146   0.00000  -0.00273  -0.00273   1.82867
    A1        2.09506  -0.00101   0.00000  -0.00409  -0.00410   2.09096
    A2        2.07344   0.00043   0.00000   0.00158   0.00159   2.07502
    A3        2.11469   0.00058   0.00000   0.00251   0.00251   2.11720
    A4        2.10925   0.00111   0.00000   0.00492   0.00491   2.11416
    A5        2.03254  -0.00030   0.00000  -0.00146  -0.00145   2.03109
    A6        2.14140  -0.00081   0.00000  -0.00347  -0.00346   2.13794
    A7        2.07642  -0.00120   0.00000  -0.00510  -0.00510   2.07132
    A8        2.10429   0.00065   0.00000   0.00282   0.00282   2.10711
    A9        2.10247   0.00056   0.00000   0.00228   0.00228   2.10475
   A10        2.14797   0.00012   0.00000   0.00046   0.00047   2.14844
   A11        2.10561   0.00098   0.00000   0.00392   0.00392   2.10953
   A12        2.02960  -0.00110   0.00000  -0.00439  -0.00439   2.02521
   A13        2.01134   0.00119   0.00000   0.00456   0.00457   2.01591
   A14        2.13426  -0.00124   0.00000  -0.00485  -0.00486   2.12940
   A15        2.13758   0.00005   0.00000   0.00029   0.00029   2.13788
   A16        2.12633  -0.00021   0.00000  -0.00075  -0.00075   2.12558
   A17        2.10927   0.00068   0.00000   0.00268   0.00267   2.11195
   A18        2.04759  -0.00047   0.00000  -0.00193  -0.00193   2.04566
   A19        1.94233   0.00028   0.00000   0.00173   0.00173   1.94405
   A20        2.20646  -0.00009   0.00000  -0.00035  -0.00035   2.20611
   A21        2.12870  -0.00165   0.00000  -0.00659  -0.00659   2.12211
   A22        1.94803   0.00174   0.00000   0.00694   0.00694   1.95496
   A23        1.93295  -0.00053   0.00000  -0.00346  -0.00346   1.92948
   A24        1.93287  -0.00051   0.00000  -0.00330  -0.00330   1.92957
   A25        1.89516  -0.00039   0.00000  -0.00206  -0.00207   1.89310
   A26        1.85615   0.00040   0.00000   0.00177   0.00176   1.85792
   A27        1.92346   0.00052   0.00000   0.00356   0.00355   1.92701
   A28        1.92340   0.00053   0.00000   0.00364   0.00364   1.92703
   A29        1.96385  -0.00023   0.00000  -0.00142  -0.00142   1.96243
   A30        1.97722   0.00028   0.00000   0.00173   0.00173   1.97895
   A31        1.97143   0.00028   0.00000   0.00176   0.00176   1.97319
    D1        0.00011  -0.00000   0.00000  -0.00007  -0.00007   0.00004
    D2       -3.14136  -0.00001   0.00000  -0.00024  -0.00024   3.14159
    D3        3.14133   0.00000   0.00000   0.00012   0.00012   3.14145
    D4       -0.00014  -0.00000   0.00000  -0.00005  -0.00005  -0.00019
    D5       -0.00067   0.00001   0.00000   0.00052   0.00052  -0.00014
    D6        3.14101   0.00000   0.00000   0.00020   0.00020   3.14121
    D7        3.14131   0.00001   0.00000   0.00033   0.00033  -3.14154
    D8       -0.00020   0.00000   0.00000   0.00001   0.00001  -0.00019
    D9        0.00033  -0.00001   0.00000  -0.00030  -0.00030   0.00003
   D10        3.14142   0.00000   0.00000   0.00017   0.00017   3.14159
   D11       -3.14139  -0.00000   0.00000  -0.00012  -0.00012  -3.14151
   D12       -0.00030   0.00001   0.00000   0.00035   0.00035   0.00004
   D13        3.14131   0.00000   0.00000   0.00017   0.00017   3.14148
   D14       -0.00016   0.00000   0.00000  -0.00001  -0.00001  -0.00016
   D15       -0.00023   0.00001   0.00000   0.00022   0.00022  -0.00001
   D16        3.14095   0.00002   0.00000   0.00076   0.00076  -3.14148
   D17       -3.14132  -0.00000   0.00000  -0.00025  -0.00025  -3.14157
   D18       -0.00014   0.00001   0.00000   0.00029   0.00029   0.00015
   D19       -0.00029   0.00000   0.00000   0.00020   0.00020  -0.00009
   D20        3.14068   0.00001   0.00000   0.00059   0.00059   3.14127
   D21       -3.14148  -0.00001   0.00000  -0.00032  -0.00032   3.14139
   D22       -0.00051  -0.00000   0.00000   0.00007   0.00007  -0.00044
   D23        0.00108  -0.00001   0.00000  -0.00050  -0.00050   0.00059
   D24       -3.14090  -0.00000   0.00000   0.00001   0.00001  -3.14089
   D25        0.00074  -0.00001   0.00000  -0.00058  -0.00058   0.00016
   D26       -3.14094  -0.00000   0.00000  -0.00026  -0.00027  -3.14120
   D27       -3.14023  -0.00002   0.00000  -0.00097  -0.00097  -3.14119
   D28        0.00128  -0.00001   0.00000  -0.00065  -0.00066   0.00063
   D29       -3.14110  -0.00000   0.00000  -0.00015  -0.00015  -3.14125
   D30        0.00069  -0.00001   0.00000  -0.00069  -0.00069  -0.00000
   D31       -0.00017   0.00000   0.00000   0.00027   0.00027   0.00009
   D32       -3.14158  -0.00000   0.00000  -0.00027  -0.00027   3.14134
   D33        0.00077  -0.00001   0.00000  -0.00021  -0.00021   0.00056
   D34       -3.14074  -0.00001   0.00000  -0.00051  -0.00051  -3.14125
   D35       -1.02791   0.00007   0.00000   0.00074   0.00074  -1.02717
   D36        1.02697  -0.00008   0.00000  -0.00129  -0.00129   1.02568
   D37        3.14106   0.00000   0.00000  -0.00018  -0.00018   3.14089
   D38        2.11351   0.00008   0.00000   0.00123   0.00123   2.11474
   D39       -2.11480  -0.00008   0.00000  -0.00080  -0.00080  -2.11560
   D40       -0.00070   0.00001   0.00000   0.00032   0.00032  -0.00039
   D41       -0.00001  -0.00000   0.00000   0.00008   0.00008   0.00007
   D42       -3.14144  -0.00001   0.00000  -0.00039  -0.00039   3.14136
         Item               Value     Threshold  Converged?
 Maximum Force            0.009629     0.000450     NO 
 RMS     Force            0.002385     0.000300     NO 
 Maximum Displacement     0.063805     0.001800     NO 
 RMS     Displacement     0.015840     0.001200     NO 
 Predicted change in Energy=-5.746393D-04
 GradGradGradGradGradGradGradGradGradGradGradGradGradGradGradGradGradGrad

                          Input orientation:                          
 ---------------------------------------------------------------------
 Center     Atomic      Atomic             Coordinates (Angstroms)
 Number     Number       Type             X           Y           Z
 ---------------------------------------------------------------------
      1          6           0       -1.541824   -1.264207   -0.000198
      2          6           0       -2.270919   -0.076221   -0.000153
      3          6           0       -1.626411    1.170937    0.000044
      4          6           0       -0.256363    1.203201    0.000152
      5          6           0        0.554475    0.021012    0.000084
      6          6           0       -0.164953   -1.222494    0.000003
      7          8           0        0.558459   -2.347555    0.000401
      8          6           0        1.970948    0.081366   -0.000187
      9          6           0        2.902043   -1.075013   -0.000692
     10          8           0        2.603613    1.215786   -0.000389
     11          8           0        0.412047    2.383730    0.000477
     12          8           0       -3.594400   -0.195870   -0.000358
     13          1           0       -2.076900   -2.207200   -0.000212
     14          1           0       -2.200682    2.092030    0.000076
     15          1           0       -0.008888   -3.132093    0.000006
     16          1           0        2.730641   -1.705698    0.874507
     17          1           0        2.729341   -1.706098   -0.875346
     18          1           0        3.922610   -0.695996   -0.001524
     19          1           0        1.992369    1.986640   -0.000267
     20          1           0       -0.171710    3.155709    0.001135
     21          1           0       -4.051996    0.656791   -0.000212
 ---------------------------------------------------------------------
                    Distance matrix (angstroms):
                    1          2          3          4          5
     1  C    0.000000
     2  C    1.393877   0.000000
     3  C    2.436613   1.403849   0.000000
     4  C    2.782178   2.386495   1.370427   0.000000
     5  C    2.458914   2.827067   2.465479   1.433537   0.000000
     6  C    1.377502   2.397715   2.804349   2.427417   1.436623
     7  O    2.363225   3.628270   4.141671   3.643049   2.368571
     8  C    3.761666   4.244793   3.758743   2.493878   1.417758
     9  C    4.447893   5.268504   5.054818   3.894328   2.590821
    10  O    4.830633   5.042852   4.230262   2.860004   2.372015
    11  O    4.138243   3.640009   2.371956   1.356621   2.367007
    12  O    2.313960   1.328878   2.396068   3.619376   4.154539
    13  H    1.084224   2.139793   3.408041   3.865901   3.448052
    14  H    3.420295   2.169387   1.085449   2.137847   3.446738
    15  H    2.416380   3.801992   4.597004   4.342352   3.203038
    16  H    4.383375   5.332526   5.293733   4.260092   2.912361
    17  H    4.382237   5.331517   5.293034   4.259689   2.911929
    18  H    5.493897   6.224462   5.854662   4.590291   3.443608
    19  H    4.801930   4.736140   3.709574   2.381296   2.435412
    20  H    4.627405   3.853836   2.460787   1.954342   3.217711
    21  H    3.160886   1.926017   2.479478   3.834762   4.650139
                    6          7          8          9         10
     6  C    0.000000
     7  O    1.337568   0.000000
     8  C    2.502424   2.809766   0.000000
     9  C    3.070541   2.666787   1.484639   0.000000
    10  O    3.689197   4.108535   1.298913   2.310156   0.000000
    11  O    3.652093   4.733550   2.780477   4.261806   2.483356
    12  O    3.579813   4.677177   5.572248   6.555659   6.356739
    13  H    2.150624   2.639094   4.650012   5.106048   5.798624
    14  H    3.889764   5.227119   4.630903   6.005661   4.883550
    15  H    1.915966   0.968185   3.774397   3.564422   5.072398
    16  H    3.063121   2.427842   2.129747   1.092298   3.052319
    17  H    3.062197   2.427165   2.129811   1.092298   3.052665
    18  H    4.121332   3.747688   2.100781   1.088674   2.322642
    19  H    3.866857   4.565232   1.905394   3.193936   0.983786
    20  H    4.378209   5.551492   3.747341   5.229433   3.386107
    21  H    4.317501   5.502944   6.050369   7.166437   6.679043
                   11         12         13         14         15
    11  O    0.000000
    12  O    4.765076   0.000000
    13  H    5.222211   2.519574   0.000000
    14  H    2.628962   2.678980   4.301011   0.000000
    15  H    5.531862   4.634361   2.265414   5.665282   0.000000
    16  H    4.781551   6.561334   4.912137   6.285325   3.210043
    17  H    4.781591   6.560190   4.910898   6.284685   3.208988
    18  H    4.669986   7.533629   6.186910   6.728134   4.625068
    19  H    1.629448   5.997944   5.843564   4.194375   5.496040
    20  H    0.967845   4.790395   5.691269   2.290882   6.289910
    21  H    4.786439   0.967690   3.479000   2.342494   5.540971
                   16         17         18         19         20
    16  H    0.000000
    17  H    1.749853   0.000000
    18  H    1.791011   1.791023   0.000000
    19  H    3.865700   3.865903   3.304900   0.000000
    20  H    5.728848   5.729003   5.621307   2.459667   0.000000
    21  H    7.235375   7.234338   8.088534   6.188930   4.615324
                   21
    21  H    0.000000
 Stoichiometry    C8H9O4(1+)
 Framework group  C1[X(C8H9O4)]
 Deg. of freedom    57
 Full point group                 C1      NOp   1
 Largest Abelian subgroup         C1      NOp   1
 Largest concise Abelian subgroup C1      NOp   1
                         Standard orientation:                         
 ---------------------------------------------------------------------
 Center     Atomic      Atomic             Coordinates (Angstroms)
 Number     Number       Type             X           Y           Z
 ---------------------------------------------------------------------
      1          6           0        1.543173   -1.263143    0.000125
      2          6           0        2.272104   -0.075056    0.000080
      3          6           0        1.627423    1.172013   -0.000117
      4          6           0        0.257371    1.204087   -0.000224
      5          6           0       -0.553303    0.021786   -0.000156
      6          6           0        0.166297   -1.221621   -0.000076
      7          8           0       -0.556960   -2.346782   -0.000474
      8          6           0       -1.969785    0.081944    0.000114
      9          6           0       -2.900721   -1.074564    0.000619
     10          8           0       -2.602607    1.216277    0.000316
     11          8           0       -0.411202    2.384524   -0.000549
     12          8           0        3.595601   -0.194522    0.000285
     13          1           0        2.078380   -2.206062    0.000140
     14          1           0        2.201567    2.093185   -0.000149
     15          1           0        0.010496   -3.131241   -0.000079
     16          1           0       -2.729231   -1.705225   -0.874579
     17          1           0       -2.727931   -1.705625    0.875274
     18          1           0       -3.921340   -0.695688    0.001451
     19          1           0       -1.991470    1.987215    0.000194
     20          1           0        0.172448    3.156583   -0.001207
     21          1           0        4.053080    0.658202    0.000139
 ---------------------------------------------------------------------
 Rotational constants (GHZ):      1.5341988      0.7661469      0.5125754
 Standard basis: 6-31+G(d,p) (6D, 7F)
 There are   273 symmetry adapted cartesian basis functions of A   symmetry.
 There are   273 symmetry adapted basis functions of A   symmetry.
   273 basis functions,   447 primitive gaussians,   273 cartesian basis functions
    44 alpha electrons       44 beta electrons
       nuclear repulsion energy       716.1723918036 Hartrees.
 NAtoms=   21 NActive=   21 NUniq=   21 SFac= 1.00D+00 NAtFMM=   60 NAOKFM=F Big=F
 Integral buffers will be    131072 words long.
 Raffenetti 2 integral format.
 Two-electron integral symmetry is turned on.
 One-electron integrals computed using PRISM.
 NBasis=   273 RedAO= T EigKep=  1.34D-06  NBF=   273
 NBsUse=   273 1.00D-06 EigRej= -1.00D+00 NBFU=   273
 Initial guess from the checkpoint file:  "b3lypTHAPyang.chk"
 B after Tr=    -0.000000   -0.000000    0.000000
         Rot=    1.000000    0.000032   -0.000016   -0.000059 Ang=   0.01 deg.
 ExpMin= 4.38D-02 ExpMax= 5.48D+03 ExpMxC= 8.25D+02 IAcc=2 IRadAn=         4 AccDes= 0.00D+00
 Harris functional with IExCor=20419 and IRadAn=       4 diagonalized for initial guess.
 HarFok:  IExCor=20419 AccDes= 0.00D+00 IRadAn=         4 IDoV= 1 UseB2=F ITyADJ=14
 ICtDFT=  3500011 ScaDFX=  1.000000  1.000000  1.000000  1.000000
 FoFCou: FMM=F IPFlag=           0 FMFlag=      100000 FMFlg1=           0
         NFxFlg=           0 DoJE=T BraDBF=F KetDBF=T FulRan=T
         wScrn=  0.000000 ICntrl=     500 IOpCl=  0 I1Cent=   200000004 NGrid=           0
         NMat0=    1 NMatS0=      1 NMatT0=    0 NMatD0=    1 NMtDS0=    0 NMtDT0=    0
 Petite list used in FoFCou.
 Requested convergence on RMS density matrix=1.00D-08 within 128 cycles.
 Requested convergence on MAX density matrix=1.00D-06.
 Requested convergence on             energy=1.00D-06.
 No special actions if energy rises.
 SCF Done:  E(RCAM-B3LYP) =  -610.696161781     A.U. after   13 cycles
            NFock= 13  Conv=0.25D-08     -V/T= 2.0087
 Calling FoFJK, ICntrl=      2127 FMM=F ISym2X=0 I1Cent= 0 IOpClX= 0 NMat=1 NMatS=1 NMatT=0.
 ***** Axes restored to original set *****
 -------------------------------------------------------------------
 Center     Atomic                   Forces (Hartrees/Bohr)
 Number     Number              X              Y              Z
 -------------------------------------------------------------------
      1        6          -0.000411035   -0.000334614    0.000003020
      2        6          -0.001183765   -0.000739582   -0.000015241
      3        6          -0.000312185    0.000749000   -0.000000236
      4        6           0.000819977    0.000002254    0.000019394
      5        6          -0.001813523   -0.000568863   -0.000006684
      6        6           0.001326980   -0.000798470    0.000024574
      7        8          -0.001167920   -0.000187433   -0.000018806
      8        6           0.003493951    0.002169623   -0.000035058
      9        6           0.000272008   -0.000015392    0.000006094
     10        8           0.001122513   -0.003112831    0.000003231
     11        8          -0.002801794    0.001563329   -0.000002378
     12        8           0.000045022    0.000762660    0.000005554
     13        1          -0.000151874    0.000066607   -0.000000952
     14        1          -0.000143182   -0.000032988    0.000000421
     15        1           0.000314858   -0.000140608    0.000005512
     16        1           0.000144116   -0.000076229   -0.000099550
     17        1           0.000141763   -0.000067285    0.000104905
     18        1           0.000056711   -0.000098443    0.000003930
     19        1           0.000158652    0.000819138    0.000010051
     20        1           0.000357678    0.000360463   -0.000006709
     21        1          -0.000268950   -0.000320336   -0.000001070
 -------------------------------------------------------------------
 Cartesian Forces:  Max     0.003493951 RMS     0.000901250

 GradGradGradGradGradGradGradGradGradGradGradGradGradGradGradGradGradGrad
 Berny optimization.
 Using GEDIIS/GDIIS optimizer.
 FormGI is forming the generalized inverse of G from B-inverse, IUseBI=4.
 Internal  Forces:  Max     0.005368948 RMS     0.001224148
 Search for a local minimum.
 Step number   2 out of a maximum of  104
 All quantities printed in internal units (Hartrees-Bohrs-Radians)
 Mixed Optimization -- RFO/linear search
 Update second derivatives using D2CorX and points    1    2
 DE= -4.13D-04 DEPred=-5.75D-04 R= 7.19D-01
 TightC=F SS=  1.41D+00  RLast= 5.15D-02 DXNew= 5.0454D-01 1.5435D-01
 Trust test= 7.19D-01 RLast= 5.15D-02 DXMaxT set to 3.00D-01
 ITU=  1  0
 Use linear search instead of GDIIS.
     Eigenvalues ---    0.00884   0.01501   0.01542   0.01689   0.01746
     Eigenvalues ---    0.01936   0.02011   0.02067   0.02098   0.02155
     Eigenvalues ---    0.02182   0.02201   0.02225   0.02439   0.02551
     Eigenvalues ---    0.02926   0.07503   0.07547   0.15730   0.16000
     Eigenvalues ---    0.16000   0.16000   0.16000   0.16000   0.16000
     Eigenvalues ---    0.16000   0.16086   0.22855   0.23499   0.24332
     Eigenvalues ---    0.25000   0.25000   0.25000   0.25000   0.25000
     Eigenvalues ---    0.25775   0.33480   0.34363   0.34390   0.34848
     Eigenvalues ---    0.35242   0.35397   0.37818   0.38935   0.41052
     Eigenvalues ---    0.43713   0.46586   0.46893   0.50503   0.51444
     Eigenvalues ---    0.53409   0.53520   0.53567   0.55185   0.57528
     Eigenvalues ---    0.63318   0.65258
 RFO step:  Lambda=-2.34652663D-04 EMin= 8.83802950D-03
 Quartic linear search produced a step of -0.22068.
 Iteration  1 RMS(Cart)=  0.01639192 RMS(Int)=  0.00008197
 Iteration  2 RMS(Cart)=  0.00011565 RMS(Int)=  0.00000063
 Iteration  3 RMS(Cart)=  0.00000000 RMS(Int)=  0.00000063
 Variable       Old X    -DE/DX   Delta X   Delta X   Delta X     New X
                                 (Linear)    (Quad)   (Total)
    R1        2.63405   0.00004   0.00250  -0.00501  -0.00251   2.63153
    R2        2.60310   0.00118   0.00280  -0.00360  -0.00081   2.60230
    R3        2.04889   0.00002   0.00031  -0.00058  -0.00026   2.04862
    R4        2.65289   0.00035   0.00239  -0.00422  -0.00183   2.65107
    R5        2.51121   0.00018   0.00259  -0.00480  -0.00221   2.50901
    R6        2.58973   0.00125   0.00291  -0.00369  -0.00078   2.58895
    R7        2.05120   0.00005   0.00035  -0.00059  -0.00024   2.05097
    R8        2.70899   0.00383   0.00400  -0.00001   0.00399   2.71299
    R9        2.56364   0.00047   0.00262  -0.00442  -0.00180   2.56184
   R10        2.71482   0.00183   0.00399  -0.00398   0.00001   2.71484
   R11        2.67918   0.00537   0.00339   0.00341   0.00680   2.68598
   R12        2.52764  -0.00019   0.00249  -0.00512  -0.00262   2.52501
   R13        1.82960  -0.00007   0.00054  -0.00116  -0.00062   1.82899
   R14        2.80556   0.00058   0.00269  -0.00393  -0.00124   2.80432
   R15        2.45459  -0.00138   0.00325  -0.00796  -0.00471   2.44988
   R16        2.06414  -0.00006   0.00058  -0.00127  -0.00069   2.06345
   R17        2.06414  -0.00007   0.00058  -0.00130  -0.00071   2.06343
   R18        2.05730   0.00002   0.00041  -0.00077  -0.00036   2.05694
   R19        1.85909   0.00054   0.00024   0.00037   0.00061   1.85970
   R20        1.82896   0.00007   0.00049  -0.00085  -0.00036   1.82860
   R21        1.82867  -0.00016   0.00060  -0.00140  -0.00080   1.82787
    A1        2.09096   0.00051   0.00090  -0.00056   0.00034   2.09130
    A2        2.07502  -0.00042  -0.00035  -0.00074  -0.00109   2.07393
    A3        2.11720  -0.00009  -0.00055   0.00131   0.00075   2.11796
    A4        2.11416  -0.00042  -0.00108   0.00013  -0.00095   2.11321
    A5        2.03109   0.00043   0.00032   0.00106   0.00138   2.03247
    A6        2.13794  -0.00001   0.00076  -0.00119  -0.00043   2.13751
    A7        2.07132   0.00092   0.00113   0.00070   0.00183   2.07315
    A8        2.10711  -0.00060  -0.00062  -0.00093  -0.00155   2.10556
    A9        2.10475  -0.00032  -0.00050   0.00023  -0.00028   2.10447
   A10        2.14844  -0.00017  -0.00010   0.00001  -0.00009   2.14834
   A11        2.10953  -0.00340  -0.00087  -0.00903  -0.00990   2.09963
   A12        2.02521   0.00357   0.00097   0.00903   0.00999   2.03521
   A13        2.01591  -0.00166  -0.00101  -0.00261  -0.00362   2.01229
   A14        2.12940   0.00445   0.00107   0.01145   0.01252   2.14192
   A15        2.13788  -0.00279  -0.00006  -0.00884  -0.00890   2.12897
   A16        2.12558   0.00082   0.00017   0.00233   0.00249   2.12807
   A17        2.11195  -0.00123  -0.00059  -0.00271  -0.00331   2.10864
   A18        2.04566   0.00041   0.00043   0.00039   0.00081   2.04647
   A19        1.94405   0.00062  -0.00038   0.00377   0.00339   1.94745
   A20        2.20611  -0.00152   0.00008  -0.00488  -0.00480   2.20130
   A21        2.12211   0.00409   0.00145   0.00986   0.01131   2.13343
   A22        1.95496  -0.00257  -0.00153  -0.00498  -0.00651   1.94846
   A23        1.92948   0.00021   0.00076  -0.00051   0.00026   1.92974
   A24        1.92957   0.00020   0.00073  -0.00048   0.00025   1.92982
   A25        1.89310   0.00007   0.00046  -0.00061  -0.00016   1.89294
   A26        1.85792  -0.00018  -0.00039  -0.00001  -0.00040   1.85752
   A27        1.92701  -0.00015  -0.00078   0.00078   0.00000   1.92701
   A28        1.92703  -0.00015  -0.00080   0.00085   0.00005   1.92708
   A29        1.96243   0.00118   0.00031   0.00509   0.00541   1.96784
   A30        1.97895   0.00092  -0.00038   0.00524   0.00486   1.98381
   A31        1.97319   0.00071  -0.00039   0.00424   0.00385   1.97704
    D1        0.00004  -0.00000   0.00001  -0.00010  -0.00009  -0.00004
    D2        3.14159   0.00000   0.00005  -0.00012  -0.00007   3.14152
    D3        3.14145   0.00000  -0.00003   0.00012   0.00009   3.14154
    D4       -0.00019   0.00000   0.00001   0.00009   0.00010  -0.00009
    D5       -0.00014   0.00000  -0.00012   0.00034   0.00023   0.00008
    D6        3.14121   0.00001  -0.00004   0.00039   0.00034   3.14155
    D7       -3.14154  -0.00000  -0.00007   0.00012   0.00005  -3.14150
    D8       -0.00019   0.00000  -0.00000   0.00016   0.00016  -0.00002
    D9        0.00003   0.00000   0.00007  -0.00016  -0.00010  -0.00006
   D10        3.14159   0.00000  -0.00004   0.00009   0.00005  -3.14154
   D11       -3.14151  -0.00000   0.00003  -0.00014  -0.00011   3.14156
   D12        0.00004  -0.00000  -0.00008   0.00011   0.00003   0.00008
   D13        3.14148  -0.00000  -0.00004   0.00008   0.00004   3.14152
   D14       -0.00016   0.00000   0.00000   0.00006   0.00006  -0.00010
   D15       -0.00001   0.00000  -0.00005   0.00019   0.00014   0.00013
   D16       -3.14148  -0.00001  -0.00017   0.00022   0.00005  -3.14142
   D17       -3.14157   0.00000   0.00005  -0.00006  -0.00000  -3.14157
   D18        0.00015  -0.00001  -0.00006  -0.00003  -0.00009   0.00006
   D19       -0.00009  -0.00000  -0.00004   0.00004  -0.00001  -0.00009
   D20        3.14127  -0.00000  -0.00013   0.00040   0.00027   3.14154
   D21        3.14139   0.00000   0.00007   0.00001   0.00008   3.14146
   D22       -0.00044   0.00001  -0.00002   0.00037   0.00035  -0.00008
   D23        0.00059  -0.00000   0.00011  -0.00035  -0.00024   0.00034
   D24       -3.14089  -0.00001  -0.00000  -0.00032  -0.00033  -3.14122
   D25        0.00016   0.00000   0.00013  -0.00031  -0.00018  -0.00002
   D26       -3.14120  -0.00000   0.00006  -0.00035  -0.00029  -3.14149
   D27       -3.14119  -0.00000   0.00021  -0.00068  -0.00046   3.14153
   D28        0.00063  -0.00001   0.00014  -0.00072  -0.00057   0.00006
   D29       -3.14125  -0.00000   0.00003  -0.00024  -0.00021  -3.14145
   D30       -0.00000   0.00001   0.00015   0.00001   0.00016   0.00016
   D31        0.00009   0.00000  -0.00006   0.00015   0.00009   0.00019
   D32        3.14134   0.00001   0.00006   0.00040   0.00046  -3.14138
   D33        0.00056  -0.00001   0.00005  -0.00036  -0.00032   0.00025
   D34       -3.14125  -0.00000   0.00011  -0.00032  -0.00021  -3.14146
   D35       -1.02717  -0.00001  -0.00016   0.00053   0.00037  -1.02680
   D36        1.02568   0.00002   0.00029  -0.00009   0.00019   1.02587
   D37        3.14089   0.00001   0.00004   0.00027   0.00031   3.14119
   D38        2.11474  -0.00002  -0.00027   0.00030   0.00003   2.11477
   D39       -2.11560   0.00001   0.00018  -0.00033  -0.00015  -2.11575
   D40       -0.00039  -0.00000  -0.00007   0.00004  -0.00003  -0.00042
   D41        0.00007   0.00000  -0.00002   0.00004   0.00002   0.00009
   D42        3.14136   0.00001   0.00009   0.00026   0.00034  -3.14148
         Item               Value     Threshold  Converged?
 Maximum Force            0.005369     0.000450     NO 
 RMS     Force            0.001224     0.000300     NO 
 Maximum Displacement     0.083314     0.001800     NO 
 RMS     Displacement     0.016380     0.001200     NO 
 Predicted change in Energy=-1.542049D-04
 GradGradGradGradGradGradGradGradGradGradGradGradGradGradGradGradGradGrad

                          Input orientation:                          
 ---------------------------------------------------------------------
 Center     Atomic      Atomic             Coordinates (Angstroms)
 Number     Number       Type             X           Y           Z
 ---------------------------------------------------------------------
      1          6           0       -1.535949   -1.261438   -0.000044
      2          6           0       -2.270134   -0.078154    0.000010
      3          6           0       -1.630973    1.170668   -0.000035
      4          6           0       -0.261546    1.210807   -0.000058
      5          6           0        0.557179    0.031492   -0.000199
      6          6           0       -0.159708   -1.213490   -0.000195
      7          8           0        0.564340   -2.336490   -0.000205
      8          6           0        1.977631    0.082260   -0.000280
      9          6           0        2.894773   -1.084385   -0.000593
     10          8           0        2.629551    1.202841   -0.000056
     11          8           0        0.387844    2.400820    0.000097
     12          8           0       -3.592023   -0.202326    0.000070
     13          1           0       -2.067381   -2.206328    0.000048
     14          1           0       -2.210216    2.088494    0.000052
     15          1           0        0.000820   -3.123380   -0.000319
     16          1           0        2.715919   -1.713139    0.874049
     17          1           0        2.715231   -1.713316   -0.874949
     18          1           0        3.919456   -0.717200   -0.000991
     19          1           0        2.036457    1.988149    0.000253
     20          1           0       -0.204100    3.166297    0.000521
     21          1           0       -4.055673    0.646576    0.000171
 ---------------------------------------------------------------------
                    Distance matrix (angstroms):
                    1          2          3          4          5
     1  C    0.000000
     2  C    1.392548   0.000000
     3  C    2.433961   1.402884   0.000000
     4  C    2.781384   2.386597   1.370016   0.000000
     5  C    2.460254   2.829438   2.466927   1.435650   0.000000
     6  C    1.377075   2.396432   2.801576   2.426435   1.436631
     7  O    2.359439   3.624131   4.137579   3.642170   2.367994
     8  C    3.761750   4.250793   3.769172   2.507495   1.421359
     9  C    4.434258   5.262012   5.056446   3.902596   2.590276
    10  O    4.839841   5.064372   4.260646   2.891108   2.380501
    11  O    4.136799   3.634578   2.364085   1.355669   2.375371
    12  O    2.312825   1.327708   2.393915   3.617875   4.155785
    13  H    1.084084   2.137811   3.405078   3.864952   3.449080
    14  H    3.417116   2.167477   1.085324   2.137207   3.448149
    15  H    2.414226   3.798767   4.593648   4.342121   3.203554
    16  H    4.364224   5.319572   5.289219   4.263663   2.910019
    17  H    4.363735   5.319133   5.288887   4.263464   2.909765
    18  H    5.482485   6.222492   5.862705   4.604127   3.444627
    19  H    4.829275   4.776644   3.757435   2.425918   2.452910
    20  H    4.623706   3.846421   2.453264   1.956334   3.225918
    21  H    3.160622   1.927015   2.480694   3.835852   4.653679
                    6          7          8          9         10
     6  C    0.000000
     7  O    1.336180   0.000000
     8  C    2.499437   2.801383   0.000000
     9  C    3.057209   2.645503   1.483985   0.000000
    10  O    3.690342   4.097800   1.296418   2.302552   0.000000
    11  O    3.655550   4.740597   2.811253   4.293175   2.541733
    12  O    3.578161   4.672260   5.576920   6.546492   6.378282
    13  H    2.150568   2.634938   4.647554   5.087409   5.803758
    14  H    3.886860   5.222897   4.643602   6.010664   4.920135
    15  H    1.916625   0.967859   3.766154   3.540123   5.062254
    16  H    3.046832   2.404616   2.129079   1.091933   3.045399
    17  H    3.046358   2.404133   2.129130   1.091920   3.045775
    18  H    4.109244   3.725441   2.099958   1.088485   2.313096
    19  H    3.882478   4.568330   1.906797   3.190168   0.984109
    20  H    4.380012   5.556183   3.777729   5.260353   3.447425
    21  H    4.317220   5.499383   6.059638   7.162747   6.708327
                   11         12         13         14         15
    11  O    0.000000
    12  O    4.755597   0.000000
    13  H    5.220531   2.518047   0.000000
    14  H    2.616766   2.675303   4.297197   0.000000
    15  H    5.537741   4.630451   2.262397   5.661477   0.000000
    16  H    4.807118   6.544962   4.887440   6.283558   3.181990
    17  H    4.807135   6.544479   4.886928   6.283265   3.181398
    18  H    4.711086   7.529105   6.169256   6.741276   4.598415
    19  H    1.699477   6.039699   5.868145   4.247858   5.501959
    20  H    0.967654   4.777619   5.686556   2.277314   6.293015
    21  H    4.777260   0.967268   3.477409   2.341973   5.537844
                   16         17         18         19         20
    16  H    0.000000
    17  H    1.748998   0.000000
    18  H    1.790556   1.790589   0.000000
    19  H    3.863253   3.863620   3.296150   0.000000
    20  H    5.753126   5.753222   5.664386   2.531428   0.000000
    21  H    7.224014   7.223578   8.090895   6.238098   4.602565
                   21
    21  H    0.000000
 Stoichiometry    C8H9O4(1+)
 Framework group  C1[X(C8H9O4)]
 Deg. of freedom    57
 Full point group                 C1      NOp   1
 Largest Abelian subgroup         C1      NOp   1
 Largest concise Abelian subgroup C1      NOp   1
                         Standard orientation:                         
 ---------------------------------------------------------------------
 Center     Atomic      Atomic             Coordinates (Angstroms)
 Number     Number       Type             X           Y           Z
 ---------------------------------------------------------------------
      1          6           0        1.533594   -1.267884   -0.000072
      2          6           0        2.272035   -0.087251   -0.000125
      3          6           0        1.637375    1.163864   -0.000081
      4          6           0        0.268101    1.208934   -0.000058
      5          6           0       -0.554864    0.032575    0.000083
      6          6           0        0.157535   -1.214980    0.000080
      7          8           0       -0.570552   -2.335367    0.000089
      8          6           0       -1.975125    0.088457    0.000165
      9          6           0       -2.896462   -1.074878    0.000477
     10          8           0       -2.623006    1.211378   -0.000059
     11          8           0       -0.377000    2.401277   -0.000212
     12          8           0        3.593469   -0.216181   -0.000186
     13          1           0        2.061621   -2.214681   -0.000163
     14          1           0        2.219919    2.079599   -0.000168
     15          1           0       -0.009869   -3.124280    0.000203
     16          1           0       -2.719872   -1.704273   -0.874164
     17          1           0       -2.719185   -1.704451    0.874834
     18          1           0       -3.919816   -0.704006    0.000876
     19          1           0       -2.027088    1.994545   -0.000369
     20          1           0        0.217697    3.164618   -0.000636
     21          1           0        4.060172    0.631046   -0.000287
 ---------------------------------------------------------------------
 Rotational constants (GHZ):      1.5329087      0.7644804      0.5116837
 Standard basis: 6-31+G(d,p) (6D, 7F)
 There are   273 symmetry adapted cartesian basis functions of A   symmetry.
 There are   273 symmetry adapted basis functions of A   symmetry.
   273 basis functions,   447 primitive gaussians,   273 cartesian basis functions
    44 alpha electrons       44 beta electrons
       nuclear repulsion energy       715.6712113681 Hartrees.
 NAtoms=   21 NActive=   21 NUniq=   21 SFac= 1.00D+00 NAtFMM=   60 NAOKFM=F Big=F
 Integral buffers will be    131072 words long.
 Raffenetti 2 integral format.
 Two-electron integral symmetry is turned on.
 One-electron integrals computed using PRISM.
 NBasis=   273 RedAO= T EigKep=  1.33D-06  NBF=   273
 NBsUse=   273 1.00D-06 EigRej= -1.00D+00 NBFU=   273
 Initial guess from the checkpoint file:  "b3lypTHAPyang.chk"
 B after Tr=     0.000000   -0.000000   -0.000000
         Rot=    0.999998    0.000009   -0.000014    0.002122 Ang=   0.24 deg.
 ExpMin= 4.38D-02 ExpMax= 5.48D+03 ExpMxC= 8.25D+02 IAcc=2 IRadAn=         4 AccDes= 0.00D+00
 Harris functional with IExCor=20419 and IRadAn=       4 diagonalized for initial guess.
 HarFok:  IExCor=20419 AccDes= 0.00D+00 IRadAn=         4 IDoV= 1 UseB2=F ITyADJ=14
 ICtDFT=  3500011 ScaDFX=  1.000000  1.000000  1.000000  1.000000
 FoFCou: FMM=F IPFlag=           0 FMFlag=      100000 FMFlg1=           0
         NFxFlg=           0 DoJE=T BraDBF=F KetDBF=T FulRan=T
         wScrn=  0.000000 ICntrl=     500 IOpCl=  0 I1Cent=   200000004 NGrid=           0
         NMat0=    1 NMatS0=      1 NMatT0=    0 NMatD0=    1 NMtDS0=    0 NMtDT0=    0
 Petite list used in FoFCou.
 Requested convergence on RMS density matrix=1.00D-08 within 128 cycles.
 Requested convergence on MAX density matrix=1.00D-06.
 Requested convergence on             energy=1.00D-06.
 No special actions if energy rises.
 SCF Done:  E(RCAM-B3LYP) =  -610.696082490     A.U. after   12 cycles
            NFock= 12  Conv=0.56D-08     -V/T= 2.0087
 Calling FoFJK, ICntrl=      2127 FMM=F ISym2X=0 I1Cent= 0 IOpClX= 0 NMat=1 NMatS=1 NMatT=0.
 ***** Axes restored to original set *****
 -------------------------------------------------------------------
 Center     Atomic                   Forces (Hartrees/Bohr)
 Number     Number              X              Y              Z
 -------------------------------------------------------------------
      1        6          -0.000557135   -0.000949992   -0.000003270
      2        6          -0.001212153    0.000140787   -0.000007715
      3        6          -0.000820724   -0.000021331    0.000006261
      4        6           0.000956755    0.002137960    0.000006856
      5        6           0.000765438    0.000666157   -0.000001350
[...]
 289,0.00551054,0.00000168,0.00875607,-0.00315824,-0.00000085,-0.001988
 34,0.00026200,0.00000069,0.00349386,-0.03718952,-0.00000472,-0.0608894
 7,-0.00745158,0.00000132,0.01171102,0.01804572,-0.00000147,0.00037191,
 -0.00570838,0.00000039,-0.12688848,-0.37601880,-0.00005098,-0.01423141
 ,-0.06134801,-0.00001360,-0.03860585,0.72693133,-0.00000107,0.00000125
 ,-0.00156200,0.00000117,-0.00000068,0.00025823,-0.00000068,-0.00000002
 ,-0.00012793,0.00000030,-0.00000538,-0.00349596,-0.00000522,-0.0000009
 3,0.01974146,0.00000274,0.00000128,0.00865474,-0.00000003,-0.00000035,
 0.00005177,-0.00001375,-0.00005237,-0.06157558,-0.00000124,-0.00001401
 ,0.01040157,-0.00004371,0.00013870,0.05419563,0.00999099,-0.00772751,-
 0.00000209,-0.00539822,0.01935869,0.00000262,-0.03577162,-0.06192934,-
 0.00000192,-0.17339475,-0.05645163,0.00001067,0.03270289,0.01629229,-0
 .00000340,-0.01798047,-0.00312887,0.00000249,0.00369494,0.00025941,-0.
 00000057,-0.02050537,-0.01473020,-0.00000099,0.00097608,0.00175218,0.0
 0000037,-0.01895063,0.03391732,0.00000648,0.45407973,0.00578485,-0.007
 37526,-0.00000114,0.00349432,0.01392456,-0.00000023,-0.02795839,-0.018
 64473,-0.00000047,-0.11000775,-0.27589782,-0.00001505,-0.00181155,-0.0
 4615798,-0.00000590,-0.00365336,-0.00404183,-0.00000082,0.00012621,-0.
 00290577,-0.00000035,-0.02148812,-0.00521421,0.00000126,0.00057573,-0.
 00212316,0.00000068,0.01978894,0.00918060,0.00000092,-0.12370046,0.684
 39927,-0.00000023,-0.00000018,-0.00155298,0.00000059,-0.00000060,0.010
 09040,0.00000081,0.00000013,0.01335232,-0.00000001,-0.00002673,-0.0443
 3682,-0.00000366,-0.00000663,0.00335230,0.00000201,-0.00000040,0.00277
 289,-0.00000053,-0.00000091,0.00048356,-0.00000222,0.00000025,-0.00173
 822,0.00000013,0.00000012,0.00053235,0.00000509,-0.00000099,0.00362641
 ,-0.00009529,0.00014618,0.02764910,-0.06345601,0.02028622,0.00000501,-
 0.37860568,-0.04907309,0.00001103,-0.04810664,-0.01713279,0.00000069,0
 .01296273,-0.00446870,-0.00000079,-0.02194727,-0.00165759,0.00000148,0
 .02049077,0.00592206,-0.00000003,-0.00371961,0.00274916,0.00000021,0.0
 1845817,0.00412599,-0.00000035,-0.00063956,0.00227405,-0.00000100,-0.0
 0526370,-0.00846941,-0.00000103,-0.00127088,-0.00177145,-0.00000023,0.
 60899367,0.05252651,0.00817457,-0.00000312,0.00147993,-0.12175413,-0.0
 0000642,-0.04813382,0.00169694,0.00000100,0.00826170,-0.00749746,-0.00
 000127,-0.00054786,0.00409703,-0.00000081,-0.00719544,-0.00865425,0.00
 000101,0.00410954,-0.00160727,-0.00000050,-0.00026431,0.00032083,0.000
 00059,-0.00000248,0.00010327,-0.00000040,0.00002062,0.00096489,0.00000
 034,-0.00408532,-0.00125902,-0.00000024,-0.16931646,0.54217499,0.00000
 708,-0.00000061,0.00780647,0.00001633,-0.00000403,-0.05010927,-0.00000
 086,-0.00000032,0.01377029,0.00000062,-0.00000085,0.00816383,0.0000007
 2,0.00000052,-0.00110319,-0.00000081,-0.00000115,0.00489944,0.00000050
 ,-0.00000040,-0.00070336,-0.00000074,-0.00000019,-0.00027513,-0.000000
 01,-0.00000011,0.00010023,0.00000021,0.00000037,-0.00000317,-0.0000003
 9,0.00000010,-0.00156448,-0.00004671,0.00006214,0.03295958,-0.12920650
 ,-0.12527669,0.00000157,0.01376714,0.01636062,-0.00000005,-0.00204497,
 0.00283856,0.00000063,-0.00126457,0.00065064,0.00000008,-0.00401239,0.
 00203997,0.00000052,-0.01125071,-0.02779102,0.00000006,0.00305874,-0.0
 0097229,-0.00000055,0.00006709,-0.00145656,0.,0.00005665,0.00000846,-0
 .00000012,-0.00053532,-0.00017364,0.00000004,0.00048553,0.00015687,-0.
 00000011,0.00051691,-0.00090776,-0.00000027,0.13153528,-0.12384444,-0.
 28135030,-0.00000150,-0.01565431,-0.01985050,0.00000013,0.00361725,-0.
 00225819,-0.00000055,0.00112318,0.00005912,0.00000006,0.00068219,0.000
 80361,-0.00000059,0.00333222,0.00303794,0.00000012,0.00085962,0.002466
 76,0.00000022,0.00033951,0.00021915,0.00000012,0.00003192,0.00006502,-
 0.00000011,0.00001584,0.00007121,0.00000011,-0.00023577,0.00014907,-0.
 00000008,-0.00138728,0.00208532,0.00000026,0.13245817,0.29449358,0.000
 00097,0.,-0.02986512,-0.00000095,-0.00000315,0.00380882,0.00000120,-0.
 00000048,0.00450203,-0.00000054,-0.00000014,-0.00124168,0.00000023,-0.
 00000020,0.00545395,0.00000178,0.00000145,0.00317345,-0.00000034,0.000
 00044,-0.00511634,0.00000032,-0.00000012,0.00105425,-0.00000023,0.0000
 0003,-0.00008333,-0.00000003,-0.00000003,-0.00061926,0.00000013,0.0000
 0037,-0.00010597,-0.00000056,0.00000045,-0.00310505,-0.00000227,0.0000
 0182,0.02121867,-0.00139865,-0.00289452,0.00000013,0.01120923,-0.01433
 074,-0.00000143,-0.14087210,0.12790470,0.00001301,-0.01279134,0.028679
 05,0.00000270,-0.00414556,-0.00258770,0.00000052,-0.00103032,-0.000743
 03,-0.00000036,0.00034519,-0.00002703,0.00000005,-0.00006254,0.0018865
 8,0.00000013,-0.00035397,-0.00030479,0.00000007,0.00018015,-0.00048957
 ,-0.00000013,0.00327380,0.00076032,0.00000003,0.00252049,0.00020455,-0
 .00000027,0.00061540,-0.00065053,-0.00000005,0.14496000,-0.00376929,-0
 .00265850,-0.00000042,0.01861434,-0.01871931,-0.00000218,0.12826937,-0
 .26554858,-0.00002156,-0.00346013,0.00346994,0.00000016,-0.00085576,0.
 00088523,-0.00000083,-0.00130652,-0.00011390,0.00000076,0.00029858,0.0
 0008812,-0.00000011,-0.00049675,-0.00001860,0.00000022,-0.00003875,-0.
 00000153,-0.00000007,0.00002725,0.00041072,0.00000018,-0.00098830,0.00
 233875,0.00000064,0.00058826,0.00284039,0.00000034,0.00087595,-0.00085
 536,-0.00000017,-0.13679057,0.27823010,-0.00000015,-0.00000024,0.00401
 510,0.00000115,-0.00000100,0.00246694,0.00001224,-0.00002107,-0.027834
 56,0.00000139,-0.00000171,0.00396573,0.00000052,-0.00000020,0.00539451
 ,-0.00000038,-0.00000009,-0.00128046,0.00000007,0.00000026,-0.00005347
 ,0.,-0.00000008,0.00109252,0.00000012,0.00000016,-0.00038153,-0.000000
 01,0.00000015,-0.00003204,-0.00000064,0.00000097,-0.00536447,-0.000000
 23,0.00000059,-0.00355137,0.00000016,-0.00000006,0.00043206,-0.0000141
 6,0.00002329,0.01925338,-0.00070149,0.00523409,0.00000036,-0.00042971,
 -0.00139929,-0.00000019,0.00039253,0.00041047,0.00000018,0.00034436,0.
 00086854,-0.00000008,-0.00131198,0.00357175,0.00000072,0.01663631,0.02
 559040,0.00000114,-0.21872571,-0.25439296,-0.00002150,-0.00083265,0.00
 030937,-0.00000024,-0.00150622,-0.00009129,0.00000075,0.00021477,0.000
 39760,-0.00000006,-0.00042667,-0.00007104,0.00000019,-0.00010187,0.000
 01432,0.00000004,-0.00153930,-0.00079491,0.00000014,-0.00007859,-0.000
 14270,-0.00000012,0.20812241,-0.00447335,0.00614745,0.00000068,0.00111
 893,-0.00351792,-0.00000009,0.00142994,0.00149603,0.,-0.00312944,-0.00
 043539,0.00000032,0.00654130,-0.00134915,-0.00000048,-0.02045194,-0.03
 953895,-0.00000270,-0.20217989,-0.33734287,-0.00002553,-0.00178805,-0.
 00052298,-0.00000018,0.00023658,0.00001031,0.00000021,0.00068671,0.000
 97528,0.00000005,0.00082076,0.00049127,-0.00000002,-0.00155594,0.00066
 449,0.00000015,0.00129146,0.00051605,-0.00000024,0.00006938,0.00008939
 ,-0.00000008,0.22165590,0.37262893,-0.00000029,0.00000028,-0.00232673,
 -0.00000004,-0.00000013,-0.00095511,0.00000030,0.,-0.00011702,-0.00000
 008,0.00000005,0.00136361,-0.00000052,-0.00000047,0.00350562,-0.000001
 58,0.00000039,-0.00188202,-0.00001786,-0.00002838,-0.00876671,0.000000
 01,-0.00000025,-0.00063424,0.00000064,0.00000007,0.00041067,-0.0000000
 1,-0.00000021,-0.00022211,0.00000008,0.00000028,0.00001108,-0.00000010
 ,0.00000013,0.00001990,0.00000027,-0.00000002,0.00097480,0.,0.00000001
 ,0.00005380,0.00001897,0.00002803,0.00804991,0.00006572,-0.00011737,0.
 00017244,0.00052129,0.00072034,0.00012631,-0.00069659,-0.00083173,-0.0
 0030734,0.00124874,-0.00119563,0.00097751,-0.00418177,-0.00036850,0.00
 130994,-0.00141646,0.00413020,-0.00058365,-0.00107812,-0.00251526,-0.0
 0074706,0.00789479,0.00768136,-0.02090498,-0.05563504,-0.02180304,0.03
 814105,-0.00121928,0.00230635,0.00072951,-0.00001132,0.00039501,0.0001
 0462,-0.00060068,-0.00010139,0.00000031,-0.00004372,-0.00003690,-0.000
 05220,0.00000237,-0.00000262,-0.00006907,-0.00008035,-0.00025710,0.000
 12813,0.05532990,-0.00015448,-0.00000165,0.00022921,0.00035025,0.00005
 652,0.00002709,-0.00013286,-0.00024639,0.00021817,0.00028556,-0.000763
 59,-0.00078481,-0.00144432,0.00011355,-0.00144416,0.00026254,0.0015676
 1,0.00046822,-0.00085380,-0.00143085,-0.00097296,-0.00364494,-0.018042
 21,0.02110269,-0.02415207,-0.13290776,0.13490847,0.00308686,-0.0031128
 1,-0.00032945,0.00033022,0.00029701,-0.00011248,-0.00037798,-0.0000233
 7,-0.00004288,-0.00003383,0.00000083,-0.00002494,-0.00001522,0.0000014
 1,0.00004944,-0.00038074,0.00008464,-0.00024066,0.02569952,0.14884828,
 0.00069361,-0.00051982,-0.00025655,-0.00027685,0.00046289,-0.00004232,
 -0.00011136,-0.00009690,0.00000889,-0.00000358,0.00021364,0.00013275,0
 .00028671,0.00023554,0.00066054,-0.00082224,0.00132650,0.00015397,0.00
 148640,-0.00041448,0.00039547,-0.00135909,-0.00189016,0.00174756,0.036
 46623,0.13335387,-0.22105078,-0.00007799,-0.00203182,-0.00090048,-0.00
 001783,-0.00028709,-0.00008267,0.00030010,-0.00007763,0.00000535,-0.00
 003100,-0.00001825,0.00004281,-0.00000443,-0.00000943,-0.00000260,0.00
 039619,-0.00006197,0.00005152,-0.04044550,-0.14262929,0.23835917,0.000
 06567,-0.00011738,-0.00017269,0.00052119,0.00072039,-0.00012622,-0.000
 69636,-0.00083185,0.00030719,0.00124858,-0.00119504,-0.00097728,-0.004
 18074,-0.00036874,-0.00130757,-0.00141697,0.00413031,0.00058448,-0.001
 08250,-0.00251723,0.00074848,0.00791032,0.00767800,0.02090182,-0.05569
 094,-0.02189055,-0.03824870,-0.00122063,0.00231194,-0.00072956,-0.0000
 1167,0.00039483,-0.00010484,-0.00060065,-0.00010140,-0.00000029,-0.000
 04372,-0.00003691,0.00005226,0.00000240,-0.00000265,0.00006904,-0.0000
 8091,-0.00025741,-0.00012799,0.00009796,0.00166340,0.00357180,0.055388
 77,-0.00015458,-0.00000157,-0.00022907,0.00035045,0.00005646,-0.000027
 22,-0.00013299,-0.00024643,-0.00021816,0.00028575,-0.00076431,0.000784
 40,-0.00144500,0.00011352,0.00144503,0.00026252,0.00156858,-0.00046871
 ,-0.00085575,-0.00143252,0.00097389,-0.00365892,-0.01804029,-0.0210968
 9,-0.02423759,-0.13293480,-0.13490934,0.00308891,-0.00311628,0.0003256
 1,0.00033060,0.00029724,0.00011254,-0.00037814,-0.00002334,0.00004295,
 -0.00003383,0.00000085,0.00002497,-0.00001525,0.00000144,-0.00004948,-
 0.00038114,0.00008450,0.00024080,0.00167294,0.01101876,0.01548232,0.02
 579360,0.14887807,-0.00069376,0.00052005,-0.00025618,0.00027631,-0.000
 46364,-0.00004241,0.00011205,0.00009754,0.00000872,0.00000231,-0.00021
 248,0.00013315,-0.00028262,-0.00023496,0.00066198,0.00082311,-0.001329
 95,0.00015318,-0.00148638,0.00041644,0.00039553,0.00135194,0.00189050,
 0.00173451,-0.03656745,-0.13336079,-0.22100356,0.00007804,0.00203005,-
 0.00089891,0.00001798,0.00028665,-0.00008244,-0.00029951,0.00007779,0.
 00000542,0.00003104,0.00001829,0.00004280,0.00000441,0.00000946,-0.000
 00271,-0.00039638,0.00006196,0.00005197,-0.00358550,-0.01548578,-0.020
 83751,0.04056255,0.14262938,0.23830459,-0.00004873,-0.00002777,-0.0000
 0021,0.00011979,-0.00001890,-0.00000001,-0.00003822,0.00035905,-0.0000
 0005,-0.00084386,-0.00092148,0.00000010,0.00032424,0.00333778,0.000001
 42,0.00038563,0.00006442,-0.00000030,-0.00005386,-0.00041960,0.0000002
 6,-0.02378252,-0.00693355,0.00000613,-0.30003632,-0.09041090,0.0000745
 0,0.00281593,-0.00315875,-0.00000172,0.00057468,0.00008624,0.,-0.00007
 307,0.00000224,0.00000002,-0.00000537,-0.00000448,0.00000015,-0.000079
 25,-0.00000262,-0.00000006,-0.00004060,0.00015248,0.00000012,-0.000779
 18,-0.00019974,0.00001158,-0.00079215,-0.00020301,-0.00001006,0.322312
 70,-0.00038799,0.00042787,0.00000003,-0.00010162,-0.00045716,-0.000000
 04,0.00032995,-0.00025555,-0.00000008,0.00101896,0.00086879,0.00000036
 ,0.00126341,-0.00477833,-0.00000008,0.00040467,-0.00177186,-0.00000050
 ,-0.00203843,0.00015513,0.00000038,0.03129959,0.00855561,-0.00000982,-
 0.09961172,-0.08671848,0.00002650,0.00049357,0.00068996,0.00000034,-0.
 00024047,-0.00003067,0.00000003,0.00005427,0.00007619,0.00000003,0.000
 05225,0.00001801,0.00000006,0.00013431,0.00002263,-0.00000008,-0.00035
 526,0.00013545,0.00000016,-0.01550403,-0.00489332,-0.00293750,-0.01550
 168,-0.00489263,0.00294824,0.09818647,0.09292802,0.,0.,-0.00020939,-0.
 00000023,-0.00000018,0.00004119,0.00000024,0.00000015,-0.00022444,-0.0
 0000014,0.00000070,0.00082071,0.00000133,-0.00000107,0.00182779,0.0000
 0005,-0.00000113,-0.00034558,-0.00000096,0.00000022,0.00103760,0.00000
 366,0.00000500,-0.00197298,0.00007431,0.00002198,-0.05067479,-0.000000
 41,-0.00000003,-0.00093628,-0.00000021,-0.00000020,-0.00010080,0.00000
 024,0.00000001,0.00000021,0.00000001,0.,0.00002378,0.00000002,0.,-0.00
 005529,-0.00000006,-0.00000004,0.00010742,0.02410156,0.00639080,0.0022
 3212,-0.02409797,-0.00638833,0.00224801,-0.00008135,-0.00002791,0.0463
 1630,-0.00367987,0.00312039,0.00000067,0.00162433,-0.00432926,-0.00000
 052,0.00349741,0.00390943,0.00000003,-0.00888666,-0.02655425,-0.000002
 82,-0.01484697,-0.00100870,0.00000144,0.00449142,0.00416383,-0.0000000
 6,-0.00066993,0.00010385,0.00000023,0.03887512,-0.00935445,-0.00000566
 ,-0.00256388,-0.00460861,0.00000042,-0.20904416,0.19534220,0.00005770,
 0.00301617,0.00616239,-0.00000175,-0.00140371,0.00089279,0.00000015,-0
 .00014683,0.00006665,-0.00000008,-0.00047469,0.00023306,0.00000009,0.0
 0011411,0.00001849,-0.00000008,0.00049617,-0.00039303,-0.00003467,0.00
 049683,-0.00039335,0.00003391,-0.00004853,0.00056504,-0.00000001,0.184
 48779,0.00305479,-0.00179560,-0.00000061,-0.00278389,0.00262495,0.0000
 0048,-0.00124273,-0.00304572,-0.00000038,-0.00543396,0.01776763,0.0000
 0198,0.01134902,0.00202185,-0.00000073,-0.00276989,-0.00520315,0.00000
 021,0.00011041,0.00136921,-0.00000005,0.00679727,-0.04722123,-0.000010
 11,-0.00265736,0.00007511,-0.00000252,0.16782753,-0.26760421,-0.000065
 56,-0.00510498,-0.01695412,-0.00000195,0.00233481,-0.00062911,-0.00000
 014,0.00020477,-0.00004586,0.00000003,0.00042390,-0.00007616,-0.000000
 06,-0.00011089,-0.00021167,0.00000002,0.00025546,-0.00050922,-0.000176
 63,0.00025605,-0.00050980,0.00017738,0.00009318,-0.00009731,-0.0000000
 4,-0.17340450,0.32103874,0.00000050,-0.00000018,0.00020175,-0.00000053
 ,0.00000016,0.00022726,0.00000007,-0.00000023,0.00047303,-0.00000055,0
 .00000277,0.00044499,0.00000213,0.00000151,-0.00314372,-0.00000042,-0.
 00000109,-0.00091446,0.00000010,0.00000043,-0.00018099,-0.00000010,-0.
 00000698,-0.00045902,0.00000238,-0.00000110,0.01151106,0.00005098,-0.0
 0006966,-0.02757297,-0.00000333,-0.00000333,-0.00318945,0.00000050,0.0
 0000004,-0.00009953,0.00000006,0.00000001,0.00010342,0.,0.,-0.00000082
 ,-0.00000005,-0.00000007,0.00009824,0.00097798,-0.00140857,-0.00067628
 ,-0.00097865,0.00140708,-0.00067519,-0.00000057,-0.00000013,-0.0001858
 4,-0.00005180,0.00007873,0.02497465,0.00054388,-0.00038587,0.00000005,
 -0.00055464,0.00135163,0.00000008,-0.00020820,-0.00482478,-0.00000039,
 0.01861950,-0.01851820,-0.00000763,-0.00041295,-0.00391560,0.00000034,
 0.00014061,-0.00109894,-0.00000042,-0.00032785,0.00003608,0.00000013,-
 0.00246344,-0.00196451,-0.00000058,0.00010567,0.00013691,0.00000043,-0
 .00329525,0.00341601,0.00000008,-0.23618967,0.25174617,0.00009547,-0.0
 0017539,0.00004582,0.00000001,-0.00007487,0.00012481,0.00000005,-0.001
 42261,0.00068816,-0.00000005,0.00002649,-0.00005819,0.00000002,0.00003
 512,0.00006797,0.00000091,0.00003508,0.00006803,-0.00000098,0.00007158
 ,-0.00003954,-0.00000004,0.00490024,0.00089543,0.00000130,0.22079245,-
 0.00129038,0.00127962,0.00000009,-0.00065825,-0.00311289,0.00000058,0.
 00348400,0.00579565,0.00000095,0.02178580,-0.03426079,-0.00000929,-0.0
 0601061,-0.00143360,-0.00000088,0.00307131,-0.00059856,0.,-0.00089111,
 0.00051407,0.,0.00086348,-0.00059736,0.00000014,-0.00009407,0.00042553
 ,0.,-0.00318570,0.00274569,0.00000027,0.20523838,-0.33015231,-0.000108
 94,0.00131317,0.00061247,-0.00000015,-0.00009530,0.00005806,-0.0000001
 0,-0.00134439,0.00031404,-0.00000053,0.00006579,-0.00029437,0.,-0.0000
 5858,-0.00002154,0.00004784,-0.00005862,-0.00002151,-0.00004776,0.0000
 2125,0.00001950,0.00000002,0.00579277,-0.00132802,0.00000061,-0.227525
 98,0.35995781,0.00000016,-0.00000003,-0.00007800,0.00000006,0.00000025
 ,-0.00083188,-0.00000020,0.00000104,-0.00197587,0.00000150,0.00000296,
 -0.00260387,0.00000130,0.00000065,0.00313436,-0.00000026,-0.00000009,0
 .00130393,0.,0.00000030,-0.00001261,-0.00000037,-0.00000043,-0.0006895
 2,-0.00000003,0.,-0.00045949,-0.00000205,0.00000104,0.00099427,0.00008
 611,-0.00012266,-0.00387451,0.00000025,0.00000014,0.00011494,0.0000000
 1,0.00000003,0.00005890,-0.00000039,-0.00000026,0.00100510,-0.00000005
 ,-0.00000003,0.00003457,-0.00004667,0.00008980,0.00003411,0.00004674,-
 0.00008973,0.00003405,0.,-0.00000002,0.00003571,0.00000276,-0.00000004
 ,-0.00099286,-0.00008880,0.00011714,0.00462880,-0.00412246,-0.00382696
 ,0.00000006,-0.02802271,0.04374827,0.00000572,0.00455568,0.00115101,-0
 .00000028,-0.00229775,0.00023029,0.00000011,0.00201868,-0.00045112,-0.
 00000066,-0.00101502,0.00212506,0.00000063,-0.00009720,-0.00077774,-0.
 00000011,-0.00183297,-0.00058436,0.00000026,0.00011282,-0.00022258,-0.
 00000005,0.00065219,0.00068353,0.00000016,0.00111647,0.00099024,-0.000
 00007,-0.13797802,0.16309821,0.00002437,0.00006554,-0.00000582,0.00000
 002,-0.00039942,-0.00173829,0.00000008,0.00000508,0.00012940,0.0000000
 2,0.00005045,0.00003670,-0.00002903,0.00005044,0.00003674,0.00002900,0
 .00001712,-0.00002174,-0.00000003,-0.00023436,-0.00009442,0.,-0.000145
 74,-0.00042297,-0.00000006,0.16750119,-0.00348842,0.00233480,0.0000004
 0,-0.00422453,0.00520252,0.00000105,-0.00560667,0.00186900,0.00000076,
 0.00103397,-0.00101261,-0.00000035,-0.00226810,-0.00026514,0.00000110,
 0.00225073,0.00087522,-0.00000128,-0.00030033,0.00009021,0.00000029,0.
 00205825,0.00047003,-0.00000042,-0.00002544,0.00024654,0.00000017,-0.0
 0053506,-0.00108011,-0.00000031,0.00002300,-0.00032089,0.00000024,0.21
 594085,-0.42236344,-0.00005603,-0.00019680,0.00031564,-0.00000006,0.00
 013054,-0.00070020,-0.00000017,0.00000199,-0.00011047,-0.00000008,-0.0
 0006905,-0.00003589,0.00002837,-0.00006905,-0.00003594,-0.00002837,-0.
 00000233,-0.00000185,0.00000003,-0.00032471,0.00033369,-0.00000001,-0.
 00024540,0.00009851,-0.00000002,-0.20408346,0.41409039,0.00000019,-0.0
 0000012,0.00459332,-0.00000046,-0.00000081,-0.00414475,-0.00000064,0.0
 0000028,-0.00221073,0.00000008,0.00000001,-0.00098572,0.00000008,0.000
 00012,-0.00007898,0.00000007,-0.00000008,0.00271882,-0.00000007,-0.000
 00007,-0.00091654,0.,-0.00000003,0.00005210,-0.00000007,-0.00000003,-0
 .00011881,-0.00000003,-0.00000002,0.00002264,-0.00000027,-0.00000015,0
 .00012242,0.00003105,-0.00005384,-0.00733112,-0.00000009,-0.00000003,-
 0.00075298,0.00000015,-0.00000003,0.00088017,0.00000004,0.,0.00017086,
 -0.00002740,-0.00000791,0.00002495,0.00002739,0.00000796,0.00002498,0.
 00000003,0.00000002,0.00001456,0.00000005,-0.00000001,0.00005671,0.000
 00004,0.00000003,0.00013986,-0.00003015,0.00005470,0.00771823\\0.00000
 736,-0.00003101,0.00000001,-0.00001214,0.00001601,0.00000163,-0.000020
 74,0.00000988,-0.00000100,0.00002609,0.00004008,0.00000025,0.00005231,
 0.00003009,0.00000076,-0.00002181,-0.00002976,-0.00000188,-0.00000172,
 0.00000066,0.00000247,-0.00005404,-0.00001589,-0.00000328,0.00001759,0
 .00001012,-0.00000207,0.00002520,0.00002845,0.00000150,-0.00001889,0.0
 0000362,-0.00000165,-0.00000092,-0.00000170,-0.00000104,-0.00000483,0.
 00000294,0.00000037,0.00000244,-0.00000231,-0.00000017,0.00000303,0.00
 000602,-0.00000092,0.00000052,-0.00000105,0.00000080,-0.00000024,-0.00
 000096,0.00000136,0.00000062,0.00000205,0.00000023,-0.00000356,-0.0000
 5270,0.00000074,-0.00000274,-0.00000767,0.00000149,0.00000646,-0.00000
 688,0.00000039\\\@


 NOT WHAT WE DID SHALL BE THE TEST
 WHEN ACT AND WILL ARE DONE,
 BUT WHAT OUR LORD INFERS WE WOULD-
 HAD WE DIVINER BEEN.
           EMILY DICKINSON  POEMS NO. CLXXV
 Job cpu time:       0 days  0 hours 59 minutes 14.7 seconds.
 File lengths (MBytes):  RWF=    165 Int=      0 D2E=      0 Chk=      7 Scr=      1
 Normal termination of Gaussian 09 at Thu Jun 20 16:44:59 2024.
