 Entering Gaussian System, Link 0=g09
 Input=pbeTHAP.gjf
 Output=pbeTHAP.log
 Initial command:
 /home/phzd/g09E/g09/l1.exe "/home/phzd/g09E/scratch/Gau-31223.inp" -scrdir="/home/phzd/g09E/scratch/"
 Default is to use a total of  18 processors:
                               18 via shared-memory
                                1 via Linda
 Entering Link 1 = /home/phzd/g09E/g09/l1.exe PID=     31225.
  
 Copyright (c) 1988,1990,1992,1993,1995,1998,2003,2009,2015,
            Gaussian, Inc.  All Rights Reserved.
  
 This is part of the Gaussian(R) 09 program.  It is based on
 the Gaussian(R) 03 system (copyright 2003, Gaussian, Inc.),
 the Gaussian(R) 98 system (copyright 1998, Gaussian, Inc.),
 the Gaussian(R) 94 system (copyright 1995, Gaussian, Inc.),
 the Gaussian 92(TM) system (copyright 1992, Gaussian, Inc.),
 the Gaussian 90(TM) system (copyright 1990, Gaussian, Inc.),
 the Gaussian 88(TM) system (copyright 1988, Gaussian, Inc.),
 the Gaussian 86(TM) system (copyright 1986, Carnegie Mellon
 University), and the Gaussian 82(TM) system (copyright 1983,
 Carnegie Mellon University). Gaussian is a federally registered
 trademark of Gaussian, Inc.
  
 This software contains proprietary and confidential information,
 including trade secrets, belonging to Gaussian, Inc.
  
 This software is provided under written license and may be
 used, copied, transmitted, or stored only in accord with that
 written license.
  
 The following legend is applicable only to US Government
 contracts under FAR:
  
                    RESTRICTED RIGHTS LEGEND
  
 Use, reproduction and disclosure by the US Government is
 subject to restrictions as set forth in subparagraphs (a)
 and (c) of the Commercial Computer Software - Restricted
 Rights clause in FAR 52.227-19.
  
 Gaussian, Inc.
 340 Quinnipiac St., Bldg. 40, Wallingford CT 06492
  
  
 ---------------------------------------------------------------
 Warning -- This program may not be used in any manner that
 competes with the business of Gaussian, Inc. or will provide
 assistance to any competitor of Gaussian, Inc.  The licensee
 of this program is prohibited from giving any competitor of
 Gaussian, Inc. access to this program.  By using this program,
 the user acknowledges that Gaussian, Inc. is engaged in the
 business of creating and licensing software in the field of
 computational chemistry and represents and warrants to the
 licensee that it is not a competitor of Gaussian, Inc. and that
 it will not use this program in any manner prohibited above.
 ---------------------------------------------------------------
  

 Cite this work as:
 Gaussian 09, Revision E.01,
 M. J. Frisch, G. W. Trucks, H. B. Schlegel, G. E. Scuseria, 
 M. A. Robb, J. R. Cheeseman, G. Scalmani, V. Barone, B. Mennucci, 
 G. A. Petersson, H. Nakatsuji, M. Caricato, X. Li, H. P. Hratchian, 
 A. F. Izmaylov, J. Bloino, G. Zheng, J. L. Sonnenberg, M. Hada, 
 M. Ehara, K. Toyota, R. Fukuda, J. Hasegawa, M. Ishida, T. Nakajima, 
 Y. Honda, O. Kitao, H. Nakai, T. Vreven, J. A. Montgomery, Jr., 
 J. E. Peralta, F. Ogliaro, M. Bearpark, J. J. Heyd, E. Brothers, 
 K. N. Kudin, V. N. Staroverov, T. Keith, R. Kobayashi, J. Normand, 
 K. Raghavachari, A. Rendell, J. C. Burant, S. S. Iyengar, J. Tomasi, 
 M. Cossi, N. Rega, J. M. Millam, M. Klene, J. E. Knox, J. B. Cross, 
 V. Bakken, C. Adamo, J. Jaramillo, R. Gomperts, R. E. Stratmann, 
 O. Yazyev, A. J. Austin, R. Cammi, C. Pomelli, J. W. Ochterski, 
 R. L. Martin, K. Morokuma, V. G. Zakrzewski, G. A. Voth, 
 P. Salvador, J. J. Dannenberg, S. Dapprich, A. D. Daniels, 
 O. Farkas, J. B. Foresman, J. V. Ortiz, J. Cioslowski, 
 and D. J. Fox, Gaussian, Inc., Wallingford CT, 2013.
 
 ******************************************
 Gaussian 09:  ES64L-G09RevE.01 30-Nov-2015
                16-Jun-2024 
 ******************************************
 %chk=pbeTHAP.chk
 -----------------------------
 # opt freq pbepbe/6-31+g(d,p)
 -----------------------------
 1/14=-1,18=20,19=15,26=3,38=1/1,3;
 2/9=110,12=2,17=6,18=5,40=1/2;
 3/5=1,6=6,7=111,11=2,16=1,25=1,30=1,71=1,74=1009/1,2,3;
 4//1;
 5/5=2,38=5/2;
 6/7=2,8=2,9=2,10=2,28=1/1;
 7//1,2,3,16;
 1/14=-1,18=20,19=15,26=3/3(2);
 2/9=110/2;
 99//99;
 2/9=110/2;
 3/5=1,6=6,7=111,11=2,16=1,25=1,30=1,71=1,74=1009/1,2,3;
 4/5=5,16=3,69=1/1;
 5/5=2,38=5/2;
 7//1,2,3,16;
 1/14=-1,18=20,19=15,26=3/3(-5);
 2/9=110/2;
 6/7=2,8=2,9=2,10=2,19=2,28=1/1;
 99/9=1/99;
 ----------
 [No Title]
 ----------
 Symbolic Z-matrix:
 Charge =  0 Multiplicity = 1
 C                    -1.52736  -1.25049  -0.00003 
 C                    -2.2612   -0.05687  -0.00007 
 C                    -1.62616   1.17895   0.00009 
 C                    -0.22825   1.23123   0.00012 
 C                     0.56843   0.03681   0.00014 
 C                    -0.14091  -1.19647   0.00009 
 O                     0.57987  -2.35647   0.00019 
 C                     2.0278    0.16723   0.00003 
 C                     2.95484  -1.02296  -0.00005 
 O                     2.5513    1.3033   -0.00027 
 O                     0.3372    2.43939   0.00013 
 O                    -3.61643  -0.18009  -0.00009 
 H                    -2.05507  -2.19868   0.00013 
 H                    -2.18059   2.11154   0.00017 
 H                    -0.02727  -3.10829  -0.00081 
 H                     2.78064  -1.65352  -0.87589 
 H                     3.97881  -0.64802  -0.00032 
 H                     2.78121  -1.65351   0.8759 
 H                     1.33103   2.28191   0.00002 
 H                    -4.02736   0.69499  -0.00075 
 

 GradGradGradGradGradGradGradGradGradGradGradGradGradGradGradGradGradGrad
 Berny optimization.
 Initialization pass.
                           ----------------------------
                           !    Initial Parameters    !
                           ! (Angstroms and Degrees)  !
 --------------------------                            --------------------------
 ! Name  Definition              Value          Derivative Info.                !
 --------------------------------------------------------------------------------
 ! R1    R(1,2)                  1.4012         estimate D2E/DX2                !
 ! R2    R(1,6)                  1.3875         estimate D2E/DX2                !
 ! R3    R(1,13)                 1.0852         estimate D2E/DX2                !
 ! R4    R(2,3)                  1.3894         estimate D2E/DX2                !
 ! R5    R(2,12)                 1.3608         estimate D2E/DX2                !
 ! R6    R(3,4)                  1.3989         estimate D2E/DX2                !
 ! R7    R(3,14)                 1.0849         estimate D2E/DX2                !
 ! R8    R(4,5)                  1.4357         estimate D2E/DX2                !
 ! R9    R(4,11)                 1.3339         estimate D2E/DX2                !
 ! R10   R(5,6)                  1.4227         estimate D2E/DX2                !
 ! R11   R(5,8)                  1.4652         estimate D2E/DX2                !
 ! R12   R(6,7)                  1.3657         estimate D2E/DX2                !
 ! R13   R(7,15)                 0.9664         estimate D2E/DX2                !
 ! R14   R(8,9)                  1.5086         estimate D2E/DX2                !
 ! R15   R(8,10)                 1.2509         estimate D2E/DX2                !
 ! R16   R(9,16)                 1.0932         estimate D2E/DX2                !
 ! R17   R(9,17)                 1.0905         estimate D2E/DX2                !
 ! R18   R(9,18)                 1.0932         estimate D2E/DX2                !
 ! R19   R(11,19)                1.0062         estimate D2E/DX2                !
 ! R20   R(12,20)                0.9668         estimate D2E/DX2                !
 ! A1    A(2,1,6)              119.3522         estimate D2E/DX2                !
 ! A2    A(2,1,13)             119.3188         estimate D2E/DX2                !
 ! A3    A(6,1,13)             121.329          estimate D2E/DX2                !
 ! A4    A(1,2,3)              121.2197         estimate D2E/DX2                !
 ! A5    A(1,2,12)             116.3882         estimate D2E/DX2                !
 ! A6    A(3,2,12)             122.3921         estimate D2E/DX2                !
 ! A7    A(2,3,4)              119.3383         estimate D2E/DX2                !
 ! A8    A(2,3,14)             122.0716         estimate D2E/DX2                !
 ! A9    A(4,3,14)             118.5901         estimate D2E/DX2                !
 ! A10   A(3,4,5)              121.5617         estimate D2E/DX2                !
 ! A11   A(3,4,11)             117.222          estimate D2E/DX2                !
 ! A12   A(5,4,11)             121.2162         estimate D2E/DX2                !
 ! A13   A(4,5,6)              116.3907         estimate D2E/DX2                !
 ! A14   A(4,5,8)              118.5967         estimate D2E/DX2                !
 ! A15   A(6,5,8)              125.0126         estimate D2E/DX2                !
 ! A16   A(1,6,5)              122.1373         estimate D2E/DX2                !
 ! A17   A(1,6,7)              119.6239         estimate D2E/DX2                !
 ! A18   A(5,6,7)              118.2388         estimate D2E/DX2                !
 ! A19   A(6,7,15)             109.222          estimate D2E/DX2                !
 ! A20   A(5,8,9)              122.8085         estimate D2E/DX2                !
 ! A21   A(5,8,10)             119.8469         estimate D2E/DX2                !
 ! A22   A(9,8,10)             117.3446         estimate D2E/DX2                !
 ! A23   A(8,9,16)             110.9272         estimate D2E/DX2                !
 ! A24   A(8,9,17)             107.8044         estimate D2E/DX2                !
 ! A25   A(8,9,18)             110.9414         estimate D2E/DX2                !
 ! A26   A(16,9,17)            110.3508         estimate D2E/DX2                !
 ! A27   A(16,9,18)            106.4966         estimate D2E/DX2                !
 ! A28   A(17,9,18)            110.3451         estimate D2E/DX2                !
 ! A29   A(4,11,19)            106.0763         estimate D2E/DX2                !
 ! A30   A(2,12,20)            109.9589         estimate D2E/DX2                !
 ! D1    D(6,1,2,3)             -0.0037         estimate D2E/DX2                !
 ! D2    D(6,1,2,12)          -179.9956         estimate D2E/DX2                !
 ! D3    D(13,1,2,3)           179.983          estimate D2E/DX2                !
 ! D4    D(13,1,2,12)           -0.0089         estimate D2E/DX2                !
 ! D5    D(2,1,6,5)             -0.0017         estimate D2E/DX2                !
 ! D6    D(2,1,6,7)            179.9968         estimate D2E/DX2                !
 ! D7    D(13,1,6,5)          -179.9882         estimate D2E/DX2                !
 ! D8    D(13,1,6,7)             0.0104         estimate D2E/DX2                !
 ! D9    D(1,2,3,4)              0.008          estimate D2E/DX2                !
 ! D10   D(1,2,3,14)          -179.9936         estimate D2E/DX2                !
 ! D11   D(12,2,3,4)           179.9994         estimate D2E/DX2                !
 ! D12   D(12,2,3,14)           -0.0022         estimate D2E/DX2                !
 ! D13   D(1,2,12,20)         -179.9596         estimate D2E/DX2                !
 ! D14   D(3,2,12,20)            0.0486         estimate D2E/DX2                !
 ! D15   D(2,3,4,5)             -0.0071         estimate D2E/DX2                !
 ! D16   D(2,3,4,11)           179.9932         estimate D2E/DX2                !
 ! D17   D(14,3,4,5)           179.9945         estimate D2E/DX2                !
 ! D18   D(14,3,4,11)           -0.0053         estimate D2E/DX2                !
 ! D19   D(3,4,5,6)              0.0018         estimate D2E/DX2                !
 ! D20   D(3,4,5,8)            179.9941         estimate D2E/DX2                !
 ! D21   D(11,4,5,6)          -179.9984         estimate D2E/DX2                !
 ! D22   D(11,4,5,8)            -0.0062         estimate D2E/DX2                !
 ! D23   D(3,4,11,19)         -179.9926         estimate D2E/DX2                !
 ! D24   D(5,4,11,19)            0.0076         estimate D2E/DX2                !
 ! D25   D(4,5,6,1)              0.0026         estimate D2E/DX2                !
 ! D26   D(4,5,6,7)           -179.996          estimate D2E/DX2                !
 ! D27   D(8,5,6,1)           -179.9891         estimate D2E/DX2                !
 ! D28   D(8,5,6,7)              0.0123         estimate D2E/DX2                !
 ! D29   D(4,5,8,9)           -179.9958         estimate D2E/DX2                !
 ! D30   D(4,5,8,10)            -0.01           estimate D2E/DX2                !
 ! D31   D(6,5,8,9)             -0.0042         estimate D2E/DX2                !
 ! D32   D(6,5,8,10)           179.9815         estimate D2E/DX2                !
 ! D33   D(1,6,7,15)             0.0609         estimate D2E/DX2                !
 ! D34   D(5,6,7,15)          -179.9405         estimate D2E/DX2                !
 ! D35   D(5,8,9,16)            59.0671         estimate D2E/DX2                !
 ! D36   D(5,8,9,17)           179.9889         estimate D2E/DX2                !
 ! D37   D(5,8,9,18)           -59.0878         estimate D2E/DX2                !
 ! D38   D(10,8,9,16)         -120.919          estimate D2E/DX2                !
 ! D39   D(10,8,9,17)            0.0028         estimate D2E/DX2                !
 ! D40   D(10,8,9,18)          120.9261         estimate D2E/DX2                !
 --------------------------------------------------------------------------------
 Trust Radius=3.00D-01 FncErr=1.00D-07 GrdErr=1.00D-06
 Number of steps in this run=    100 maximum allowed number of steps=    120.
 GradGradGradGradGradGradGradGradGradGradGradGradGradGradGradGradGradGrad

                          Input orientation:                          
 ---------------------------------------------------------------------
 Center     Atomic      Atomic             Coordinates (Angstroms)
 Number     Number       Type             X           Y           Z
 ---------------------------------------------------------------------
      1          6           0       -1.527361   -1.250486   -0.000029
      2          6           0       -2.261204   -0.056870   -0.000066
      3          6           0       -1.626164    1.178953    0.000089
      4          6           0       -0.228245    1.231227    0.000115
      5          6           0        0.568429    0.036812    0.000136
      6          6           0       -0.140911   -1.196467    0.000088
      7          8           0        0.579870   -2.356472    0.000190
      8          6           0        2.027800    0.167227    0.000030
      9          6           0        2.954839   -1.022960   -0.000052
     10          8           0        2.551302    1.303298   -0.000265
     11          8           0        0.337199    2.439391    0.000125
     12          8           0       -3.616433   -0.180094   -0.000088
     13          1           0       -2.055071   -2.198681    0.000127
     14          1           0       -2.180588    2.111538    0.000166
     15          1           0       -0.027266   -3.108292   -0.000806
     16          1           0        2.780635   -1.653523   -0.875892
     17          1           0        3.978807   -0.648024   -0.000324
     18          1           0        2.781208   -1.653513    0.875899
     19          1           0        1.331034    2.281909    0.000019
     20          1           0       -4.027363    0.694990   -0.000754
 ---------------------------------------------------------------------
                    Distance matrix (angstroms):
                    1          2          3          4          5
     1  C    0.000000
     2  C    1.401158   0.000000
     3  C    2.431447   1.389437   0.000000
     4  C    2.801179   2.406682   1.398896   0.000000
     5  C    2.459567   2.831183   2.474010   1.435729   0.000000
     6  C    1.387502   2.407140   2.801535   2.429264   1.422723
     7  O    2.379838   3.655116   4.167231   3.677585   2.393311
     8  C    3.827412   4.294854   3.791443   2.494361   1.465187
     9  C    4.487971   5.304756   5.082717   3.900434   2.611143
    10  O    4.812204   5.001027   4.179316   2.780481   2.352822
    11  O    4.134220   3.603195   2.333131   1.333937   2.413680
    12  O    2.347331   1.360820   2.410016   3.670374   4.190479
    13  H    1.085151   2.151708   3.404757   3.886073   3.446764
    14  H    3.424896   2.169906   1.084943   2.141633   3.444065
    15  H    2.387829   3.781753   4.575691   4.344171   3.201021
    16  H    4.414567   5.360645   5.311322   4.259405   2.918649
    17  H    5.539029   6.267950   5.895214   4.607697   3.478459
    18  H    4.415138   5.361203   5.311764   4.259757   2.918998
    19  H    4.544033   4.286498   3.156189   1.880235   2.371081
    20  H    3.167789   1.919534   2.449485   3.836776   4.642683
                    6          7          8          9         10
     6  C    0.000000
     7  O    1.365700   0.000000
     8  C    2.561829   2.909563   0.000000
     9  C    3.100608   2.723735   1.508624   0.000000
    10  O    3.673804   4.156977   1.250884   2.360999   0.000000
    11  O    3.667159   4.801999   2.832112   4.340497   2.488566
    12  O    3.621086   4.727111   5.654909   6.625107   6.343612
    13  H    2.160658   2.639661   4.718830   5.146020   5.786409
    14  H    3.886281   5.251975   4.635825   6.016451   4.800420
    15  H    1.915200   0.966358   3.866823   3.638895   5.109906
    16  H    3.084100   2.470835   2.156184   1.093185   3.092266
    17  H    4.156064   3.804151   2.114489   1.090453   2.417732
    18  H    3.084593   2.471216   2.156354   1.093177   3.092451
    19  H    3.776999   4.698811   2.226514   3.682241   1.564204
    20  H    4.322282   5.526121   6.078119   7.190445   6.606729
                   11         12         13         14         15
    11  O    0.000000
    12  O    4.742669   0.000000
    13  H    5.218684   2.551969   0.000000
    14  H    2.539043   2.704298   4.312046   0.000000
    15  H    5.559642   4.632112   2.222473   5.646541   0.000000
    16  H    4.846621   6.622726   4.944559   6.289427   3.281225
    17  H    4.774248   7.609641   6.229946   6.749321   4.701227
    18  H    4.846857   6.623302   4.945076   6.289828   3.282152
    19  H    1.006235   5.526200   5.616173   3.515752   5.558709
    20  H    4.700249   0.966766   3.501895   2.327485   5.519577
                   16         17         18         19         20
    16  H    0.000000
    17  H    1.792558   0.000000
    18  H    1.751791   1.792489   0.000000
    19  H    4.284412   3.949077   4.284591   0.000000
    20  H    7.254669   8.118032   7.255386   5.588446   0.000000
 Stoichiometry    C8H8O4
 Framework group  C1[X(C8H8O4)]
 Deg. of freedom    54
 Full point group                 C1      NOp   1
 Largest Abelian subgroup         C1      NOp   1
 Largest concise Abelian subgroup C1      NOp   1
                         Standard orientation:                         
 ---------------------------------------------------------------------
 Center     Atomic      Atomic             Coordinates (Angstroms)
 Number     Number       Type             X           Y           Z
 ---------------------------------------------------------------------
      1          6           0        1.527361    1.250486   -0.000029
      2          6           0        2.261204    0.056870   -0.000066
      3          6           0        1.626164   -1.178953    0.000089
      4          6           0        0.228245   -1.231227    0.000115
      5          6           0       -0.568429   -0.036812    0.000136
      6          6           0        0.140911    1.196467    0.000088
      7          8           0       -0.579870    2.356472    0.000190
      8          6           0       -2.027800   -0.167227    0.000030
      9          6           0       -2.954839    1.022960   -0.000052
     10          8           0       -2.551302   -1.303298   -0.000265
     11          8           0       -0.337199   -2.439391    0.000125
     12          8           0        3.616433    0.180094   -0.000088
     13          1           0        2.055071    2.198681    0.000127
     14          1           0        2.180588   -2.111538    0.000166
     15          1           0        0.027266    3.108292   -0.000806
     16          1           0       -2.780635    1.653523   -0.875892
     17          1           0       -3.978807    0.648024   -0.000324
     18          1           0       -2.781208    1.653513    0.875899
     19          1           0       -1.331034   -2.281909    0.000019
     20          1           0        4.027363   -0.694990   -0.000754
 ---------------------------------------------------------------------
 Rotational constants (GHZ):      1.5442379      0.7644869      0.5129479
 Standard basis: 6-31+G(d,p) (6D, 7F)
 There are   268 symmetry adapted cartesian basis functions of A   symmetry.
 There are   268 symmetry adapted basis functions of A   symmetry.
   268 basis functions,   440 primitive gaussians,   268 cartesian basis functions
    44 alpha electrons       44 beta electrons
       nuclear repulsion energy       697.2589313297 Hartrees.
 NAtoms=   20 NActive=   20 NUniq=   20 SFac= 1.00D+00 NAtFMM=   60 NAOKFM=F Big=F
 Integral buffers will be    131072 words long.
 Raffenetti 2 integral format.
 Two-electron integral symmetry is turned on.
 One-electron integrals computed using PRISM.
 NBasis=   268 RedAO= T EigKep=  1.53D-06  NBF=   268
 NBsUse=   268 1.00D-06 EigRej= -1.00D+00 NBFU=   268
 ExpMin= 4.38D-02 ExpMax= 5.48D+03 ExpMxC= 8.25D+02 IAcc=2 IRadAn=         4 AccDes= 0.00D+00
 Harris functional with IExCor= 1009 and IRadAn=       4 diagonalized for initial guess.
 HarFok:  IExCor= 1009 AccDes= 0.00D+00 IRadAn=         4 IDoV= 1 UseB2=F ITyADJ=14
 ICtDFT=  3500011 ScaDFX=  1.000000  1.000000  1.000000  1.000000
 FoFCou: FMM=F IPFlag=           0 FMFlag=      100000 FMFlg1=           0
         NFxFlg=           0 DoJE=T BraDBF=F KetDBF=T FulRan=T
         wScrn=  0.000000 ICntrl=     500 IOpCl=  0 I1Cent=   200000004 NGrid=           0
         NMat0=    1 NMatS0=      1 NMatT0=    0 NMatD0=    1 NMtDS0=    0 NMtDT0=    0
 Petite list used in FoFCou.
 Keep J ints in memory in canonical form, NReq=659648347.
 Requested convergence on RMS density matrix=1.00D-08 within 128 cycles.
 Requested convergence on MAX density matrix=1.00D-06.
 Requested convergence on             energy=1.00D-06.
 No special actions if energy rises.
 SCF Done:  E(RPBE-PBE) =  -609.925900829     A.U. after   17 cycles
            NFock= 17  Conv=0.34D-08     -V/T= 2.0089

 **********************************************************************

            Population analysis using the SCF density.

 **********************************************************************

 Orbital symmetries:
       Occupied  (A) (A) (A) (A) (A) (A) (A) (A) (A) (A) (A) (A)
                 (A) (A) (A) (A) (A) (A) (A) (A) (A) (A) (A) (A)
                 (A) (A) (A) (A) (A) (A) (A) (A) (A) (A) (A) (A)
                 (A) (A) (A) (A) (A) (A) (A) (A)
       Virtual   (A) (A) (A) (A) (A) (A) (A) (A) (A) (A) (A) (A)
                 (A) (A) (A) (A) (A) (A) (A) (A) (A) (A) (A) (A)
                 (A) (A) (A) (A) (A) (A) (A) (A) (A) (A) (A) (A)
                 (A) (A) (A) (A) (A) (A) (A) (A) (A) (A) (A) (A)
                 (A) (A) (A) (A) (A) (A) (A) (A) (A) (A) (A) (A)
                 (A) (A) (A) (A) (A) (A) (A) (A) (A) (A) (A) (A)
                 (A) (A) (A) (A) (A) (A) (A) (A) (A) (A) (A) (A)
                 (A) (A) (A) (A) (A) (A) (A) (A) (A) (A) (A) (A)
                 (A) (A) (A) (A) (A) (A) (A) (A) (A) (A) (A) (A)
                 (A) (A) (A) (A) (A) (A) (A) (A) (A) (A) (A) (A)
                 (A) (A) (A) (A) (A) (A) (A) (A) (A) (A) (A) (A)
                 (A) (A) (A) (A) (A) (A) (A) (A) (A) (A) (A) (A)
                 (A) (A) (A) (A) (A) (A) (A) (A) (A) (A) (A) (A)
                 (A) (A) (A) (A) (A) (A) (A) (A) (A) (A) (A) (A)
                 (A) (A) (A) (A) (A) (A) (A) (A) (A) (A) (A) (A)
                 (A) (A) (A) (A) (A) (A) (A) (A) (A) (A) (A) (A)
                 (A) (A) (A) (A) (A) (A) (A) (A) (A) (A) (A) (A)
                 (A) (A) (A) (A) (A) (A) (A) (A) (A) (A) (A) (A)
                 (A) (A) (A) (A) (A) (A) (A) (A)
 The electronic state is 1-A.
 Alpha  occ. eigenvalues --  -18.83784 -18.83625 -18.80092 -18.77812  -9.99638
 Alpha  occ. eigenvalues --   -9.99275  -9.98916  -9.98430  -9.92256  -9.91329
 Alpha  occ. eigenvalues --   -9.90810  -9.89878  -1.00560  -1.00197  -0.98672
 Alpha  occ. eigenvalues --   -0.95014  -0.78788  -0.71159  -0.68749  -0.66617
 Alpha  occ. eigenvalues --   -0.60127  -0.58359  -0.54762  -0.52316  -0.47328
 Alpha  occ. eigenvalues --   -0.47048  -0.45494  -0.43230  -0.41294  -0.39912
 Alpha  occ. eigenvalues --   -0.38618  -0.38578  -0.37078  -0.36592  -0.36289
 Alpha  occ. eigenvalues --   -0.35569  -0.33847  -0.32371  -0.31910  -0.31890
 Alpha  occ. eigenvalues --   -0.26425  -0.22042  -0.21665  -0.20432
 Alpha virt. eigenvalues --   -0.08524  -0.03444  -0.03077  -0.02496  -0.00555
 Alpha virt. eigenvalues --    0.00426   0.02129   0.02552   0.02878   0.03432
 Alpha virt. eigenvalues --    0.04810   0.05349   0.06093   0.06323   0.07631
 Alpha virt. eigenvalues --    0.09027   0.09091   0.09635   0.10433   0.11171
 Alpha virt. eigenvalues --    0.11352   0.12230   0.12669   0.13124   0.13421
 Alpha virt. eigenvalues --    0.13856   0.14132   0.14886   0.15843   0.16540
 Alpha virt. eigenvalues --    0.16567   0.17633   0.18650   0.18778   0.18853
 Alpha virt. eigenvalues --    0.19281   0.19774   0.20727   0.21538   0.22021
 Alpha virt. eigenvalues --    0.22170   0.22999   0.23591   0.24471   0.24542
 Alpha virt. eigenvalues --    0.25705   0.26301   0.26922   0.27110   0.27726
 Alpha virt. eigenvalues --    0.28264   0.28899   0.29398   0.30085   0.30353
 Alpha virt. eigenvalues --    0.30520   0.31773   0.32033   0.33142   0.34373
 Alpha virt. eigenvalues --    0.35758   0.36462   0.37664   0.38482   0.39393
 Alpha virt. eigenvalues --    0.40637   0.41215   0.42342   0.44092   0.47928
 Alpha virt. eigenvalues --    0.54791   0.57056   0.60277   0.62187   0.63660
 Alpha virt. eigenvalues --    0.65138   0.66432   0.66662   0.68603   0.68843
 Alpha virt. eigenvalues --    0.69809   0.70597   0.71122   0.73149   0.75617
 Alpha virt. eigenvalues --    0.78331   0.81970   0.82593   0.84413   0.86382
 Alpha virt. eigenvalues --    0.88163   0.88942   0.94146   0.94762   0.99343
 Alpha virt. eigenvalues --    1.00282   1.02088   1.03215   1.05715   1.05787
 Alpha virt. eigenvalues --    1.08522   1.10796   1.11594   1.11961   1.12546
 Alpha virt. eigenvalues --    1.13921   1.15449   1.15472   1.16937   1.17994
 Alpha virt. eigenvalues --    1.18520   1.20073   1.22169   1.22393   1.23033
 Alpha virt. eigenvalues --    1.23945   1.25756   1.28441   1.28517   1.31004
 Alpha virt. eigenvalues --    1.32001   1.32371   1.32653   1.32883   1.33921
 Alpha virt. eigenvalues --    1.35690   1.38149   1.40299   1.42568   1.50052
 Alpha virt. eigenvalues --    1.50941   1.51316   1.54253   1.55865   1.62243
 Alpha virt. eigenvalues --    1.64066   1.64483   1.66251   1.68738   1.72993
 Alpha virt. eigenvalues --    1.75767   1.76852   1.78564   1.79609   1.81614
 Alpha virt. eigenvalues --    1.82628   1.82701   1.83101   1.84583   1.85755
 Alpha virt. eigenvalues --    1.89809   1.91892   1.94891   1.95783   1.96135
 Alpha virt. eigenvalues --    1.96140   1.98696   2.00613   2.06599   2.10300
 Alpha virt. eigenvalues --    2.12722   2.13351   2.14009   2.18452   2.23698
 Alpha virt. eigenvalues --    2.25952   2.26084   2.29469   2.31030   2.32894
 Alpha virt. eigenvalues --    2.34363   2.36348   2.37150   2.41485   2.42040
 Alpha virt. eigenvalues --    2.43133   2.45435   2.46543   2.46707   2.47609
 Alpha virt. eigenvalues --    2.50356   2.55911   2.57823   2.58088   2.62717
 Alpha virt. eigenvalues --    2.63306   2.63780   2.65262   2.66244   2.67168
 Alpha virt. eigenvalues --    2.71268   2.75241   2.78549   2.80109   2.83875
 Alpha virt. eigenvalues --    2.90071   2.94437   2.98865   3.01413   3.06042
 Alpha virt. eigenvalues --    3.11636   3.12683   3.16961   3.22820   3.33188
 Alpha virt. eigenvalues --    3.35051   3.35927   3.39779   3.42239   3.44882
 Alpha virt. eigenvalues --    3.57624   3.68191   4.14853   4.16118   4.18113
 Alpha virt. eigenvalues --    4.25546   4.30116   4.36020   4.37275   4.42904
 Alpha virt. eigenvalues --    4.58421   4.66203   4.70807   4.81928
          Condensed to atoms (all electrons):
               1          2          3          4          5          6
     1  C   14.831502  -2.668041   0.579202  -3.690859  -0.601442  -5.296115
     2  C   -2.668041   7.981004  -1.533074   2.597346  -2.280282   3.437559
     3  C    0.579202  -1.533074  14.600326  -4.475265  -1.524669  -3.178575
     4  C   -3.690859   2.597346  -4.475265  17.520823  -4.436911   1.837249
     5  C   -0.601442  -2.280282  -1.524669  -4.436911  19.939431  -4.740228
     6  C   -5.296115   3.437559  -3.178575   1.837249  -4.740228  19.499330
     7  O    0.289674  -0.012325  -0.005294   0.007758  -0.456552   0.132647
     8  C    1.914086  -0.880061   0.989538  -1.709704  -3.018849  -2.746928
     9  C   -0.362039   0.036546  -0.399877  -0.365823   0.212974  -0.256197
    10  O    0.005264  -0.002054  -0.036383  -0.162799  -0.132477  -0.121361
    11  O    0.031617  -0.014863  -0.448158   0.068311   0.492156   0.038178
    12  O   -0.259464   0.113881   0.067486  -0.007540  -0.041286   0.089682
    13  H    0.175343   0.116550   0.060358  -0.038565   0.024888  -0.025117
    14  H   -0.003646  -0.032172   0.147383   0.167594   0.036284  -0.001162
    15  H   -0.167757   0.011027  -0.000405   0.011546   0.198936  -0.047928
    16  H    0.001528   0.001773  -0.005888  -0.023058   0.048396   0.033446
    17  H    0.001972   0.000056  -0.002142  -0.023365   0.040679   0.034660
    18  H    0.001436   0.001767  -0.005872  -0.022864   0.048721   0.033169
    19  H    0.007001  -0.001996   0.224041   0.155731  -0.380522  -0.095847
    20  H    0.135042  -0.013719  -0.101786   0.012861   0.022705  -0.045797
               7          8          9         10         11         12
     1  C    0.289674   1.914086  -0.362039   0.005264   0.031617  -0.259464
     2  C   -0.012325  -0.880061   0.036546  -0.002054  -0.014863   0.113881
     3  C   -0.005294   0.989538  -0.399877  -0.036383  -0.448158   0.067486
     4  C    0.007758  -1.709704  -0.365823  -0.162799   0.068311  -0.007540
     5  C   -0.456552  -3.018849   0.212974  -0.132477   0.492156  -0.041286
     6  C    0.132647  -2.746928  -0.256197  -0.121361   0.038178   0.089682
     7  O    8.460457   0.017496  -0.091537   0.001439  -0.000627  -0.001038
     8  C    0.017496  12.635699  -1.821565   0.537060  -0.222946  -0.002002
     9  C   -0.091537  -1.821565   8.310965   0.000234  -0.062326  -0.000954
    10  O    0.001439   0.537060   0.000234   8.267217  -0.003739  -0.000032
    11  O   -0.000627  -0.222946  -0.062326  -0.003739   8.484078  -0.000872
    12  O   -0.001038  -0.002002  -0.000954  -0.000032  -0.000872   8.348514
    13  H   -0.020423   0.009359   0.000780   0.000024   0.000079  -0.009091
    14  H    0.000066   0.007289   0.000571   0.000107  -0.009443  -0.016240
    15  H    0.179262  -0.000536   0.013271   0.000053   0.000031  -0.000118
    16  H   -0.001540  -0.160863   0.453178   0.004068   0.000191   0.000001
    17  H   -0.000554  -0.124319   0.431702  -0.005400   0.000079  -0.000000
    18  H   -0.001516  -0.160869   0.453021   0.004075   0.000190   0.000001
    19  H   -0.000015   0.089262   0.015729   0.086631   0.135530   0.000031
    20  H    0.000054   0.002945   0.000017   0.000001  -0.000045   0.195244
              13         14         15         16         17         18
     1  C    0.175343  -0.003646  -0.167757   0.001528   0.001972   0.001436
     2  C    0.116550  -0.032172   0.011027   0.001773   0.000056   0.001767
     3  C    0.060358   0.147383  -0.000405  -0.005888  -0.002142  -0.005872
     4  C   -0.038565   0.167594   0.011546  -0.023058  -0.023365  -0.022864
     5  C    0.024888   0.036284   0.198936   0.048396   0.040679   0.048721
     6  C   -0.025117  -0.001162  -0.047928   0.033446   0.034660   0.033169
     7  O   -0.020423   0.000066   0.179262  -0.001540  -0.000554  -0.001516
     8  C    0.009359   0.007289  -0.000536  -0.160863  -0.124319  -0.160869
     9  C    0.000780   0.000571   0.013271   0.453178   0.431702   0.453021
    10  O    0.000024   0.000107   0.000053   0.004068  -0.005400   0.004075
    11  O    0.000079  -0.009443   0.000031   0.000191   0.000079   0.000190
    12  O   -0.009091  -0.016240  -0.000118   0.000001  -0.000000   0.000001
    13  H    0.568427  -0.000135   0.009766  -0.000002  -0.000000  -0.000002
    14  H   -0.000135   0.562410  -0.000001   0.000000  -0.000000   0.000000
    15  H    0.009766  -0.000001   0.411116   0.000407  -0.000035   0.000407
    16  H   -0.000002   0.000000   0.000407   0.494637  -0.023004  -0.023956
    17  H   -0.000000  -0.000000  -0.000035  -0.023004   0.502969  -0.023009
    18  H   -0.000002   0.000000   0.000407  -0.023956  -0.023009   0.494598
    19  H    0.000000   0.000093   0.000000  -0.000074   0.000011  -0.000074
    20  H   -0.000037   0.007071   0.000000   0.000000  -0.000000   0.000000
              19         20
     1  C    0.007001   0.135042
     2  C   -0.001996  -0.013719
     3  C    0.224041  -0.101786
     4  C    0.155731   0.012861
     5  C   -0.380522   0.022705
     6  C   -0.095847  -0.045797
     7  O   -0.000015   0.000054
     8  C    0.089262   0.002945
     9  C    0.015729   0.000017
    10  O    0.086631   0.000001
    11  O    0.135530  -0.000045
    12  O    0.000031   0.195244
    13  H    0.000000  -0.000037
    14  H    0.000093   0.007071
    15  H    0.000000   0.000000
    16  H   -0.000074   0.000000
    17  H    0.000011  -0.000000
    18  H   -0.000074   0.000000
    19  H    0.344940   0.000000
    20  H    0.000000   0.423887
 Mulliken charges:
               1
     1  C    1.075696
     2  C   -0.858925
     3  C    1.049056
     4  C   -1.422464
     5  C    2.548049
     6  C   -2.580668
     7  O   -0.497431
     8  C    0.645908
     9  C   -0.568670
    10  O   -0.441928
    11  O   -0.487423
    12  O   -0.476203
    13  H    0.127797
    14  H    0.133930
    15  H    0.380958
    16  H    0.200760
    17  H    0.189701
    18  H    0.200778
    19  H    0.419526
    20  H    0.361555
 Sum of Mulliken charges =  -0.00000
 Mulliken charges with hydrogens summed into heavy atoms:
               1
     1  C    1.203492
     2  C   -0.858925
     3  C    1.182986
     4  C   -1.422464
     5  C    2.548049
     6  C   -2.580668
     7  O   -0.116473
     8  C    0.645908
     9  C    0.022568
    10  O   -0.441928
    11  O   -0.067897
    12  O   -0.114648
 Electronic spatial extent (au):  <R**2>=           2074.4466
 Charge=             -0.0000 electrons
 Dipole moment (field-independent basis, Debye):
    X=              2.4401    Y=              2.9774    Z=             -0.0021  Tot=              3.8495
 Quadrupole moment (field-independent basis, Debye-Ang):
   XX=            -66.8291   YY=            -65.5342   ZZ=            -71.9636
   XY=             -8.5111   XZ=             -0.0059   YZ=             -0.0044
 Traceless Quadrupole moment (field-independent basis, Debye-Ang):
   XX=              1.2799   YY=              2.5747   ZZ=             -3.8546
   XY=             -8.5111   XZ=             -0.0059   YZ=             -0.0044
 Octapole moment (field-independent basis, Debye-Ang**2):
  XXX=             35.1217  YYY=             42.2752  ZZZ=             -0.0010  XYY=             18.1555
  XXY=            -16.2290  XXZ=             -0.0150  XZZ=             -4.7220  YZZ=             -0.4152
  YYZ=             -0.0182  XYZ=              0.0070
 Hexadecapole moment (field-independent basis, Debye-Ang**3):
 XXXX=          -1615.5432 YYYY=           -768.3894 ZZZZ=            -83.3646 XXXY=           -158.0909
 XXXZ=             -0.1041 YYYX=             31.0384 YYYZ=             -0.0565 ZZZX=             -0.0025
 ZZZY=              0.0009 XXYY=           -410.9664 XXZZ=           -307.5280 YYZZ=           -161.4637
 XXYZ=              0.0223 YYXZ=             -0.0030 ZZXY=              0.1199
 N-N= 6.972589313297D+02 E-N=-2.819804571083D+03  KE= 6.045496517282D+02
 Calling FoFJK, ICntrl=      2527 FMM=F ISym2X=0 I1Cent= 0 IOpClX= 0 NMat=1 NMatS=1 NMatT=0.
 ***** Axes restored to original set *****
 -------------------------------------------------------------------
 Center     Atomic                   Forces (Hartrees/Bohr)
 Number     Number              X              Y              Z
 -------------------------------------------------------------------
      1        6          -0.001529878   -0.000312724    0.000004594
      2        6          -0.002616857    0.000386986    0.000007742
      3        6           0.000125958    0.001007045   -0.000006263
      4        6           0.000688920    0.000666718    0.000000860
      5        6           0.004484121   -0.001349384    0.000004323
      6        6           0.000423560   -0.001885526    0.000002578
      7        8           0.009787574    0.001805918    0.000000013
      8        6          -0.005384506   -0.010980691   -0.000013104
      9        6          -0.001912348    0.002633801   -0.000002375
     10        8           0.007187852    0.015604792    0.000010036
     11        8          -0.008043629    0.009073175    0.000002638
     12        8          -0.002829513   -0.009503620   -0.000004413
     13        1          -0.003017464   -0.005214390   -0.000004877
     14        1          -0.002981793    0.005176928   -0.000001427
     15        1          -0.006209994   -0.005893258    0.000000677
     16        1          -0.000550992   -0.003469743   -0.004131911
     17        1           0.005072027    0.001718711   -0.000005342
     18        1          -0.000564733   -0.003466263    0.004137435
     19        1           0.010429177   -0.003900572   -0.000003300
     20        1          -0.002557482    0.007902098    0.000002118
 -------------------------------------------------------------------
 Cartesian Forces:  Max     0.015604792 RMS     0.004587275

 GradGradGradGradGradGradGradGradGradGradGradGradGradGradGradGradGradGrad
 Berny optimization.
 FormGI is forming the generalized inverse of G from B-inverse, IUseBI=4.
 Internal  Forces:  Max     0.017180093 RMS     0.003666451
 Search for a local minimum.
 Step number   1 out of a maximum of  100
 All quantities printed in internal units (Hartrees-Bohrs-Radians)
 Mixed Optimization -- RFO/linear search
 Second derivative matrix not updated -- first step.
 ITU=  0
     Eigenvalues ---    0.00652   0.00888   0.01226   0.01573   0.01764
     Eigenvalues ---    0.01962   0.02038   0.02087   0.02136   0.02146
     Eigenvalues ---    0.02166   0.02171   0.02196   0.02210   0.02566
     Eigenvalues ---    0.07301   0.07474   0.16000   0.16000   0.16000
     Eigenvalues ---    0.16000   0.16000   0.16000   0.16000   0.16000
     Eigenvalues ---    0.23479   0.23498   0.25000   0.25000   0.25000
     Eigenvalues ---    0.25000   0.25000   0.25000   0.25000   0.31489
     Eigenvalues ---    0.34447   0.34448   0.34760   0.35379   0.35404
     Eigenvalues ---    0.36323   0.38695   0.40456   0.43557   0.44782
     Eigenvalues ---    0.46578   0.46609   0.47311   0.51812   0.52782
     Eigenvalues ---    0.54043   0.54128   0.58585   0.82911
 RFO step:  Lambda=-2.55153325D-03 EMin= 6.51868294D-03
 Linear search not attempted -- first point.
 Iteration  1 RMS(Cart)=  0.02075849 RMS(Int)=  0.00014333
 Iteration  2 RMS(Cart)=  0.00022363 RMS(Int)=  0.00000125
 Iteration  3 RMS(Cart)=  0.00000009 RMS(Int)=  0.00000125
 Variable       Old X    -DE/DX   Delta X   Delta X   Delta X     New X
                                 (Linear)    (Quad)   (Total)
    R1        2.64781   0.00685   0.00000   0.01519   0.01519   2.66300
    R2        2.62200   0.00849   0.00000   0.01778   0.01778   2.63978
    R3        2.05064   0.00602   0.00000   0.01690   0.01690   2.06754
    R4        2.62565   0.00792   0.00000   0.01670   0.01670   2.64236
    R5        2.57158   0.00551   0.00000   0.01039   0.01039   2.58196
    R6        2.64353   0.00692   0.00000   0.01493   0.01493   2.65846
    R7        2.05024   0.00597   0.00000   0.01675   0.01675   2.06700
    R8        2.71313   0.00645   0.00000   0.01574   0.01574   2.72887
    R9        2.52078   0.00570   0.00000   0.00968   0.00968   2.53046
   R10        2.68856   0.00735   0.00000   0.01727   0.01727   2.70583
   R11        2.76880   0.00401   0.00000   0.01097   0.01097   2.77977
   R12        2.58080   0.00536   0.00000   0.01029   0.01029   2.59109
   R13        1.82615   0.00849   0.00000   0.01561   0.01561   1.84176
   R14        2.85089   0.00330   0.00000   0.01038   0.01038   2.86127
   R15        2.36383   0.01718   0.00000   0.02066   0.02066   2.38449
   R16        2.06582   0.00540   0.00000   0.01556   0.01556   2.08138
   R17        2.06066   0.00535   0.00000   0.01529   0.01529   2.07595
   R18        2.06580   0.00540   0.00000   0.01557   0.01557   2.08138
   R19        1.90151   0.01091   0.00000   0.02328   0.02328   1.92479
   R20        1.82692   0.00824   0.00000   0.01518   0.01518   1.84210
    A1        2.08309   0.00039   0.00000   0.00234   0.00234   2.08543
    A2        2.08251  -0.00030   0.00000  -0.00181  -0.00181   2.08069
    A3        2.11759  -0.00009   0.00000  -0.00053  -0.00053   2.11706
    A4        2.11568  -0.00061   0.00000  -0.00191  -0.00191   2.11377
    A5        2.03136  -0.00016   0.00000  -0.00089  -0.00089   2.03047
    A6        2.13615   0.00077   0.00000   0.00280   0.00280   2.13895
    A7        2.08285  -0.00001   0.00000  -0.00011  -0.00011   2.08273
    A8        2.13055   0.00009   0.00000   0.00058   0.00058   2.13113
    A9        2.06979  -0.00008   0.00000  -0.00047  -0.00047   2.06932
   A10        2.12165   0.00076   0.00000   0.00242   0.00242   2.12408
   A11        2.04591   0.00169   0.00000   0.00700   0.00700   2.05291
   A12        2.11562  -0.00245   0.00000  -0.00942  -0.00942   2.10620
   A13        2.03140  -0.00020   0.00000  -0.00138  -0.00138   2.03002
   A14        2.06990  -0.00261   0.00000  -0.01002  -0.01002   2.05989
   A15        2.18188   0.00280   0.00000   0.01140   0.01140   2.19328
   A16        2.13170  -0.00033   0.00000  -0.00136  -0.00135   2.13034
   A17        2.08783   0.00027   0.00000   0.00109   0.00109   2.08892
   A18        2.06366   0.00006   0.00000   0.00027   0.00027   2.06392
   A19        1.90628  -0.00206   0.00000  -0.01269  -0.01269   1.89359
   A20        2.14341   0.00049   0.00000   0.00196   0.00196   2.14537
   A21        2.09172  -0.00025   0.00000  -0.00099  -0.00099   2.09074
   A22        2.04805  -0.00025   0.00000  -0.00097  -0.00097   2.04708
   A23        1.93605   0.00060   0.00000   0.00379   0.00378   1.93983
   A24        1.88154  -0.00004   0.00000  -0.00034  -0.00034   1.88120
   A25        1.93629   0.00058   0.00000   0.00362   0.00362   1.93991
   A26        1.92599  -0.00030   0.00000  -0.00197  -0.00197   1.92402
   A27        1.85872  -0.00056   0.00000  -0.00322  -0.00323   1.85549
   A28        1.92589  -0.00029   0.00000  -0.00190  -0.00190   1.92399
   A29        1.85138  -0.00422   0.00000  -0.02598  -0.02598   1.82541
   A30        1.91915  -0.00191   0.00000  -0.01174  -0.01174   1.90740
    D1       -0.00006   0.00000   0.00000   0.00004   0.00004  -0.00002
    D2       -3.14152  -0.00000   0.00000  -0.00003  -0.00003  -3.14155
    D3        3.14130   0.00000   0.00000   0.00013   0.00013   3.14143
    D4       -0.00015   0.00000   0.00000   0.00006   0.00006  -0.00010
    D5       -0.00003   0.00000   0.00000   0.00001   0.00001  -0.00002
    D6        3.14154  -0.00000   0.00000  -0.00005  -0.00005   3.14149
    D7       -3.14139  -0.00000   0.00000  -0.00008  -0.00008  -3.14147
    D8        0.00018  -0.00000   0.00000  -0.00014  -0.00014   0.00004
    D9        0.00014  -0.00000   0.00000  -0.00008  -0.00008   0.00006
   D10       -3.14148  -0.00000   0.00000  -0.00007  -0.00007  -3.14155
   D11        3.14158   0.00000   0.00000   0.00001   0.00001   3.14159
   D12       -0.00004   0.00000   0.00000   0.00001   0.00001  -0.00003
   D13       -3.14089  -0.00001   0.00000  -0.00024  -0.00024  -3.14113
   D14        0.00085  -0.00001   0.00000  -0.00032  -0.00032   0.00053
   D15       -0.00012   0.00000   0.00000   0.00006   0.00006  -0.00007
   D16        3.14147   0.00000   0.00000   0.00002   0.00002   3.14149
   D17        3.14150   0.00000   0.00000   0.00005   0.00005   3.14155
   D18       -0.00009   0.00000   0.00000   0.00002   0.00002  -0.00008
   D19        0.00003  -0.00000   0.00000  -0.00001  -0.00001   0.00003
   D20        3.14149   0.00000   0.00000   0.00011   0.00011  -3.14158
   D21       -3.14157   0.00000   0.00000   0.00003   0.00003  -3.14153
   D22       -0.00011   0.00000   0.00000   0.00015   0.00015   0.00004
   D23       -3.14146   0.00000   0.00000   0.00009   0.00009  -3.14138
   D24        0.00013   0.00000   0.00000   0.00005   0.00005   0.00018
   D25        0.00005  -0.00000   0.00000  -0.00003  -0.00003   0.00002
   D26       -3.14152   0.00000   0.00000   0.00003   0.00003  -3.14149
   D27       -3.14140  -0.00000   0.00000  -0.00015  -0.00015  -3.14156
   D28        0.00021  -0.00000   0.00000  -0.00010  -0.00010   0.00012
   D29       -3.14152  -0.00000   0.00000  -0.00017  -0.00017   3.14150
   D30       -0.00017   0.00001   0.00000   0.00064   0.00064   0.00046
   D31       -0.00007   0.00000   0.00000  -0.00004  -0.00004  -0.00011
   D32        3.14127   0.00001   0.00000   0.00077   0.00077  -3.14114
   D33        0.00106  -0.00001   0.00000  -0.00033  -0.00033   0.00073
   D34       -3.14055  -0.00001   0.00000  -0.00038  -0.00038  -3.14094
   D35        1.03092   0.00003   0.00000   0.00085   0.00085   1.03176
   D36        3.14140   0.00001   0.00000   0.00049   0.00049  -3.14129
   D37       -1.03128  -0.00002   0.00000   0.00013   0.00013  -1.03115
   D38       -2.11043   0.00002   0.00000   0.00006   0.00006  -2.11038
   D39        0.00005  -0.00000   0.00000  -0.00030  -0.00030  -0.00025
   D40        2.11056  -0.00003   0.00000  -0.00066  -0.00066   2.10989
         Item               Value     Threshold  Converged?
 Maximum Force            0.017180     0.000450     NO 
 RMS     Force            0.003666     0.000300     NO 
 Maximum Displacement     0.073905     0.001800     NO 
 RMS     Displacement     0.020883     0.001200     NO 
 Predicted change in Energy=-1.283787D-03
 GradGradGradGradGradGradGradGradGradGradGradGradGradGradGradGradGradGrad

                          Input orientation:                          
 ---------------------------------------------------------------------
 Center     Atomic      Atomic             Coordinates (Angstroms)
 Number     Number       Type             X           Y           Z
 ---------------------------------------------------------------------
      1          6           0       -1.543222   -1.257467   -0.000046
      2          6           0       -2.278991   -0.055600    0.000001
      3          6           0       -1.635171    1.185638    0.000050
      4          6           0       -0.229161    1.232686   -0.000026
      5          6           0        0.570324    0.030139   -0.000071
      6          6           0       -0.147150   -1.208999   -0.000068
      7          8           0        0.572834   -2.375904    0.000012
      8          6           0        2.034310    0.173536   -0.000137
      9          6           0        2.977180   -1.011180   -0.000067
     10          8           0        2.551477    1.324500    0.000357
     11          8           0        0.351670    2.439216   -0.000094
     12          8           0       -3.639819   -0.177942    0.000073
     13          1           0       -2.078829   -2.211495    0.000071
     14          1           0       -2.189986    2.128293    0.000123
     15          1           0       -0.051424   -3.124355   -0.000602
     16          1           0        2.811965   -1.650481   -0.881613
     17          1           0        4.004600   -0.622330    0.000173
     18          1           0        2.811673   -1.650719    0.881250
     19          1           0        1.351109    2.242800   -0.000352
     20          1           0       -4.042873    0.709626   -0.000327
 ---------------------------------------------------------------------
                    Distance matrix (angstroms):
                    1          2          3          4          5
     1  C    0.000000
     2  C    1.409198   0.000000
     3  C    2.444834   1.398276   0.000000
     4  C    2.815602   2.421049   1.406797   0.000000
     5  C    2.474876   2.850605   2.489857   1.444055   0.000000
     6  C    1.396913   2.423855   2.819308   2.443062   1.431864
     7  O    2.393448   3.676508   4.190450   3.696636   2.406044
     8  C    3.853116   4.319382   3.806500   2.499019   1.470991
     9  C    4.527107   5.342328   5.108796   3.913510   2.622461
    10  O    4.840777   5.023753   4.188951   2.782154   2.366503
    11  O    4.154044   3.625532   2.349255   1.339060   2.418979
    12  O    2.358196   1.366316   2.424450   3.690861   4.215282
    13  H    1.094095   2.165167   3.425981   3.909431   3.470293
    14  H    3.446980   2.185706   1.093808   2.155677   3.467212
    15  H    2.389715   3.792006   4.591764   4.360665   3.215184
    16  H    4.460861   5.407284   5.347703   4.282324   2.937099
    17  H    5.584061   6.309096   5.922480   4.622318   3.495707
    18  H    4.460543   5.407020   5.347510   4.282213   2.936947
    19  H    4.541918   4.296541   3.167880   1.875523   2.346379
    20  H    3.180834   1.922720   2.454305   3.849414   4.662971
                    6          7          8          9         10
     6  C    0.000000
     7  O    1.371147   0.000000
     8  C    2.582668   2.938632   0.000000
     9  C    3.130587   2.764662   1.514119   0.000000
    10  O    3.701515   4.196191   1.261816   2.374157   0.000000
    11  O    3.682159   4.820197   2.822159   4.335728   2.466120
    12  O    3.641677   4.751576   5.685004   6.669255   6.370987
    13  H    2.176322   2.656754   4.754607   5.196536   5.826062
    14  H    3.912888   5.284028   4.654647   6.046147   4.809112
    15  H    1.917747   0.974617   3.902099   3.692960   5.154358
    16  H    3.119037   2.513407   2.169974   1.101419   3.113877
    17  H    4.192996   3.853835   2.124958   1.098543   2.429344
    18  H    3.118730   2.512942   2.170034   1.101418   3.113776
    19  H    3.762938   4.683817   2.179132   3.637649   1.511344
    20  H    4.342555   5.552049   6.100782   7.227885   6.622955
                   11         12         13         14         15
    11  O    0.000000
    12  O    4.772997   0.000000
    13  H    5.247517   2.563597   0.000000
    14  H    2.560603   2.724102   4.341211   0.000000
    15  H    5.578155   4.643052   2.223439   5.671310   0.000000
    16  H    4.853426   6.676171   5.001197   6.330569   3.338785
    17  H    4.766232   7.657325   6.287571   6.777818   4.765655
    18  H    4.853447   6.675874   5.000796   6.330395   3.338652
    19  H    1.018557   5.547013   5.621852   3.542945   5.547383
    20  H    4.722657   0.974797   3.520003   2.333625   5.534535
                   16         17         18         19         20
    16  H    0.000000
    17  H    1.804721   0.000000
    18  H    1.762863   1.804704   0.000000
    19  H    4.250689   3.905123   4.250878   0.000000
    20  H    7.303121   8.156956   7.302959   5.607643   0.000000
 Stoichiometry    C8H8O4
 Framework group  C1[X(C8H8O4)]
 Deg. of freedom    54
 Full point group                 C1      NOp   1
 Largest Abelian subgroup         C1      NOp   1
 Largest concise Abelian subgroup C1      NOp   1
                         Standard orientation:                         
 ---------------------------------------------------------------------
 Center     Atomic      Atomic             Coordinates (Angstroms)
 Number     Number       Type             X           Y           Z
 ---------------------------------------------------------------------
      1          6           0        1.547581    1.249591   -0.000038
      2          6           0        2.276919    0.043811    0.000008
      3          6           0        1.626479   -1.193970    0.000058
      4          6           0        0.220237   -1.233507   -0.000018
      5          6           0       -0.572813   -0.026707   -0.000064
      6          6           0        0.151270    1.208581   -0.000060
      7          8           0       -0.562470    2.379315    0.000019
      8          6           0       -2.037544   -0.162282   -0.000130
      9          6           0       -2.974072    1.027454   -0.000059
     10          8           0       -2.560852   -1.310466    0.000364
     11          8           0       -0.367031   -2.436917   -0.000086
     12          8           0        3.638381    0.158882    0.000081
     13          1           0        2.088276    2.200745    0.000079
     14          1           0        2.176250   -2.139575    0.000130
     15          1           0        0.065777    3.124422   -0.000594
     16          1           0       -2.805445    1.665863   -0.881605
     17          1           0       -4.003555    0.644098    0.000181
     18          1           0       -2.805152    1.666100    0.881258
     19          1           0       -1.365406   -2.235165   -0.000345
     20          1           0        4.036689   -0.730826   -0.000320
 ---------------------------------------------------------------------
 Rotational constants (GHZ):      1.5312789      0.7557462      0.5076021
 Standard basis: 6-31+G(d,p) (6D, 7F)
 There are   268 symmetry adapted cartesian basis functions of A   symmetry.
 There are   268 symmetry adapted basis functions of A   symmetry.
   268 basis functions,   440 primitive gaussians,   268 cartesian basis functions
    44 alpha electrons       44 beta electrons
       nuclear repulsion energy       693.7269442506 Hartrees.
 NAtoms=   20 NActive=   20 NUniq=   20 SFac= 1.00D+00 NAtFMM=   60 NAOKFM=F Big=F
 Integral buffers will be    131072 words long.
 Raffenetti 2 integral format.
 Two-electron integral symmetry is turned on.
 One-electron integrals computed using PRISM.
 NBasis=   268 RedAO= T EigKep=  1.62D-06  NBF=   268
 NBsUse=   268 1.00D-06 EigRej= -1.00D+00 NBFU=   268
 Initial guess from the checkpoint file:  "pbeTHAP.chk"
 B after Tr=     0.000000   -0.000000    0.000000
         Rot=    0.999997    0.000013   -0.000004    0.002590 Ang=   0.30 deg.
 ExpMin= 4.38D-02 ExpMax= 5.48D+03 ExpMxC= 8.25D+02 IAcc=2 IRadAn=         4 AccDes= 0.00D+00
 Harris functional with IExCor= 1009 and IRadAn=       4 diagonalized for initial guess.
 HarFok:  IExCor= 1009 AccDes= 0.00D+00 IRadAn=         4 IDoV= 1 UseB2=F ITyADJ=14
 ICtDFT=  3500011 ScaDFX=  1.000000  1.000000  1.000000  1.000000
 FoFCou: FMM=F IPFlag=           0 FMFlag=      100000 FMFlg1=           0
         NFxFlg=           0 DoJE=T BraDBF=F KetDBF=T FulRan=T
         wScrn=  0.000000 ICntrl=     500 IOpCl=  0 I1Cent=   200000004 NGrid=           0
         NMat0=    1 NMatS0=      1 NMatT0=    0 NMatD0=    1 NMtDS0=    0 NMtDT0=    0
 Petite list used in FoFCou.
 Keep J ints in memory in canonical form, NReq=659648347.
 Requested convergence on RMS density matrix=1.00D-08 within 128 cycles.
 Requested convergence on MAX density matrix=1.00D-06.
 Requested convergence on             energy=1.00D-06.
 No special actions if energy rises.
 SCF Done:  E(RPBE-PBE) =  -609.927190189     A.U. after   14 cycles
            NFock= 14  Conv=0.23D-08     -V/T= 2.0094
 Calling FoFJK, ICntrl=      2527 FMM=F ISym2X=0 I1Cent= 0 IOpClX= 0 NMat=1 NMatS=1 NMatT=0.
 ***** Axes restored to original set *****
 -------------------------------------------------------------------
 Center     Atomic                   Forces (Hartrees/Bohr)
 Number     Number              X              Y              Z
 -------------------------------------------------------------------
      1        6           0.000836381    0.000332164    0.000004445
      2        6           0.001298184    0.001061021    0.000002503
      3        6          -0.000143033   -0.000752129   -0.000001979
      4        6          -0.000860616    0.001948241   -0.000003117
      5        6           0.002773866   -0.001020253   -0.000018611
      6        6          -0.001399730    0.000663710    0.000000174
      7        8           0.002269858    0.000415782   -0.000010882
      8        6          -0.003957856   -0.005972324    0.000073218
      9        6          -0.000935870    0.001281930   -0.000017409
     10        8           0.002272971    0.002897416   -0.000042992
     11        8          -0.008920814    0.001046059   -0.000013800
     12        8          -0.000450039   -0.001419141   -0.000005804
     13        1           0.000059270   -0.000026914   -0.000002004
     14        1           0.000057775   -0.000027509   -0.000000899
     15        1          -0.000742816   -0.000416498    0.000005864
     16        1          -0.000170641   -0.000102890   -0.000171436
     17        1           0.000127623   -0.000157544   -0.000002621
     18        1          -0.000178132   -0.000095219    0.000171410
     19        1           0.007983801   -0.000563761    0.000029172
     20        1           0.000079821    0.000907858    0.000004767
 -------------------------------------------------------------------
 Cartesian Forces:  Max     0.008920814 RMS     0.002005499

 GradGradGradGradGradGradGradGradGradGradGradGradGradGradGradGradGradGrad
 Berny optimization.
 Using GEDIIS/GDIIS optimizer.
 FormGI is forming the generalized inverse of G from B-inverse, IUseBI=4.
 Internal  Forces:  Max     0.007944916 RMS     0.001390561
 Search for a local minimum.
 Step number   2 out of a maximum of  100
 All quantities printed in internal units (Hartrees-Bohrs-Radians)
 Mixed Optimization -- RFO/linear search
 Update second derivatives using D2CorX and points    1    2
 DE= -1.29D-03 DEPred=-1.28D-03 R= 1.00D+00
 TightC=F SS=  1.41D+00  RLast= 7.93D-02 DXNew= 5.0454D-01 2.3787D-01
 Trust test= 1.00D+00 RLast= 7.93D-02 DXMaxT set to 3.00D-01
 ITU=  1  0
 Use linear search instead of GDIIS.
     Eigenvalues ---    0.00652   0.00888   0.01226   0.01574   0.01764
     Eigenvalues ---    0.01964   0.02038   0.02087   0.02136   0.02145
     Eigenvalues ---    0.02166   0.02171   0.02196   0.02210   0.02566
     Eigenvalues ---    0.07264   0.07458   0.15579   0.16000   0.16000
     Eigenvalues ---    0.16000   0.16000   0.16000   0.16000   0.16380
     Eigenvalues ---    0.23428   0.23515   0.24133   0.25000   0.25000
     Eigenvalues ---    0.25000   0.25000   0.25000   0.25554   0.31539
     Eigenvalues ---    0.33434   0.34448   0.34656   0.35068   0.35392
     Eigenvalues ---    0.37315   0.37919   0.40726   0.41543   0.43624
     Eigenvalues ---    0.45962   0.46583   0.50743   0.52103   0.53109
     Eigenvalues ---    0.54085   0.56865   0.60103   0.80172
 RFO step:  Lambda=-5.32031840D-04 EMin= 6.51868520D-03
 Quartic linear search produced a step of  0.01703.
 Iteration  1 RMS(Cart)=  0.02221684 RMS(Int)=  0.00010809
 Iteration  2 RMS(Cart)=  0.00026651 RMS(Int)=  0.00000145
 Iteration  3 RMS(Cart)=  0.00000003 RMS(Int)=  0.00000145
 Variable       Old X    -DE/DX   Delta X   Delta X   Delta X     New X
                                 (Linear)    (Quad)   (Total)
    R1        2.66300  -0.00039   0.00026   0.00186   0.00212   2.66511
    R2        2.63978  -0.00148   0.00030   0.00012   0.00042   2.64021
    R3        2.06754  -0.00001   0.00029   0.00323   0.00351   2.07105
    R4        2.64236  -0.00075   0.00028   0.00157   0.00186   2.64422
    R5        2.58196   0.00041   0.00018   0.00279   0.00297   2.58493
    R6        2.65846  -0.00027   0.00025   0.00243   0.00269   2.66115
    R7        2.06700  -0.00005   0.00029   0.00307   0.00335   2.07035
    R8        2.72887   0.00277   0.00027   0.01024   0.01051   2.73938
    R9        2.53046   0.00003   0.00016   0.00191   0.00207   2.53253
   R10        2.70583  -0.00155   0.00029  -0.00040  -0.00011   2.70572
   R11        2.77977  -0.00304   0.00019  -0.00640  -0.00621   2.77356
   R12        2.59109   0.00080   0.00018   0.00354   0.00372   2.59481
   R13        1.84176   0.00080   0.00027   0.00449   0.00476   1.84652
   R14        2.86127  -0.00144   0.00018  -0.00265  -0.00247   2.85880
   R15        2.38449   0.00357   0.00035   0.00834   0.00870   2.39318
   R16        2.08138   0.00022   0.00026   0.00365   0.00391   2.08529
   R17        2.07595   0.00006   0.00026   0.00312   0.00338   2.07932
   R18        2.08138   0.00022   0.00027   0.00364   0.00391   2.08528
   R19        1.92479   0.00794   0.00040   0.02178   0.02218   1.94697
   R20        1.84210   0.00080   0.00026   0.00441   0.00467   1.84677
    A1        2.08543  -0.00015   0.00004  -0.00099  -0.00095   2.08448
    A2        2.08069   0.00014  -0.00003   0.00078   0.00075   2.08144
    A3        2.11706   0.00001  -0.00001   0.00021   0.00020   2.11727
    A4        2.11377   0.00045  -0.00003   0.00108   0.00105   2.11482
    A5        2.03047  -0.00042  -0.00002  -0.00167  -0.00169   2.02878
    A6        2.13895  -0.00003   0.00005   0.00059   0.00064   2.13958
    A7        2.08273   0.00034  -0.00000   0.00183   0.00183   2.08456
    A8        2.13113  -0.00013   0.00001  -0.00056  -0.00055   2.13058
    A9        2.06932  -0.00021  -0.00001  -0.00127  -0.00128   2.06804
   A10        2.12408  -0.00137   0.00004  -0.00445  -0.00440   2.11967
   A11        2.05291  -0.00159   0.00012  -0.00544  -0.00532   2.04759
   A12        2.10620   0.00296  -0.00016   0.00989   0.00972   2.11593
   A13        2.03002   0.00017  -0.00002   0.00080   0.00078   2.03080
   A14        2.05989   0.00445  -0.00017   0.01594   0.01577   2.07565
   A15        2.19328  -0.00462   0.00019  -0.01674  -0.01654   2.17673
   A16        2.13034   0.00056  -0.00002   0.00173   0.00170   2.13204
   A17        2.08892   0.00112   0.00002   0.00488   0.00490   2.09383
   A18        2.06392  -0.00168   0.00000  -0.00661  -0.00661   2.05732
   A19        1.89359  -0.00056  -0.00022  -0.00600  -0.00622   1.88738
   A20        2.14537  -0.00186   0.00003  -0.00718  -0.00715   2.13822
   A21        2.09074   0.00199  -0.00002   0.00788   0.00787   2.09860
   A22        2.04708  -0.00013  -0.00002  -0.00070  -0.00072   2.04636
   A23        1.93983  -0.00021   0.00006  -0.00090  -0.00083   1.93899
   A24        1.88120   0.00040  -0.00001   0.00298   0.00297   1.88417
   A25        1.93991  -0.00023   0.00006  -0.00104  -0.00098   1.93893
   A26        1.92402  -0.00001  -0.00003   0.00006   0.00003   1.92404
   A27        1.85549   0.00006  -0.00005  -0.00129  -0.00134   1.85414
   A28        1.92399  -0.00001  -0.00003   0.00011   0.00007   1.92406
   A29        1.82541   0.00190  -0.00044   0.00704   0.00659   1.83200
   A30        1.90740  -0.00083  -0.00020  -0.00751  -0.00771   1.89970
    D1       -0.00002  -0.00000   0.00000  -0.00011  -0.00011  -0.00013
    D2       -3.14155  -0.00000  -0.00000  -0.00007  -0.00007   3.14156
    D3        3.14143   0.00000   0.00000   0.00008   0.00008   3.14151
    D4       -0.00010   0.00000   0.00000   0.00012   0.00012   0.00002
    D5       -0.00002   0.00000   0.00000   0.00007   0.00007   0.00005
    D6        3.14149   0.00001  -0.00000   0.00027   0.00027  -3.14143
    D7       -3.14147  -0.00000  -0.00000  -0.00012  -0.00012   3.14159
    D8        0.00004   0.00000  -0.00000   0.00007   0.00007   0.00011
    D9        0.00006  -0.00000  -0.00000  -0.00005  -0.00005   0.00001
   D10       -3.14155   0.00000  -0.00000   0.00016   0.00016  -3.14139
   D11        3.14159  -0.00000   0.00000  -0.00009  -0.00009   3.14150
   D12       -0.00003   0.00000   0.00000   0.00012   0.00012   0.00009
   D13       -3.14113  -0.00000  -0.00000  -0.00028  -0.00028  -3.14141
   D14        0.00053  -0.00000  -0.00001  -0.00024  -0.00024   0.00029
   D15       -0.00007   0.00000   0.00000   0.00025   0.00025   0.00018
   D16        3.14149   0.00001   0.00000   0.00058   0.00058  -3.14112
   D17        3.14155   0.00000   0.00000   0.00005   0.00005  -3.14159
   D18       -0.00008   0.00001   0.00000   0.00037   0.00037   0.00030
   D19        0.00003  -0.00001  -0.00000  -0.00028  -0.00028  -0.00025
   D20       -3.14158  -0.00001   0.00000  -0.00053  -0.00053   3.14108
   D21       -3.14153  -0.00001   0.00000  -0.00062  -0.00062   3.14104
   D22        0.00004  -0.00002   0.00000  -0.00086  -0.00086  -0.00082
   D23       -3.14138  -0.00003   0.00000  -0.00128  -0.00127   3.14053
   D24        0.00018  -0.00003   0.00000  -0.00095  -0.00095  -0.00077
   D25        0.00002   0.00000  -0.00000   0.00012   0.00012   0.00014
   D26       -3.14149  -0.00000   0.00000  -0.00008  -0.00007  -3.14157
   D27       -3.14156   0.00001  -0.00000   0.00038   0.00038  -3.14118
   D28        0.00012   0.00000  -0.00000   0.00019   0.00019   0.00031
   D29        3.14150   0.00000  -0.00000   0.00037   0.00037  -3.14132
   D30        0.00046  -0.00003   0.00001  -0.00231  -0.00231  -0.00184
   D31       -0.00011  -0.00000  -0.00000   0.00010   0.00010  -0.00001
   D32       -3.14114  -0.00003   0.00001  -0.00259  -0.00258   3.13946
   D33        0.00073  -0.00001  -0.00001  -0.00042  -0.00043   0.00031
   D34       -3.14094  -0.00000  -0.00001  -0.00024  -0.00024  -3.14118
   D35        1.03176  -0.00012   0.00001  -0.00282  -0.00280   1.02896
   D36       -3.14129  -0.00001   0.00001  -0.00137  -0.00136   3.14053
   D37       -1.03115   0.00009   0.00000   0.00004   0.00005  -1.03110
   D38       -2.11038  -0.00010   0.00000  -0.00019  -0.00019  -2.11057
   D39       -0.00025   0.00001  -0.00001   0.00125   0.00125   0.00100
   D40        2.10989   0.00012  -0.00001   0.00267   0.00266   2.11255
         Item               Value     Threshold  Converged?
 Maximum Force            0.007945     0.000450     NO 
 RMS     Force            0.001391     0.000300     NO 
 Maximum Displacement     0.081321     0.001800     NO 
 RMS     Displacement     0.022416     0.001200     NO 
 Predicted change in Energy=-2.667757D-04
 GradGradGradGradGradGradGradGradGradGradGradGradGradGradGradGradGradGrad

                          Input orientation:                          
 ---------------------------------------------------------------------
 Center     Atomic      Atomic             Coordinates (Angstroms)
 Number     Number       Type             X           Y           Z
 ---------------------------------------------------------------------
      1          6           0       -1.531398   -1.257076   -0.000037
      2          6           0       -2.275075   -0.058769   -0.000329
      3          6           0       -1.639703    1.187917   -0.000185
      4          6           0       -0.232750    1.247644    0.000245
      5          6           0        0.575328    0.044151    0.000314
      6          6           0       -0.135479   -1.198757    0.000248
      7          8           0        0.599458   -2.358634    0.000343
      8          6           0        2.037553    0.170868    0.000106
      9          6           0        2.957742   -1.029903   -0.000194
     10          8           0        2.578530    1.315924   -0.002144
     11          8           0        0.331234    2.463351    0.000936
     12          8           0       -3.636471   -0.191857   -0.000635
     13          1           0       -2.061356   -2.216379   -0.000086
     14          1           0       -2.202672    2.127792   -0.000223
     15          1           0       -0.022096   -3.112598   -0.000102
     16          1           0        2.777778   -1.667996   -0.882316
     17          1           0        3.994900   -0.662442   -0.001416
     18          1           0        2.779495   -1.667032    0.882967
     19          1           0        1.346118    2.285833    0.002205
     20          1           0       -4.040620    0.697927   -0.000989
 ---------------------------------------------------------------------
                    Distance matrix (angstroms):
                    1          2          3          4          5
     1  C    0.000000
     2  C    1.410318   0.000000
     3  C    2.447391   1.399258   0.000000
     4  C    2.821368   2.424420   1.408221   0.000000
     5  C    2.476184   2.852260   2.492902   1.449615   0.000000
     6  C    1.397137   2.424345   2.821153   2.448335   1.431806
     7  O    2.398745   3.681348   4.194266   3.701056   2.402907
     8  C    3.844013   4.318738   3.815311   2.512712   1.467706
     9  C    4.494885   5.322169   5.104433   3.920008   2.613330
    10  O    4.848901   5.044528   4.220175   2.812109   2.372811
    11  O    4.160647   3.626836   2.347621   1.340157   2.431483
    12  O    2.359243   1.367886   2.427109   3.695604   4.218406
    13  H    1.095955   2.168169   3.430310   3.917048   3.473053
    14  H    3.450788   2.187759   1.095581   2.157603   3.472584
    15  H    2.391851   3.794968   4.594680   4.365328   3.212784
    16  H    4.417722   5.375763   5.333716   4.282890   2.925965
    17  H    5.558198   6.298969   5.930647   4.639122   3.491812
    18  H    4.419453   5.377305   5.334792   4.283475   2.926701
    19  H    4.564243   4.313955   3.181282   1.889620   2.370498
    20  H    3.180917   1.920869   2.450406   3.847345   4.662016
                    6          7          8          9         10
     6  C    0.000000
     7  O    1.373115   0.000000
     8  C    2.568645   2.909725   0.000000
     9  C    3.097826   2.706849   1.512812   0.000000
    10  O    3.699928   4.173621   1.266418   2.376281   0.000000
    11  O    3.691729   4.829440   2.857797   4.370512   2.523279
    12  O    3.642911   4.757943   5.685606   6.647253   6.395283
    13  H    2.178200   2.664614   4.743417   5.157429   5.831441
    14  H    3.916531   5.289607   4.670017   6.049869   4.849641
    15  H    1.917196   0.977134   3.875991   3.635527   5.135666
    16  H    3.079962   2.449723   2.169798   1.103490   3.117400
    17  H    4.165052   3.795536   2.127349   1.100329   2.433113
    18  H    3.081484   2.451510   2.169746   1.103485   3.117986
    19  H    3.786490   4.704103   2.225121   3.686658   1.568305
    20  H    4.341375   5.556338   6.100981   7.208500   6.647937
                   11         12         13         14         15
    11  O    0.000000
    12  O    4.774182   0.000000
    13  H    5.255888   2.565089   0.000000
    14  H    2.556028   2.727004   4.346469   0.000000
    15  H    5.587133   4.646981   2.227507   5.675966   0.000000
    16  H    4.881981   6.640703   4.949370   6.323841   3.271768
    17  H    4.815915   7.645867   6.252436   6.796712   4.705265
    18  H    4.881806   6.642403   4.951303   6.324769   3.273894
    19  H    1.030293   5.564634   5.646309   3.552308   5.569118
    20  H    4.714852   0.977268   3.522878   2.328640   5.537927
                   16         17         18         19         20
    16  H    0.000000
    17  H    1.807902   0.000000
    18  H    1.765284   1.807911   0.000000
    19  H    4.297068   3.963381   4.295982   0.000000
    20  H    7.270823   8.149858   7.272440   5.615906   0.000000
 Stoichiometry    C8H8O4
 Framework group  C1[X(C8H8O4)]
 Deg. of freedom    54
 Full point group                 C1      NOp   1
 Largest Abelian subgroup         C1      NOp   1
 Largest concise Abelian subgroup C1      NOp   1
                         Standard orientation:                         
 ---------------------------------------------------------------------
 Center     Atomic      Atomic             Coordinates (Angstroms)
 Number     Number       Type             X           Y           Z
 ---------------------------------------------------------------------
      1          6           0        1.533117    1.259102    0.000088
      2          6           0        2.276141    0.060390   -0.000205
      3          6           0        1.640089   -1.185950   -0.000061
      4          6           0        0.233103   -1.244910    0.000370
      5          6           0       -0.574318   -0.040977    0.000439
      6          6           0        0.137166    1.201544    0.000373
      7          8           0       -0.597138    2.361822    0.000467
      8          6           0       -2.036612   -0.166896    0.000231
      9          6           0       -2.956146    1.034377   -0.000069
     10          8           0       -2.578213   -1.311657   -0.002019
     11          8           0       -0.331543   -2.460309    0.001060
     12          8           0        3.637609    0.192735   -0.000511
     13          1           0        2.063598    2.218116    0.000038
     14          1           0        2.202545   -2.126131   -0.000098
     15          1           0        0.024827    3.115447    0.000023
     16          1           0       -2.775833    1.672372   -0.882191
     17          1           0       -3.993504    0.667482   -0.001292
     18          1           0       -2.777552    1.671409    0.883092
     19          1           0       -1.346330   -2.282238    0.002329
     20          1           0        4.041273   -0.697269   -0.000865
 ---------------------------------------------------------------------
 Rotational constants (GHZ):      1.5250040      0.7559014      0.5069849
 Standard basis: 6-31+G(d,p) (6D, 7F)
 There are   268 symmetry adapted cartesian basis functions of A   symmetry.
 There are   268 symmetry adapted basis functions of A   symmetry.
   268 basis functions,   440 primitive gaussians,   268 cartesian basis functions
    44 alpha electrons       44 beta electrons
       nuclear repulsion energy       692.9354992153 Hartrees.
 NAtoms=   20 NActive=   20 NUniq=   20 SFac= 1.00D+00 NAtFMM=   60 NAOKFM=F Big=F
 Integral buffers will be    131072 words long.
 Raffenetti 2 integral format.
 Two-electron integral symmetry is turned on.
 One-electron integrals computed using PRISM.
 NBasis=   268 RedAO= T EigKep=  1.61D-06  NBF=   268
 NBsUse=   268 1.00D-06 EigRej= -1.00D+00 NBFU=   268
 Initial guess from the checkpoint file:  "pbeTHAP.chk"
 B after Tr=    -0.000000    0.000000   -0.000000
         Rot=    0.999995   -0.000030    0.000022   -0.003037 Ang=  -0.35 deg.
 ExpMin= 4.38D-02 ExpMax= 5.48D+03 ExpMxC= 8.25D+02 IAcc=2 IRadAn=         4 AccDes= 0.00D+00
 Harris functional with IExCor= 1009 and IRadAn=       4 diagonalized for initial guess.
 HarFok:  IExCor= 1009 AccDes= 0.00D+00 IRadAn=         4 IDoV= 1 UseB2=F ITyADJ=14
 ICtDFT=  3500011 ScaDFX=  1.000000  1.000000  1.000000  1.000000
 FoFCou: FMM=F IPFlag=           0 FMFlag=      100000 FMFlg1=           0
         NFxFlg=           0 DoJE=T BraDBF=F KetDBF=T FulRan=T
         wScrn=  0.000000 ICntrl=     500 IOpCl=  0 I1Cent=   200000004 NGrid=           0
         NMat0=    1 NMatS0=      1 NMatT0=    0 NMatD0=    1 NMtDS0=    0 NMtDT0=    0
 Petite list used in FoFCou.
 Keep J ints in memory in canonical form, NReq=659648347.
 Requested convergence on RMS density matrix=1.00D-08 within 128 cycles.
 Requested convergence on MAX density matrix=1.00D-06.
 Requested convergence on             energy=1.00D-06.
 No special actions if energy rises.
 SCF Done:  E(RPBE-PBE) =  -609.927000540     A.U. after   13 cycles
            NFock= 13  Conv=0.97D-08     -V/T= 2.0096
 Calling FoFJK, ICntrl=      2527 FMM=F ISym2X=0 I1Cent= 0 IOpClX= 0 NMat=1 NMatS=1 NMatT=0.
 ***** Axes restored to original set *****
 -------------------------------------------------------------------
 Center     Atomic                   Forces (Hartrees/Bohr)
 Number     Number              X              Y              Z
 -------------------------------------------------------------------
      1        6           0.000305277   -0.000158752   -0.000007238
      2        6           0.001364450   -0.000281238    0.000000823
      3        6           0.000408405   -0.000329002   -0.000009226
      4        6          -0.000105163   -0.001683667    0.000030713
      5        6          -0.000482760    0.001593718    0.000062535
      6        6          -0.000838526    0.000999489    0.000012711
      7        8          -0.002911303   -0.001278578    0.000005651
      8        6          -0.000025917    0.001038487   -0.000264693
      9        6           0.001257016    0.000258980    0.000047336
     10        8          -0.004777540    0.000601203    0.000200610
     11        8           0.005074132   -0.002036595    0.000072241
     12        8           0.000125388    0.001623794   -0.000003349
     13        1           0.000545013    0.001096639   -0.000002513
     14        1           0.000593255   -0.000992314    0.000002119
     15        1           0.000826934    0.000907745    0.000003295
     16        1           0.000402953    0.000721979    0.000971124
     17        1          -0.000997083   -0.000214749    0.000007155
     18        1           0.000409193    0.000698384   -0.000967826
     19        1          -0.001541083   -0.001275769   -0.000163911
     20        1           0.000367359   -0.001289754    0.000002443
 -------------------------------------------------------------------
 Cartesian Forces:  Max     0.005074132 RMS     0.001243510

 GradGradGradGradGradGradGradGradGradGradGradGradGradGradGradGradGradGrad
 Berny optimization.
 Using GEDIIS/GDIIS optimizer.
 FormGI is forming the generalized inverse of G from B-inverse, IUseBI=4.
 Internal  Forces:  Max     0.013772651 RMS     0.002861896
 Search for a local minimum.
 Step number   3 out of a maximum of  100
 All quantities printed in internal units (Hartrees-Bohrs-Radians)
 Mixed Optimization -- RFO/linear search
 Update second derivatives using D2CorX and points    1    3    2
 DE=  1.90D-04 DEPred=-2.67D-04 R=-7.11D-01
 Trust test=-7.11D-01 RLast= 4.39D-02 DXMaxT set to 1.50D-01
 ITU= -1  1  0
 Use linear search instead of GDIIS.
 Energy rises -- skip Quadratic/GDIIS search.
 Quartic linear search produced a step of -0.63586.
 Iteration  1 RMS(Cart)=  0.01426447 RMS(Int)=  0.00004699
 Iteration  2 RMS(Cart)=  0.00007244 RMS(Int)=  0.00000034
 Iteration  3 RMS(Cart)=  0.00000000 RMS(Int)=  0.00000034
 Variable       Old X    -DE/DX   Delta X   Delta X   Delta X     New X
                                 (Linear)    (Quad)   (Total)
    R1        2.66511  -0.00070  -0.00135   0.00000  -0.00135   2.66377
    R2        2.64021  -0.00121  -0.00027   0.00000  -0.00027   2.63994
    R3        2.07105  -0.00122  -0.00223   0.00000  -0.00223   2.06882
    R4        2.64422  -0.00127  -0.00118   0.00000  -0.00118   2.64303
    R5        2.58493  -0.00052  -0.00189   0.00000  -0.00189   2.58304
    R6        2.66115  -0.00248  -0.00171   0.00000  -0.00171   2.65944
    R7        2.07035  -0.00116  -0.00213   0.00000  -0.00213   2.06822
    R8        2.73938  -0.00801  -0.00668   0.00000  -0.00668   2.73269
    R9        2.53253  -0.00152  -0.00132   0.00000  -0.00132   2.53121
   R10        2.70572   0.00002   0.00007   0.00000   0.00007   2.70579
   R11        2.77356  -0.00345   0.00395   0.00000   0.00395   2.77751
   R12        2.59481  -0.00080  -0.00237   0.00000  -0.00237   2.59245
[...]
 00000159,-0.00722304,-0.00000409,-0.00000615,-0.05120426,0.00000715,0.
 00001516,0.14557392,-0.03493580,0.05200828,0.00000108,-0.00135340,-0.0
 1359133,-0.00000054,0.00400074,0.00503293,0.00000025,-0.01124757,-0.00
 149295,-0.00000026,0.02207191,-0.01104253,-0.00000018,-0.15931093,0.05
 709965,0.00000100,0.42155160,0.01934619,-0.01497820,-0.00000066,-0.003
 11261,0.00516019,-0.00000014,0.00083167,-0.00356876,-0.00000008,-0.003
 13237,0.00025753,0.00000002,0.00959328,-0.04680668,-0.00000139,0.11231
 356,-0.22896057,-0.00000456,0.10691836,0.57694371,0.00000003,-0.000000
 09,0.01119549,-0.00000026,-0.00000031,0.00894585,0.00000013,0.,-0.0014
 0993,-0.00000029,-0.00000005,0.00299474,0.00000046,-0.00000174,0.00372
 830,0.00000216,-0.00000443,-0.04046177,0.00000319,0.00001275,0.0273660
 5,0.01139021,-0.00401172,0.00000003,-0.00819820,0.00590099,0.,0.000915
 46,0.00244178,0.00000022,-0.02588885,0.04341325,0.00000103,-0.20709107
 ,0.00765254,-0.00000171,-0.01853851,-0.03676821,-0.00000123,-0.0059232
 7,0.01416393,0.00000042,0.56388114,0.00250333,-0.00720810,-0.00000039,
 -0.00230693,0.00079508,0.00000002,0.00196487,-0.00689964,-0.00000021,0
 .03096075,0.03201906,0.00000141,0.02521454,-0.10313494,-0.00000162,-0.
 03614445,-0.00193073,-0.00000025,0.00162750,0.00210626,0.00000013,0.06
 207692,0.71978075,-0.00000002,-0.00000035,0.00493317,-0.00000001,0.000
 00001,-0.00090050,0.00000001,-0.00000030,0.00200772,0.00000096,0.00000
 060,0.00345731,-0.00000074,-0.00000154,-0.06108496,-0.00000105,0.00000
 021,-0.00651177,0.00000005,0.00000010,-0.00201027,0.00000003,0.0000099
 4,0.20015149,-0.00060390,0.00021246,0.,0.00058916,-0.00002429,0.,-0.00
 007210,0.00151675,0.00000002,-0.00488048,-0.00387230,-0.00000018,-0.01
 324033,0.02215559,0.00000107,0.00032409,0.00062871,0.,-0.00626080,-0.0
 0466837,-0.00000018,-0.14308460,0.06320804,0.00000202,0.52818420,0.000
 93613,-0.00020391,0.00000002,-0.00078702,-0.00002558,0.,0.00031603,0.0
 0193413,0.00000009,-0.00461606,-0.00034819,-0.00000016,0.00620366,0.00
 875305,-0.00000018,-0.00014578,-0.00363170,-0.00000007,-0.00426184,0.0
 0032652,0.,0.05040050,-0.12834230,-0.00000205,0.06677695,0.50634152,0.
 00000009,0.,-0.00018124,-0.00000005,0.00000004,0.00009874,0.,0.0000000
 7,-0.00083093,-0.00000025,-0.00000004,0.00214362,0.00000008,0.00000003
 ,0.01090757,-0.00000002,-0.00000022,-0.00008840,-0.00000012,0.00000011
 ,-0.00093257,0.00000208,-0.00000320,-0.07840049,0.00000232,0.00000058,
 0.50485284,-0.00150503,-0.00202366,-0.00000015,0.00328510,0.00092269,0
 .00000012,-0.00338663,-0.00396150,-0.00000019,0.00898772,0.00490305,0.
 00000043,-0.03138583,-0.05088750,-0.00000087,-0.00589608,0.01191413,0.
 00000049,0.00258029,-0.00443891,-0.00000012,-0.17153321,-0.16228908,-0
 .00000149,0.01762653,0.01638196,0.00000034,0.23578632,-0.00804744,0.00
 408334,0.00000004,0.00432680,-0.00864773,-0.00000019,0.00454455,0.0049
 3694,0.00000022,-0.00275907,-0.04157575,-0.00000155,-0.06336770,-0.014
 79759,-0.00000053,0.00885136,0.01405374,0.00000037,-0.00057782,-0.0024
 6752,-0.00000010,-0.13081015,-0.44817801,-0.00000521,-0.00807569,-0.05
 910249,-0.00000088,0.17681277,0.53261562,-0.00000029,0.00000023,-0.001
 32795,0.00000007,-0.00000043,0.00031249,0.00000037,0.00000032,0.000276
 47,-0.00000035,-0.00000144,-0.00195628,-0.00000183,-0.00000046,0.01591
 975,0.00000027,0.00000005,0.00664167,-0.00000002,-0.00000002,0.0000734
 0,0.00000019,-0.00000381,-0.06237078,-0.00000009,-0.00000217,0.0190345
 8,0.00000134,0.00000618,0.03605617,0.00934645,-0.00855328,-0.00000010,
 -0.00381308,0.02085652,0.00000052,-0.04177683,-0.06263175,-0.00000279,
 -0.14649952,-0.09850104,-0.00000499,0.03458048,0.00559923,0.00000036,-
 0.01443210,-0.00385795,-0.00000025,0.00326106,-0.00041595,0.00000002,-
 0.03705862,-0.02951880,-0.00000040,0.00213124,0.00524498,0.00000003,-0
 .04422551,0.06825110,0.00000314,0.45578583,0.00112542,-0.00545667,-0.0
 0000007,0.00463543,0.00802763,0.00000010,-0.02940470,-0.00947137,-0.00
 000110,-0.07990596,-0.30440805,-0.00000936,-0.00152003,-0.05054947,-0.
 00000208,0.00339485,0.00077796,-0.00000002,-0.00045737,-0.00299053,-0.
 00000009,-0.01944855,-0.00659807,-0.00000003,0.00052656,-0.00113810,-0
 .00000008,0.02092649,0.01146614,-0.00000020,0.05789156,0.42453640,0.00
 000025,-0.00000020,-0.00157287,-0.00000003,0.00000047,0.00489496,-0.00
 000185,-0.00000173,0.00779013,-0.00000438,-0.00000971,-0.04855181,0.00
 000035,-0.00000207,0.01024422,-0.00000016,-0.00000026,0.00591276,0.000
 00002,-0.00000017,0.00025838,-0.00000121,-0.00000060,-0.00190625,0.000
 00004,-0.00000002,-0.00081265,0.00000066,0.00000081,0.00898879,0.00000
 972,0.00001329,0.04410394,-0.04530431,0.01198227,-0.00000045,-0.297177
 13,-0.04670598,-0.00000605,-0.04490828,-0.00823948,-0.00000129,0.01100
 260,-0.00375175,-0.00000005,-0.01078372,0.00072448,-0.00000005,0.00745
 945,0.00152132,0.00000015,-0.00227424,0.00181034,0.,0.00946844,0.00201
 852,0.00000002,-0.00050687,0.00110496,0.00000005,-0.00383838,-0.003866
 94,-0.00000005,-0.00319263,-0.00136976,-0.00000014,0.48124664,0.045164
 62,0.00637422,0.00000077,0.00469279,-0.10623200,-0.00000261,-0.0435347
 5,0.00139252,-0.00000105,0.00757672,-0.00616360,-0.00000039,0.00010347
 ,0.00353752,0.00000017,-0.00568372,-0.00821744,-0.00000045,0.00328796,
 -0.00066756,0.00000003,-0.00085233,-0.00005032,0.00000002,-0.00007600,
 0.00006207,-0.00000001,-0.00016531,0.00145594,0.00000007,-0.00448035,-
 0.00058569,-0.00000009,-0.13704960,0.52096459,0.00000066,0.00000032,0.
 00550009,-0.00000348,-0.00000346,-0.04147636,-0.00000227,-0.00000046,0
 .01020982,0.00000028,-0.00000053,0.00920093,-0.00000023,0.00000014,-0.
 00152573,0.00000003,-0.00000038,0.00357499,0.00000008,0.,-0.00001425,0
 .00000019,0.00000005,-0.00025954,0.,0.00000002,0.00023697,-0.00000011,
 -0.00000005,-0.00012614,-0.00000015,0.,-0.00040540,-0.00000022,0.00002
 159,0.02799466,-0.11704300,-0.11686412,-0.00000535,0.01089021,0.014188
 12,0.00000060,-0.00181009,0.00270354,0.00000002,-0.00113189,0.00073282
 ,0.00000003,-0.00458550,0.00203451,-0.00000009,-0.01042340,-0.02595955
 ,-0.00000107,0.00256768,-0.00163550,0.00000007,0.00083849,-0.00127411,
 -0.00000006,-0.00001363,0.00004011,0.,-0.00076470,-0.00048300,0.,0.000
 53636,-0.00003106,0.,0.00104758,-0.00066321,0.00000002,0.12095241,-0.1
 1533633,-0.26013728,-0.00000969,-0.01650452,-0.01898082,-0.00000095,0.
 00425173,-0.00215956,-0.00000012,0.00113947,0.00022774,0.00000009,0.00
 013346,0.00139981,-0.00000011,0.00372428,-0.00108066,-0.00000003,0.000
 97999,0.00363094,0.00000028,0.00062314,-0.00002294,-0.00000005,-0.0000
 2405,0.00005428,0.,-0.00032275,0.00001392,0.00000002,-0.00038654,-0.00
 000201,-0.00000002,-0.00074764,0.00177054,0.00000013,0.12484918,0.2756
 5680,-0.00000536,-0.00000986,-0.02134037,-0.00000045,-0.00000042,0.002
 07774,0.00000002,-0.00000014,0.00345380,0.00000006,0.00000010,-0.00176
 589,-0.00000011,-0.00000010,0.00455367,0.,-0.00000037,0.00159468,0.000
 00011,0.00000020,-0.00458306,0.00000004,-0.00000007,0.00153038,0.,0.,-
 0.00021872,-0.00000004,0.00000002,-0.00061687,-0.00000004,-0.00000003,
 0.00016152,0.00000006,0.00000016,-0.00258323,0.00000581,0.00001052,0.0
 1643759,-0.00084371,-0.00261578,-0.00000017,0.00710439,-0.01340044,-0.
 00000033,-0.12383643,0.11956873,0.00000221,-0.01105793,0.02871765,0.00
 000073,-0.00463186,-0.00226552,-0.00000024,-0.00109833,-0.00110223,-0.
 00000003,0.00023068,0.00024269,0.00000001,0.00022775,0.00210032,0.0000
 0006,-0.00051926,-0.00032913,0.,0.00033425,-0.00074094,-0.00000004,0.0
 0336848,-0.00044296,0.00000010,0.00363266,-0.00063075,0.00000008,0.000
 50946,-0.00069031,-0.00000003,0.12773662,-0.00385925,-0.00213484,-0.00
 000027,0.01694017,-0.01710686,-0.00000032,0.12110186,-0.25485474,-0.00
 000552,-0.00184692,0.00289601,-0.00000006,-0.00041806,0.00064217,-0.00
 000012,-0.00078358,0.00016225,0.00000003,0.00021651,0.00012264,0.00000
 001,-0.00051092,-0.00015372,-0.00000002,0.00001772,0.00000414,0.,0.000
 07377,0.00028911,0.,-0.00010363,0.00032758,0.00000012,0.00064890,0.002
 54315,0.00000022,0.00080269,-0.00091840,-0.00000005,-0.13007277,0.2689
 8081,-0.00000018,-0.00000027,0.00418847,0.00000069,-0.00000073,0.00111
 542,0.00000224,-0.00000560,-0.02314802,-0.00000024,0.00000047,0.003475
 65,-0.00000017,-0.00000013,0.00428880,-0.00000006,0.,-0.00121143,0.000
 00001,0.,-0.00014693,-0.00000002,0.00000001,0.00054941,-0.00000001,0.,
 -0.00014983,0.00000001,0.,-0.00006782,0.00000009,0.00000011,-0.0033056
 8,0.00000010,0.00000023,-0.00397627,0.00000002,-0.00000008,0.00098847,
 -0.00000243,0.00000599,0.01735235,0.00078933,0.00576353,0.00000025,-0.
 00108485,-0.00025484,0.,0.00007410,-0.00003925,0.,0.00062780,0.0008296
 9,0.00000003,-0.00131637,0.00341298,0.00000005,0.01256682,0.02229818,0
 .00000056,-0.23118069,-0.24478561,-0.00000567,-0.00064137,0.00053447,0
 .00000001,-0.00139273,-0.00018132,0.00000003,0.00018521,0.00007604,0.,
 -0.00036163,-0.00012458,0.,0.00006066,-0.00000877,0.,-0.00121521,-0.00
 164892,-0.00000011,-0.00009040,-0.00016694,0.,0.22286642,-0.00249378,0
 .00551534,0.00000016,0.00029673,-0.00205151,-0.00000008,0.00072854,0.0
 0099317,0.00000005,-0.00306582,-0.00070186,-0.00000012,0.00665993,-0.0
 0214831,-0.00000004,-0.02514989,-0.03873922,-0.00000098,-0.19349129,-0
 .28705755,-0.00000636,-0.00067585,0.00008158,0.00000002,0.00004011,0.0
 0008598,0.,0.00042992,0.00040357,0.00000001,0.00086089,-0.00015229,0.,
 -0.00079753,0.00051650,0.,0.00152968,0.00016488,0.00000003,0.00006909,
 0.00007072,0.,0.21520409,0.32288555,-0.00000006,0.00000029,-0.00158116
 ,0.00000003,-0.00000005,-0.00117050,0.00000002,0.00000004,0.00003122,-
 0.00000013,-0.00000008,0.00166686,0.00000026,-0.00000014,0.00275647,-0
 .00000040,-0.00000123,-0.00211580,-0.00000457,-0.00000613,-0.00574669,
 -0.00000006,0.00000002,-0.00061186,0.00000001,0.00000001,0.00024495,0.
 00000001,0.00000004,-0.00015726,0.00000002,-0.00000002,-0.00021996,-0.
 00000002,0.00000001,-0.00003126,-0.00000003,-0.00000004,0.00099388,0.,
 0.,0.00000541,0.00000493,0.00000731,0.00551830,-0.00010280,-0.00016006
 ,-0.00001751,0.00016328,0.00009459,-0.00010521,-0.00011449,-0.00040240
 ,0.00031575,0.00062371,-0.00026155,-0.00056753,-0.00248734,-0.00072965
 ,-0.00148332,-0.00104934,0.00299342,0.00018804,-0.00098670,-0.00169817
 ,0.00060230,0.00657656,0.00789963,0.01887315,-0.04958825,-0.02084779,-
 0.03256798,-0.00098357,0.00225343,-0.00166560,-0.00032642,0.00010805,0
 .00003041,-0.00024397,-0.00004170,-0.00002710,-0.00004521,-0.00002326,
 0.00007442,0.00001898,-0.00000034,0.00002402,0.00004458,-0.00022754,-0
 .00021003,0.04992117,-0.00007866,-0.00000605,-0.00018486,0.00004918,-0
 .00014533,-0.00004698,0.00017393,0.00006001,-0.00025291,-0.00022656,-0
 .00064368,0.00057417,-0.00021395,0.00034386,0.00165842,0.00028652,0.00
 060934,-0.00025569,-0.00072422,-0.00069970,0.00071634,-0.00601275,-0.0
 1469381,-0.01969649,-0.02240598,-0.12454755,-0.12762281,0.00369013,-0.
 00407979,0.00214668,0.00109748,0.00015940,-0.00019074,-0.00003212,0.00
 000426,0.00005889,-0.00001048,-0.00000235,0.00000567,-0.00001473,-0.00
 000157,-0.00001778,-0.00019079,0.00001003,0.00013151,0.02386653,0.1387
 6233,-0.00040903,0.00038337,-0.00013760,0.00003068,-0.00033194,-0.0000
 7081,0.00014959,0.00016325,0.00003346,-0.00013407,-0.00008570,0.000161
 65,0.00035357,-0.00018168,0.00038841,0.00055319,-0.00162150,-0.0000004
 3,-0.00097248,0.00068445,0.00035350,-0.00040400,0.00214564,0.00122144,
 -0.03251744,-0.12439953,-0.20716489,0.00046340,0.00118925,-0.00077935,
 0.00023206,0.00014604,-0.00006990,-0.00002339,0.00006712,0.00000498,0.
 00003643,0.00002982,0.00004014,0.00000968,0.00000536,-0.00000200,-0.00
 047334,-0.00005625,0.00002908,0.03630195,0.13408334,0.22488501,-0.0001
 5259,0.00005003,0.,0.00024112,-0.00006827,0.,-0.00008596,0.00047298,0.
 00000001,-0.00105907,-0.00150048,-0.00000007,-0.00028453,0.00402861,0.
 00000019,0.00060841,0.00010936,0.,-0.00019821,-0.00057798,0.,-0.023065
 10,-0.00830321,-0.00000011,-0.27716068,-0.08809765,-0.00000056,0.00425
 346,-0.00264766,-0.00000013,0.00126681,0.00026513,0.00000002,-0.000213
 77,-0.00000250,0.,-0.00000538,-0.00002702,0.,-0.00014462,0.00000847,0.
 ,-0.00006822,0.00022261,0.,-0.00166036,0.00022247,0.00054124,0.3005223
 8,-0.00027537,0.00034497,0.00000001,-0.00001864,-0.00024846,0.,0.00013
 817,-0.00032924,0.,0.00118716,0.00059439,0.00000003,0.00123710,-0.0041
 9630,-0.00000018,0.00027351,-0.00150818,-0.00000004,-0.00146641,0.0000
 9215,-0.00000001,0.02714054,0.00771149,0.00000005,-0.09331566,-0.07826
 220,-0.00000025,-0.00108080,0.00198137,0.00000010,-0.00056083,0.000170
 95,0.,-0.00001454,0.00006253,0.,0.00004637,0.00002561,0.,0.00015172,0.
 00001009,0.,-0.00042860,0.00008213,0.,-0.01449368,-0.00521927,0.002577
 49,0.09514687,0.08414280,0.,0.00000002,-0.00017588,0.,0.,-0.00000373,0
 .,0.,-0.00018323,0.00000003,0.00000001,0.00059362,0.00000002,-0.000000
 19,0.00151158,0.00000002,-0.00000007,-0.00021789,-0.00000008,-0.000000
 02,0.00076170,0.00000104,0.00000040,-0.00150434,-0.00000073,-0.0000003
 1,-0.04550854,-0.00000009,0.00000008,-0.00110660,-0.00000001,0.,-0.000
 07498,0.,0.,0.00000717,0.,0.,0.00002295,0.,0.,-0.00001259,-0.00000003,
 0.,0.00015224,-0.02295599,-0.00666322,0.00125382,0.00000052,0.00000041
 ,0.04322691,-0.00010278,-0.00016005,0.00001749,0.00016326,0.00009459,0
 .00010522,-0.00011448,-0.00040238,-0.00031579,0.00062365,-0.00026157,0
 .00056756,-0.00248725,-0.00072966,0.00148325,-0.00104933,0.00299330,-0
 .00018790,-0.00098645,-0.00169814,-0.00060229,0.00657623,0.00790071,-0
 .01887282,-0.04958693,-0.02084740,0.03256369,-0.00098354,0.00225352,0.
 00166566,-0.00032642,0.00010803,-0.00003040,-0.00024396,-0.00004170,0.
 00002709,-0.00004521,-0.00002326,-0.00007441,0.00001898,-0.00000034,-0
 .00002402,0.00004458,-0.00022752,0.00021000,-0.00023677,0.00176559,-0.
 00352052,-0.00165990,-0.01449517,0.02295527,0.04991929,-0.00007870,-0.
 00000603,0.00018486,0.00004918,-0.00014537,0.00004698,0.00017394,0.000
 06002,0.00025291,-0.00022653,-0.00064366,-0.00057422,-0.00021386,0.000
 34390,-0.00165843,0.00028655,0.00060920,0.00025573,-0.00072421,-0.0006
 9953,-0.00071639,-0.00601247,-0.01469483,0.01969598,-0.02240544,-0.124
 56095,0.12762681,0.00369018,-0.00408002,-0.00214694,0.00109755,0.00015
 941,0.00019077,-0.00003212,0.00000427,-0.00005889,-0.00001048,-0.00000
 235,-0.00000567,-0.00001473,-0.00000157,0.00001777,-0.00019079,0.00001
 005,-0.00013152,0.00176504,0.00965963,-0.01495441,0.00022263,-0.005219
 57,0.00666289,0.02386602,0.13877707,0.00040902,-0.00038336,-0.00013760
 ,-0.00003067,0.00033193,-0.00007079,-0.00014958,-0.00016324,0.00003347
 ,0.00013405,0.00008565,0.00016161,-0.00035361,0.00018172,0.00038826,-0
 .00055313,0.00162152,-0.00000033,0.00097245,-0.00068452,0.00035345,0.0
 0040360,-0.00214643,0.00122272,0.03251306,0.12440363,-0.20715112,-0.00
 046322,-0.00118949,-0.00077951,-0.00023199,-0.00014602,-0.00006990,0.0
 0002339,-0.00006712,0.00000498,-0.00003643,-0.00002982,0.00004013,-0.0
 0000969,-0.00000536,-0.00000200,0.00047330,0.00005625,0.00002908,0.003
 52019,0.01495611,-0.02006946,-0.00054115,-0.00257758,0.00125358,-0.036
 29702,-0.13408801,0.22487054,-0.00547395,0.00482362,0.00000008,0.00002
 704,-0.00967976,-0.00000034,0.01080349,0.00660976,0.00000031,-0.036951
 56,-0.04383545,-0.00000224,-0.01878257,0.00406543,-0.00000004,0.003523
 07,0.00415037,0.00000005,-0.00114259,0.00145551,0.00000003,0.04191673,
 0.03210513,0.00000038,-0.00205051,-0.00717630,0.00000028,-0.00900880,-
 0.04609369,-0.00000262,-0.21937517,0.04313866,-0.00000346,-0.00012050,
 0.00159826,0.00000005,-0.00034512,0.00015622,0.00000003,-0.00069817,-0
 .00008486,0.,0.00008117,0.00011688,0.00000001,0.00045634,-0.00124064,-
 0.00020843,-0.00117093,0.00084321,0.00000002,0.00045643,-0.00124082,0.
 00020833,0.23831700,0.00327732,-0.00224302,-0.00000005,-0.00216690,0.0
 0565578,0.00000008,-0.00578100,-0.00940460,-0.00000057,-0.03809115,0.0
 1567895,-0.00000029,0.00903927,-0.00292885,0.,-0.00303334,-0.00310357,
 0.,0.00056708,0.00034272,0.00000002,-0.00964128,-0.03076596,-0.0000009
 1,-0.00023824,0.00248133,-0.00000019,-0.01430072,0.01212741,0.00000180
 ,0.04828830,-0.06414096,0.00000016,0.00038170,-0.00129647,0.,0.0002652
 4,-0.00005319,0.,0.00040894,0.00003728,0.00000003,-0.00007348,0.000022
 57,0.,-0.00005533,0.00043649,0.00015240,0.00047442,-0.00022807,0.,-0.0
 0005537,0.00043660,-0.00015237,0.01052370,0.07683625,0.00000013,-0.000
 00010,0.00009451,-0.00000012,0.00000016,0.00216844,-0.00000025,-0.0000
 0046,0.00392157,-0.00000153,0.00000086,-0.00105837,0.00000050,-0.00000
 004,-0.00171702,-0.00000012,-0.00000005,-0.00125171,0.00000002,0.00000
 004,-0.00008271,-0.00000062,-0.00000102,0.00050064,0.00000007,0.000000
 13,0.00401788,-0.00000055,0.00000099,-0.01806457,-0.00000523,-0.000000
 43,-0.02538075,0.00000005,-0.00000002,-0.00063205,0.00000001,0.,-0.000
 01584,0.00000004,0.00000002,-0.00073111,0.,0.,0.00008536,-0.00035085,0
 .00059908,-0.00009130,0.00000003,-0.00000002,-0.00000686,0.00035084,-0
 .00059898,-0.00009136,0.00000757,-0.00000012,0.03822879,-0.00598389,-0
 .00358228,-0.00000022,-0.02588611,0.04530101,0.00000172,0.00360122,0.0
 0060269,0.00000009,-0.00163358,-0.00002338,-0.00000007,0.00096720,-0.0
 0035646,0.00000001,-0.00004973,0.00241502,0.,-0.00046331,-0.00051192,-
 0.00000001,-0.00076818,-0.00027815,0.,0.00010587,-0.00011499,0.,0.0004
 7240,0.00010052,-0.00000001,0.00111122,0.00058479,0.00000004,-0.105110
 24,0.13080685,0.00000509,0.00008615,-0.00012287,0.00000002,-0.00026153
 ,-0.00196248,-0.00000004,0.00001078,-0.00002926,0.,0.00002061,-0.00000
 093,-0.00000909,0.00003715,-0.00001496,0.,0.00002061,-0.00000093,0.000
 00909,-0.00046140,0.00021082,0.,0.13418477,-0.00109097,0.00199990,-0.0
 0000009,-0.00352056,0.00058936,0.00000013,-0.00599358,0.00345698,0.000
 00010,0.00070414,-0.00126283,0.00000002,-0.00086938,0.00019881,0.,0.00
 032247,0.00004585,-0.00000007,0.00009170,-0.00008606,0.00000002,0.0009
 3065,0.00017916,0.,0.00002313,0.00011995,0.,-0.00027485,-0.00049820,-0
 .00000001,-0.00017748,-0.00013225,-0.00000001,0.18241499,-0.41547504,-
 0.00001760,-0.00026076,0.00041503,0.00000003,0.00106115,-0.00091426,-0
 .00000005,-0.00002508,0.00000868,0.,-0.00003921,-0.00000626,0.00000348
 ,0.00000118,-0.00000718,0.,-0.00003920,-0.00000626,-0.00000348,-0.0002
 3524,0.00010933,0.,-0.17302310,0.41126528,-0.00000019,-0.00000014,0.00
 322707,-0.00000087,0.00000087,-0.00253961,-0.00000014,0.00000020,-0.00
 156181,0.00000001,-0.00000002,-0.00119294,0.00000003,0.00000003,-0.000
 06194,-0.00000012,-0.00000004,0.00241010,0.,0.00000002,-0.00064266,-0.
 00000002,0.,-0.00001353,0.,0.,-0.00009777,0.00000001,0.,0.00004982,-0.
 00000001,0.,0.00001545,0.00000789,-0.00001842,-0.00570436,0.00000001,0
 .00000004,-0.00077096,0.00000005,-0.00000006,0.00078970,0.,0.,0.000121
 63,0.00002090,0.00000126,0.00001425,0.,0.,0.00001108,-0.00002090,-0.00
 000126,0.00001425,0.,0.,0.00010648,-0.00000663,0.00001753,0.00582578\\
 -0.00003538,0.00001300,0.00000025,0.00006619,-0.00005131,0.00000008,-0
 .00002834,0.00003908,-0.00000027,-0.00003880,-0.00014941,0.00000065,0.
 00002488,0.00004811,-0.00000150,-0.00002503,0.00010432,-0.00000043,0.0
 0002460,-0.00009608,-0.00000029,0.00003413,0.00001766,0.00000528,-0.00
 002890,-0.00001387,-0.00000173,-0.00008935,0.00001872,-0.00000313,0.00
 011193,0.00004349,-0.00000127,-0.00008164,0.00009804,-0.00000027,0.000
 01763,0.00003398,-0.00000001,0.00003445,-0.00003467,0.,0.00006770,0.00
 006267,0.00000019,0.00000608,-0.00000174,0.00002671,-0.00005834,-0.000
 03477,0.00000003,0.00000575,-0.00000134,-0.00002648,-0.00001448,-0.000
 02446,0.00000203,0.00000693,-0.00007142,0.00000017\\\@


 ACCORDING TO HEN3RY, LIFE IS MUCH LIKE A SEWER........
 YOU GET OUT OF IT JUST WHAT YOU PUT INTO IT...........
                         TOM LEHRER - (THE 3 IS SILENT)
 Job cpu time:       0 days  0 hours 32 minutes 35.5 seconds.
 File lengths (MBytes):  RWF=    157 Int=      0 D2E=      0 Chk=      6 Scr=      1
 Normal termination of Gaussian 09 at Sun Jun 16 16:05:52 2024.
