 Entering Gaussian System, Link 0=g09
 Input=pbeTHAPyang.gjf
 Output=pbeTHAPyang.log
 Initial command:
 /home/phzd/g09E/g09/l1.exe "/home/phzd/g09E/scratch/Gau-90656.inp" -scrdir="/home/phzd/g09E/scratch/"
 Default is to use a total of  18 processors:
                               18 via shared-memory
                                1 via Linda
 Entering Link 1 = /home/phzd/g09E/g09/l1.exe PID=     90658.
  
 Copyright (c) 1988,1990,1992,1993,1995,1998,2003,2009,2015,
            Gaussian, Inc.  All Rights Reserved.
  
 This is part of the Gaussian(R) 09 program.  It is based on
 the Gaussian(R) 03 system (copyright 2003, Gaussian, Inc.),
 the Gaussian(R) 98 system (copyright 1998, Gaussian, Inc.),
 the Gaussian(R) 94 system (copyright 1995, Gaussian, Inc.),
 the Gaussian 92(TM) system (copyright 1992, Gaussian, Inc.),
 the Gaussian 90(TM) system (copyright 1990, Gaussian, Inc.),
 the Gaussian 88(TM) system (copyright 1988, Gaussian, Inc.),
 the Gaussian 86(TM) system (copyright 1986, Carnegie Mellon
 University), and the Gaussian 82(TM) system (copyright 1983,
 Carnegie Mellon University). Gaussian is a federally registered
 trademark of Gaussian, Inc.
  
 This software contains proprietary and confidential information,
 including trade secrets, belonging to Gaussian, Inc.
  
 This software is provided under written license and may be
 used, copied, transmitted, or stored only in accord with that
 written license.
  
 The following legend is applicable only to US Government
 contracts under FAR:
  
                    RESTRICTED RIGHTS LEGEND
  
 Use, reproduction and disclosure by the US Government is
 subject to restrictions as set forth in subparagraphs (a)
 and (c) of the Commercial Computer Software - Restricted
 Rights clause in FAR 52.227-19.
  
 Gaussian, Inc.
 340 Quinnipiac St., Bldg. 40, Wallingford CT 06492
  
  
 ---------------------------------------------------------------
 Warning -- This program may not be used in any manner that
 competes with the business of Gaussian, Inc. or will provide
 assistance to any competitor of Gaussian, Inc.  The licensee
 of this program is prohibited from giving any competitor of
 Gaussian, Inc. access to this program.  By using this program,
 the user acknowledges that Gaussian, Inc. is engaged in the
 business of creating and licensing software in the field of
 computational chemistry and represents and warrants to the
 licensee that it is not a competitor of Gaussian, Inc. and that
 it will not use this program in any manner prohibited above.
 ---------------------------------------------------------------
  

 Cite this work as:
 Gaussian 09, Revision E.01,
 M. J. Frisch, G. W. Trucks, H. B. Schlegel, G. E. Scuseria, 
 M. A. Robb, J. R. Cheeseman, G. Scalmani, V. Barone, B. Mennucci, 
 G. A. Petersson, H. Nakatsuji, M. Caricato, X. Li, H. P. Hratchian, 
 A. F. Izmaylov, J. Bloino, G. Zheng, J. L. Sonnenberg, M. Hada, 
 M. Ehara, K. Toyota, R. Fukuda, J. Hasegawa, M. Ishida, T. Nakajima, 
 Y. Honda, O. Kitao, H. Nakai, T. Vreven, J. A. Montgomery, Jr., 
 J. E. Peralta, F. Ogliaro, M. Bearpark, J. J. Heyd, E. Brothers, 
 K. N. Kudin, V. N. Staroverov, T. Keith, R. Kobayashi, J. Normand, 
 K. Raghavachari, A. Rendell, J. C. Burant, S. S. Iyengar, J. Tomasi, 
 M. Cossi, N. Rega, J. M. Millam, M. Klene, J. E. Knox, J. B. Cross, 
 V. Bakken, C. Adamo, J. Jaramillo, R. Gomperts, R. E. Stratmann, 
 O. Yazyev, A. J. Austin, R. Cammi, C. Pomelli, J. W. Ochterski, 
 R. L. Martin, K. Morokuma, V. G. Zakrzewski, G. A. Voth, 
 P. Salvador, J. J. Dannenberg, S. Dapprich, A. D. Daniels, 
 O. Farkas, J. B. Foresman, J. V. Ortiz, J. Cioslowski, 
 and D. J. Fox, Gaussian, Inc., Wallingford CT, 2013.
 
 ******************************************
 Gaussian 09:  ES64L-G09RevE.01 30-Nov-2015
                16-Jun-2024 
 ******************************************
 %chk=pbeTHAPyang.chk
 -----------------------------
 # opt freq pbepbe/6-31+g(d,p)
 -----------------------------
 1/14=-1,18=20,19=15,26=3,38=1/1,3;
 2/9=110,12=2,17=6,18=5,40=1/2;
 3/5=1,6=6,7=111,11=2,16=1,25=1,30=1,71=1,74=1009/1,2,3;
 4//1;
 5/5=2,38=5/2;
 6/7=2,8=2,9=2,10=2,28=1/1;
 7//1,2,3,16;
 1/14=-1,18=20,19=15,26=3/3(2);
 2/9=110/2;
 99//99;
 2/9=110/2;
 3/5=1,6=6,7=111,11=2,16=1,25=1,30=1,71=1,74=1009/1,2,3;
 4/5=5,16=3,69=1/1;
 5/5=2,38=5/2;
 7//1,2,3,16;
 1/14=-1,18=20,19=15,26=3/3(-5);
 2/9=110/2;
 6/7=2,8=2,9=2,10=2,19=2,28=1/1;
 99/9=1/99;
 ----------
 [No Title]
 ----------
 Symbolic Z-matrix:
 Charge =  1 Multiplicity = 1
 C                    -1.54806  -1.26665  -0.00029 
 C                    -2.28376  -0.07663  -0.00083 
 C                    -1.63579   1.17441   0.00004 
 C                    -0.25986   1.2116    0.00105 
 C                     0.55836   0.02496   0.00089 
 C                    -0.16531  -1.22503   0.00096 
 O                     0.55773  -2.3567    0.00206 
 C                     1.9811    0.08289  -0.00068 
 C                     2.90915  -1.0815   -0.00096 
 O                     2.62767   1.21757  -0.00265 
 O                     0.40314   2.40157   0.00303 
 O                    -3.61273  -0.1989   -0.00181 
 H                    -2.08148  -2.21096  -0.00061 
 H                    -2.2118    2.09492   0.00038 
 H                    -0.01495  -3.13862   0.00187 
 H                     2.73548  -1.71264   0.87483 
 H                     2.73327  -1.71402  -0.87533 
 H                     3.93323  -0.71004  -0.00259 
 H                     2.02248   1.99418  -0.0024 
 H                    -0.18847   3.1687    0.00002 
 H                    -4.06915   0.65585  -0.00226 
 

 GradGradGradGradGradGradGradGradGradGradGradGradGradGradGradGradGradGrad
 Berny optimization.
 Initialization pass.
                           ----------------------------
                           !    Initial Parameters    !
                           ! (Angstroms and Degrees)  !
 --------------------------                            --------------------------
 ! Name  Definition              Value          Derivative Info.                !
 --------------------------------------------------------------------------------
 ! R1    R(1,2)                  1.3991         estimate D2E/DX2                !
 ! R2    R(1,6)                  1.3834         estimate D2E/DX2                !
 ! R3    R(1,13)                 1.0846         estimate D2E/DX2                !
 ! R4    R(2,3)                  1.4089         estimate D2E/DX2                !
 ! R5    R(2,12)                 1.3346         estimate D2E/DX2                !
 ! R6    R(3,4)                  1.3764         estimate D2E/DX2                !
 ! R7    R(3,14)                 1.0859         estimate D2E/DX2                !
 ! R8    R(4,5)                  1.4414         estimate D2E/DX2                !
 ! R9    R(4,11)                 1.3622         estimate D2E/DX2                !
 ! R10   R(5,6)                  1.4444         estimate D2E/DX2                !
 ! R11   R(5,8)                  1.4239         estimate D2E/DX2                !
 ! R12   R(6,7)                  1.3429         estimate D2E/DX2                !
 ! R13   R(7,15)                 0.9692         estimate D2E/DX2                !
 ! R14   R(8,9)                  1.489          estimate D2E/DX2                !
 ! R15   R(8,10)                 1.306          estimate D2E/DX2                !
 ! R16   R(9,16)                 1.0934         estimate D2E/DX2                !
 ! R17   R(9,17)                 1.0934         estimate D2E/DX2                !
 ! R18   R(9,18)                 1.0894         estimate D2E/DX2                !
 ! R19   R(10,19)                0.9846         estimate D2E/DX2                !
 ! R20   R(11,20)                0.9688         estimate D2E/DX2                !
 ! R21   R(12,21)                0.969          estimate D2E/DX2                !
 ! A1    A(2,1,6)              120.0012         estimate D2E/DX2                !
 ! A2    A(2,1,13)             118.8136         estimate D2E/DX2                !
 ! A3    A(6,1,13)             121.1852         estimate D2E/DX2                !
 ! A4    A(1,2,3)              120.8929         estimate D2E/DX2                !
 ! A5    A(1,2,12)             116.4686         estimate D2E/DX2                !
 ! A6    A(3,2,12)             122.6384         estimate D2E/DX2                !
 ! A7    A(2,3,4)              118.93           estimate D2E/DX2                !
 ! A8    A(2,3,14)             120.5821         estimate D2E/DX2                !
 ! A9    A(4,3,14)             120.4879         estimate D2E/DX2                !
 ! A10   A(3,4,5)              123.0389         estimate D2E/DX2                !
 ! A11   A(3,4,11)             120.673          estimate D2E/DX2                !
 ! A12   A(5,4,11)             116.288          estimate D2E/DX2                !
 ! A13   A(4,5,6)              115.3445         estimate D2E/DX2                !
 ! A14   A(4,5,8)              122.2554         estimate D2E/DX2                !
 ! A15   A(6,5,8)              122.4            estimate D2E/DX2                !
 ! A16   A(1,6,5)              121.7924         estimate D2E/DX2                !
 ! A17   A(1,6,7)              120.8511         estimate D2E/DX2                !
 ! A18   A(5,6,7)              117.3566         estimate D2E/DX2                !
 ! A19   A(6,7,15)             111.206          estimate D2E/DX2                !
 ! A20   A(5,8,9)              126.2241         estimate D2E/DX2                !
 ! A21   A(5,8,10)             122.0075         estimate D2E/DX2                !
 ! A22   A(9,8,10)             111.7684         estimate D2E/DX2                !
 ! A23   A(8,9,16)             110.6244         estimate D2E/DX2                !
 ! A24   A(8,9,17)             110.6262         estimate D2E/DX2                !
 ! A25   A(8,9,18)             108.6188         estimate D2E/DX2                !
 ! A26   A(16,9,17)            106.3234         estimate D2E/DX2                !
 ! A27   A(16,9,18)            110.3249         estimate D2E/DX2                !
 ! A28   A(17,9,18)            110.321          estimate D2E/DX2                !
 ! A29   A(8,10,19)            112.3958         estimate D2E/DX2                !
 ! A30   A(4,11,20)            113.2354         estimate D2E/DX2                !
 ! A31   A(2,12,21)            112.8446         estimate D2E/DX2                !
 ! D1    D(6,1,2,3)             -0.0068         estimate D2E/DX2                !
 ! D2    D(6,1,2,12)          -179.989          estimate D2E/DX2                !
 ! D3    D(13,1,2,3)           179.9767         estimate D2E/DX2                !
 ! D4    D(13,1,2,12)           -0.0055         estimate D2E/DX2                !
 ! D5    D(2,1,6,5)             -0.0403         estimate D2E/DX2                !
 ! D6    D(2,1,6,7)            179.9718         estimate D2E/DX2                !
 ! D7    D(13,1,6,5)           179.9765         estimate D2E/DX2                !
 ! D8    D(13,1,6,7)            -0.0113         estimate D2E/DX2                !
 ! D9    D(1,2,3,4)              0.0181         estimate D2E/DX2                !
 ! D10   D(1,2,3,14)          -179.9531         estimate D2E/DX2                !
 ! D11   D(12,2,3,4)           179.9991         estimate D2E/DX2                !
 ! D12   D(12,2,3,14)            0.0279         estimate D2E/DX2                !
 ! D13   D(1,2,12,21)         -179.9929         estimate D2E/DX2                !
 ! D14   D(3,2,12,21)            0.0253         estimate D2E/DX2                !
 ! D15   D(2,3,4,5)              0.0179         estimate D2E/DX2                !
 ! D16   D(2,3,4,11)          -179.945          estimate D2E/DX2                !
 ! D17   D(14,3,4,5)           179.9891         estimate D2E/DX2                !
 ! D18   D(14,3,4,11)            0.0263         estimate D2E/DX2                !
 ! D19   D(3,4,5,6)             -0.0605         estimate D2E/DX2                !
 ! D20   D(3,4,5,8)            179.875          estimate D2E/DX2                !
 ! D21   D(11,4,5,6)           179.9039         estimate D2E/DX2                !
 ! D22   D(11,4,5,8)            -0.1606         estimate D2E/DX2                !
 ! D23   D(3,4,11,20)           -0.2303         estimate D2E/DX2                !
 ! D24   D(5,4,11,20)          179.8044         estimate D2E/DX2                !
 ! D25   D(4,5,6,1)              0.0714         estimate D2E/DX2                !
 ! D26   D(4,5,6,7)           -179.9404         estimate D2E/DX2                !
 ! D27   D(8,5,6,1)           -179.8641         estimate D2E/DX2                !
 ! D28   D(8,5,6,7)              0.1242         estimate D2E/DX2                !
 ! D29   D(4,5,8,9)            179.9995         estimate D2E/DX2                !
 ! D30   D(4,5,8,10)            -0.0299         estimate D2E/DX2                !
 ! D31   D(6,5,8,9)             -0.0695         estimate D2E/DX2                !
 ! D32   D(6,5,8,10)           179.9011         estimate D2E/DX2                !
 ! D33   D(1,6,7,15)            -0.0023         estimate D2E/DX2                !
 ! D34   D(5,6,7,15)          -179.9906         estimate D2E/DX2                !
 ! D35   D(5,8,9,16)           -58.7899         estimate D2E/DX2                !
 ! D36   D(5,8,9,17)            58.7609         estimate D2E/DX2                !
 ! D37   D(5,8,9,18)           179.9837         estimate D2E/DX2                !
 ! D38   D(10,8,9,16)          121.237          estimate D2E/DX2                !
 ! D39   D(10,8,9,17)         -121.2122         estimate D2E/DX2                !
 ! D40   D(10,8,9,18)            0.0106         estimate D2E/DX2                !
 ! D41   D(5,8,10,19)            0.0304         estimate D2E/DX2                !
 ! D42   D(9,8,10,19)         -179.9952         estimate D2E/DX2                !
 --------------------------------------------------------------------------------
 Trust Radius=3.00D-01 FncErr=1.00D-07 GrdErr=1.00D-06
 Number of steps in this run=    104 maximum allowed number of steps=    126.
 GradGradGradGradGradGradGradGradGradGradGradGradGradGradGradGradGradGrad

                          Input orientation:                          
 ---------------------------------------------------------------------
 Center     Atomic      Atomic             Coordinates (Angstroms)
 Number     Number       Type             X           Y           Z
 ---------------------------------------------------------------------
      1          6           0       -1.548063   -1.266650   -0.000293
      2          6           0       -2.283760   -0.076630   -0.000828
      3          6           0       -1.635788    1.174409    0.000039
      4          6           0       -0.259863    1.211598    0.001049
      5          6           0        0.558355    0.024956    0.000889
      6          6           0       -0.165312   -1.225029    0.000962
      7          8           0        0.557727   -2.356696    0.002059
      8          6           0        1.981100    0.082889   -0.000681
      9          6           0        2.909153   -1.081501   -0.000963
     10          8           0        2.627673    1.217569   -0.002648
     11          8           0        0.403142    2.401573    0.003033
     12          8           0       -3.612734   -0.198901   -0.001814
     13          1           0       -2.081480   -2.210958   -0.000606
     14          1           0       -2.211797    2.094923    0.000383
     15          1           0       -0.014948   -3.138617    0.001867
     16          1           0        2.735480   -1.712636    0.874829
     17          1           0        2.733271   -1.714018   -0.875326
     18          1           0        3.933226   -0.710042   -0.002591
     19          1           0        2.022480    1.994178   -0.002403
     20          1           0       -0.188469    3.168702    0.000021
     21          1           0       -4.069150    0.655847   -0.002256
 ---------------------------------------------------------------------
                    Distance matrix (angstroms):
                    1          2          3          4          5
     1  C    0.000000
     2  C    1.399070   0.000000
     3  C    2.442635   1.408889   0.000000
     4  C    2.793058   2.399103   1.376428   0.000000
     5  C    2.470879   2.843930   2.476995   1.441388   0.000000
     6  C    1.383378   2.409698   2.814179   2.438461   1.444353
     7  O    2.371193   3.643180   4.156948   3.660762   2.381652
     8  C    3.778392   4.267842   3.778001   2.509164   1.423925
     9  C    4.461060   5.289245   5.074014   3.911645   2.598173
    10  O    4.858819   5.079087   4.263680   2.887545   2.388392
    11  O    4.154885   3.655263   2.379743   1.362211   2.381681
    12  O    2.324426   1.334587   2.407135   3.637480   4.177093
    13  H    1.084551   2.143892   3.414579   3.877136   3.459486
    14  H    3.426473   2.172745   1.085879   2.142501   3.458107
    15  H    2.419650   3.810942   4.607529   4.357104   3.215101
    16  H    4.394711   5.351267   5.311146   4.276297   2.919396
    17  H    4.392680   5.349429   5.310174   4.276227   2.919254
    18  H    5.509478   6.249170   5.879207   4.612452   3.453982
    19  H    4.835471   4.778279   3.748993   2.412785   2.453876
    20  H    4.639056   3.862955   2.464130   1.958406   3.231236
    21  H    3.170470   1.929804   2.488004   3.849615   4.670314
                    6          7          8          9         10
     6  C    0.000000
     7  O    1.342928   0.000000
     8  C    2.513511   2.824460   0.000000
     9  C    3.077814   2.674946   1.488988   0.000000
    10  O    3.710399   4.130384   1.305971   2.316238   0.000000
    11  O    3.670884   4.760779   2.804685   4.290910   2.520007
    12  O    3.596897   4.695619   5.600927   6.581337   6.399146
    13  H    2.154938   2.643229   4.665436   5.116844   5.825026
    14  H    3.900023   5.242822   4.650663   6.026093   4.918356
    15  H    1.919487   0.969204   3.789765   3.575206   5.095078
    16  H    3.068550   2.432930   2.135303   1.093392   3.060668
    17  H    3.067373   2.432248   2.135331   1.093400   3.060542
    18  H    4.130767   3.755727   2.107021   1.089362   2.328122
    19  H    3.892267   4.590820   1.911738   3.200936   0.984571
    20  H    4.393792   5.575557   3.772171   5.259229   3.426016
    21  H    4.333319   5.521180   6.077319   7.191321   6.720340
                   11         12         13         14         15
    11  O    0.000000
    12  O    4.784323   0.000000
    13  H    5.239160   2.528461   0.000000
    14  H    2.632859   2.687798   4.307853   0.000000
    15  H    5.555943   4.646074   2.265196   5.675922   0.000000
    16  H    4.809007   6.584810   4.921160   6.303785   3.218748
    17  H    4.810312   6.582582   4.918731   6.303062   3.217399
    18  H    4.705706   7.563252   6.199148   6.754935   4.635307
    19  H    1.669807   6.046919   5.875854   4.235476   5.522383
    20  H    0.968762   4.802743   5.703002   2.290602   6.309706
    21  H    4.800936   0.968974   3.488468   2.349618   5.552885
                   16         17         18         19         20
    16  H    0.000000
    17  H    1.750157   0.000000
    18  H    1.791551   1.791515   0.000000
    19  H    3.875355   3.875298   3.311156   0.000000
    20  H    5.756929   5.757061   5.659773   2.503559   0.000000
    21  H    7.258235   7.256131   8.118108   6.236913   4.623216
                   21
    21  H    0.000000
 Stoichiometry    C8H9O4(1+)
 Framework group  C1[X(C8H9O4)]
 Deg. of freedom    57
 Full point group                 C1      NOp   1
 Largest Abelian subgroup         C1      NOp   1
 Largest concise Abelian subgroup C1      NOp   1
                         Standard orientation:                         
 ---------------------------------------------------------------------
 Center     Atomic      Atomic             Coordinates (Angstroms)
 Number     Number       Type             X           Y           Z
 ---------------------------------------------------------------------
      1          6           0        1.548063   -1.266650    0.000293
      2          6           0        2.283760   -0.076630    0.000828
      3          6           0        1.635788    1.174409   -0.000039
      4          6           0        0.259863    1.211598   -0.001049
      5          6           0       -0.558355    0.024956   -0.000889
      6          6           0        0.165312   -1.225029   -0.000962
      7          8           0       -0.557727   -2.356696   -0.002059
      8          6           0       -1.981100    0.082889    0.000681
      9          6           0       -2.909153   -1.081501    0.000963
     10          8           0       -2.627673    1.217569    0.002648
     11          8           0       -0.403142    2.401573   -0.003033
     12          8           0        3.612734   -0.198901    0.001814
     13          1           0        2.081480   -2.210958    0.000606
     14          1           0        2.211797    2.094923   -0.000383
     15          1           0        0.014948   -3.138617   -0.001867
     16          1           0       -2.735480   -1.712636   -0.874829
     17          1           0       -2.733271   -1.714018    0.875326
     18          1           0       -3.933226   -0.710042    0.002591
     19          1           0       -2.022480    1.994178    0.002403
     20          1           0        0.188469    3.168702   -0.000021
     21          1           0        4.069150    0.655847    0.002256
 ---------------------------------------------------------------------
 Rotational constants (GHZ):      1.5200905      0.7583146      0.5074959
 Standard basis: 6-31+G(d,p) (6D, 7F)
 There are   273 symmetry adapted cartesian basis functions of A   symmetry.
 There are   273 symmetry adapted basis functions of A   symmetry.
   273 basis functions,   447 primitive gaussians,   273 cartesian basis functions
    44 alpha electrons       44 beta electrons
       nuclear repulsion energy       712.8601112192 Hartrees.
 NAtoms=   21 NActive=   21 NUniq=   21 SFac= 1.00D+00 NAtFMM=   60 NAOKFM=F Big=F
 Integral buffers will be    131072 words long.
 Raffenetti 2 integral format.
 Two-electron integral symmetry is turned on.
 One-electron integrals computed using PRISM.
 NBasis=   273 RedAO= T EigKep=  1.39D-06  NBF=   273
 NBsUse=   273 1.00D-06 EigRej= -1.00D+00 NBFU=   273
 ExpMin= 4.38D-02 ExpMax= 5.48D+03 ExpMxC= 8.25D+02 IAcc=2 IRadAn=         4 AccDes= 0.00D+00
 Harris functional with IExCor= 1009 and IRadAn=       4 diagonalized for initial guess.
 HarFok:  IExCor= 1009 AccDes= 0.00D+00 IRadAn=         4 IDoV= 1 UseB2=F ITyADJ=14
 ICtDFT=  3500011 ScaDFX=  1.000000  1.000000  1.000000  1.000000
 FoFCou: FMM=F IPFlag=           0 FMFlag=      100000 FMFlg1=           0
         NFxFlg=           0 DoJE=T BraDBF=F KetDBF=T FulRan=T
         wScrn=  0.000000 ICntrl=     500 IOpCl=  0 I1Cent=   200000004 NGrid=           0
         NMat0=    1 NMatS0=      1 NMatT0=    0 NMatD0=    1 NMtDS0=    0 NMtDT0=    0
 Petite list used in FoFCou.
 Keep J ints in memory in canonical form, NReq=709970467.
 Requested convergence on RMS density matrix=1.00D-08 within 128 cycles.
 Requested convergence on MAX density matrix=1.00D-06.
 Requested convergence on             energy=1.00D-06.
 No special actions if energy rises.
 SCF Done:  E(RPBE-PBE) =  -610.276738210     A.U. after   17 cycles
            NFock= 17  Conv=0.77D-08     -V/T= 2.0089

 **********************************************************************

            Population analysis using the SCF density.

 **********************************************************************

 Orbital symmetries:
       Occupied  (A) (A) (A) (A) (A) (A) (A) (A) (A) (A) (A) (A)
                 (A) (A) (A) (A) (A) (A) (A) (A) (A) (A) (A) (A)
                 (A) (A) (A) (A) (A) (A) (A) (A) (A) (A) (A) (A)
                 (A) (A) (A) (A) (A) (A) (A) (A)
       Virtual   (A) (A) (A) (A) (A) (A) (A) (A) (A) (A) (A) (A)
                 (A) (A) (A) (A) (A) (A) (A) (A) (A) (A) (A) (A)
                 (A) (A) (A) (A) (A) (A) (A) (A) (A) (A) (A) (A)
                 (A) (A) (A) (A) (A) (A) (A) (A) (A) (A) (A) (A)
                 (A) (A) (A) (A) (A) (A) (A) (A) (A) (A) (A) (A)
                 (A) (A) (A) (A) (A) (A) (A) (A) (A) (A) (A) (A)
                 (A) (A) (A) (A) (A) (A) (A) (A) (A) (A) (A) (A)
                 (A) (A) (A) (A) (A) (A) (A) (A) (A) (A) (A) (A)
                 (A) (A) (A) (A) (A) (A) (A) (A) (A) (A) (A) (A)
                 (A) (A) (A) (A) (A) (A) (A) (A) (A) (A) (A) (A)
                 (A) (A) (A) (A) (A) (A) (A) (A) (A) (A) (A) (A)
                 (A) (A) (A) (A) (A) (A) (A) (A) (A) (A) (A) (A)
                 (A) (A) (A) (A) (A) (A) (A) (A) (A) (A) (A) (A)
                 (A) (A) (A) (A) (A) (A) (A) (A) (A) (A) (A) (A)
                 (A) (A) (A) (A) (A) (A) (A) (A) (A) (A) (A) (A)
                 (A) (A) (A) (A) (A) (A) (A) (A) (A) (A) (A) (A)
                 (A) (A) (A) (A) (A) (A) (A) (A) (A) (A) (A) (A)
                 (A) (A) (A) (A) (A) (A) (A) (A) (A) (A) (A) (A)
                 (A) (A) (A) (A) (A) (A) (A) (A) (A) (A) (A) (A)
                 (A)
 The electronic state is 1-A.
 Alpha  occ. eigenvalues --  -19.01341 -19.00170 -18.98861 -18.98682 -10.18007
 Alpha  occ. eigenvalues --  -10.16348 -10.15555 -10.15298 -10.09893 -10.07805
 Alpha  occ. eigenvalues --  -10.06631 -10.04829  -1.19111  -1.16846  -1.16143
 Alpha  occ. eigenvalues --   -1.15813  -0.95579  -0.88963  -0.85431  -0.84038
 Alpha  occ. eigenvalues --   -0.77412  -0.75561  -0.73346  -0.70966  -0.68334
 Alpha  occ. eigenvalues --   -0.66238  -0.62842  -0.60842  -0.58195  -0.56974
 Alpha  occ. eigenvalues --   -0.55865  -0.55515  -0.54951  -0.53278  -0.52399
 Alpha  occ. eigenvalues --   -0.51772  -0.50988  -0.49013  -0.48891  -0.47224
 Alpha  occ. eigenvalues --   -0.46583  -0.43244  -0.38358  -0.37150
 Alpha virt. eigenvalues --   -0.26819  -0.19426  -0.16948  -0.16662  -0.14713
 Alpha virt. eigenvalues --   -0.14278  -0.12638  -0.10187  -0.09467  -0.09254
 Alpha virt. eigenvalues --   -0.08894  -0.06990  -0.06152  -0.06099  -0.05416
 Alpha virt. eigenvalues --   -0.04917  -0.03760  -0.02963  -0.02342  -0.02194
 Alpha virt. eigenvalues --   -0.01141  -0.01097  -0.00598  -0.00157   0.00745
 Alpha virt. eigenvalues --    0.00757   0.01544   0.02232   0.02891   0.02934
 Alpha virt. eigenvalues --    0.03661   0.04128   0.04162   0.05299   0.06150
 Alpha virt. eigenvalues --    0.06261   0.06881   0.07062   0.07964   0.08262
 Alpha virt. eigenvalues --    0.08374   0.09398   0.09717   0.11116   0.11733
 Alpha virt. eigenvalues --    0.11826   0.12676   0.13084   0.13365   0.13411
 Alpha virt. eigenvalues --    0.14800   0.15273   0.15292   0.16235   0.16505
 Alpha virt. eigenvalues --    0.17561   0.17849   0.18852   0.19687   0.20118
 Alpha virt. eigenvalues --    0.20980   0.21914   0.23528   0.24399   0.25014
 Alpha virt. eigenvalues --    0.25518   0.26075   0.26659   0.28634   0.30174
 Alpha virt. eigenvalues --    0.35892   0.38497   0.40413   0.45467   0.47753
 Alpha virt. eigenvalues --    0.48266   0.50324   0.51123   0.52034   0.53231
 Alpha virt. eigenvalues --    0.54056   0.55231   0.55583   0.56167   0.57853
 Alpha virt. eigenvalues --    0.61178   0.63712   0.66237   0.66410   0.68628
 Alpha virt. eigenvalues --    0.72469   0.73438   0.74959   0.80271   0.81687
 Alpha virt. eigenvalues --    0.83547   0.84433   0.85361   0.88339   0.88532
 Alpha virt. eigenvalues --    0.90113   0.90409   0.93372   0.93963   0.94900
 Alpha virt. eigenvalues --    0.96747   0.97161   0.97794   0.98740   0.99307
 Alpha virt. eigenvalues --    0.99386   1.01623   1.02095   1.04673   1.05184
 Alpha virt. eigenvalues --    1.05527   1.08045   1.08894   1.08950   1.10900
 Alpha virt. eigenvalues --    1.12046   1.12979   1.14675   1.15485   1.16479
 Alpha virt. eigenvalues --    1.17081   1.17118   1.21853   1.24698   1.25655
 Alpha virt. eigenvalues --    1.29358   1.29648   1.36061   1.36748   1.37376
 Alpha virt. eigenvalues --    1.38070   1.41952   1.47456   1.48459   1.50177
 Alpha virt. eigenvalues --    1.52021   1.57505   1.57721   1.60446   1.62463
 Alpha virt. eigenvalues --    1.63682   1.65414   1.65872   1.67258   1.68831
 Alpha virt. eigenvalues --    1.70310   1.72325   1.73225   1.76061   1.77084
 Alpha virt. eigenvalues --    1.79286   1.81825   1.81957   1.84445   1.90567
 Alpha virt. eigenvalues --    1.91756   1.93718   1.96094   1.96145   2.02300
 Alpha virt. eigenvalues --    2.02533   2.06569   2.07251   2.09698   2.13390
 Alpha virt. eigenvalues --    2.14529   2.17559   2.17862   2.21473   2.21767
 Alpha virt. eigenvalues --    2.22537   2.24194   2.26000   2.26915   2.28799
 Alpha virt. eigenvalues --    2.29234   2.30728   2.31944   2.37503   2.39485
 Alpha virt. eigenvalues --    2.40359   2.41494   2.42082   2.45372   2.47105
 Alpha virt. eigenvalues --    2.48599   2.49424   2.49595   2.52848   2.54699
 Alpha virt. eigenvalues --    2.59132   2.63597   2.63669   2.70069   2.78084
 Alpha virt. eigenvalues --    2.79703   2.82364   2.86899   2.89291   2.91960
 Alpha virt. eigenvalues --    2.96543   3.00327   3.08307   3.15543   3.21428
 Alpha virt. eigenvalues --    3.21807   3.22851   3.27041   3.30029   3.31440
 Alpha virt. eigenvalues --    3.40568   3.51545   3.99784   4.01693   4.04675
 Alpha virt. eigenvalues --    4.09817   4.15351   4.19756   4.23249   4.29112
 Alpha virt. eigenvalues --    4.40358   4.51319   4.55609   4.66083
          Condensed to atoms (all electrons):
               1          2          3          4          5          6
     1  C   13.450893  -2.413636   1.220386  -4.831926   0.033628  -5.234424
     2  C   -2.413636   7.994713  -1.116822   2.542903  -2.461673   3.422104
     3  C    1.220386  -1.116822  12.004847  -4.298073  -0.055842  -2.853034
     4  C   -4.831926   2.542903  -4.298073  19.160933  -3.897416   2.958502
     5  C    0.033628  -2.461673  -0.055842  -3.897416  17.651017  -4.977928
     6  C   -5.234424   3.422104  -2.853034   2.958502  -4.977928  17.858218
     7  O    0.197722  -0.020685   0.026317   0.023149  -0.183331   0.008613
     8  C    2.540300  -1.217814   0.013784  -4.199209  -2.894039  -1.598834
     9  C   -0.218515  -0.019919  -0.375917  -0.056712  -0.060757  -0.920209
    10  O   -0.001691   0.003147   0.003842  -0.161258   0.319115   0.050375
    11  O    0.054298   0.019253   0.492434  -0.177203  -0.078712  -0.066221
    12  O   -0.177550   0.114598  -0.055007   0.071902  -0.039189   0.096608
    13  H    0.179394   0.117741   0.045507  -0.019845   0.006661  -0.003066
    14  H    0.019585   0.068720   0.166432   0.054338   0.024161  -0.027903
    15  H   -0.100254   0.012845   0.001178   0.005134   0.118120  -0.033193
    16  H    0.000197   0.001224  -0.003572  -0.007561   0.035702   0.016803
    17  H    0.000060   0.001166  -0.003679  -0.008732   0.034071   0.017475
    18  H    0.001357   0.000212  -0.001479  -0.019876   0.031320   0.029561
    19  H    0.000567   0.000650   0.024438   0.107966  -0.267603  -0.073181
    20  H    0.004433  -0.002868  -0.113475  -0.047681   0.115074   0.001671
    21  H    0.087551  -0.049112  -0.025367   0.005633   0.027514  -0.043830
               7          8          9         10         11         12
     1  C    0.197722   2.540300  -0.218515  -0.001691   0.054298  -0.177550
     2  C   -0.020685  -1.217814  -0.019919   0.003147   0.019253   0.114598
     3  C    0.026317   0.013784  -0.375917   0.003842   0.492434  -0.055007
     4  C    0.023149  -4.199209  -0.056712  -0.161258  -0.177203   0.071902
     5  C   -0.183331  -2.894039  -0.060757   0.319115  -0.078712  -0.039189
     6  C    0.008613  -1.598834  -0.920209   0.050375  -0.066221   0.096608
     7  O    8.379189  -0.046681  -0.095518   0.001770  -0.000857  -0.000774
     8  C   -0.046681  13.994310  -1.075700   0.277176  -0.319467   0.001982
     9  C   -0.095518  -1.075700   8.289930  -0.460035  -0.010500   0.000168
    10  O    0.001770   0.277176  -0.460035   8.056480   0.043166  -0.000038
    11  O   -0.000857  -0.319467  -0.010500   0.043166   8.367249  -0.000979
    12  O   -0.000774   0.001982   0.000168  -0.000038  -0.000979   8.220774
    13  H   -0.018110   0.005299   0.000901   0.000015   0.000045  -0.009114
    14  H    0.000032   0.022822  -0.000292  -0.000076  -0.020361  -0.015812
    15  H    0.202234  -0.004113   0.011525   0.000033   0.000012  -0.000084
    16  H   -0.000864  -0.094663   0.396531   0.004296  -0.000054   0.000000
    17  H   -0.000876  -0.091021   0.395374   0.004203  -0.000025   0.000000
    18  H   -0.000104  -0.111441   0.428287  -0.006128   0.000104  -0.000000
    19  H   -0.000037   0.120296   0.085423   0.190953   0.039048   0.000006
    20  H    0.000019   0.037886   0.003879   0.001723   0.220056  -0.000065
    21  H    0.000035   0.003212  -0.000024   0.000000  -0.000114   0.209822
              13         14         15         16         17         18
     1  C    0.179394   0.019585  -0.100254   0.000197   0.000060   0.001357
     2  C    0.117741   0.068720   0.012845   0.001224   0.001166   0.000212
     3  C    0.045507   0.166432   0.001178  -0.003572  -0.003679  -0.001479
     4  C   -0.019845   0.054338   0.005134  -0.007561  -0.008732  -0.019876
     5  C    0.006661   0.024161   0.118120   0.035702   0.034071   0.031320
     6  C   -0.003066  -0.027903  -0.033193   0.016803   0.017475   0.029561
     7  O   -0.018110   0.000032   0.202234  -0.000864  -0.000876  -0.000104
     8  C    0.005299   0.022822  -0.004113  -0.094663  -0.091021  -0.111441
     9  C    0.000901  -0.000292   0.011525   0.396531   0.395374   0.428287
    10  O    0.000015  -0.000076   0.000033   0.004296   0.004203  -0.006128
    11  O    0.000045  -0.020361   0.000012  -0.000054  -0.000025   0.000104
    12  O   -0.009114  -0.015812  -0.000084   0.000000   0.000000  -0.000000
    13  H    0.517139  -0.000123   0.007856  -0.000001  -0.000001  -0.000000
    14  H   -0.000123   0.545616  -0.000001   0.000000   0.000000  -0.000000
    15  H    0.007856  -0.000001   0.366754   0.000400   0.000402  -0.000035
    16  H   -0.000001   0.000000   0.000400   0.454907  -0.019660  -0.019284
    17  H   -0.000001   0.000000   0.000402  -0.019660   0.454985  -0.019276
    18  H   -0.000000  -0.000000  -0.000035  -0.019284  -0.019276   0.464872
    19  H   -0.000000   0.000003  -0.000000  -0.000289  -0.000293   0.000274
    20  H   -0.000000   0.008936  -0.000000  -0.000000  -0.000000  -0.000000
    21  H   -0.000031   0.006371   0.000000   0.000000   0.000000  -0.000000
              19         20         21
     1  C    0.000567   0.004433   0.087551
     2  C    0.000650  -0.002868  -0.049112
     3  C    0.024438  -0.113475  -0.025367
     4  C    0.107966  -0.047681   0.005633
     5  C   -0.267603   0.115074   0.027514
     6  C   -0.073181   0.001671  -0.043830
     7  O   -0.000037   0.000019   0.000035
     8  C    0.120296   0.037886   0.003212
     9  C    0.085423   0.003879  -0.000024
    10  O    0.190953   0.001723   0.000000
    11  O    0.039048   0.220056  -0.000114
    12  O    0.000006  -0.000065   0.209822
    13  H   -0.000000  -0.000000  -0.000031
    14  H    0.000003   0.008936   0.006371
    15  H   -0.000000  -0.000000   0.000000
    16  H   -0.000289  -0.000000   0.000000
    17  H   -0.000293  -0.000000   0.000000
    18  H    0.000274  -0.000000  -0.000000
    19  H    0.325434  -0.000015  -0.000000
    20  H   -0.000015   0.344204   0.000013
    21  H   -0.000000   0.000013   0.394987
 Mulliken charges:
               1
     1  C    1.187623
     2  C   -0.996748
     3  C    0.903101
     4  C   -1.204969
     5  C    2.520106
     6  C   -2.628106
     7  O   -0.471243
     8  C    0.635916
     9  C   -0.317919
    10  O   -0.327068
    11  O   -0.561175
    12  O   -0.417250
    13  H    0.169732
    14  H    0.147552
    15  H    0.411186
    16  H    0.235887
    17  H    0.235826
    18  H    0.221637
    19  H    0.446360
    20  H    0.426210
    21  H    0.383340
 Sum of Mulliken charges =   1.00000
 Mulliken charges with hydrogens summed into heavy atoms:
               1
     1  C    1.357356
     2  C   -0.996748
     3  C    1.050653
     4  C   -1.204969
     5  C    2.520106
     6  C   -2.628106
     7  O   -0.060057
     8  C    0.635916
     9  C    0.375431
    10  O    0.119292
    11  O   -0.134965
    12  O   -0.033909
 Electronic spatial extent (au):  <R**2>=           2071.6477
 Charge=              1.0000 electrons
 Dipole moment (field-independent basis, Debye):
    X=              1.7575    Y=              1.6505    Z=              0.0068  Tot=              2.4110
 Quadrupole moment (field-independent basis, Debye-Ang):
   XX=            -42.1871   YY=            -36.1230   ZZ=            -69.6739
   XY=              8.6046   XZ=              0.0011   YZ=              0.0212
 Traceless Quadrupole moment (field-independent basis, Debye-Ang):
   XX=              7.1409   YY=             13.2050   ZZ=            -20.3459
   XY=              8.6046   XZ=              0.0011   YZ=              0.0212
 Octapole moment (field-independent basis, Debye-Ang**2):
  XXX=             32.3946  YYY=             13.7412  ZZZ=              0.0008  XYY=             14.7187
  XXY=             19.6579  XXZ=              0.0377  XZZ=             -4.9057  YZZ=              0.0188
  YYZ=              0.0388  XYZ=              0.0089
 Hexadecapole moment (field-independent basis, Debye-Ang**3):
 XXXX=          -1301.2106 YYYY=           -483.3918 ZZZZ=            -75.5293 XXXY=            149.0933
 XXXZ=              0.1605 YYYX=            -14.8277 YYYZ=              0.1993 ZZZX=              0.0079
 ZZZY=              0.0160 XXYY=           -353.9022 XXZZ=           -291.9565 YYZZ=           -154.7635
 XXYZ=              0.0547 YYXZ=             -0.0455 ZZXY=              1.2845
 N-N= 7.128601112192D+02 E-N=-2.836533027052D+03  KE= 6.049021423409D+02
 Calling FoFJK, ICntrl=      2527 FMM=F ISym2X=0 I1Cent= 0 IOpClX= 0 NMat=1 NMatS=1 NMatT=0.
 ***** Axes restored to original set *****
 -------------------------------------------------------------------
 Center     Atomic                   Forces (Hartrees/Bohr)
 Number     Number              X              Y              Z
 -------------------------------------------------------------------
      1        6          -0.001417234   -0.000030785    0.000010986
      2        6          -0.000767403    0.001860490   -0.000002878
      3        6          -0.001943299   -0.000451156   -0.000008976
      4        6           0.001218026    0.000642047    0.000026920
      5        6           0.001132524   -0.000033044    0.000003039
      6        6           0.000190529   -0.000527833   -0.000000737
      7        8           0.009918029    0.001191124    0.000001312
      8        6          -0.001311090   -0.007045210   -0.000008664
      9        6          -0.002653984    0.004077084   -0.000000986
     10        8           0.012982677    0.002709414   -0.000006635
     11        8           0.009138206   -0.001150024   -0.000014042
     12        8          -0.003939547   -0.009347144   -0.000008364
     13        1          -0.003021839   -0.005190872    0.000000570
     14        1          -0.003180024    0.005048426    0.000003766
     15        1          -0.005703888   -0.005981153   -0.000004288
     16        1          -0.000488189   -0.003539499    0.004141577
     17        1          -0.000498864   -0.003545160   -0.004131191
     18        1           0.005275631    0.001553954   -0.000004974
     19        1          -0.006524377    0.006323962    0.000017434
     20        1          -0.005395917    0.005833883   -0.000013179
     21        1          -0.003009967    0.007601497   -0.000000690
 -------------------------------------------------------------------
 Cartesian Forces:  Max     0.012982677 RMS     0.003973201

 GradGradGradGradGradGradGradGradGradGradGradGradGradGradGradGradGradGrad
 Berny optimization.
 FormGI is forming the generalized inverse of G from B-inverse, IUseBI=4.
 Internal  Forces:  Max     0.011044561 RMS     0.003375424
 Search for a local minimum.
 Step number   1 out of a maximum of  104
 All quantities printed in internal units (Hartrees-Bohrs-Radians)
 Mixed Optimization -- RFO/linear search
 Second derivative matrix not updated -- first step.
 ITU=  0
     Eigenvalues ---    0.00912   0.01530   0.01566   0.01711   0.01772
     Eigenvalues ---    0.01951   0.02025   0.02078   0.02112   0.02166
     Eigenvalues ---    0.02192   0.02212   0.02237   0.02447   0.02557
     Eigenvalues ---    0.02936   0.07506   0.07538   0.16000   0.16000
     Eigenvalues ---    0.16000   0.16000   0.16000   0.16000   0.16000
     Eigenvalues ---    0.16000   0.16000   0.23480   0.23491   0.25000
     Eigenvalues ---    0.25000   0.25000   0.25000   0.25000   0.25000
     Eigenvalues ---    0.25000   0.33561   0.34423   0.34424   0.34886
     Eigenvalues ---    0.35293   0.35450   0.37535   0.38420   0.41875
     Eigenvalues ---    0.43032   0.44357   0.46877   0.49265   0.50507
     Eigenvalues ---    0.52503   0.53540   0.53587   0.53631   0.56554
     Eigenvalues ---    0.58435   0.65562
 RFO step:  Lambda=-2.32673047D-03 EMin= 9.11609498D-03
 Linear search not attempted -- first point.
 Iteration  1 RMS(Cart)=  0.01607803 RMS(Int)=  0.00004158
 Iteration  2 RMS(Cart)=  0.00006364 RMS(Int)=  0.00000148
 Iteration  3 RMS(Cart)=  0.00000001 RMS(Int)=  0.00000148
 Variable       Old X    -DE/DX   Delta X   Delta X   Delta X     New X
                                 (Linear)    (Quad)   (Total)
    R1        2.64386   0.00655   0.00000   0.01432   0.01432   2.65818
    R2        2.61421   0.00844   0.00000   0.01731   0.01731   2.63152
    R3        2.04950   0.00601   0.00000   0.01683   0.01683   2.06633
    R4        2.66241   0.00624   0.00000   0.01415   0.01415   2.67656
    R5        2.52200   0.00708   0.00000   0.01207   0.01207   2.53407
    R6        2.60107   0.00884   0.00000   0.01770   0.01770   2.61878
    R7        2.05201   0.00597   0.00000   0.01680   0.01680   2.06881
    R8        2.72383   0.00617   0.00000   0.01547   0.01547   2.73930
    R9        2.57421   0.00591   0.00000   0.01122   0.01122   2.58542
   R10        2.72943   0.00663   0.00000   0.01677   0.01677   2.74620
   R11        2.69083   0.00680   0.00000   0.01614   0.01614   2.70697
   R12        2.53777   0.00630   0.00000   0.01110   0.01110   2.54887
   R13        1.83153   0.00820   0.00000   0.01524   0.01524   1.84677
   R14        2.81378   0.00216   0.00000   0.00639   0.00639   2.82017
   R15        2.46793   0.01104   0.00000   0.01679   0.01679   2.48471
   R16        2.06621   0.00544   0.00000   0.01569   0.01569   2.08191
   R17        2.06623   0.00544   0.00000   0.01569   0.01569   2.08191
   R18        2.05860   0.00549   0.00000   0.01563   0.01563   2.07422
   R19        1.86057   0.00900   0.00000   0.01773   0.01773   1.87830
   R20        1.83069   0.00791   0.00000   0.01469   0.01469   1.84539
   R21        1.83109   0.00813   0.00000   0.01510   0.01510   1.84619
    A1        2.09442   0.00055   0.00000   0.00250   0.00250   2.09692
    A2        2.07369  -0.00036   0.00000  -0.00176  -0.00176   2.07193
    A3        2.11508  -0.00019   0.00000  -0.00075  -0.00075   2.11433
    A4        2.10998  -0.00092   0.00000  -0.00337  -0.00337   2.10661
    A5        2.03276  -0.00007   0.00000  -0.00043  -0.00043   2.03233
    A6        2.14044   0.00099   0.00000   0.00380   0.00380   2.14425
    A7        2.07572   0.00040   0.00000   0.00196   0.00196   2.07768
    A8        2.10455  -0.00022   0.00000  -0.00108  -0.00108   2.10347
    A9        2.10291  -0.00018   0.00000  -0.00088  -0.00088   2.10203
   A10        2.14743   0.00035   0.00000   0.00119   0.00119   2.14863
   A11        2.10614   0.00045   0.00000   0.00190   0.00190   2.10804
   A12        2.02961  -0.00081   0.00000  -0.00309  -0.00309   2.02652
   A13        2.01314  -0.00059   0.00000  -0.00280  -0.00280   2.01034
   A14        2.13376  -0.00054   0.00000  -0.00191  -0.00191   2.13185
   A15        2.13628   0.00113   0.00000   0.00472   0.00471   2.14100
   A16        2.12568   0.00021   0.00000   0.00052   0.00052   2.12620
   A17        2.10925   0.00014   0.00000   0.00073   0.00073   2.10998
   A18        2.04826  -0.00036   0.00000  -0.00125  -0.00125   2.04701
   A19        1.94091  -0.00196   0.00000  -0.01206  -0.01206   1.92885
   A20        2.20303   0.00083   0.00000   0.00330   0.00330   2.20632
   A21        2.12943  -0.00018   0.00000  -0.00070  -0.00070   2.12873
   A22        1.95073  -0.00065   0.00000  -0.00259  -0.00259   1.94813
   A23        1.93076   0.00065   0.00000   0.00404   0.00403   1.93479
   A24        1.93079   0.00066   0.00000   0.00406   0.00406   1.93485
   A25        1.89576   0.00023   0.00000   0.00138   0.00137   1.89713
   A26        1.85569  -0.00065   0.00000  -0.00394  -0.00395   1.85174
   A27        1.92553  -0.00045   0.00000  -0.00284  -0.00284   1.92269
   A28        1.92546  -0.00045   0.00000  -0.00280  -0.00281   1.92266
   A29        1.96168  -0.00234   0.00000  -0.01443  -0.01443   1.94725
   A30        1.97633  -0.00130   0.00000  -0.00799  -0.00799   1.96834
   A31        1.96951  -0.00170   0.00000  -0.01046  -0.01046   1.95905
    D1       -0.00012  -0.00000   0.00000   0.00002   0.00002  -0.00010
    D2       -3.14140  -0.00000   0.00000  -0.00017  -0.00017  -3.14157
    D3        3.14119   0.00000   0.00000   0.00014   0.00014   3.14133
    D4       -0.00010  -0.00000   0.00000  -0.00005  -0.00005  -0.00014
    D5       -0.00070   0.00001   0.00000   0.00031   0.00031  -0.00039
    D6        3.14110   0.00000   0.00000   0.00017   0.00017   3.14128
    D7        3.14118   0.00000   0.00000   0.00019   0.00019   3.14137
    D8       -0.00020   0.00000   0.00000   0.00005   0.00005  -0.00015
    D9        0.00032  -0.00000   0.00000  -0.00014  -0.00014   0.00017
   D10       -3.14077  -0.00000   0.00000  -0.00029  -0.00029  -3.14106
   D11        3.14158   0.00000   0.00000   0.00006   0.00006  -3.14155
   D12        0.00049  -0.00000   0.00000  -0.00009  -0.00009   0.00040
   D13       -3.14147  -0.00000   0.00000   0.00002   0.00002  -3.14145
   D14        0.00044  -0.00000   0.00000  -0.00017  -0.00017   0.00027
   D15        0.00031  -0.00000   0.00000  -0.00006  -0.00006   0.00025
   D16       -3.14063  -0.00001   0.00000  -0.00067  -0.00067  -3.14130
   D17        3.14140   0.00000   0.00000   0.00008   0.00008   3.14148
   D18        0.00046  -0.00001   0.00000  -0.00052  -0.00052  -0.00007
   D19       -0.00106   0.00001   0.00000   0.00036   0.00036  -0.00069
   D20        3.13941   0.00001   0.00000   0.00062   0.00062   3.14003
   D21        3.13991   0.00002   0.00000   0.00094   0.00094   3.14086
   D22       -0.00280   0.00002   0.00000   0.00120   0.00120  -0.00160
   D23       -0.00402   0.00002   0.00000   0.00076   0.00075  -0.00326
   D24        3.13818   0.00000   0.00000   0.00019   0.00019   3.13837
   D25        0.00125  -0.00001   0.00000  -0.00049  -0.00049   0.00076
   D26       -3.14055  -0.00001   0.00000  -0.00035  -0.00035  -3.14091
   D27       -3.13922  -0.00001   0.00000  -0.00074  -0.00074  -3.13996
   D28        0.00217  -0.00001   0.00000  -0.00061  -0.00061   0.00156
   D29        3.14158   0.00001   0.00000   0.00029   0.00029  -3.14131
   D30       -0.00052   0.00002   0.00000   0.00111   0.00111   0.00059
   D31       -0.00121   0.00001   0.00000   0.00057   0.00057  -0.00065
   D32        3.13987   0.00003   0.00000   0.00138   0.00138   3.14125
   D33       -0.00004   0.00000   0.00000   0.00012   0.00012   0.00008
   D34       -3.14143   0.00000   0.00000  -0.00001  -0.00001  -3.14144
   D35       -1.02608   0.00000   0.00000   0.00033   0.00033  -1.02575
   D36        1.02557   0.00001   0.00000   0.00049   0.00049   1.02606
   D37        3.14131   0.00001   0.00000   0.00044   0.00044  -3.14144
   D38        2.11598  -0.00001   0.00000  -0.00041  -0.00042   2.11557
   D39       -2.11555  -0.00000   0.00000  -0.00026  -0.00025  -2.11581
   D40        0.00018  -0.00000   0.00000  -0.00031  -0.00031  -0.00012
   D41        0.00053   0.00000   0.00000   0.00000   0.00000   0.00053
   D42       -3.14151   0.00002   0.00000   0.00071   0.00071  -3.14080
         Item               Value     Threshold  Converged?
 Maximum Force            0.011045     0.000450     NO 
 RMS     Force            0.003375     0.000300     NO 
 Maximum Displacement     0.051832     0.001800     NO 
 RMS     Displacement     0.016096     0.001200     NO 
 Predicted change in Energy=-1.169792D-03
 GradGradGradGradGradGradGradGradGradGradGradGradGradGradGradGradGradGrad

                          Input orientation:                          
 ---------------------------------------------------------------------
 Center     Atomic      Atomic             Coordinates (Angstroms)
 Number     Number       Type             X           Y           Z
 ---------------------------------------------------------------------
      1          6           0       -1.560882   -1.272415    0.000017
      2          6           0       -2.300608   -0.075977   -0.000442
      3          6           0       -1.644998    1.179531   -0.000052
      4          6           0       -0.259658    1.215066    0.000582
      5          6           0        0.562989    0.021536    0.000567
      6          6           0       -0.168875   -1.233951    0.000745
      7          8           0        0.555357   -2.371824    0.001559
      8          6           0        1.994166    0.082292   -0.000661
      9          6           0        2.930181   -1.080052   -0.001129
     10          8           0        2.642356    1.226272   -0.001192
     11          8           0        0.410145    2.408041    0.001318
     12          8           0       -3.635884   -0.199455   -0.001106
     13          1           0       -2.100315   -2.223552   -0.000049
     14          1           0       -2.223626    2.108888    0.000091
     15          1           0       -0.032907   -3.152211    0.001466
     16          1           0        2.761200   -1.720064    0.879534
     17          1           0        2.759968   -1.720419   -0.881300
     18          1           0        3.960654   -0.702006   -0.001947
     19          1           0        2.018264    1.999869   -0.000146
     20          1           0       -0.189856    3.178504   -0.001609
     21          1           0       -4.087429    0.666895   -0.001527
 ---------------------------------------------------------------------
                    Distance matrix (angstroms):
                    1          2          3          4          5
     1  C    0.000000
     2  C    1.406648   0.000000
     3  C    2.453388   1.416377   0.000000
     4  C    2.807267   2.415010   1.385796   0.000000
     5  C    2.486994   2.865257   2.493223   1.449573   0.000000
     6  C    1.392538   2.425941   2.829105   2.450699   1.453228
     7  O    2.384779   3.664349   4.177761   3.678319   2.393373
     8  C    3.804418   4.297689   3.800980   2.522479   1.432466
     9  C    4.495180   5.326286   5.102742   3.929713   2.610957
    10  O    4.889852   5.111629   4.287610   2.902037   2.403156
    11  O    4.175010   3.676756   2.394338   1.368147   2.391394
    12  O    2.335996   1.340973   2.421823   3.660570   4.204685
    13  H    1.093457   2.156894   3.433407   3.900271   3.483333
    14  H    3.445641   2.186221   1.094767   2.157797   3.481704
    15  H    2.422466   3.821739   4.621994   4.373160   3.229205
    16  H    4.433321   5.394375   5.347514   4.302688   2.939028
    17  H    4.432513   5.393471   5.346965   4.302666   2.939186
    18  H    5.550922   6.292481   5.912996   4.635322   3.473852
    19  H    4.849550   4.791847   3.753991   2.409325   2.455937
    20  H    4.657295   3.879037   2.472516   1.964680   3.245494
    21  H    3.185022   1.935094   2.495649   3.866824   4.694984
                    6          7          8          9         10
     6  C    0.000000
     7  O    1.348803   0.000000
     8  C    2.532044   2.844796   0.000000
     9  C    3.102875   2.703418   1.492370   0.000000
    10  O    3.735736   4.159552   1.314854   2.324214   0.000000
    11  O    3.687732   4.782070   2.813935   4.303182   2.525738
    12  O    3.618056   4.720772   5.637095   6.624851   6.438090
    13  H    2.170201   2.659808   4.699116   5.158825   5.864658
    14  H    3.923846   5.272526   4.679408   6.060615   4.945381
    15  H    1.923073   0.977271   3.817204   3.615763   5.131097
    16  H    3.097405   2.461986   2.147457   1.101697   3.077449
    17  H    3.097221   2.462535   2.147498   1.101700   3.077565
    18  H    4.163650   3.792671   2.117121   1.097632   2.335843
    19  H    3.903994   4.609968   1.917728   3.212087   0.993954
    20  H    4.412506   5.600134   3.788994   5.279198   3.439860
    21  H    4.355259   5.548809   6.109628   7.231782   6.752993
                   11         12         13         14         15
    11  O    0.000000
    12  O    4.813459   0.000000
    13  H    5.268212   2.540657   0.000000
    14  H    2.650706   2.706090   4.334194   0.000000
    15  H    5.577876   4.658349   2.266404   5.698984   0.000000
    16  H    4.831146   6.634038   4.966034   6.346872   3.260228
    17  H    4.831652   6.632872   4.965088   6.346389   3.260285
    18  H    4.720012   7.613143   6.249036   6.793118   4.685301
    19  H    1.659112   6.066829   5.899151   4.243291   5.545380
    20  H    0.976537   4.825528   5.729927   2.297891   6.332661
    21  H    4.822838   0.976963   3.507607   2.356503   5.569985
                   16         17         18         19         20
    16  H    0.000000
    17  H    1.760834   0.000000
    18  H    1.803369   1.803351   0.000000
    19  H    3.894058   3.894496   3.327613   0.000000
    20  H    5.786286   5.785738   5.681997   2.502994   0.000000
    21  H    7.305995   7.304801   8.163671   6.249505   4.636729
                   21
    21  H    0.000000
 Stoichiometry    C8H9O4(1+)
 Framework group  C1[X(C8H9O4)]
 Deg. of freedom    57
 Full point group                 C1      NOp   1
 Largest Abelian subgroup         C1      NOp   1
 Largest concise Abelian subgroup C1      NOp   1
                         Standard orientation:                         
 ---------------------------------------------------------------------
 Center     Atomic      Atomic             Coordinates (Angstroms)
 Number     Number       Type             X           Y           Z
 ---------------------------------------------------------------------
      1          6           0        1.562855   -1.268887   -0.000052
      2          6           0        2.300252   -0.071012    0.000408
      3          6           0        1.642201    1.183218    0.000017
      4          6           0        0.256794    1.216058   -0.000617
      5          6           0       -0.563529    0.020930   -0.000602
      6          6           0        0.170776   -1.233130   -0.000779
      7          8           0       -0.551241   -2.372411   -0.001594
      8          6           0       -1.994822    0.078902    0.000626
      9          6           0       -2.928573   -1.085261    0.001094
     10          8           0       -2.645236    1.221619    0.001157
     11          8           0       -0.415328    2.407728   -0.001353
     12          8           0        3.635765   -0.191892    0.001071
     13          1           0        2.104137   -2.218972    0.000014
     14          1           0        2.219020    2.113699   -0.000125
     15          1           0        0.038540   -3.151652   -0.001500
     16          1           0       -2.758348   -1.724942   -0.879569
     17          1           0       -2.757116   -1.725295    0.881265
     18          1           0       -3.959780   -0.709220    0.001912
     19          1           0       -2.022651    1.996428    0.000111
     20          1           0        0.183173    3.179357    0.001574
     21          1           0        4.085624    0.675335    0.001492
 ---------------------------------------------------------------------
 Rotational constants (GHZ):      1.5067757      0.7484875      0.5016271
 Standard basis: 6-31+G(d,p) (6D, 7F)
 There are   273 symmetry adapted cartesian basis functions of A   symmetry.
 There are   273 symmetry adapted basis functions of A   symmetry.
   273 basis functions,   447 primitive gaussians,   273 cartesian basis functions
    44 alpha electrons       44 beta electrons
       nuclear repulsion energy       708.8597819127 Hartrees.
 NAtoms=   21 NActive=   21 NUniq=   21 SFac= 1.00D+00 NAtFMM=   60 NAOKFM=F Big=F
 Integral buffers will be    131072 words long.
 Raffenetti 2 integral format.
 Two-electron integral symmetry is turned on.
 One-electron integrals computed using PRISM.
 NBasis=   273 RedAO= T EigKep=  1.46D-06  NBF=   273
 NBsUse=   273 1.00D-06 EigRej= -1.00D+00 NBFU=   273
 Initial guess from the checkpoint file:  "pbeTHAPyang.chk"
 B after Tr=    -0.000000    0.000000    0.000000
         Rot=    0.999999   -0.000032   -0.000009   -0.001087 Ang=  -0.12 deg.
 ExpMin= 4.38D-02 ExpMax= 5.48D+03 ExpMxC= 8.25D+02 IAcc=2 IRadAn=         4 AccDes= 0.00D+00
 Harris functional with IExCor= 1009 and IRadAn=       4 diagonalized for initial guess.
 HarFok:  IExCor= 1009 AccDes= 0.00D+00 IRadAn=         4 IDoV= 1 UseB2=F ITyADJ=14
 ICtDFT=  3500011 ScaDFX=  1.000000  1.000000  1.000000  1.000000
 FoFCou: FMM=F IPFlag=           0 FMFlag=      100000 FMFlg1=           0
         NFxFlg=           0 DoJE=T BraDBF=F KetDBF=T FulRan=T
         wScrn=  0.000000 ICntrl=     500 IOpCl=  0 I1Cent=   200000004 NGrid=           0
         NMat0=    1 NMatS0=      1 NMatT0=    0 NMatD0=    1 NMtDS0=    0 NMtDT0=    0
 Petite list used in FoFCou.
 Keep J ints in memory in canonical form, NReq=709970467.
 Requested convergence on RMS density matrix=1.00D-08 within 128 cycles.
 Requested convergence on MAX density matrix=1.00D-06.
 Requested convergence on             energy=1.00D-06.
 No special actions if energy rises.
 SCF Done:  E(RPBE-PBE) =  -610.277906681     A.U. after   13 cycles
            NFock= 13  Conv=0.24D-08     -V/T= 2.0094
 Calling FoFJK, ICntrl=      2527 FMM=F ISym2X=0 I1Cent= 0 IOpClX= 0 NMat=1 NMatS=1 NMatT=0.
 ***** Axes restored to original set *****
 -------------------------------------------------------------------
 Center     Atomic                   Forces (Hartrees/Bohr)
 Number     Number              X              Y              Z
 -------------------------------------------------------------------
      1        6           0.000316847    0.000407958    0.000009390
      2        6           0.001713036    0.000748575   -0.000005002
      3        6           0.000352094   -0.000263639    0.000004373
      4        6          -0.001280497   -0.001633091   -0.000012381
      5        6           0.000282853    0.000184477   -0.000018165
      6        6          -0.001266852    0.001181611   -0.000000757
      7        8           0.002223953    0.000216559   -0.000008512
      8        6          -0.001434568   -0.002651968    0.000062211
      9        6          -0.001105682    0.000987301   -0.000025982
     10        8           0.002513921    0.000446353    0.000013746
     11        8           0.001278551    0.000142403   -0.000013344
     12        8          -0.000730042   -0.001476515   -0.000001254
     13        1           0.000062205   -0.000029002    0.000001584
     14        1           0.000079919    0.000079460   -0.000000648
     15        1          -0.000742861   -0.000413776    0.000000025
     16        1          -0.000110733   -0.000227154    0.000143794
     17        1          -0.000110889   -0.000235977   -0.000140991
     18        1           0.000062856   -0.000079305   -0.000000516
     19        1          -0.001593283    0.001275245   -0.000024404
     20        1          -0.000576108    0.000450571    0.000014426
     21        1           0.000065279    0.000889913    0.000002407
 -------------------------------------------------------------------
 Cartesian Forces:  Max     0.002651968 RMS     0.000844878

 GradGradGradGradGradGradGradGradGradGradGradGradGradGradGradGradGradGrad
 Berny optimization.
 Using GEDIIS/GDIIS optimizer.
 FormGI is forming the generalized inverse of G from B-inverse, IUseBI=4.
 Internal  Forces:  Max     0.001990353 RMS     0.000601827
 Search for a local minimum.
 Step number   2 out of a maximum of  104
 All quantities printed in internal units (Hartrees-Bohrs-Radians)
 Mixed Optimization -- En-DIIS/RFO-DIIS
 Update second derivatives using D2CorX and points    1    2
 DE= -1.17D-03 DEPred=-1.17D-03 R= 9.99D-01
 TightC=F SS=  1.41D+00  RLast= 7.43D-02 DXNew= 5.0454D-01 2.2296D-01
 Trust test= 9.99D-01 RLast= 7.43D-02 DXMaxT set to 3.00D-01
 ITU=  1  0
 Use linear search instead of GDIIS.
     Eigenvalues ---    0.00912   0.01529   0.01566   0.01711   0.01772
     Eigenvalues ---    0.01952   0.02025   0.02078   0.02112   0.02166
     Eigenvalues ---    0.02192   0.02212   0.02237   0.02447   0.02557
     Eigenvalues ---    0.02936   0.07464   0.07509   0.15479   0.16000
     Eigenvalues ---    0.16000   0.16000   0.16000   0.16000   0.16000
     Eigenvalues ---    0.16000   0.16016   0.23479   0.23530   0.24674
     Eigenvalues ---    0.25000   0.25000   0.25000   0.25000   0.25000
     Eigenvalues ---    0.25188   0.33394   0.34298   0.34423   0.34886
     Eigenvalues ---    0.35271   0.35435   0.38337   0.38444   0.42242
     Eigenvalues ---    0.43747   0.45393   0.46921   0.48136   0.51592
     Eigenvalues ---    0.52391   0.53467   0.53569   0.53627   0.56274
     Eigenvalues ---    0.58229   0.64463
 RFO step:  Lambda=-1.01633224D-04 EMin= 9.11609961D-03
 Quartic linear search produced a step of  0.01359.
 Iteration  1 RMS(Cart)=  0.00879472 RMS(Int)=  0.00001732
 Iteration  2 RMS(Cart)=  0.00002871 RMS(Int)=  0.00000040
 Iteration  3 RMS(Cart)=  0.00000000 RMS(Int)=  0.00000040
 Variable       Old X    -DE/DX   Delta X   Delta X   Delta X     New X
                                 (Linear)    (Quad)   (Total)
    R1        2.65818  -0.00036   0.00019  -0.00029  -0.00010   2.65808
    R2        2.63152  -0.00094   0.00024  -0.00145  -0.00121   2.63030
    R3        2.06633  -0.00001   0.00023   0.00049   0.00072   2.06706
    R4        2.67656  -0.00045   0.00019  -0.00052  -0.00033   2.67624
    R5        2.53407   0.00071   0.00016   0.00160   0.00177   2.53584
    R6        2.61878  -0.00093   0.00024  -0.00135  -0.00111   2.61767
    R7        2.06881   0.00003   0.00023   0.00058   0.00081   2.06962
    R8        2.73930  -0.00100   0.00021  -0.00219  -0.00197   2.73732
    R9        2.58542   0.00086   0.00015   0.00201   0.00216   2.58758
   R10        2.74620  -0.00169   0.00023  -0.00397  -0.00374   2.74246
   R11        2.70697  -0.00180   0.00022  -0.00386  -0.00365   2.70332
   R12        2.54887   0.00096   0.00015   0.00205   0.00221   2.55107
   R13        1.84677   0.00078   0.00021   0.00194   0.00214   1.84892
   R14        2.82017  -0.00113   0.00009  -0.00323  -0.00314   2.81703
   R15        2.48471   0.00195   0.00023   0.00352   0.00375   2.48846
   R16        2.08191   0.00027   0.00021   0.00126   0.00147   2.08338
   R17        2.08191   0.00027   0.00021   0.00127   0.00148   2.08339
   R18        2.07422   0.00003   0.00021   0.00056   0.00077   2.07500
   R19        1.87830   0.00199   0.00024   0.00453   0.00477   1.88307
   R20        1.84539   0.00071   0.00020   0.00178   0.00198   1.84737
   R21        1.84619   0.00076   0.00021   0.00190   0.00210   1.84830
    A1        2.09692  -0.00031   0.00003  -0.00119  -0.00116   2.09576
    A2        2.07193   0.00022  -0.00002   0.00101   0.00099   2.07292
    A3        2.11433   0.00009  -0.00001   0.00018   0.00017   2.11451
    A4        2.10661   0.00026  -0.00005   0.00127   0.00123   2.10783
    A5        2.03233  -0.00035  -0.00001  -0.00158  -0.00159   2.03074
    A6        2.14425   0.00009   0.00005   0.00031   0.00036   2.14461
    A7        2.07768  -0.00039   0.00003  -0.00146  -0.00143   2.07625
    A8        2.10347   0.00031  -0.00001   0.00146   0.00145   2.10492
    A9        2.10203   0.00008  -0.00001  -0.00000  -0.00002   2.10201
   A10        2.14863  -0.00006   0.00002  -0.00024  -0.00022   2.14841
   A11        2.10804   0.00029   0.00003   0.00125   0.00128   2.10932
   A12        2.02652  -0.00023  -0.00004  -0.00102  -0.00106   2.02546
   A13        2.01034   0.00051  -0.00004   0.00173   0.00170   2.01203
   A14        2.13185   0.00103  -0.00003   0.00424   0.00421   2.13606
   A15        2.14100  -0.00154   0.00006  -0.00597  -0.00591   2.13509
   A16        2.12620  -0.00000   0.00001  -0.00012  -0.00011   2.12609
   A17        2.10998   0.00113   0.00001   0.00468   0.00469   2.11467
   A18        2.04701  -0.00113  -0.00002  -0.00456  -0.00458   2.04243
   A19        1.92885  -0.00064  -0.00016  -0.00442  -0.00459   1.92426
   A20        2.20632  -0.00125   0.00004  -0.00498  -0.00494   2.20138
   A21        2.12873   0.00016  -0.00001   0.00063   0.00062   2.12935
   A22        1.94813   0.00109  -0.00004   0.00435   0.00431   1.95245
   A23        1.93479  -0.00003   0.00005  -0.00030  -0.00024   1.93455
   A24        1.93485  -0.00002   0.00006  -0.00020  -0.00015   1.93470
   A25        1.89713   0.00019   0.00002   0.00164   0.00166   1.89879
   A26        1.85174  -0.00011  -0.00005  -0.00161  -0.00166   1.85008
   A27        1.92269  -0.00002  -0.00004   0.00018   0.00015   1.92284
   A28        1.92266  -0.00002  -0.00004   0.00021   0.00017   1.92283
   A29        1.94725  -0.00082  -0.00020  -0.00566  -0.00586   1.94139
   A30        1.96834  -0.00032  -0.00011  -0.00229  -0.00240   1.96594
   A31        1.95905  -0.00087  -0.00014  -0.00583  -0.00598   1.95308
    D1       -0.00010  -0.00000   0.00000  -0.00001  -0.00001  -0.00011
    D2       -3.14157   0.00000  -0.00000   0.00004   0.00004  -3.14153
    D3        3.14133   0.00000   0.00000   0.00004   0.00004   3.14136
    D4       -0.00014   0.00000  -0.00000   0.00009   0.00009  -0.00006
    D5       -0.00039   0.00000   0.00000   0.00015   0.00016  -0.00023
    D6        3.14128   0.00000   0.00000   0.00018   0.00018   3.14146
    D7        3.14137   0.00000   0.00000   0.00010   0.00011   3.14148
    D8       -0.00015   0.00000   0.00000   0.00013   0.00013  -0.00002
    D9        0.00017   0.00000  -0.00000   0.00001   0.00001   0.00018
   D10       -3.14106   0.00000  -0.00000   0.00002   0.00002  -3.14104
   D11       -3.14155  -0.00000   0.00000  -0.00005  -0.00005   3.14159
   D12        0.00040  -0.00000  -0.00000  -0.00003  -0.00003   0.00036
   D13       -3.14145  -0.00000   0.00000  -0.00012  -0.00012  -3.14156
   D14        0.00027  -0.00000  -0.00000  -0.00006  -0.00007   0.00021
   D15        0.00025  -0.00000  -0.00000  -0.00014  -0.00015   0.00010
   D16       -3.14130   0.00000  -0.00001   0.00021   0.00020  -3.14110
   D17        3.14148  -0.00000   0.00000  -0.00016  -0.00016   3.14133
   D18       -0.00007   0.00000  -0.00001   0.00019   0.00019   0.00012
   D19       -0.00069   0.00000   0.00000   0.00027   0.00027  -0.00042
   D20        3.14003   0.00001   0.00001   0.00062   0.00063   3.14066
   D21        3.14086  -0.00000   0.00001  -0.00007  -0.00006   3.14080
   D22       -0.00160   0.00000   0.00002   0.00028   0.00030  -0.00130
   D23       -0.00326   0.00001   0.00001   0.00051   0.00052  -0.00274
   D24        3.13837   0.00002   0.00000   0.00084   0.00085   3.13921
   D25        0.00076  -0.00000  -0.00001  -0.00027  -0.00028   0.00048
   D26       -3.14091  -0.00000  -0.00000  -0.00029  -0.00030  -3.14121
   D27       -3.13996  -0.00001  -0.00001  -0.00063  -0.00064  -3.14060
   D28        0.00156  -0.00001  -0.00001  -0.00065  -0.00066   0.00090
   D29       -3.14131  -0.00000   0.00000  -0.00006  -0.00006  -3.14136
   D30        0.00059  -0.00002   0.00002  -0.00091  -0.00089  -0.00030
   D31       -0.00065   0.00000   0.00001   0.00032   0.00033  -0.00032
   D32        3.14125  -0.00001   0.00002  -0.00052  -0.00050   3.14074
   D33        0.00008  -0.00000   0.00000  -0.00002  -0.00002   0.00006
   D34       -3.14144  -0.00000  -0.00000   0.00000   0.00000  -3.14143
   D35       -1.02575   0.00008   0.00000   0.00053   0.00053  -1.02522
   D36        1.02606  -0.00009   0.00001  -0.00178  -0.00178   1.02429
   D37       -3.14144  -0.00001   0.00001  -0.00059  -0.00058   3.14117
   D38        2.11557   0.00009  -0.00001   0.00130   0.00129   2.11686
   D39       -2.11581  -0.00008  -0.00000  -0.00101  -0.00101  -2.11682
   D40       -0.00012   0.00001  -0.00000   0.00019   0.00018   0.00006
   D41        0.00053  -0.00002   0.00000  -0.00043  -0.00043   0.00010
   D42       -3.14080  -0.00003   0.00001  -0.00116  -0.00115   3.14123
         Item               Value     Threshold  Converged?
 Maximum Force            0.001990     0.000450     NO 
 RMS     Force            0.000602     0.000300     NO 
 Maximum Displacement     0.033711     0.001800     NO 
 RMS     Displacement     0.008802     0.001200     NO 
 Predicted change in Energy=-5.099699D-05
 GradGradGradGradGradGradGradGradGradGradGradGradGradGradGradGradGradGrad

                          Input orientation:                          
 ---------------------------------------------------------------------
 Center     Atomic      Atomic             Coordinates (Angstroms)
 Number     Number       Type             X           Y           Z
 ---------------------------------------------------------------------
      1          6           0       -1.555135   -1.271970   -0.000075
      2          6           0       -2.296995   -0.076913   -0.000404
      3          6           0       -1.645274    1.180423   -0.000089
      4          6           0       -0.260578    1.218157    0.000333
      5          6           0        0.563119    0.026621    0.000344
      6          6           0       -0.163890   -1.229397    0.000430
      7          8           0        0.569662   -2.362676    0.000907
      8          6           0        1.992535    0.083245   -0.000341
      9          6           0        2.918455   -1.085037   -0.000660
     10          8           0        2.645662    1.226698   -0.001364
     11          8           0        0.409400    2.412343    0.001226
     12          8           0       -3.632775   -0.205014   -0.000813
     13          1           0       -2.092097   -2.224942   -0.000114
     14          1           0       -2.225598    2.109229    0.000173
     15          1           0       -0.016887   -3.145770    0.000777
     16          1           0        2.743494   -1.724441    0.880250
     17          1           0        2.742129   -1.725238   -0.880730
     18          1           0        3.952834   -0.716590   -0.001634
     19          1           0        2.018123    2.000756   -0.001474
     20          1           0       -0.193345    3.181997   -0.000970
     21          1           0       -4.082595    0.663487   -0.001050
 ---------------------------------------------------------------------
                    Distance matrix (angstroms):
                    1          2          3          4          5
     1  C    0.000000
     2  C    1.406598   0.000000
     3  C    2.454049   1.416204   0.000000
     4  C    2.806529   2.413337   1.385210   0.000000
     5  C    2.484621   2.861987   2.491638   1.448528   0.000000
     6  C    1.391897   2.424532   2.828733   2.449463   1.451249
     7  O    2.388389   3.666392   4.178455   3.675821   2.389306
     8  C    3.797706   4.292519   3.799665   2.522805   1.430537
     9  C    4.477494   5.311989   5.095088   3.925679   2.604494
    10  O    4.887744   5.111678   4.291185   2.906253   2.403575
    11  O    4.175351   3.677087   2.395686   1.369289   2.390669
    12  O    2.335590   1.341909   2.422725   3.660208   4.202283
    13  H    1.093839   2.157780   3.434554   3.899922   3.481338
    14  H    3.447031   2.187307   1.095197   2.157617   3.480546
    15  H    2.424322   3.823190   4.622509   4.370726   3.224977
    16  H    4.411113   5.375540   5.336152   4.296229   2.931636
    17  H    4.409931   5.374451   5.335513   4.296056   2.931448
    18  H    5.535899   6.282479   5.910793   4.636388   3.470235
    19  H    4.845504   4.789253   3.754121   2.409345   2.452396
    20  H    4.657498   3.878896   2.472731   1.964991   3.244785
    21  H    3.183402   1.933019   2.491538   3.862056   4.689165
                    6          7          8          9         10
     6  C    0.000000
     7  O    1.349970   0.000000
     8  C    2.524520   2.829682   0.000000
     9  C    3.085723   2.673797   1.490707   0.000000
    10  O    3.731754   4.146491   1.316838   2.327775   0.000000
    11  O    3.686588   4.777707   2.816206   4.304303   2.531131
    12  O    3.616977   4.723979   5.632691   6.610072   6.439609
    13  H    2.170044   2.665320   4.691689   5.138581   5.861756
    14  H    3.923909   5.273652   4.679451   6.055131   4.950559
    15  H    1.922003   0.978405   3.803198   3.586482   5.119341
    16  H    3.077667   2.430254   2.146418   1.102476   3.081565
    17  H    3.076889   2.429656   2.146528   1.102484   3.081642
    18  H    4.148541   3.762374   2.117193   1.098041   2.342022
    19  H    3.898086   4.597562   1.917682   3.214454   0.996479
    20  H    4.411492   5.596925   3.792141   5.281181   3.447194
    21  H    4.351926   5.549879   6.102778   7.216096   6.751789
                   11         12         13         14         15
    11  O    0.000000
    12  O    4.815573   0.000000
    13  H    5.268956   2.540432   0.000000
    14  H    2.652376   2.708480   4.336226   0.000000
    15  H    5.574436   4.660761   2.270335   5.700300   0.000000
    16  H    4.830493   6.613753   4.940494   6.337463   3.226973
    17  H    4.831050   6.612468   4.939123   6.336990   3.226010
    18  H    4.727171   7.602840   6.230274   6.793988   4.653988
    19  H    1.660542   6.066141   5.894950   4.245108   5.534257
    20  H    0.977585   4.827165   5.730641   2.298018   6.330227
    21  H    4.820428   0.978076   3.507863   2.353425   5.571394
                   16         17         18         19         20
    16  H    0.000000
    17  H    1.760981   0.000000
    18  H    1.804436   1.804435   0.000000
    19  H    3.896241   3.896191   3.335727   0.000000
    20  H    5.785733   5.785493   5.691201   2.507173   0.000000
    21  H    7.285217   7.284004   8.153081   6.245563   4.633483
                   21
    21  H    0.000000
 Stoichiometry    C8H9O4(1+)
 Framework group  C1[X(C8H9O4)]
 Deg. of freedom    57
 Full point group                 C1      NOp   1
 Largest Abelian subgroup         C1      NOp   1
 Largest concise Abelian subgroup C1      NOp   1
                         Standard orientation:                         
 ---------------------------------------------------------------------
 Center     Atomic      Atomic             Coordinates (Angstroms)
 Number     Number       Type             X           Y           Z
 ---------------------------------------------------------------------
      1          6           0        1.557295   -1.271309   -0.000014
      2          6           0        2.298129   -0.075616    0.000315
      3          6           0        1.645329    1.181160   -0.000000
      4          6           0        0.260602    1.217706   -0.000422
      5          6           0       -0.562073    0.025464   -0.000433
      6          6           0        0.166014   -1.229930   -0.000519
      7          8           0       -0.566565   -2.363838   -0.000996
      8          6           0       -1.991537    0.080861    0.000253
      9          6           0       -2.916454   -1.088215    0.000571
     10          8           0       -2.645645    1.223753    0.001275
     11          8           0       -0.410401    2.411316   -0.001314
     12          8           0        3.634018   -0.202571    0.000724
     13          1           0        2.095075   -2.223820    0.000025
     14          1           0        2.224856    2.110464   -0.000261
     15          1           0        0.020655   -3.146429   -0.000866
     16          1           0       -2.740944   -1.727469   -0.880339
     17          1           0       -2.739579   -1.728264    0.880641
     18          1           0       -3.951149   -0.720656    0.001545
     19          1           0       -2.018770    1.998349    0.001385
     20          1           0        0.191683    3.181487    0.000882
     21          1           0        4.083093    0.666316    0.000961
 ---------------------------------------------------------------------
 Rotational constants (GHZ):      1.5074396      0.7501391      0.5024423
 Standard basis: 6-31+G(d,p) (6D, 7F)
 There are   273 symmetry adapted cartesian basis functions of A   symmetry.
 There are   273 symmetry adapted basis functions of A   symmetry.
   273 basis functions,   447 primitive gaussians,   273 cartesian basis functions
    44 alpha electrons       44 beta electrons
       nuclear repulsion energy       709.2309870011 Hartrees.
 NAtoms=   21 NActive=   21 NUniq=   21 SFac= 1.00D+00 NAtFMM=   60 NAOKFM=F Big=F
 Integral buffers will be    131072 words long.
 Raffenetti 2 integral format.
 Two-electron integral symmetry is turned on.
 One-electron integrals computed using PRISM.
 NBasis=   273 RedAO= T EigKep=  1.44D-06  NBF=   273
 NBsUse=   273 1.00D-06 EigRej= -1.00D+00 NBFU=   273
 Initial guess from the checkpoint file:  "pbeTHAPyang.chk"
 B after Tr=    -0.000000   -0.000000   -0.000000
         Rot=    1.000000    0.000015   -0.000004    0.000886 Ang=   0.10 deg.
 ExpMin= 4.38D-02 ExpMax= 5.48D+03 ExpMxC= 8.25D+02 IAcc=2 IRadAn=         4 AccDes= 0.00D+00
 Harris functional with IExCor= 1009 and IRadAn=       4 diagonalized for initial guess.
 HarFok:  IExCor= 1009 AccDes= 0.00D+00 IRadAn=         4 IDoV= 1 UseB2=F ITyADJ=14
 ICtDFT=  3500011 ScaDFX=  1.000000  1.000000  1.000000  1.000000
 FoFCou: FMM=F IPFlag=           0 FMFlag=      100000 FMFlg1=           0
         NFxFlg=           0 DoJE=T BraDBF=F KetDBF=T FulRan=T
         wScrn=  0.000000 ICntrl=     500 IOpCl=  0 I1Cent=   200000004 NGrid=           0
         NMat0=    1 NMatS0=      1 NMatT0=    0 NMatD0=    1 NMtDS0=    0 NMtDT0=    0
 Petite list used in FoFCou.
 Keep J ints in memory in canonical form, NReq=709970467.
 Requested convergence on RMS density matrix=1.00D-08 within 128 cycles.
 Requested convergence on MAX density matrix=1.00D-06.
 Requested convergence on             energy=1.00D-06.
 No special actions if energy rises.
 SCF Done:  E(RPBE-PBE) =  -610.277928002     A.U. after   12 cycles
            NFock= 12  Conv=0.52D-08     -V/T= 2.0094
 Calling FoFJK, ICntrl=      2527 FMM=F ISym2X=0 I1Cent= 0 IOpClX= 0 NMat=1 NMatS=1 NMatT=0.
 ***** Axes restored to original set *****
 -------------------------------------------------------------------
 Center     Atomic                   Forces (Hartrees/Bohr)
 Number     Number              X              Y              Z
 -------------------------------------------------------------------
      1        6           0.000193406   -0.000304162    0.000002975
      2        6           0.000852353    0.000082296    0.000002045
      3        6          -0.000035257    0.000023229   -0.000001389
[...]
 046,-0.03014325,-0.00000356,-0.04543013,-0.00872333,0.00001649,0.00833
 488,0.01262354,-0.00000154,-0.00023607,-0.00352232,0.00000106,-0.12019
 803,-0.32693583,0.00007518,-0.01148374,-0.05845048,0.00000956,-0.04127
 209,0.64031923,0.00000012,0.00000120,-0.00131758,-0.00000152,-0.000001
 63,0.00029672,0.00000219,0.00000142,-0.00023035,-0.00000235,0.00000479
 ,-0.00296749,0.00001616,0.00002040,0.01650166,0.00000470,-0.00000445,0
 .00834516,-0.00000119,0.00000100,0.00003997,0.00006044,0.00006854,-0.0
 5263418,-0.00000065,0.00000394,0.00807186,-0.00012209,-0.00005164,0.04
 806489,0.00683314,-0.00549626,0.00000067,-0.00418842,0.01587396,-0.000
 00553,-0.03210246,-0.05613353,-0.00001680,-0.15823012,-0.04975700,-0.0
 0008388,0.02587974,0.01395478,0.00000402,-0.01384717,-0.00145579,0.000
 00153,0.00327148,0.00008448,0.00000090,-0.01638947,-0.01128430,0.00000
 797,0.00082303,0.00161269,0.00000110,-0.01824247,0.03017759,-0.0000008
 2,0.42335933,0.00343014,-0.00471985,-0.00000004,0.00336979,0.01031453,
 0.00000141,-0.02213027,-0.01741403,-0.00001617,-0.10387962,-0.24844444
 ,-0.00002844,-0.00457748,-0.04591705,-0.00000737,-0.00047705,-0.001349
 01,0.00000308,0.00006064,-0.00322092,0.00000076,-0.01705789,-0.0038111
 2,0.00000548,0.00052709,-0.00204105,0.00000026,0.01854564,0.00620958,-
 0.00001513,-0.11852933,0.62270914,0.00000271,-0.00000322,-0.00145415,0
 .00000185,0.00000722,0.00927429,-0.00001310,-0.00000887,0.01106017,-0.
 00005165,0.00004555,-0.03709255,0.00002228,0.00001077,0.00189457,-0.00
 000879,0.00000393,0.00225247,0.00000177,0.00000219,0.00052858,0.000000
 79,-0.00000570,-0.00116658,0.,-0.00000289,0.00066153,-0.00001454,0.000
 00295,0.00301616,0.00053925,-0.00059494,0.02172104,-0.05466716,0.01626
 655,-0.00000915,-0.34652717,-0.04715887,-0.00003149,-0.04291746,-0.012
 60021,-0.00000181,0.00917686,-0.00274988,-0.00000174,-0.01301871,-0.00
 083769,0.00000122,0.01427348,0.00315017,0.00000051,-0.00333175,0.00262
 008,-0.00000090,0.01211790,0.00219836,-0.00000262,-0.00055909,0.002129
 36,-0.00000088,-0.00364632,-0.00562562,0.00000165,-0.00184792,-0.00200
 632,-0.00000007,0.54973554,0.04735609,0.00709804,0.00000522,0.00319803
 ,-0.11003096,0.00000801,-0.04307093,0.00096643,-0.00000329,0.00675833,
 -0.00644228,0.00000026,-0.00037366,0.00278023,-0.00000005,-0.00573905,
 -0.00763818,0.00000108,0.00382025,-0.00154254,0.00000088,-0.00040433,0
 .00021958,-0.00000013,-0.00002981,0.00010106,-0.00000022,0.00006969,0.
 00103201,0.00000007,-0.00395705,-0.00118183,0.00000004,-0.15131065,0.5
 0501850,-0.00001342,0.00000310,0.00589982,-0.00003914,0.00000135,-0.04
 302513,-0.00000240,-0.00000257,0.01169389,-0.00000204,-0.00000161,0.00
 768815,-0.00000183,-0.00000022,-0.00113532,0.00000258,0.00000219,0.004
 10356,-0.00000077,0.00000022,-0.00043200,0.00000193,0.00000033,-0.0002
 5435,-0.00000002,0.00000035,0.00015988,-0.00000051,-0.00000118,-0.0000
 4134,0.00000134,0.00000089,-0.00148159,0.00008754,-0.00008025,0.029623
 20,-0.11960759,-0.11920676,0.00000647,0.01210830,0.01501821,-0.0000016
 6,-0.00195071,0.00269423,-0.00000050,-0.00115653,0.00070863,-0.0000001
 4,-0.00383575,0.00196110,-0.00000096,-0.01103976,-0.02552542,0.0000024
 0,0.00272105,-0.00135776,0.00000132,0.00012982,-0.00143870,-0.00000066
 ,0.00003321,0.00000489,0.00000007,-0.00056052,-0.00017914,0.00000057,0
 .00045041,0.00007122,0.00000023,0.00052739,-0.00064771,0.00000056,0.12
 326485,-0.11784882,-0.26410267,0.00002405,-0.01472588,-0.01892745,0.00
 000184,0.00359068,-0.00209129,0.00000113,0.00099037,0.00014180,-0.0000
 0024,0.00074901,0.00083215,0.00000070,0.00337204,0.00167822,0.00000081
 ,0.00108557,0.00272667,-0.00000097,0.00028568,0.00013370,0.00000007,0.
 00002865,0.00006512,-0.00000011,0.00001352,0.00011928,-0.00000014,-0.0
 0026331,0.00011945,0.00000013,-0.00130311,0.00170100,-0.00000080,0.125
 78440,0.27775442,0.00000580,0.00002588,-0.02615010,0.00000444,0.000004
 36,0.00305930,-0.00000193,0.00000028,0.00393766,-0.00000052,0.00000017
 ,-0.00117305,-0.00000015,0.00000157,0.00497131,-0.00000069,-0.00000390
 ,0.00245370,0.00000026,-0.00000069,-0.00445165,-0.00000034,-0.00000062
 ,0.00112441,0.,-0.00000022,-0.00011629,-0.00000020,0.00000018,-0.00066
 717,0.00000062,-0.00000078,-0.00012391,-0.00000022,-0.00000082,-0.0026
 4569,-0.00000725,-0.00002610,0.01879542,-0.00127550,-0.00279950,0.0000
 0032,0.00934784,-0.01324280,-0.00000165,-0.13003789,0.12158739,0.00001
 165,-0.01232716,0.02642596,0.00000231,-0.00396625,-0.00249409,-0.00000
 045,-0.00093316,-0.00077818,-0.00000015,0.00030525,0.00003291,0.000000
 09,-0.00004479,0.00182069,-0.00000118,-0.00042455,-0.00033618,0.000000
 52,0.00022195,-0.00038948,-0.00000008,0.00291371,0.00109206,-0.0000009
 2,0.00268601,-0.00024523,0.00000065,0.00059073,-0.00066138,0.00000043,
 0.13524231,-0.00385898,-0.00248317,-0.00000075,0.01736652,-0.01794794,
 -0.00000120,0.12199142,-0.24948385,-0.00002282,-0.00351262,0.00207512,
 -0.00000055,-0.00092847,0.00090378,-0.00000070,-0.00111650,-0.00003058
 ,-0.00000006,0.00031279,0.00007986,0.00000002,-0.00042675,-0.00009193,
 -0.00000010,-0.00003444,0.00003860,0.00000007,0.00000894,0.00040565,-0
 .00000004,-0.00117520,0.00257989,-0.00000114,0.00077153,0.00258090,0.0
 0000105,0.00092300,-0.00086966,0.00000036,-0.12966482,0.26282500,0.000
 00065,0.00000016,0.00348783,0.00000238,0.00000214,0.00170883,0.0000130
 3,-0.00003269,-0.02395570,-0.00000099,0.00000538,0.00299817,-0.0000012
 8,-0.00000111,0.00497944,-0.00000085,-0.00000004,-0.00126697,0.0000005
 0,-0.00000060,-0.00004822,-0.00000081,0.00000078,0.00109371,-0.0000003
 3,-0.00000038,-0.00037369,0.00000056,0.00000020,-0.00003758,0.00000207
 ,-0.00000324,-0.00451352,-0.00000089,0.00000047,-0.00307252,-0.0000000
 3,0.00000018,0.00061614,-0.00001392,0.00002468,0.01682879,0.00007084,0
 .00547028,-0.00000085,-0.00057960,-0.00121568,0.00000043,0.00042654,0.
 00023799,-0.00000019,0.00037491,0.00066201,0.00000026,-0.00110449,0.00
 352543,-0.00000166,0.01336353,0.02485639,-0.00000156,-0.20946297,-0.23
 843029,0.00000247,-0.00086859,0.00056532,-0.00000008,-0.00155580,-0.00
 021368,0.00000078,0.00021919,0.00026627,-0.00000001,-0.00032735,0.0000
 6080,-0.00000044,-0.00020495,0.00009806,-0.00000003,-0.00140911,-0.001
 17689,-0.00000019,-0.00008667,-0.00016155,0.,0.20103917,-0.00359139,0.
 00570949,-0.00000161,0.00078989,-0.00291470,0.00000024,0.00110786,0.00
 116540,-0.00000003,-0.00290125,-0.00045647,0.00000033,0.00641474,-0.00
 149419,-0.00000005,-0.02095062,-0.03864856,0.00000284,-0.18729138,-0.3
 0133878,0.00001516,-0.00136614,-0.00015945,0.00000001,0.00003860,-0.00
 004256,0.00000070,0.00054687,0.00076651,-0.00000035,0.00085084,0.00030
 718,0.00000102,-0.00132362,0.00064983,-0.00000023,0.00134565,0.0003005
 7,0.00000014,0.00007255,0.00008899,0.00000012,0.20654292,0.33641689,0.
 00000077,-0.00000070,-0.00214074,0.00000002,-0.00000022,-0.00107410,0.
 00000033,-0.00000012,-0.00008093,0.00000073,0.00000077,0.00132246,-0.0
 0000233,0.00000080,0.00353629,0.00000514,0.00001142,-0.00203545,-0.000
 00563,0.00000592,-0.00842488,-0.00000029,-0.00000030,-0.00062180,0.000
 00085,-0.00000001,0.00062354,-0.00000027,-0.00000067,-0.00027334,-0.00
 000005,0.00000012,0.00004583,0.00000012,-0.00000004,0.00003003,-0.0000
 0045,-0.00000013,0.00084686,0.,-0.00000002,0.00004380,0.00000066,-0.00
 001756,0.00782358,0.00015950,-0.00016858,0.00013252,0.00035264,0.00068
 356,0.00013665,-0.00055629,-0.00075177,-0.00029952,0.00104658,-0.00094
 637,0.00097206,-0.00337587,-0.00033602,0.00110173,-0.00145040,0.003970
 14,-0.00038160,-0.00092484,-0.00234912,-0.00087618,0.00606992,0.007844
 50,-0.01876411,-0.04913496,-0.02042704,0.03505543,-0.00119235,0.001861
 62,0.00044076,-0.00000595,0.00031601,0.00011479,-0.00048745,-0.0000900
 4,0.00000931,-0.00003938,-0.00003571,-0.00005662,0.00000803,-0.0000074
 8,-0.00007957,0.00000449,-0.00025330,0.00025361,0.05035941,-0.00007837
 ,-0.00004364,0.00022140,0.00032816,0.00010884,0.00005042,-0.00017279,-
 0.00026851,0.00019163,0.00037520,-0.00088717,-0.00075552,-0.00171168,0
 .00006792,-0.00120794,0.00009112,0.00172960,0.00046074,-0.00045596,-0.
 00131059,-0.00088515,-0.00285394,-0.01770524,0.01907142,-0.02327386,-0
 .12297214,0.12745886,0.00308083,-0.00263575,0.00019441,0.00035586,0.00
 034361,-0.00011473,-0.00038314,-0.00002314,-0.00004764,-0.00003451,-0.
 00000211,-0.00002298,-0.00001812,0.00000007,0.00005257,-0.00030441,0.0
 0005342,-0.00015901,0.02387828,0.14008781,0.00057271,-0.00044248,-0.00
 022843,-0.00021286,0.00038288,-0.00005684,-0.00008112,-0.00006867,0.00
 001709,-0.00002964,0.00017701,0.00015342,0.00027208,0.00017607,0.00075
 180,-0.00061509,0.00119081,0.00004561,0.00087201,-0.00047355,0.0003183
 8,-0.00090470,-0.00181885,0.00121642,0.03430664,0.12651669,-0.20507209
 ,-0.00019896,-0.00197628,-0.00081508,-0.00001310,-0.00024407,-0.000102
 74,0.00025075,-0.00007479,0.00000241,-0.00002792,-0.00001873,0.0000439
 6,-0.00000340,-0.00000904,-0.00000801,0.00045900,0.00002085,-0.0000127
 4,-0.03745782,-0.13482680,0.22320863,0.00015853,-0.00016837,-0.0001323
 4,0.00035267,0.00068259,-0.00013679,-0.00055565,-0.00075128,0.00029976
 ,0.00104523,-0.00094705,-0.00097217,-0.00337522,-0.00033622,-0.0010990
 1,-0.00145033,0.00397085,0.00038056,-0.00092888,-0.00235180,0.00087775
 ,0.00608959,0.00784815,0.01875548,-0.04920654,-0.02055893,-0.03519049,
 -0.00119296,0.00186604,-0.00044182,-0.00000608,0.00031621,-0.00011346,
 -0.00048753,-0.00008996,-0.00000943,-0.00003943,-0.00003564,0.00005687
 ,0.00000792,-0.00000752,0.00007955,0.00000351,-0.00025404,-0.00025300,
 -0.00010021,0.00139476,0.00339926,0.05043714,-0.00007857,-0.00004338,-
 0.00022127,0.00032857,0.00010891,-0.00005046,-0.00017298,-0.00026899,-
 0.00019106,0.00037601,-0.00088695,0.00075483,-0.00171168,0.00006705,0.
 00120883,0.00009093,0.00172971,-0.00046117,-0.00045722,-0.00131146,0.0
 0088585,-0.00287227,-0.01771143,-0.01905643,-0.02340934,-0.12310512,-0
 .12748232,0.00308172,-0.00263660,-0.00019757,0.00035643,0.00034381,0.0
 0011527,-0.00038357,-0.00002309,0.00004753,-0.00003451,-0.00000209,0.0
 0002303,-0.00001805,0.00000009,-0.00005258,-0.00030491,0.00005323,0.00
 015926,0.00140664,0.00908500,0.01445367,0.02402537,0.14022967,-0.00057
 317,0.00044263,-0.00022858,0.00021231,-0.00038410,-0.00005666,0.000082
 23,0.00006965,0.00001692,0.00002791,-0.00017519,0.00015386,-0.00026702
 ,-0.00017603,0.00075217,0.00061682,-0.00119546,0.00004660,-0.00087110,
 0.00047779,0.00031770,0.00089980,0.00182361,0.00120696,-0.03443989,-0.
 12654657,-0.20488690,0.00019782,0.00197589,-0.00081506,0.00001256,0.00
 024368,-0.00010247,-0.00025002,0.00007492,0.00000231,0.00002793,0.0000
 1880,0.00004394,0.00000341,0.00000905,-0.00000802,-0.00045890,-0.00002
 097,-0.00001221,-0.00341990,-0.01447046,-0.02019705,0.03760977,0.13485
 102,0.22300876,-0.00006003,-0.00000797,-0.00000023,0.00010033,-0.00004
 357,0.00000012,-0.00001167,0.00038917,-0.00000017,-0.00079542,-0.00092
 563,0.00000064,0.00027925,0.00315217,0.00000042,0.00039170,-0.00005657
 ,0.00000002,-0.00020324,-0.00043460,0.00000043,-0.02198837,-0.00616815
 ,0.00001059,-0.28367515,-0.08561810,0.00012998,0.00206969,-0.00274962,
 -0.00000093,0.00053152,0.00008196,-0.00000032,-0.00004918,0.00000332,0
 .,-0.00000197,-0.00000631,0.,-0.00008469,0.00000094,-0.00000009,-0.000
 04747,0.00018707,0.00000012,-0.00129785,0.00002806,-0.00055498,-0.0013
 1727,0.00002272,0.00055720,0.30604368,-0.00036383,0.00041092,-0.000000
 18,-0.00007003,-0.00039254,-0.00000004,0.00025330,-0.00034055,-0.00000
 008,0.00110455,0.00079368,-0.00000003,0.00123854,-0.00454387,0.0000008
 5,0.00033322,-0.00165351,0.00000017,-0.00172071,0.00012122,0.00000078,
 0.02846319,0.00783828,-0.00001554,-0.09266102,-0.07866199,0.00004870,0
 .00055334,0.00061013,-0.00000042,-0.00021019,0.00001860,0.00000027,0.0
 0001275,0.00007681,0.,0.00005089,0.00001948,0.00000001,0.00015810,0.00
 001989,0.00000005,-0.00042048,0.00009570,0.00000016,-0.01469126,-0.004
 86401,-0.00273852,-0.01469870,-0.00486494,0.00275536,0.09223880,0.0854
 0893,0.,-0.00000005,-0.00024056,-0.00000003,-0.00000012,0.00005111,0.0
 0000014,-0.00000020,-0.00023219,0.00000021,0.00000100,0.00090429,0.000
 00059,-0.00000064,0.00188763,0.00000002,-0.00000030,-0.00032748,-0.000
 00012,0.00000097,0.00092676,0.00000140,0.00000223,-0.00228346,0.000131
 81,0.00004441,-0.04460618,-0.00000106,0.00000059,-0.00082733,-0.000000
 60,-0.00000008,-0.00010399,0.00000002,0.00000001,-0.00000125,-0.000000
 02,0.00000001,0.00002563,0.00000006,0.00000002,-0.00007812,0.00000018,
 -0.00000018,0.00008703,0.02234335,0.00609759,0.00128855,-0.02233339,-0
 .00609405,0.00131074,-0.00014249,-0.00005110,0.04244170,-0.00288552,0.
 00252326,-0.00000020,0.00101771,-0.00392438,0.00000142,0.00354071,0.00
 402925,0.00000376,-0.00815836,-0.02532631,-0.00000229,-0.01161351,-0.0
 0100712,0.00000186,0.00338555,0.00305688,-0.00000114,-0.00067638,0.000
 39968,-0.00000016,0.03263470,-0.00912896,-0.00001060,-0.00228801,-0.00
 458366,0.00000390,-0.19540434,0.17821828,0.00004045,0.00278703,0.00453
 913,0.00002766,-0.00090098,0.00094631,-0.00000069,-0.00015210,0.000083
 80,0.00000004,-0.00046417,0.00024395,-0.00000014,0.00007167,0.00003150
 ,-0.00000017,0.00046980,-0.00037998,-0.00001576,0.00047018,-0.00037959
 ,0.00001520,0.00000793,0.00050896,-0.00000011,0.17293685,0.00227001,-0
 .00127376,0.00000054,-0.00199971,0.00240597,-0.00000173,-0.00153614,-0
 .00330337,-0.00000052,-0.00530359,0.01634684,0.00000315,0.00838620,0.0
 0160210,-0.00000256,-0.00176481,-0.00405291,0.00000028,0.00015847,0.00
 098506,-0.00000017,0.01016448,-0.04438061,0.00000151,-0.00276415,-0.00
 032086,0.00000332,0.15015617,-0.23303414,-0.00002824,-0.00509307,-0.01
 453078,-0.00000036,0.00164053,-0.00067209,0.00000055,0.00022113,-0.000
 04677,0.,0.00041213,-0.00008319,0.00000010,-0.00008009,-0.00016711,0.0
 0000016,0.00024088,-0.00068322,-0.00028811,0.00024060,-0.00068253,0.00
 028809,-0.00011820,-0.00010557,-0.00000011,-0.15549815,0.28355946,0.00
 000039,-0.00000071,0.00018852,-0.00000078,0.00000052,0.00026846,-0.000
 00095,-0.00000147,0.00057757,-0.00000198,0.00000480,-0.00012881,0.0000
 0230,-0.00000039,-0.00255364,-0.00000115,-0.00000081,-0.00097086,0.000
 00046,-0.00000011,-0.00014498,-0.00001480,0.00000926,-0.00126317,0.000
 00574,0.00000356,0.01098775,0.00004553,-0.00003936,-0.02490053,0.00002
 022,0.00001218,-0.00200334,0.00000046,-0.00000042,-0.00011252,0.,-0.00
 000003,0.00011466,0.00000038,-0.00000006,-0.00003306,-0.00000007,-0.00
 000004,0.00008785,0.00086361,-0.00139708,-0.00062490,-0.00086504,0.001
 39629,-0.00062462,-0.00000035,-0.00000043,-0.00028065,-0.00004252,0.00
 002287,0.02278663,0.00057531,-0.00024389,0.00000096,-0.00067236,0.0012
 4448,-0.00000018,0.00051519,-0.00508311,-0.00000080,0.01557019,-0.0177
 0243,0.00003859,-0.00002120,-0.00401399,-0.00000148,0.00012037,-0.0009
 1802,-0.00000113,-0.00024369,-0.00008329,-0.00000027,-0.00278589,-0.00
 237551,0.00000185,0.00012712,0.00022655,-0.00000128,-0.00348528,0.0039
 0790,0.00000465,-0.22271505,0.23541067,-0.00050826,-0.00022196,0.00000
 482,0.00000019,-0.00008684,0.00013524,-0.00000050,-0.00123616,0.001057
 57,0.00000097,0.00004740,-0.00006220,-0.00000011,0.00003499,0.00008811
 ,0.00000440,0.00003514,0.00008789,-0.00000433,0.00009474,-0.00005604,0
 .00000004,0.00544752,0.00032232,-0.00001148,0.20905105,-0.00101453,0.0
 0102998,0.00000052,-0.00045072,-0.00264030,-0.00000512,0.00279541,0.00
 545898,-0.00000186,0.02168135,-0.03354984,0.00004379,-0.00627289,-0.00
 142134,0.00000655,0.00299274,-0.00047372,-0.00000198,-0.00089523,0.000
 29281,-0.00000049,0.00076883,-0.00041688,-0.00000100,-0.00010077,0.000
 45206,0.00000006,-0.00309559,0.00290627,0.00000360,0.19012703,-0.29994
 883,0.00054276,0.00113574,0.00060672,0.00000069,-0.00009418,0.00005777
 ,0.00000035,-0.00143305,0.00011301,0.00000454,0.00007136,-0.00030153,0
 .00000016,-0.00006482,-0.00003605,0.00003859,-0.00006492,-0.00003611,-
 0.00003852,0.00002078,0.00001954,0.,0.00595331,-0.00185354,-0.00000869
 ,-0.21169156,0.32966125,-0.00000021,0.00000097,-0.00007086,-0.00000119
 ,-0.00000152,-0.00089011,0.00000150,-0.00000338,-0.00176593,0.00000221
 ,-0.00004082,-0.00297825,-0.00001149,-0.00000710,0.00317766,0.00000361
 ,-0.00000167,0.00131491,-0.00000060,-0.00000213,0.00001550,0.00000266,
 0.00000497,-0.00074893,-0.00000030,0.00000063,-0.00055042,0.00001627,-
 0.00001015,0.00113397,-0.00047164,0.00064261,-0.00251017,-0.00000086,-
 0.00000080,0.00018888,-0.00000004,-0.00000020,0.00005110,0.00000240,0.
 00000186,0.00083588,0.00000022,-0.00000047,0.00002487,-0.00005138,0.00
 010264,0.00003883,0.00005079,-0.00010306,0.00003883,0.00000003,-0.0000
 0003,0.00003750,-0.00002054,0.00000130,-0.00142411,0.00047833,-0.00058
 382,0.00397834,-0.00469653,-0.00373554,-0.00000049,-0.02742350,0.04249
 506,-0.00000838,0.00397886,0.00102553,0.00000069,-0.00180750,0.0001217
 1,0.00000025,0.00146460,-0.00030434,-0.00000020,-0.00063023,0.00224178
 ,-0.00000090,-0.00029117,-0.00064296,0.00000021,-0.00140107,-0.0004427
 0,0.00000035,0.00011339,-0.00026917,0.00000014,0.00052347,0.00053042,-
 0.00000023,0.00105306,0.00083659,0.00000024,-0.11964953,0.14370351,-0.
 00003381,0.00005394,-0.00006189,0.00000017,-0.00044276,-0.00178233,-0.
 00000082,0.00002576,0.00006547,-0.00000004,0.00006019,0.00004638,-0.00
 002150,0.00006017,0.00004642,0.00002138,0.00001349,-0.00002339,-0.0000
 0001,-0.00022629,-0.00005502,0.00000003,-0.00015057,-0.00036828,0.0000
 0023,0.14937222,-0.00241226,0.00218391,0.,-0.00586737,0.00282701,-0.00
 000160,-0.00523024,0.00264338,-0.00000009,0.00069066,-0.00087150,-0.00
 000026,-0.00140897,-0.00008628,0.00000034,0.00155983,0.00038593,0.0000
 0018,-0.00020574,0.00016507,-0.00000017,0.00156646,0.00032622,-0.00000
 030,-0.00000443,0.00029118,-0.00000020,-0.00042707,-0.00091360,0.00000
 024,-0.00003862,-0.00036688,-0.00000024,0.19575760,-0.39527700,0.00007
 626,-0.00026466,0.00039241,-0.00000023,0.00047910,-0.00072055,-0.00000
 072,-0.00004886,-0.00008385,0.00000002,-0.00008013,-0.00004473,0.00002
 330,-0.00008013,-0.00004480,-0.00002318,0.00000374,-0.00000620,0.,-0.0
 0030614,0.00029101,0.00000014,-0.00025552,0.00007973,0.00000019,-0.183
 42726,0.38882955,-0.00000129,0.00000025,0.00453417,-0.00000072,0.00000
 353,-0.00409203,0.00000096,0.00000061,-0.00212853,0.00000005,0.0000004
 5,-0.00107918,0.00000039,-0.00000024,-0.00010722,-0.00000020,0.0000007
 9,0.00286632,0.00000017,-0.00000035,-0.00102280,-0.00000031,-0.0000000
 9,0.00003200,-0.00000005,-0.00000009,-0.00016659,0.00000017,0.00000017
 ,0.00005666,0.00000019,-0.00000019,0.00020036,-0.00004161,0.00006986,-
 0.00719038,0.00000009,-0.00000027,-0.00075624,-0.00000044,-0.00000065,
 0.00080282,-0.00000003,0.00000006,0.00020406,-0.00003709,-0.00001436,0
 .00003280,0.00003713,0.00001439,0.00003278,0.00000002,0.,0.00002027,0.
 00000003,-0.00000006,0.00005377,-0.00000014,-0.00000013,0.00010250,0.0
 0004268,-0.00007367,0.00760446\\0.00000311,0.00003084,-0.00000087,-0.0
 0001365,-0.00000913,0.00000027,0.00003180,-0.00002680,0.00000028,-0.00
 000692,0.00004327,-0.00000390,-0.00000739,-0.00003677,0.00000002,0.000
 01405,-0.00000824,-0.00000044,0.00000226,0.00002042,0.00000154,-0.0000
 2605,0.00000056,0.00000120,0.00000268,-0.00004366,-0.00000113,0.000032
 16,-0.00001090,-0.00000168,-0.00000327,-0.00004063,0.00001254,0.000010
 29,-0.00000479,0.00000017,0.00000441,-0.00000039,0.00000021,-0.0000039
 8,0.00000486,0.00000159,-0.00001418,-0.00002243,-0.00000050,0.00000273
 ,0.00000903,0.00000183,0.00000367,0.00000790,-0.00000200,-0.00000108,-
 0.00000315,-0.00000039,-0.00000875,0.00004574,0.,-0.00000499,0.0000214
 2,-0.00000825,-0.00001690,0.00002285,-0.00000048\\\@


 I do not feel obliged to believe that the same God who
 has endowed us with sense, reason, and intellect has
 intended us to forgo their use.
                   --Galileo Galilei
 Job cpu time:       0 days  0 hours 35 minutes 43.9 seconds.
 File lengths (MBytes):  RWF=    167 Int=      0 D2E=      0 Chk=      7 Scr=      1
 Normal termination of Gaussian 09 at Sun Jun 16 16:22:54 2024.
