 Entering Gaussian System, Link 0=g09
 Input=WB97XDTHAP.gjf
 Output=WB97XDTHAP.log
 Initial command:
 /home/phzd/g09E/g09/l1.exe "/home/phzd/g09E/scratch/Gau-33388.inp" -scrdir="/home/phzd/g09E/scratch/"
 Default is to use a total of  18 processors:
                               18 via shared-memory
                                1 via Linda
 Entering Link 1 = /home/phzd/g09E/g09/l1.exe PID=     33390.
  
 Copyright (c) 1988,1990,1992,1993,1995,1998,2003,2009,2015,
            Gaussian, Inc.  All Rights Reserved.
  
 This is part of the Gaussian(R) 09 program.  It is based on
 the Gaussian(R) 03 system (copyright 2003, Gaussian, Inc.),
 the Gaussian(R) 98 system (copyright 1998, Gaussian, Inc.),
 the Gaussian(R) 94 system (copyright 1995, Gaussian, Inc.),
 the Gaussian 92(TM) system (copyright 1992, Gaussian, Inc.),
 the Gaussian 90(TM) system (copyright 1990, Gaussian, Inc.),
 the Gaussian 88(TM) system (copyright 1988, Gaussian, Inc.),
 the Gaussian 86(TM) system (copyright 1986, Carnegie Mellon
 University), and the Gaussian 82(TM) system (copyright 1983,
 Carnegie Mellon University). Gaussian is a federally registered
 trademark of Gaussian, Inc.
  
 This software contains proprietary and confidential information,
 including trade secrets, belonging to Gaussian, Inc.
  
 This software is provided under written license and may be
 used, copied, transmitted, or stored only in accord with that
 written license.
  
 The following legend is applicable only to US Government
 contracts under FAR:
  
                    RESTRICTED RIGHTS LEGEND
  
 Use, reproduction and disclosure by the US Government is
 subject to restrictions as set forth in subparagraphs (a)
 and (c) of the Commercial Computer Software - Restricted
 Rights clause in FAR 52.227-19.
  
 Gaussian, Inc.
 340 Quinnipiac St., Bldg. 40, Wallingford CT 06492
  
  
 ---------------------------------------------------------------
 Warning -- This program may not be used in any manner that
 competes with the business of Gaussian, Inc. or will provide
 assistance to any competitor of Gaussian, Inc.  The licensee
 of this program is prohibited from giving any competitor of
 Gaussian, Inc. access to this program.  By using this program,
 the user acknowledges that Gaussian, Inc. is engaged in the
 business of creating and licensing software in the field of
 computational chemistry and represents and warrants to the
 licensee that it is not a competitor of Gaussian, Inc. and that
 it will not use this program in any manner prohibited above.
 ---------------------------------------------------------------
  

 Cite this work as:
 Gaussian 09, Revision E.01,
 M. J. Frisch, G. W. Trucks, H. B. Schlegel, G. E. Scuseria, 
 M. A. Robb, J. R. Cheeseman, G. Scalmani, V. Barone, B. Mennucci, 
 G. A. Petersson, H. Nakatsuji, M. Caricato, X. Li, H. P. Hratchian, 
 A. F. Izmaylov, J. Bloino, G. Zheng, J. L. Sonnenberg, M. Hada, 
 M. Ehara, K. Toyota, R. Fukuda, J. Hasegawa, M. Ishida, T. Nakajima, 
 Y. Honda, O. Kitao, H. Nakai, T. Vreven, J. A. Montgomery, Jr., 
 J. E. Peralta, F. Ogliaro, M. Bearpark, J. J. Heyd, E. Brothers, 
 K. N. Kudin, V. N. Staroverov, T. Keith, R. Kobayashi, J. Normand, 
 K. Raghavachari, A. Rendell, J. C. Burant, S. S. Iyengar, J. Tomasi, 
 M. Cossi, N. Rega, J. M. Millam, M. Klene, J. E. Knox, J. B. Cross, 
 V. Bakken, C. Adamo, J. Jaramillo, R. Gomperts, R. E. Stratmann, 
 O. Yazyev, A. J. Austin, R. Cammi, C. Pomelli, J. W. Ochterski, 
 R. L. Martin, K. Morokuma, V. G. Zakrzewski, G. A. Voth, 
 P. Salvador, J. J. Dannenberg, S. Dapprich, A. D. Daniels, 
 O. Farkas, J. B. Foresman, J. V. Ortiz, J. Cioslowski, 
 and D. J. Fox, Gaussian, Inc., Wallingford CT, 2013.
 
 ******************************************
 Gaussian 09:  ES64L-G09RevE.01 30-Nov-2015
                16-Jun-2024 
 ******************************************
 %chk=WB97XDTHAP.chk
 -----------------------------
 # opt freq wb97xd/6-31+g(d,p)
 -----------------------------
 1/14=-1,18=20,19=15,26=3,38=1/1,3;
 2/9=110,12=2,17=6,18=5,40=1/2;
 3/5=1,6=6,7=111,11=2,16=1,25=1,30=1,71=1,74=-58/1,2,3;
 4//1;
 5/5=2,38=5/2;
 6/7=2,8=2,9=2,10=2,28=1/1;
 7//1,2,3,16;
 1/14=-1,18=20,19=15,26=3/3(2);
 2/9=110/2;
 99//99;
 2/9=110/2;
 3/5=1,6=6,7=111,11=2,16=1,25=1,30=1,71=1,74=-58/1,2,3;
 4/5=5,16=3,69=1/1;
 5/5=2,38=5/2;
 7//1,2,3,16;
 1/14=-1,18=20,19=15,26=3/3(-5);
 2/9=110/2;
 6/7=2,8=2,9=2,10=2,19=2,28=1/1;
 99/9=1/99;
 ----------
 [No Title]
 ----------
 Symbolic Z-matrix:
 Charge =  0 Multiplicity = 1
 C                    -1.52736  -1.25049  -0.00003 
 C                    -2.2612   -0.05687  -0.00007 
 C                    -1.62616   1.17895   0.00009 
 C                    -0.22825   1.23123   0.00012 
 C                     0.56843   0.03681   0.00014 
 C                    -0.14091  -1.19647   0.00009 
 O                     0.57987  -2.35647   0.00019 
 C                     2.0278    0.16723   0.00003 
 C                     2.95484  -1.02296  -0.00005 
 O                     2.5513    1.3033   -0.00027 
 O                     0.3372    2.43939   0.00013 
 O                    -3.61643  -0.18009  -0.00009 
 H                    -2.05507  -2.19868   0.00013 
 H                    -2.18059   2.11154   0.00017 
 H                    -0.02727  -3.10829  -0.00081 
 H                     2.78064  -1.65352  -0.87589 
 H                     3.97881  -0.64802  -0.00032 
 H                     2.78121  -1.65351   0.8759 
 H                     1.33103   2.28191   0.00002 
 H                    -4.02736   0.69499  -0.00075 
 

 GradGradGradGradGradGradGradGradGradGradGradGradGradGradGradGradGradGrad
 Berny optimization.
 Initialization pass.
                           ----------------------------
                           !    Initial Parameters    !
                           ! (Angstroms and Degrees)  !
 --------------------------                            --------------------------
 ! Name  Definition              Value          Derivative Info.                !
 --------------------------------------------------------------------------------
 ! R1    R(1,2)                  1.4012         estimate D2E/DX2                !
 ! R2    R(1,6)                  1.3875         estimate D2E/DX2                !
 ! R3    R(1,13)                 1.0852         estimate D2E/DX2                !
 ! R4    R(2,3)                  1.3894         estimate D2E/DX2                !
 ! R5    R(2,12)                 1.3608         estimate D2E/DX2                !
 ! R6    R(3,4)                  1.3989         estimate D2E/DX2                !
 ! R7    R(3,14)                 1.0849         estimate D2E/DX2                !
 ! R8    R(4,5)                  1.4357         estimate D2E/DX2                !
 ! R9    R(4,11)                 1.3339         estimate D2E/DX2                !
 ! R10   R(5,6)                  1.4227         estimate D2E/DX2                !
 ! R11   R(5,8)                  1.4652         estimate D2E/DX2                !
 ! R12   R(6,7)                  1.3657         estimate D2E/DX2                !
 ! R13   R(7,15)                 0.9664         estimate D2E/DX2                !
 ! R14   R(8,9)                  1.5086         estimate D2E/DX2                !
 ! R15   R(8,10)                 1.2509         estimate D2E/DX2                !
 ! R16   R(9,16)                 1.0932         estimate D2E/DX2                !
 ! R17   R(9,17)                 1.0905         estimate D2E/DX2                !
 ! R18   R(9,18)                 1.0932         estimate D2E/DX2                !
 ! R19   R(11,19)                1.0062         estimate D2E/DX2                !
 ! R20   R(12,20)                0.9668         estimate D2E/DX2                !
 ! A1    A(2,1,6)              119.3522         estimate D2E/DX2                !
 ! A2    A(2,1,13)             119.3188         estimate D2E/DX2                !
 ! A3    A(6,1,13)             121.329          estimate D2E/DX2                !
 ! A4    A(1,2,3)              121.2197         estimate D2E/DX2                !
 ! A5    A(1,2,12)             116.3882         estimate D2E/DX2                !
 ! A6    A(3,2,12)             122.3921         estimate D2E/DX2                !
 ! A7    A(2,3,4)              119.3383         estimate D2E/DX2                !
 ! A8    A(2,3,14)             122.0716         estimate D2E/DX2                !
 ! A9    A(4,3,14)             118.5901         estimate D2E/DX2                !
 ! A10   A(3,4,5)              121.5617         estimate D2E/DX2                !
 ! A11   A(3,4,11)             117.222          estimate D2E/DX2                !
 ! A12   A(5,4,11)             121.2162         estimate D2E/DX2                !
 ! A13   A(4,5,6)              116.3907         estimate D2E/DX2                !
 ! A14   A(4,5,8)              118.5967         estimate D2E/DX2                !
 ! A15   A(6,5,8)              125.0126         estimate D2E/DX2                !
 ! A16   A(1,6,5)              122.1373         estimate D2E/DX2                !
 ! A17   A(1,6,7)              119.6239         estimate D2E/DX2                !
 ! A18   A(5,6,7)              118.2388         estimate D2E/DX2                !
 ! A19   A(6,7,15)             109.222          estimate D2E/DX2                !
 ! A20   A(5,8,9)              122.8085         estimate D2E/DX2                !
 ! A21   A(5,8,10)             119.8469         estimate D2E/DX2                !
 ! A22   A(9,8,10)             117.3446         estimate D2E/DX2                !
 ! A23   A(8,9,16)             110.9272         estimate D2E/DX2                !
 ! A24   A(8,9,17)             107.8044         estimate D2E/DX2                !
 ! A25   A(8,9,18)             110.9414         estimate D2E/DX2                !
 ! A26   A(16,9,17)            110.3508         estimate D2E/DX2                !
 ! A27   A(16,9,18)            106.4966         estimate D2E/DX2                !
 ! A28   A(17,9,18)            110.3451         estimate D2E/DX2                !
 ! A29   A(4,11,19)            106.0763         estimate D2E/DX2                !
 ! A30   A(2,12,20)            109.9589         estimate D2E/DX2                !
 ! D1    D(6,1,2,3)             -0.0037         estimate D2E/DX2                !
 ! D2    D(6,1,2,12)          -179.9956         estimate D2E/DX2                !
 ! D3    D(13,1,2,3)           179.983          estimate D2E/DX2                !
 ! D4    D(13,1,2,12)           -0.0089         estimate D2E/DX2                !
 ! D5    D(2,1,6,5)             -0.0017         estimate D2E/DX2                !
 ! D6    D(2,1,6,7)            179.9968         estimate D2E/DX2                !
 ! D7    D(13,1,6,5)          -179.9882         estimate D2E/DX2                !
 ! D8    D(13,1,6,7)             0.0104         estimate D2E/DX2                !
 ! D9    D(1,2,3,4)              0.008          estimate D2E/DX2                !
 ! D10   D(1,2,3,14)          -179.9936         estimate D2E/DX2                !
 ! D11   D(12,2,3,4)           179.9994         estimate D2E/DX2                !
 ! D12   D(12,2,3,14)           -0.0022         estimate D2E/DX2                !
 ! D13   D(1,2,12,20)         -179.9596         estimate D2E/DX2                !
 ! D14   D(3,2,12,20)            0.0486         estimate D2E/DX2                !
 ! D15   D(2,3,4,5)             -0.0071         estimate D2E/DX2                !
 ! D16   D(2,3,4,11)           179.9932         estimate D2E/DX2                !
 ! D17   D(14,3,4,5)           179.9945         estimate D2E/DX2                !
 ! D18   D(14,3,4,11)           -0.0053         estimate D2E/DX2                !
 ! D19   D(3,4,5,6)              0.0018         estimate D2E/DX2                !
 ! D20   D(3,4,5,8)            179.9941         estimate D2E/DX2                !
 ! D21   D(11,4,5,6)          -179.9984         estimate D2E/DX2                !
 ! D22   D(11,4,5,8)            -0.0062         estimate D2E/DX2                !
 ! D23   D(3,4,11,19)         -179.9926         estimate D2E/DX2                !
 ! D24   D(5,4,11,19)            0.0076         estimate D2E/DX2                !
 ! D25   D(4,5,6,1)              0.0026         estimate D2E/DX2                !
 ! D26   D(4,5,6,7)           -179.996          estimate D2E/DX2                !
 ! D27   D(8,5,6,1)           -179.9891         estimate D2E/DX2                !
 ! D28   D(8,5,6,7)              0.0123         estimate D2E/DX2                !
 ! D29   D(4,5,8,9)           -179.9958         estimate D2E/DX2                !
 ! D30   D(4,5,8,10)            -0.01           estimate D2E/DX2                !
 ! D31   D(6,5,8,9)             -0.0042         estimate D2E/DX2                !
 ! D32   D(6,5,8,10)           179.9815         estimate D2E/DX2                !
 ! D33   D(1,6,7,15)             0.0609         estimate D2E/DX2                !
 ! D34   D(5,6,7,15)          -179.9405         estimate D2E/DX2                !
 ! D35   D(5,8,9,16)            59.0671         estimate D2E/DX2                !
 ! D36   D(5,8,9,17)           179.9889         estimate D2E/DX2                !
 ! D37   D(5,8,9,18)           -59.0878         estimate D2E/DX2                !
 ! D38   D(10,8,9,16)         -120.919          estimate D2E/DX2                !
 ! D39   D(10,8,9,17)            0.0028         estimate D2E/DX2                !
 ! D40   D(10,8,9,18)          120.9261         estimate D2E/DX2                !
 --------------------------------------------------------------------------------
 Trust Radius=3.00D-01 FncErr=1.00D-07 GrdErr=1.00D-06
 Number of steps in this run=    100 maximum allowed number of steps=    120.
 GradGradGradGradGradGradGradGradGradGradGradGradGradGradGradGradGradGrad

                          Input orientation:                          
 ---------------------------------------------------------------------
 Center     Atomic      Atomic             Coordinates (Angstroms)
 Number     Number       Type             X           Y           Z
 ---------------------------------------------------------------------
      1          6           0       -1.527361   -1.250486   -0.000029
      2          6           0       -2.261204   -0.056870   -0.000066
      3          6           0       -1.626164    1.178953    0.000089
      4          6           0       -0.228245    1.231227    0.000115
      5          6           0        0.568429    0.036812    0.000136
      6          6           0       -0.140911   -1.196467    0.000088
      7          8           0        0.579870   -2.356472    0.000190
      8          6           0        2.027800    0.167227    0.000030
      9          6           0        2.954839   -1.022960   -0.000052
     10          8           0        2.551302    1.303298   -0.000265
     11          8           0        0.337199    2.439391    0.000125
     12          8           0       -3.616433   -0.180094   -0.000088
     13          1           0       -2.055071   -2.198681    0.000127
     14          1           0       -2.180588    2.111538    0.000166
     15          1           0       -0.027266   -3.108292   -0.000806
     16          1           0        2.780635   -1.653523   -0.875892
     17          1           0        3.978807   -0.648024   -0.000324
     18          1           0        2.781208   -1.653513    0.875899
     19          1           0        1.331034    2.281909    0.000019
     20          1           0       -4.027363    0.694990   -0.000754
 ---------------------------------------------------------------------
                    Distance matrix (angstroms):
                    1          2          3          4          5
     1  C    0.000000
     2  C    1.401158   0.000000
     3  C    2.431447   1.389437   0.000000
     4  C    2.801179   2.406682   1.398896   0.000000
     5  C    2.459567   2.831183   2.474010   1.435729   0.000000
     6  C    1.387502   2.407140   2.801535   2.429264   1.422723
     7  O    2.379838   3.655116   4.167231   3.677585   2.393311
     8  C    3.827412   4.294854   3.791443   2.494361   1.465187
     9  C    4.487971   5.304756   5.082717   3.900434   2.611143
    10  O    4.812204   5.001027   4.179316   2.780481   2.352822
    11  O    4.134220   3.603195   2.333131   1.333937   2.413680
    12  O    2.347331   1.360820   2.410016   3.670374   4.190479
    13  H    1.085151   2.151708   3.404757   3.886073   3.446764
    14  H    3.424896   2.169906   1.084943   2.141633   3.444065
    15  H    2.387829   3.781753   4.575691   4.344171   3.201021
    16  H    4.414567   5.360645   5.311322   4.259405   2.918649
    17  H    5.539029   6.267950   5.895214   4.607697   3.478459
    18  H    4.415138   5.361203   5.311764   4.259757   2.918998
    19  H    4.544033   4.286498   3.156189   1.880235   2.371081
    20  H    3.167789   1.919534   2.449485   3.836776   4.642683
                    6          7          8          9         10
     6  C    0.000000
     7  O    1.365700   0.000000
     8  C    2.561829   2.909563   0.000000
     9  C    3.100608   2.723735   1.508624   0.000000
    10  O    3.673804   4.156977   1.250884   2.360999   0.000000
    11  O    3.667159   4.801999   2.832112   4.340497   2.488566
    12  O    3.621086   4.727111   5.654909   6.625107   6.343612
    13  H    2.160658   2.639661   4.718830   5.146020   5.786409
    14  H    3.886281   5.251975   4.635825   6.016451   4.800420
    15  H    1.915200   0.966358   3.866823   3.638895   5.109906
    16  H    3.084100   2.470835   2.156184   1.093185   3.092266
    17  H    4.156064   3.804151   2.114489   1.090453   2.417732
    18  H    3.084593   2.471216   2.156354   1.093177   3.092451
    19  H    3.776999   4.698811   2.226514   3.682241   1.564204
    20  H    4.322282   5.526121   6.078119   7.190445   6.606729
                   11         12         13         14         15
    11  O    0.000000
    12  O    4.742669   0.000000
    13  H    5.218684   2.551969   0.000000
    14  H    2.539043   2.704298   4.312046   0.000000
    15  H    5.559642   4.632112   2.222473   5.646541   0.000000
    16  H    4.846621   6.622726   4.944559   6.289427   3.281225
    17  H    4.774248   7.609641   6.229946   6.749321   4.701227
    18  H    4.846857   6.623302   4.945076   6.289828   3.282152
    19  H    1.006235   5.526200   5.616173   3.515752   5.558709
    20  H    4.700249   0.966766   3.501895   2.327485   5.519577
                   16         17         18         19         20
    16  H    0.000000
    17  H    1.792558   0.000000
    18  H    1.751791   1.792489   0.000000
    19  H    4.284412   3.949077   4.284591   0.000000
    20  H    7.254669   8.118032   7.255386   5.588446   0.000000
 Stoichiometry    C8H8O4
 Framework group  C1[X(C8H8O4)]
 Deg. of freedom    54
 Full point group                 C1      NOp   1
 Largest Abelian subgroup         C1      NOp   1
 Largest concise Abelian subgroup C1      NOp   1
                         Standard orientation:                         
 ---------------------------------------------------------------------
 Center     Atomic      Atomic             Coordinates (Angstroms)
 Number     Number       Type             X           Y           Z
 ---------------------------------------------------------------------
      1          6           0        1.527361    1.250486   -0.000029
      2          6           0        2.261204    0.056870   -0.000066
      3          6           0        1.626164   -1.178953    0.000089
      4          6           0        0.228245   -1.231227    0.000115
      5          6           0       -0.568429   -0.036812    0.000136
      6          6           0        0.140911    1.196467    0.000088
      7          8           0       -0.579870    2.356472    0.000190
      8          6           0       -2.027800   -0.167227    0.000030
      9          6           0       -2.954839    1.022960   -0.000052
     10          8           0       -2.551302   -1.303298   -0.000265
     11          8           0       -0.337199   -2.439391    0.000125
     12          8           0        3.616433    0.180094   -0.000088
     13          1           0        2.055071    2.198681    0.000127
     14          1           0        2.180588   -2.111538    0.000166
     15          1           0        0.027266    3.108292   -0.000806
     16          1           0       -2.780635    1.653523   -0.875892
     17          1           0       -3.978807    0.648024   -0.000324
     18          1           0       -2.781208    1.653513    0.875899
     19          1           0       -1.331034   -2.281909    0.000019
     20          1           0        4.027363   -0.694990   -0.000754
 ---------------------------------------------------------------------
 Rotational constants (GHZ):      1.5442379      0.7644869      0.5129479
 Standard basis: 6-31+G(d,p) (6D, 7F)
 There are   268 symmetry adapted cartesian basis functions of A   symmetry.
 There are   268 symmetry adapted basis functions of A   symmetry.
   268 basis functions,   440 primitive gaussians,   268 cartesian basis functions
    44 alpha electrons       44 beta electrons
       nuclear repulsion energy       697.2589313297 Hartrees.
 NAtoms=   20 NActive=   20 NUniq=   20 SFac= 1.00D+00 NAtFMM=   60 NAOKFM=F Big=F
 Integral buffers will be    131072 words long.
 Raffenetti 2 integral format.
 Two-electron integral symmetry is turned on.
 Nuclear repulsion after empirical dispersion term =      697.2487656025 Hartrees.
 One-electron integrals computed using PRISM.
 NBasis=   268 RedAO= T EigKep=  1.53D-06  NBF=   268
 NBsUse=   268 1.00D-06 EigRej= -1.00D+00 NBFU=   268
 ExpMin= 4.38D-02 ExpMax= 5.48D+03 ExpMxC= 8.25D+02 IAcc=2 IRadAn=         4 AccDes= 0.00D+00
 Harris functional with IExCor= 4639 and IRadAn=       4 diagonalized for initial guess.
 HarFok:  IExCor= 4639 AccDes= 0.00D+00 IRadAn=         4 IDoV= 1 UseB2=F ITyADJ=14
 ICtDFT=  3500011 ScaDFX=  1.000000  1.000000  1.000000  1.000000
 FoFCou: FMM=F IPFlag=           0 FMFlag=      100000 FMFlg1=           0
         NFxFlg=           0 DoJE=T BraDBF=F KetDBF=T FulRan=T
         wScrn=  0.000000 ICntrl=     500 IOpCl=  0 I1Cent=   200000004 NGrid=           0
         NMat0=    1 NMatS0=      1 NMatT0=    0 NMatD0=    1 NMtDS0=    0 NMtDT0=    0
 Petite list used in FoFCou.
 Requested convergence on RMS density matrix=1.00D-08 within 128 cycles.
 Requested convergence on MAX density matrix=1.00D-06.
 Requested convergence on             energy=1.00D-06.
 No special actions if energy rises.
 SCF Done:  E(RwB97XD) =  -610.415886017     A.U. after   16 cycles
            NFock= 16  Conv=0.53D-08     -V/T= 2.0091

 **********************************************************************

            Population analysis using the SCF density.

 **********************************************************************

 Orbital symmetries:
       Occupied  (A) (A) (A) (A) (A) (A) (A) (A) (A) (A) (A) (A)
                 (A) (A) (A) (A) (A) (A) (A) (A) (A) (A) (A) (A)
                 (A) (A) (A) (A) (A) (A) (A) (A) (A) (A) (A) (A)
                 (A) (A) (A) (A) (A) (A) (A) (A)
       Virtual   (A) (A) (A) (A) (A) (A) (A) (A) (A) (A) (A) (A)
                 (A) (A) (A) (A) (A) (A) (A) (A) (A) (A) (A) (A)
                 (A) (A) (A) (A) (A) (A) (A) (A) (A) (A) (A) (A)
                 (A) (A) (A) (A) (A) (A) (A) (A) (A) (A) (A) (A)
                 (A) (A) (A) (A) (A) (A) (A) (A) (A) (A) (A) (A)
                 (A) (A) (A) (A) (A) (A) (A) (A) (A) (A) (A) (A)
                 (A) (A) (A) (A) (A) (A) (A) (A) (A) (A) (A) (A)
                 (A) (A) (A) (A) (A) (A) (A) (A) (A) (A) (A) (A)
                 (A) (A) (A) (A) (A) (A) (A) (A) (A) (A) (A) (A)
                 (A) (A) (A) (A) (A) (A) (A) (A) (A) (A) (A) (A)
                 (A) (A) (A) (A) (A) (A) (A) (A) (A) (A) (A) (A)
                 (A) (A) (A) (A) (A) (A) (A) (A) (A) (A) (A) (A)
                 (A) (A) (A) (A) (A) (A) (A) (A) (A) (A) (A) (A)
                 (A) (A) (A) (A) (A) (A) (A) (A) (A) (A) (A) (A)
                 (A) (A) (A) (A) (A) (A) (A) (A) (A) (A) (A) (A)
                 (A) (A) (A) (A) (A) (A) (A) (A) (A) (A) (A) (A)
                 (A) (A) (A) (A) (A) (A) (A) (A) (A) (A) (A) (A)
                 (A) (A) (A) (A) (A) (A) (A) (A) (A) (A) (A) (A)
                 (A) (A) (A) (A) (A) (A) (A) (A)
 The electronic state is 1-A.
 Alpha  occ. eigenvalues --  -19.33828 -19.33484 -19.29915 -19.27872 -10.41065
 Alpha  occ. eigenvalues --  -10.40339 -10.39865 -10.39464 -10.32313 -10.31346
 Alpha  occ. eigenvalues --  -10.30813 -10.30070  -1.19771  -1.19235  -1.17886
 Alpha  occ. eigenvalues --   -1.14196  -0.96751  -0.88565  -0.85879  -0.83648
 Alpha  occ. eigenvalues --   -0.75850  -0.73860  -0.69433  -0.67629  -0.61844
 Alpha  occ. eigenvalues --   -0.61258  -0.59923  -0.57413  -0.55490  -0.53747
 Alpha  occ. eigenvalues --   -0.52610  -0.52408  -0.50800  -0.50417  -0.50310
 Alpha  occ. eigenvalues --   -0.49262  -0.47266  -0.45563  -0.45487  -0.44740
 Alpha  occ. eigenvalues --   -0.39216  -0.35159  -0.32089  -0.30907
 Alpha virt. eigenvalues --    0.00642   0.04943   0.05717   0.06128   0.07733
 Alpha virt. eigenvalues --    0.09234   0.09612   0.09677   0.10504   0.10694
 Alpha virt. eigenvalues --    0.11901   0.12169   0.13603   0.14129   0.14777
 Alpha virt. eigenvalues --    0.16076   0.16343   0.16519   0.18044   0.18856
 Alpha virt. eigenvalues --    0.19167   0.19942   0.20589   0.20970   0.21766
 Alpha virt. eigenvalues --    0.21784   0.22101   0.23369   0.23533   0.23559
 Alpha virt. eigenvalues --    0.25205   0.25985   0.26877   0.27183   0.27372
 Alpha virt. eigenvalues --    0.28038   0.28947   0.29454   0.30298   0.30637
 Alpha virt. eigenvalues --    0.31355   0.32020   0.33227   0.33685   0.33702
 Alpha virt. eigenvalues --    0.34188   0.34948   0.35703   0.36460   0.37349
 Alpha virt. eigenvalues --    0.37507   0.37901   0.38872   0.39214   0.39653
 Alpha virt. eigenvalues --    0.40509   0.41049   0.41455   0.42756   0.44435
 Alpha virt. eigenvalues --    0.45344   0.46129   0.47579   0.48600   0.50818
 Alpha virt. eigenvalues --    0.51721   0.53330   0.54167   0.56571   0.58210
 Alpha virt. eigenvalues --    0.68011   0.70817   0.72453   0.74165   0.76884
 Alpha virt. eigenvalues --    0.78473   0.78881   0.79506   0.81244   0.81855
 Alpha virt. eigenvalues --    0.82306   0.83115   0.84314   0.85913   0.88981
 Alpha virt. eigenvalues --    0.91365   0.95008   0.95759   0.97546   0.99796
 Alpha virt. eigenvalues --    1.01399   1.02716   1.07835   1.08708   1.12733
 Alpha virt. eigenvalues --    1.13821   1.15384   1.16348   1.18702   1.19160
 Alpha virt. eigenvalues --    1.22140   1.25218   1.25407   1.25691   1.27248
 Alpha virt. eigenvalues --    1.28326   1.28957   1.30380   1.30518   1.32124
 Alpha virt. eigenvalues --    1.32832   1.33203   1.35987   1.36419   1.36805
 Alpha virt. eigenvalues --    1.37708   1.40349   1.42792   1.43247   1.44683
 Alpha virt. eigenvalues --    1.46248   1.46552   1.46673   1.47430   1.48427
 Alpha virt. eigenvalues --    1.49844   1.52907   1.54710   1.57028   1.65620
 Alpha virt. eigenvalues --    1.66398   1.66827   1.69043   1.70762   1.76959
 Alpha virt. eigenvalues --    1.79478   1.79759   1.81757   1.84245   1.88060
 Alpha virt. eigenvalues --    1.91164   1.92368   1.94441   1.95172   1.97185
 Alpha virt. eigenvalues --    1.98462   1.98486   1.98880   1.99985   2.01948
 Alpha virt. eigenvalues --    2.05542   2.07478   2.10424   2.11425   2.12029
 Alpha virt. eigenvalues --    2.12277   2.14414   2.16892   2.22872   2.26416
 Alpha virt. eigenvalues --    2.29042   2.29722   2.30282   2.34814   2.40224
 Alpha virt. eigenvalues --    2.41915   2.42555   2.45727   2.47439   2.49649
 Alpha virt. eigenvalues --    2.50594   2.52475   2.53601   2.58135   2.58589
 Alpha virt. eigenvalues --    2.59340   2.62030   2.62676   2.63362   2.64354
 Alpha virt. eigenvalues --    2.66890   2.72597   2.74232   2.74919   2.79217
 Alpha virt. eigenvalues --    2.80259   2.80273   2.82221   2.82591   2.83967
 Alpha virt. eigenvalues --    2.87575   2.92113   2.95468   2.97161   3.00898
 Alpha virt. eigenvalues --    3.07253   3.11320   3.15913   3.18529   3.23404
 Alpha virt. eigenvalues --    3.28678   3.30090   3.34358   3.40226   3.50719
 Alpha virt. eigenvalues --    3.52634   3.53181   3.57431   3.59722   3.62474
 Alpha virt. eigenvalues --    3.75565   3.86249   4.33316   4.34634   4.36383
 Alpha virt. eigenvalues --    4.44059   4.48846   4.54688   4.55942   4.61244
 Alpha virt. eigenvalues --    4.76792   4.84839   4.89489   5.00431
          Condensed to atoms (all electrons):
               1          2          3          4          5          6
     1  C   12.300305  -1.946896   0.531336  -3.026686  -0.389550  -3.730981
     2  C   -1.946896   6.910945  -0.840898   1.941572  -1.507957   2.520974
     3  C    0.531336  -0.840898  12.388994  -3.769995  -0.864292  -2.205784
     4  C   -3.026686   1.941572  -3.769995  14.501970  -2.462446   1.980094
     5  C   -0.389550  -1.507957  -0.864292  -2.462446  14.119736  -3.664713
     6  C   -3.730981   2.520974  -2.205784   1.980094  -3.664713  14.376486
     7  O    0.192229   0.003653  -0.000609   0.028466  -0.374131   0.172045
     8  C    1.398428  -0.623673   0.285108  -1.977076  -1.094776  -1.058369
     9  C   -0.223220   0.007170  -0.326631  -0.291168   0.024768  -0.302513
    10  O    0.010145  -0.006383  -0.058400  -0.200192  -0.091811  -0.066924
    11  O    0.040294  -0.016911  -0.380478   0.194753   0.301957   0.012270
    12  O   -0.234247   0.154240   0.020490   0.008926  -0.016631   0.072831
    13  H    0.154752   0.134644   0.043776  -0.027219   0.008654   0.014782
    14  H   -0.024731  -0.023351   0.122278   0.218922   0.032152   0.000396
    15  H   -0.119566   0.003750   0.003020  -0.000719   0.145373  -0.035021
    16  H    0.003745  -0.000312  -0.000179  -0.011316   0.010440   0.019473
    17  H    0.000794   0.000329  -0.003218  -0.016718   0.036440   0.018491
    18  H    0.003668  -0.000314  -0.000173  -0.011143   0.010741   0.019217
    19  H    0.004155  -0.003160   0.177207   0.090475  -0.236200  -0.065502
    20  H    0.109763  -0.015820  -0.065180  -0.008277   0.020261  -0.037759
               7          8          9         10         11         12
     1  C    0.192229   1.398428  -0.223220   0.010145   0.040294  -0.234247
     2  C    0.003653  -0.623673   0.007170  -0.006383  -0.016911   0.154240
     3  C   -0.000609   0.285108  -0.326631  -0.058400  -0.380478   0.020490
     4  C    0.028466  -1.977076  -0.291168  -0.200192   0.194753   0.008926
     5  C   -0.374131  -1.094776   0.024768  -0.091811   0.301957  -0.016631
     6  C    0.172045  -1.058369  -0.302513  -0.066924   0.012270   0.072831
     7  O    8.432086  -0.006197  -0.087242   0.001491  -0.000350  -0.000623
     8  C   -0.006197   9.455053  -1.132206   0.578326  -0.147126  -0.002508
     9  C   -0.087242  -1.132206   7.589261  -0.010870  -0.056928  -0.000651
    10  O    0.001491   0.578326  -0.010870   8.272196   0.000337  -0.000024
    11  O   -0.000350  -0.147126  -0.056928   0.000337   8.442781  -0.000494
    12  O   -0.000623  -0.002508  -0.000651  -0.000024  -0.000494   8.322956
    13  H   -0.015950   0.007827   0.000748   0.000016   0.000053  -0.007737
    14  H    0.000041   0.009753   0.000602   0.000093  -0.007969  -0.011581
    15  H    0.210159   0.002028   0.010468  -0.000005   0.000017  -0.000053
    16  H   -0.003786  -0.051928   0.387322   0.003155   0.000122   0.000001
    17  H    0.000867  -0.102165   0.433531  -0.007026   0.000078  -0.000000
    18  H   -0.003762  -0.051996   0.387246   0.003163   0.000122   0.000001
    19  H   -0.000010   0.022181   0.015354   0.074602   0.169521   0.000018
    20  H    0.000032   0.002208  -0.000002   0.000001   0.000015   0.219435
              13         14         15         16         17         18
     1  C    0.154752  -0.024731  -0.119566   0.003745   0.000794   0.003668
     2  C    0.134644  -0.023351   0.003750  -0.000312   0.000329  -0.000314
     3  C    0.043776   0.122278   0.003020  -0.000179  -0.003218  -0.000173
     4  C   -0.027219   0.218922  -0.000719  -0.011316  -0.016718  -0.011143
     5  C    0.008654   0.032152   0.145373   0.010440   0.036440   0.010741
     6  C    0.014782   0.000396  -0.035021   0.019473   0.018491   0.019217
     7  O   -0.015950   0.000041   0.210159  -0.003786   0.000867  -0.003762
     8  C    0.007827   0.009753   0.002028  -0.051928  -0.102165  -0.051996
     9  C    0.000748   0.000602   0.010468   0.387322   0.433531   0.387246
    10  O    0.000016   0.000093  -0.000005   0.003155  -0.007026   0.003163
    11  O    0.000053  -0.007969   0.000017   0.000122   0.000078   0.000122
    12  O   -0.007737  -0.011581  -0.000053   0.000001  -0.000000   0.000001
    13  H    0.532378  -0.000106   0.007516  -0.000001  -0.000000  -0.000001
    14  H   -0.000106   0.525810  -0.000001   0.000000  -0.000000   0.000000
    15  H    0.007516  -0.000001   0.380319   0.000282  -0.000021   0.000282
    16  H   -0.000001   0.000000   0.000282   0.498126  -0.022065  -0.022257
    17  H   -0.000000  -0.000000  -0.000021  -0.022065   0.494437  -0.022071
    18  H   -0.000001   0.000000   0.000282  -0.022257  -0.022071   0.498077
    19  H    0.000000   0.000043   0.000000  -0.000052   0.000005  -0.000052
    20  H   -0.000024   0.005051   0.000000   0.000000  -0.000000   0.000000
              19         20
     1  C    0.004155   0.109763
     2  C   -0.003160  -0.015820
     3  C    0.177207  -0.065180
     4  C    0.090475  -0.008277
     5  C   -0.236200   0.020261
     6  C   -0.065502  -0.037759
     7  O   -0.000010   0.000032
     8  C    0.022181   0.002208
     9  C    0.015354  -0.000002
    10  O    0.074602   0.000001
    11  O    0.169521   0.000015
    12  O    0.000018   0.219435
    13  H    0.000000  -0.000024
    14  H    0.000043   0.005051
    15  H    0.000000   0.000000
    16  H   -0.000052   0.000000
    17  H    0.000005  -0.000000
    18  H   -0.000052   0.000000
    19  H    0.305988   0.000000
    20  H    0.000000   0.397082
 Mulliken charges:
               1
     1  C    0.946262
     2  C   -0.691603
     3  C    0.943626
     4  C   -1.162224
     5  C    1.991983
     6  C   -2.039492
     7  O   -0.548410
     8  C    0.487109
     9  C   -0.425040
    10  O   -0.501891
    11  O   -0.552062
    12  O   -0.524348
    13  H    0.145891
    14  H    0.152596
    15  H    0.392171
    16  H    0.189229
    17  H    0.188313
    18  H    0.189251
    19  H    0.445426
    20  H    0.373212
 Sum of Mulliken charges =  -0.00000
 Mulliken charges with hydrogens summed into heavy atoms:
               1
     1  C    1.092154
     2  C   -0.691603
     3  C    1.096222
     4  C   -1.162224
     5  C    1.991983
     6  C   -2.039492
     7  O   -0.156239
     8  C    0.487109
     9  C    0.141753
    10  O   -0.501891
    11  O   -0.106635
    12  O   -0.151136
 Electronic spatial extent (au):  <R**2>=           2073.9033
 Charge=             -0.0000 electrons
 Dipole moment (field-independent basis, Debye):
    X=              2.3067    Y=              3.1580    Z=             -0.0022  Tot=              3.9107
 Quadrupole moment (field-independent basis, Debye-Ang):
   XX=            -66.5178   YY=            -65.4112   ZZ=            -71.6670
   XY=             -9.0341   XZ=             -0.0062   YZ=             -0.0047
 Traceless Quadrupole moment (field-independent basis, Debye-Ang):
   XX=              1.3476   YY=              2.4541   ZZ=             -3.8017
   XY=             -9.0341   XZ=             -0.0062   YZ=             -0.0047
 Octapole moment (field-independent basis, Debye-Ang**2):
  XXX=             31.6434  YYY=             44.5287  ZZZ=             -0.0013  XYY=             19.1261
  XXY=            -16.0263  XXZ=             -0.0156  XZZ=             -5.0639  YZZ=             -0.2058
  YYZ=             -0.0191  XYZ=              0.0073
 Hexadecapole moment (field-independent basis, Debye-Ang**3):
 XXXX=          -1599.7708 YYYY=           -757.2837 ZZZZ=            -80.7176 XXXY=           -167.5026
 XXXZ=             -0.1078 YYYX=             30.3326 YYYZ=             -0.0590 ZZZX=             -0.0030
 ZZZY=              0.0006 XXYY=           -403.6592 XXZZ=           -304.1358 YYZZ=           -159.3933
 XXYZ=              0.0227 YYXZ=             -0.0033 ZZXY=             -0.4134
 N-N= 6.972487656025D+02 E-N=-2.820225843439D+03  KE= 6.049065061396D+02
 Calling FoFJK, ICntrl=      2127 FMM=F ISym2X=0 I1Cent= 0 IOpClX= 0 NMat=1 NMatS=1 NMatT=0.
 ***** Axes restored to original set *****
 -------------------------------------------------------------------
 Center     Atomic                   Forces (Hartrees/Bohr)
 Number     Number              X              Y              Z
 -------------------------------------------------------------------
      1        6           0.001262510    0.001823818    0.000006465
      2        6          -0.002709627    0.000446843    0.000010748
      3        6           0.000086103   -0.002567093   -0.000007192
      4        6           0.003428124    0.001878797    0.000000638
      5        6          -0.004123381    0.001004595    0.000003482
      6        6           0.001868545   -0.002687178    0.000003329
      7        8          -0.006382199    0.002562210   -0.000014726
      8        6           0.006007007    0.007718248   -0.000019870
      9        6          -0.000642639    0.000589002   -0.000002590
     10        8          -0.004554765   -0.010247162    0.000016686
     11        8           0.001283869   -0.006958977    0.000001180
     12        8           0.005114153    0.004300257   -0.000013023
     13        1          -0.000082352    0.000168770   -0.000005991
     14        1           0.000246599    0.000059343   -0.000001877
     15        1           0.002733738    0.003681442    0.000014000
     16        1          -0.000100550    0.000596602    0.000151378
     17        1          -0.000350514    0.000096439   -0.000004473
     18        1          -0.000125555    0.000596633   -0.000146599
     19        1          -0.005184562    0.000941034   -0.000001865
     20        1           0.002225495   -0.004003625    0.000010301
 -------------------------------------------------------------------
 Cartesian Forces:  Max     0.010247162 RMS     0.002881087

 GradGradGradGradGradGradGradGradGradGradGradGradGradGradGradGradGradGrad
 Berny optimization.
 FormGI is forming the generalized inverse of G from B-inverse, IUseBI=4.
 Internal  Forces:  Max     0.011215223 RMS     0.002213155
 Search for a local minimum.
 Step number   1 out of a maximum of  100
 All quantities printed in internal units (Hartrees-Bohrs-Radians)
 Mixed Optimization -- RFO/linear search
 Second derivative matrix not updated -- first step.
 ITU=  0
     Eigenvalues ---    0.00652   0.00888   0.01226   0.01573   0.01764
     Eigenvalues ---    0.01962   0.02038   0.02087   0.02136   0.02146
     Eigenvalues ---    0.02166   0.02171   0.02196   0.02210   0.02566
     Eigenvalues ---    0.07301   0.07474   0.16000   0.16000   0.16000
     Eigenvalues ---    0.16000   0.16000   0.16000   0.16000   0.16000
     Eigenvalues ---    0.23479   0.23498   0.25000   0.25000   0.25000
     Eigenvalues ---    0.25000   0.25000   0.25000   0.25000   0.31489
     Eigenvalues ---    0.34447   0.34448   0.34760   0.35379   0.35404
     Eigenvalues ---    0.36323   0.38695   0.40456   0.43557   0.44782
     Eigenvalues ---    0.46578   0.46609   0.47311   0.51812   0.52782
     Eigenvalues ---    0.54043   0.54128   0.58585   0.82911
 RFO step:  Lambda=-8.01077112D-04 EMin= 6.51868294D-03
 Linear search not attempted -- first point.
 Iteration  1 RMS(Cart)=  0.00916141 RMS(Int)=  0.00001095
 Iteration  2 RMS(Cart)=  0.00002166 RMS(Int)=  0.00000062
 Iteration  3 RMS(Cart)=  0.00000000 RMS(Int)=  0.00000062
 Variable       Old X    -DE/DX   Delta X   Delta X   Delta X     New X
                                 (Linear)    (Quad)   (Total)
    R1        2.64781  -0.00336   0.00000  -0.00743  -0.00743   2.64038
    R2        2.62200  -0.00348   0.00000  -0.00729  -0.00729   2.61471
    R3        2.05064  -0.00011   0.00000  -0.00031  -0.00031   2.05033
    R4        2.62565  -0.00397   0.00000  -0.00838  -0.00838   2.61728
    R5        2.57158  -0.00734   0.00000  -0.01388  -0.01388   2.55769
    R6        2.64353  -0.00267   0.00000  -0.00580  -0.00580   2.63773
    R7        2.05024  -0.00007   0.00000  -0.00021  -0.00021   2.05004
    R8        2.71313  -0.00401   0.00000  -0.00992  -0.00992   2.70322
    R9        2.52078  -0.00710   0.00000  -0.01211  -0.01211   2.50867
   R10        2.68856  -0.00349   0.00000  -0.00825  -0.00825   2.68030
   R11        2.76880   0.00017   0.00000   0.00046   0.00046   2.76926
   R12        2.58080  -0.00723   0.00000  -0.01394  -0.01394   2.56686
   R13        1.82615  -0.00458   0.00000  -0.00845  -0.00845   1.81771
   R14        2.85089  -0.00222   0.00000  -0.00703  -0.00703   2.84385
   R15        2.36383  -0.01122   0.00000  -0.01351  -0.01351   2.35032
   R16        2.06582  -0.00045   0.00000  -0.00129  -0.00129   2.06453
   R17        2.06066  -0.00030   0.00000  -0.00086  -0.00086   2.05980
   R18        2.06580  -0.00044   0.00000  -0.00127  -0.00127   2.06453
   R19        1.90151  -0.00526   0.00000  -0.01127  -0.01127   1.89023
   R20        1.82692  -0.00456   0.00000  -0.00843  -0.00843   1.81849
    A1        2.08309  -0.00060   0.00000  -0.00276  -0.00276   2.08033
    A2        2.08251   0.00014   0.00000   0.00037   0.00037   2.08287
    A3        2.11759   0.00046   0.00000   0.00239   0.00239   2.11998
    A4        2.11568   0.00056   0.00000   0.00221   0.00221   2.11789
    A5        2.03136  -0.00045   0.00000  -0.00178  -0.00178   2.02957
    A6        2.13615  -0.00011   0.00000  -0.00043  -0.00043   2.13572
    A7        2.08285  -0.00035   0.00000  -0.00151  -0.00151   2.08134
    A8        2.13055   0.00043   0.00000   0.00233   0.00233   2.13288
    A9        2.06979  -0.00008   0.00000  -0.00082  -0.00082   2.06897
   A10        2.12165   0.00011   0.00000   0.00065   0.00065   2.12230
   A11        2.04591  -0.00139   0.00000  -0.00566  -0.00566   2.04025
   A12        2.11562   0.00128   0.00000   0.00501   0.00502   2.12064
   A13        2.03140  -0.00020   0.00000  -0.00060  -0.00060   2.03080
   A14        2.06990   0.00111   0.00000   0.00433   0.00433   2.07423
   A15        2.18188  -0.00091   0.00000  -0.00373  -0.00373   2.17815
   A16        2.13170   0.00048   0.00000   0.00201   0.00201   2.13371
   A17        2.08783  -0.00017   0.00000  -0.00072  -0.00072   2.08711
   A18        2.06366  -0.00031   0.00000  -0.00129  -0.00129   2.06237
   A19        1.90628  -0.00035   0.00000  -0.00215  -0.00215   1.90413
   A20        2.14341   0.00005   0.00000   0.00021   0.00021   2.14362
   A21        2.09172   0.00016   0.00000   0.00063   0.00063   2.09235
   A22        2.04805  -0.00021   0.00000  -0.00084  -0.00084   2.04721
   A23        1.93605  -0.00043   0.00000  -0.00254  -0.00255   1.93350
   A24        1.88154  -0.00015   0.00000  -0.00118  -0.00119   1.88036
   A25        1.93629  -0.00046   0.00000  -0.00274  -0.00274   1.93355
   A26        1.92599   0.00025   0.00000   0.00134   0.00134   1.92733
   A27        1.85872   0.00053   0.00000   0.00371   0.00371   1.86242
   A28        1.92589   0.00027   0.00000   0.00146   0.00146   1.92734
   A29        1.85138   0.00022   0.00000   0.00138   0.00138   1.85276
   A30        1.91915  -0.00058   0.00000  -0.00360  -0.00360   1.91555
    D1       -0.00006   0.00000   0.00000   0.00006   0.00006  -0.00001
    D2       -3.14152  -0.00000   0.00000  -0.00003  -0.00003  -3.14155
    D3        3.14130   0.00000   0.00000   0.00015   0.00015   3.14144
    D4       -0.00015   0.00000   0.00000   0.00005   0.00005  -0.00010
    D5       -0.00003   0.00000   0.00000   0.00001   0.00001  -0.00002
    D6        3.14154  -0.00000   0.00000  -0.00009  -0.00008   3.14145
    D7       -3.14139  -0.00000   0.00000  -0.00007  -0.00007  -3.14146
    D8        0.00018  -0.00000   0.00000  -0.00017  -0.00017   0.00001
    D9        0.00014  -0.00000   0.00000  -0.00010  -0.00010   0.00004
   D10       -3.14148  -0.00000   0.00000  -0.00008  -0.00008  -3.14156
   D11        3.14158  -0.00000   0.00000  -0.00000  -0.00000   3.14158
   D12       -0.00004   0.00000   0.00000   0.00001   0.00001  -0.00002
   D13       -3.14089  -0.00001   0.00000  -0.00023  -0.00023  -3.14112
   D14        0.00085  -0.00001   0.00000  -0.00033  -0.00033   0.00052
   D15       -0.00012   0.00000   0.00000   0.00007   0.00007  -0.00005
   D16        3.14147   0.00000   0.00000   0.00004   0.00004   3.14151
   D17        3.14150   0.00000   0.00000   0.00005   0.00005   3.14155
   D18       -0.00009   0.00000   0.00000   0.00003   0.00003  -0.00007
   D19        0.00003   0.00000   0.00000  -0.00000  -0.00000   0.00003
   D20        3.14149   0.00000   0.00000   0.00021   0.00021  -3.14149
   D21       -3.14157   0.00000   0.00000   0.00003   0.00003  -3.14154
   D22       -0.00011   0.00000   0.00000   0.00024   0.00024   0.00013
   D23       -3.14146   0.00000   0.00000   0.00011   0.00011  -3.14136
   D24        0.00013   0.00000   0.00000   0.00008   0.00008   0.00021
   D25        0.00005  -0.00000   0.00000  -0.00004  -0.00004   0.00000
   D26       -3.14152   0.00000   0.00000   0.00006   0.00006  -3.14147
   D27       -3.14140  -0.00000   0.00000  -0.00026  -0.00026   3.14152
   D28        0.00021  -0.00000   0.00000  -0.00017  -0.00017   0.00005
   D29       -3.14152  -0.00000   0.00000  -0.00021  -0.00021   3.14146
   D30       -0.00017   0.00001   0.00000   0.00088   0.00088   0.00070
   D31       -0.00007   0.00000   0.00000   0.00002   0.00002  -0.00006
   D32        3.14127   0.00001   0.00000   0.00110   0.00110  -3.14081
   D33        0.00106  -0.00001   0.00000  -0.00032  -0.00032   0.00074
   D34       -3.14055  -0.00001   0.00000  -0.00042  -0.00042  -3.14097
   D35        1.03092   0.00005   0.00000   0.00158   0.00158   1.03250
   D36        3.14140   0.00001   0.00000   0.00094   0.00094  -3.14085
   D37       -1.03128  -0.00004   0.00000   0.00033   0.00033  -1.03095
   D38       -2.11043   0.00004   0.00000   0.00052   0.00052  -2.10992
   D39        0.00005  -0.00000   0.00000  -0.00012  -0.00012  -0.00007
   D40        2.11056  -0.00005   0.00000  -0.00074  -0.00073   2.10982
         Item               Value     Threshold  Converged?
 Maximum Force            0.011215     0.000450     NO 
 RMS     Force            0.002213     0.000300     NO 
 Maximum Displacement     0.035515     0.001800     NO 
 RMS     Displacement     0.009158     0.001200     NO 
 Predicted change in Energy=-4.011828D-04
 GradGradGradGradGradGradGradGradGradGradGradGradGradGradGradGradGradGrad

                          Input orientation:                          
 ---------------------------------------------------------------------
 Center     Atomic      Atomic             Coordinates (Angstroms)
 Number     Number       Type             X           Y           Z
 ---------------------------------------------------------------------
      1          6           0       -1.522243   -1.248202   -0.000011
      2          6           0       -2.253656   -0.057707    0.000054
      3          6           0       -1.622981    1.175374    0.000026
      4          6           0       -0.228152    1.228077   -0.000119
      5          6           0        0.566841    0.038851   -0.000173
      6          6           0       -0.139783   -1.190952   -0.000112
      7          8           0        0.579096   -2.343454   -0.000010
      8          6           0        2.026878    0.164475   -0.000193
      9          6           0        2.947960   -1.025624   -0.000081
     10          8           0        2.551815    1.292000    0.000596
     11          8           0        0.327291    2.433821   -0.000232
     12          8           0       -3.601387   -0.182251    0.000204
     13          1           0       -2.049819   -2.196286    0.000157
     14          1           0       -2.176947    2.108103    0.000102
     15          1           0       -0.025552   -3.091537   -0.000545
     16          1           0        2.771081   -1.652757   -0.876992
     17          1           0        3.972213   -0.652791    0.000650
     18          1           0        2.770063   -1.653453    0.876132
     19          1           0        1.316370    2.284618   -0.000551
     20          1           0       -4.008569    0.689660   -0.000192
 ---------------------------------------------------------------------
                    Distance matrix (angstroms):
                    1          2          3          4          5
     1  C    0.000000
     2  C    1.397227   0.000000
     3  C    2.425669   1.385005   0.000000
     4  C    2.794035   2.399147   1.395825   0.000000
     5  C    2.453727   2.822149   2.467186   1.430480   0.000000
     6  C    1.383645   2.398480   2.792736   2.420643   1.418356
     7  O    2.369642   3.639935   4.151059   3.661622   2.382336
     8  C    3.819937   4.286296   3.787267   2.493273   1.465431
     9  C    4.475741   5.290905   5.073253   3.894465   2.608224
    10  O    4.801102   4.991419   4.176426   2.780702   2.347447
    11  O    4.120446   3.587339   2.321046   1.327530   2.406920
    12  O    2.336470   1.353473   2.399423   3.656192   4.174088
    13  H    1.084988   2.148271   3.398570   3.878754   3.441329
    14  H    3.419565   2.167168   1.084833   2.138282   3.436594
    15  H    2.374441   3.764117   4.556129   4.324363   3.185947
    16  H    4.400613   5.344284   5.298610   4.250119   2.913593
    17  H    5.526623   6.254244   5.886288   4.602253   3.474899
    18  H    4.399516   5.343376   5.297986   4.249744   2.913072
    19  H    4.531947   4.269844   3.141689   1.871317   2.367544
    20  H    3.152321   1.907427   2.434532   3.818566   4.621464
                    6          7          8          9         10
     6  C    0.000000
     7  O    1.358325   0.000000
     8  C    2.555700   2.895821   0.000000
     9  C    3.092166   2.710755   1.504901   0.000000
    10  O    3.661933   4.136199   1.243733   2.351236   0.000000
    11  O    3.654742   4.783906   2.835229   4.340007   2.500452
    12  O    3.605576   4.706085   5.638934   6.603425   6.327346
    13  H    2.158457   2.633032   4.710908   5.133054   5.774355
    14  H    3.877345   5.235659   4.631397   6.007072   4.798669
    15  H    1.904015   0.961888   3.848907   3.620742   5.085098
    16  H    3.074949   2.459869   2.150569   1.092500   3.080557
    17  H    4.147062   3.790987   2.110036   1.089999   2.408265
    18  H    3.073908   2.458467   2.150612   1.092504   3.080566
    19  H    3.768285   4.686429   2.236030   3.690500   1.584809
    20  H    4.301652   5.499677   6.058254   7.164879   6.587978
                   11         12         13         14         15
    11  O    0.000000
    12  O    4.719994   0.000000
    13  H    5.204666   2.542380   0.000000
    14  H    2.525332   2.697174   4.306266   0.000000
    15  H    5.536613   4.609831   2.213399   5.627145   0.000000
    16  H    4.841584   6.598500   4.930101   6.276651   3.264874
    17  H    4.776256   7.588203   6.216691   6.740527   4.682906
    18  H    4.841585   6.597504   4.928820   6.276116   3.263757
    19  H    1.000269   5.501797   5.604439   3.497774   5.541101
    20  H    4.673519   0.962303   3.487891   2.316640   5.491983
                   16         17         18         19         20
    16  H    0.000000
    17  H    1.792458   0.000000
    18  H    1.753124   1.792472   0.000000
    19  H    4.288037   3.960035   4.288380   0.000000
    20  H    7.226296   8.092902   7.225508   5.558675   0.000000
 Stoichiometry    C8H8O4
 Framework group  C1[X(C8H8O4)]
 Deg. of freedom    54
 Full point group                 C1      NOp   1
 Largest Abelian subgroup         C1      NOp   1
 Largest concise Abelian subgroup C1      NOp   1
                         Standard orientation:                         
 ---------------------------------------------------------------------
 Center     Atomic      Atomic             Coordinates (Angstroms)
 Number     Number       Type             X           Y           Z
 ---------------------------------------------------------------------
      1          6           0        1.520758    1.250360   -0.000006
      2          6           0        2.254371    0.061220    0.000059
      3          6           0        1.625978   -1.173025    0.000031
      4          6           0        0.231248   -1.228308   -0.000114
      5          6           0       -0.565942   -0.040554   -0.000168
      6          6           0        0.138406    1.190554   -0.000107
      7          8           0       -0.582604    2.341724   -0.000005
      8          6           0       -2.025745   -0.168878   -0.000189
      9          6           0       -2.949026    1.019515   -0.000076
     10          8           0       -2.548596   -1.297372    0.000601
     11          8           0       -0.321964   -2.435077   -0.000227
     12          8           0        3.601869    0.188256    0.000209
     13          1           0        2.046580    2.199418    0.000162
     14          1           0        2.181668   -2.104728    0.000107
     15          1           0        0.020660    3.090924   -0.000540
     16          1           0       -2.773307    1.646975   -0.876987
     17          1           0       -3.972588    0.644789    0.000655
     18          1           0       -2.772290    1.647672    0.876137
     19          1           0       -1.311317   -2.287704   -0.000546
     20          1           0        4.010663   -0.682900   -0.000187
 ---------------------------------------------------------------------
 Rotational constants (GHZ):      1.5551699      0.7685896      0.5160034
 Standard basis: 6-31+G(d,p) (6D, 7F)
 There are   268 symmetry adapted cartesian basis functions of A   symmetry.
 There are   268 symmetry adapted basis functions of A   symmetry.
   268 basis functions,   440 primitive gaussians,   268 cartesian basis functions
    44 alpha electrons       44 beta electrons
       nuclear repulsion energy       699.3695846811 Hartrees.
 NAtoms=   20 NActive=   20 NUniq=   20 SFac= 1.00D+00 NAtFMM=   60 NAOKFM=F Big=F
 Integral buffers will be    131072 words long.
 Raffenetti 2 integral format.
 Two-electron integral symmetry is turned on.
 Nuclear repulsion after empirical dispersion term =      699.3593989258 Hartrees.
 One-electron integrals computed using PRISM.
 NBasis=   268 RedAO= T EigKep=  1.49D-06  NBF=   268
 NBsUse=   268 1.00D-06 EigRej= -1.00D+00 NBFU=   268
 Initial guess from the checkpoint file:  "WB97XDTHAP.chk"
 B after Tr=     0.000000   -0.000000    0.000000
         Rot=    1.000000    0.000011   -0.000003   -0.000934 Ang=   0.11 deg.
 ExpMin= 4.38D-02 ExpMax= 5.48D+03 ExpMxC= 8.25D+02 IAcc=2 IRadAn=         4 AccDes= 0.00D+00
 Harris functional with IExCor= 4639 and IRadAn=       4 diagonalized for initial guess.
 HarFok:  IExCor= 4639 AccDes= 0.00D+00 IRadAn=         4 IDoV= 1 UseB2=F ITyADJ=14
 ICtDFT=  3500011 ScaDFX=  1.000000  1.000000  1.000000  1.000000
 FoFCou: FMM=F IPFlag=           0 FMFlag=      100000 FMFlg1=           0
         NFxFlg=           0 DoJE=T BraDBF=F KetDBF=T FulRan=T
         wScrn=  0.000000 ICntrl=     500 IOpCl=  0 I1Cent=   200000004 NGrid=           0
         NMat0=    1 NMatS0=      1 NMatT0=    0 NMatD0=    1 NMtDS0=    0 NMtDT0=    0
 Petite list used in FoFCou.
 Requested convergence on RMS density matrix=1.00D-08 within 128 cycles.
 Requested convergence on MAX density matrix=1.00D-06.
 Requested convergence on             energy=1.00D-06.
 No special actions if energy rises.
 SCF Done:  E(RwB97XD) =  -610.416281468     A.U. after   13 cycles
            NFock= 13  Conv=0.49D-08     -V/T= 2.0088
 Calling FoFJK, ICntrl=      2127 FMM=F ISym2X=0 I1Cent= 0 IOpClX= 0 NMat=1 NMatS=1 NMatT=0.
 ***** Axes restored to original set *****
 -------------------------------------------------------------------
 Center     Atomic                   Forces (Hartrees/Bohr)
 Number     Number              X              Y              Z
 -------------------------------------------------------------------
      1        6           0.000067323   -0.000170981    0.000004710
      2        6          -0.001760608   -0.000593018    0.000001116
      3        6          -0.000453187   -0.000089555   -0.000001851
      4        6           0.000754122   -0.000204662   -0.000002447
      5        6          -0.001832072    0.000578336   -0.000029010
      6        6           0.001420803   -0.001303894    0.000002769
      7        8          -0.001335060    0.000315484   -0.000017398
      8        6           0.002513094    0.002545587    0.000117467
      9        6           0.000066284   -0.000770001   -0.000019702
     10        8          -0.001701980   -0.001164461   -0.000066791
     11        8           0.003670932   -0.000868709   -0.000022817
     12        8           0.000639950    0.000775822   -0.000006221
     13        1          -0.000092493    0.000026778   -0.000001897
     14        1           0.000078637    0.000088132   -0.000000724
     15        1           0.000396663   -0.000293572    0.000006057
     16        1           0.000207444    0.000000733    0.000035769
     17        1          -0.000015222    0.000027267   -0.000003294
     18        1           0.000212854    0.000017034   -0.000040987
     19        1          -0.002319633    0.001288538    0.000040117
     20        1          -0.000517848   -0.000204859    0.000005137
 -------------------------------------------------------------------
 Cartesian Forces:  Max     0.003670932 RMS     0.000950622

 GradGradGradGradGradGradGradGradGradGradGradGradGradGradGradGradGradGrad
 Berny optimization.
 Using GEDIIS/GDIIS optimizer.
 FormGI is forming the generalized inverse of G from B-inverse, IUseBI=4.
 Internal  Forces:  Max     0.002482132 RMS     0.000664061
 Search for a local minimum.
 Step number   2 out of a maximum of  100
 All quantities printed in internal units (Hartrees-Bohrs-Radians)
 Mixed Optimization -- En-DIIS/RFO-DIIS
 Update second derivatives using D2CorX and points    1    2
 DE= -3.95D-04 DEPred=-4.01D-04 R= 9.86D-01
 TightC=F SS=  1.41D+00  RLast= 4.01D-02 DXNew= 5.0454D-01 1.2022D-01
 Trust test= 9.86D-01 RLast= 4.01D-02 DXMaxT set to 3.00D-01
 ITU=  1  0
 Use linear search instead of GDIIS.
     Eigenvalues ---    0.00652   0.00889   0.01227   0.01573   0.01765
     Eigenvalues ---    0.01961   0.02038   0.02086   0.02136   0.02145
     Eigenvalues ---    0.02166   0.02171   0.02196   0.02210   0.02566
     Eigenvalues ---    0.07317   0.07497   0.15588   0.16000   0.16000
     Eigenvalues ---    0.16000   0.16000   0.16000   0.16000   0.16252
     Eigenvalues ---    0.23481   0.23599   0.24121   0.25000   0.25000
     Eigenvalues ---    0.25000   0.25000   0.25000   0.25866   0.31908
     Eigenvalues ---    0.34420   0.34448   0.34758   0.35379   0.35404
     Eigenvalues ---    0.35598   0.38034   0.40489   0.42960   0.43875
     Eigenvalues ---    0.45827   0.46581   0.48597   0.52043   0.53350
     Eigenvalues ---    0.54088   0.55266   0.63794   0.79416
 RFO step:  Lambda=-1.30895285D-04 EMin= 6.51884716D-03
 Quartic linear search produced a step of -0.01997.
 Iteration  1 RMS(Cart)=  0.01008961 RMS(Int)=  0.00002999
 Iteration  2 RMS(Cart)=  0.00004644 RMS(Int)=  0.00000198
 Iteration  3 RMS(Cart)=  0.00000000 RMS(Int)=  0.00000198
 Variable       Old X    -DE/DX   Delta X   Delta X   Delta X     New X
                                 (Linear)    (Quad)   (Total)
    R1        2.64038   0.00088   0.00015   0.00060   0.00075   2.64113
    R2        2.61471   0.00104   0.00015   0.00086   0.00100   2.61571
    R3        2.05033   0.00002   0.00001  -0.00000   0.00001   2.05034
    R4        2.61728   0.00064   0.00017  -0.00020  -0.00003   2.61725
    R5        2.55769  -0.00018   0.00028  -0.00288  -0.00260   2.55509
    R6        2.63773   0.00100   0.00012   0.00100   0.00112   2.63885
    R7        2.05004   0.00004   0.00000   0.00006   0.00007   2.05010
    R8        2.70322  -0.00079   0.00020  -0.00383  -0.00363   2.69958
    R9        2.50867   0.00095   0.00024  -0.00064  -0.00040   2.50827
   R10        2.68030   0.00117   0.00016   0.00120   0.00137   2.68167
   R11        2.76926   0.00133  -0.00001   0.00367   0.00366   2.77292
   R12        2.56686  -0.00052   0.00028  -0.00354  -0.00327   2.56360
   R13        1.81771  -0.00002   0.00017  -0.00159  -0.00142   1.81629
   R14        2.84385   0.00087   0.00014   0.00142   0.00156   2.84541
   R15        2.35032  -0.00178   0.00027  -0.00458  -0.00431   2.34600
   R16        2.06453  -0.00006   0.00003  -0.00041  -0.00038   2.06414
   R17        2.05980  -0.00001   0.00002  -0.00018  -0.00016   2.05964
   R18        2.06453  -0.00007   0.00003  -0.00045  -0.00042   2.06411
   R19        1.89023  -0.00248   0.00023  -0.00729  -0.00707   1.88317
   R20        1.81849   0.00004   0.00017  -0.00148  -0.00131   1.81718
    A1        2.08033   0.00039   0.00006   0.00143   0.00149   2.08182
    A2        2.08287  -0.00030  -0.00001  -0.00152  -0.00152   2.08135
    A3        2.11998  -0.00009  -0.00005   0.00008   0.00004   2.12001
    A4        2.11789  -0.00056  -0.00004  -0.00170  -0.00174   2.11615
    A5        2.02957   0.00050   0.00004   0.00160   0.00164   2.03121
    A6        2.13572   0.00005   0.00001   0.00009   0.00010   2.13582
    A7        2.08134   0.00030   0.00003   0.00086   0.00089   2.08223
    A8        2.13288  -0.00003  -0.00005   0.00059   0.00055   2.13343
    A9        2.06897  -0.00027   0.00002  -0.00146  -0.00144   2.06752
   A10        2.12230   0.00003  -0.00001  -0.00007  -0.00008   2.12222
   A11        2.04025   0.00044   0.00011   0.00082   0.00093   2.04119
   A12        2.12064  -0.00047  -0.00010  -0.00076  -0.00086   2.11978
   A13        2.03080   0.00044   0.00001   0.00138   0.00140   2.03220
   A14        2.07423  -0.00232  -0.00009  -0.00818  -0.00827   2.06596
   A15        2.17815   0.00188   0.00007   0.00680   0.00687   2.18502
   A16        2.13371  -0.00059  -0.00004  -0.00192  -0.00196   2.13175
   A17        2.08711  -0.00027   0.00001  -0.00122  -0.00121   2.08590
   A18        2.06237   0.00087   0.00003   0.00314   0.00317   2.06553
   A19        1.90413   0.00089   0.00004   0.00505   0.00509   1.90922
   A20        2.14362   0.00102  -0.00000   0.00404   0.00403   2.14765
   A21        2.09235  -0.00174  -0.00001  -0.00671  -0.00672   2.08563
   A22        2.04721   0.00072   0.00002   0.00267   0.00269   2.04990
   A23        1.93350   0.00024   0.00005   0.00124   0.00129   1.93479
   A24        1.88036  -0.00017   0.00002  -0.00174  -0.00172   1.87864
   A25        1.93355   0.00023   0.00005   0.00114   0.00119   1.93475
   A26        1.92733  -0.00011  -0.00003  -0.00091  -0.00093   1.92639
   A27        1.86242  -0.00007  -0.00007   0.00119   0.00111   1.86354
   A28        1.92734  -0.00011  -0.00003  -0.00090  -0.00093   1.92642
   A29        1.85276   0.00175  -0.00003   0.01098   0.01095   1.86371
   A30        1.91555   0.00100   0.00007   0.00548   0.00555   1.92110
    D1       -0.00001  -0.00000  -0.00000  -0.00013  -0.00013  -0.00013
    D2       -3.14155  -0.00000   0.00000  -0.00009  -0.00009   3.14154
    D3        3.14144   0.00000  -0.00000   0.00013   0.00013   3.14157
    D4       -0.00010   0.00000  -0.00000   0.00017   0.00017   0.00006
    D5       -0.00002   0.00000  -0.00000   0.00010   0.00010   0.00009
    D6        3.14145   0.00001   0.00000   0.00047   0.00047  -3.14126
    D7       -3.14146  -0.00000   0.00000  -0.00016  -0.00016   3.14156
    D8        0.00001   0.00000   0.00000   0.00020   0.00021   0.00022
    D9        0.00004  -0.00000   0.00000  -0.00006  -0.00006  -0.00001
   D10       -3.14156   0.00000   0.00000   0.00019   0.00019  -3.14138
   D11        3.14158  -0.00000   0.00000  -0.00009  -0.00009   3.14149
   D12       -0.00002   0.00000  -0.00000   0.00015   0.00015   0.00013
   D13       -3.14112  -0.00000   0.00000  -0.00026  -0.00025  -3.14137
   D14        0.00052  -0.00000   0.00001  -0.00022  -0.00022   0.00031
   D15       -0.00005   0.00001  -0.00000   0.00027   0.00027   0.00022
   D16        3.14151   0.00001  -0.00000   0.00066   0.00066  -3.14101
   D17        3.14155   0.00000  -0.00000   0.00004   0.00004   3.14159
   D18       -0.00007   0.00001  -0.00000   0.00043   0.00043   0.00036
   D19        0.00003  -0.00001   0.00000  -0.00029  -0.00029  -0.00025
   D20       -3.14149  -0.00001  -0.00000  -0.00072  -0.00073   3.14097
   D21       -3.14154  -0.00001  -0.00000  -0.00070  -0.00070   3.14095
   D22        0.00013  -0.00002  -0.00000  -0.00113  -0.00113  -0.00101
   D23       -3.14136  -0.00004  -0.00000  -0.00153  -0.00154   3.14029
   D24        0.00021  -0.00003  -0.00000  -0.00114  -0.00114  -0.00093
   D25        0.00000   0.00000   0.00000   0.00010   0.00010   0.00010
   D26       -3.14147  -0.00001  -0.00000  -0.00026  -0.00027   3.14145
   D27        3.14152   0.00001   0.00001   0.00056   0.00057  -3.14110
   D28        0.00005   0.00000   0.00000   0.00020   0.00021   0.00026
   D29        3.14146   0.00000   0.00000   0.00071   0.00071  -3.14102
   D30        0.00070  -0.00004  -0.00002  -0.00360  -0.00361  -0.00290
   D31       -0.00006  -0.00001  -0.00000   0.00023   0.00023   0.00017
   D32       -3.14081  -0.00005  -0.00002  -0.00407  -0.00409   3.13829
   D33        0.00074  -0.00001   0.00001  -0.00048  -0.00047   0.00027
   D34       -3.14097  -0.00000   0.00001  -0.00013  -0.00012  -3.14109
   D35        1.03250   0.00008  -0.00003  -0.00112  -0.00116   1.03134
   D36       -3.14085  -0.00002  -0.00002  -0.00259  -0.00262   3.13972
   D37       -1.03095  -0.00013  -0.00001  -0.00412  -0.00413  -1.03508
   D38       -2.10992   0.00012  -0.00001   0.00308   0.00307  -2.10684
   D39       -0.00007   0.00002   0.00000   0.00160   0.00161   0.00154
   D40        2.10982  -0.00009   0.00001   0.00008   0.00010   2.10992
         Item               Value     Threshold  Converged?
 Maximum Force            0.002482     0.000450     NO 
 RMS     Force            0.000664     0.000300     NO 
 Maximum Displacement     0.036202     0.001800     NO 
 RMS     Displacement     0.010085     0.001200     NO 
 Predicted change in Energy=-6.562319D-05
 GradGradGradGradGradGradGradGradGradGradGradGradGradGradGradGradGradGrad

                          Input orientation:                          
 ---------------------------------------------------------------------
 Center     Atomic      Atomic             Coordinates (Angstroms)
 Number     Number       Type             X           Y           Z
 ---------------------------------------------------------------------
      1          6           0       -1.528492   -1.249404   -0.000011
      2          6           0       -2.256994   -0.056661   -0.000405
      3          6           0       -1.620959    1.173643   -0.000223
      4          6           0       -0.225364    1.221534    0.000384
      5          6           0        0.564347    0.031100    0.000560
      6          6           0       -0.145279   -1.197810    0.000410
      7          8           0        0.566560   -2.352644    0.000402
      8          6           0        2.025703    0.163797    0.000404
      9          6           0        2.957677   -1.018840   -0.000156
     10          8           0        2.536760    1.295173   -0.003011
     11          8           0        0.335290    2.424631    0.001226
     12          8           0       -3.603871   -0.175347   -0.000864
     13          1           0       -2.059991   -2.195298   -0.000149
     14          1           0       -2.170360    2.109110   -0.000324
     15          1           0       -0.037782   -3.100010   -0.000162
     16          1           0        2.786432   -1.648480   -0.876137
     17          1           0        3.977887   -0.635330   -0.002103
     18          1           0        2.789220   -1.647051    0.877370
     19          1           0        1.321622    2.282445    0.002808
     20          1           0       -4.011889    0.695406   -0.001309
 ---------------------------------------------------------------------
                    Distance matrix (angstroms):
                    1          2          3          4          5
     1  C    0.000000
     2  C    1.397624   0.000000
     3  C    2.424811   1.384988   0.000000
     4  C    2.793507   2.400272   1.396417   0.000000
     5  C    2.453501   2.822706   2.465962   1.428558   0.000000
     6  C    1.384175   2.400326   2.793103   2.420669   1.419080
     7  O    2.367779   3.639230   4.149691   3.660859   2.383745
     8  C    3.824845   4.288367   3.783904   2.487188   1.467368
     9  C    4.492090   5.302696   5.076504   3.892432   2.613504
    10  O    4.795952   4.980717   4.159495   2.763107   2.342713
    11  O    4.119736   3.588419   2.322043   1.327319   2.404467
    12  O    2.336835   1.352096   2.398273   3.655898   4.173327
    13  H    1.084991   2.147691   3.397427   3.878221   3.441511
    14  H    3.419300   2.167503   1.084868   2.137944   3.434640
    15  H    2.376333   3.766547   4.557474   4.325614   3.188481
    16  H    4.421021   5.360684   5.306288   4.251609   2.920145
    17  H    5.540514   6.261677   5.883830   4.595135   3.477986
    18  H    4.423862   5.363218   5.308122   4.252717   2.921480
    19  H    4.538405   4.275269   3.144556   1.875821   2.375295
    20  H    3.154290   1.909256   2.438290   3.822903   4.624201
                    6          7          8          9         10
     6  C    0.000000
     7  O    1.356597   0.000000
     8  C    2.562642   2.908878   0.000000
     9  C    3.108113   2.737969   1.505725   0.000000
    10  O    3.661735   4.145873   1.241451   2.351985   0.000000
    11  O    3.654180   4.782870   2.822918   4.328327   2.474301
    12  O    3.606562   4.704584   5.639780   6.615541   6.314252
    13  H    2.158959   2.631260   4.717862   5.153741   5.771786
    14  H    3.877715   5.234308   4.625060   6.006733   4.776974
    15  H    1.905235   0.961138   3.861400   3.647471   5.093713
    16  H    3.092954   2.488373   2.152064   1.092297   3.080547
    17  H    4.161356   3.819205   2.109415   1.089914   2.409084
    18  H    3.095507   2.491416   2.152022   1.092281   3.081474
    19  H    3.776769   4.696187   2.232578   3.684450   1.565663
    20  H    4.305222   5.500254   6.060950   7.177289   6.576057
                   11         12         13         14         15
    11  O    0.000000
    12  O    4.719839   0.000000
    13  H    5.203952   2.542393   0.000000
    14  H    2.525438   2.696979   4.305822   0.000000
    15  H    5.537224   4.612011   2.215364   5.628750   0.000000
    16  H    4.834055   6.616055   4.955217   6.281426   3.294003
    17  H    4.757298   7.595698   6.236142   6.732970   4.711714
    18  H    4.834046   6.618823   4.958373   6.283035   3.297438
    19  H    0.996529   5.504656   5.611194   3.496283   5.551470
    20  H    4.678481   0.961608   3.487990   2.321592   5.495335
                   16         17         18         19         20
    16  H    0.000000
    17  H    1.791639   0.000000
    18  H    1.753509   1.791641   0.000000
    19  H    4.286068   3.945780   4.284815   0.000000
    20  H    7.244051   8.099837   7.246672   5.564624   0.000000
 Stoichiometry    C8H8O4
 Framework group  C1[X(C8H8O4)]
 Deg. of freedom    54
 Full point group                 C1      NOp   1
 Largest Abelian subgroup         C1      NOp   1
 Largest concise Abelian subgroup C1      NOp   1
                         Standard orientation:                         
 ---------------------------------------------------------------------
 Center     Atomic      Atomic             Coordinates (Angstroms)
 Number     Number       Type             X           Y           Z
 ---------------------------------------------------------------------
      1          6           0        1.527132    1.247356    0.000128
      2          6           0        2.255814    0.054723   -0.000266
      3          6           0        1.619965   -1.175677   -0.000084
      4          6           0        0.224377   -1.223779    0.000523
      5          6           0       -0.565514   -0.033464    0.000699
      6          6           0        0.143926    1.195553    0.000548
      7          8           0       -0.568087    2.350279    0.000541
      8          6           0       -2.026849   -0.166383    0.000543
      9          6           0       -2.959002    1.016114   -0.000017
     10          8           0       -2.537735   -1.297835   -0.002872
     11          8           0       -0.336095   -2.426961    0.001364
     12          8           0        3.602673    0.173613   -0.000726
     13          1           0        2.058488    2.193330   -0.000010
     14          1           0        2.169508   -2.111061   -0.000185
     15          1           0        0.036142    3.097737   -0.000024
     16          1           0       -2.787852    1.645779   -0.875998
     17          1           0       -3.979154    0.632449   -0.001964
     18          1           0       -2.790641    1.644350    0.877508
     19          1           0       -1.322448   -2.284924    0.002947
     20          1           0        4.010822   -0.697078   -0.001170
 ---------------------------------------------------------------------
 Rotational constants (GHZ):      1.5558608      0.7683966      0.5159933
 Standard basis: 6-31+G(d,p) (6D, 7F)
 There are   268 symmetry adapted cartesian basis functions of A   symmetry.
 There are   268 symmetry adapted basis functions of A   symmetry.
   268 basis functions,   440 primitive gaussians,   268 cartesian basis functions
    44 alpha electrons       44 beta electrons
       nuclear repulsion energy       699.4671648006 Hartrees.
 NAtoms=   20 NActive=   20 NUniq=   20 SFac= 1.00D+00 NAtFMM=   60 NAOKFM=F Big=F
 Integral buffers will be    131072 words long.
 Raffenetti 2 integral format.
 Two-electron integral symmetry is turned on.
 Nuclear repulsion after empirical dispersion term =      699.4569871000 Hartrees.
 One-electron integrals computed using PRISM.
 NBasis=   268 RedAO= T EigKep=  1.51D-06  NBF=   268
 NBsUse=   268 1.00D-06 EigRej= -1.00D+00 NBFU=   268
 Initial guess from the checkpoint file:  "WB97XDTHAP.chk"
 B after Tr=     0.000000    0.000000   -0.000000
         Rot=    0.999999   -0.000038    0.000027    0.001168 Ang=  -0.13 deg.
 ExpMin= 4.38D-02 ExpMax= 5.48D+03 ExpMxC= 8.25D+02 IAcc=2 IRadAn=         4 AccDes= 0.00D+00
 Harris functional with IExCor= 4639 and IRadAn=       4 diagonalized for initial guess.
 HarFok:  IExCor= 4639 AccDes= 0.00D+00 IRadAn=         4 IDoV= 1 UseB2=F ITyADJ=14
 ICtDFT=  3500011 ScaDFX=  1.000000  1.000000  1.000000  1.000000
 FoFCou: FMM=F IPFlag=           0 FMFlag=      100000 FMFlg1=           0
         NFxFlg=           0 DoJE=T BraDBF=F KetDBF=T FulRan=T
         wScrn=  0.000000 ICntrl=     500 IOpCl=  0 I1Cent=   200000004 NGrid=           0
         NMat0=    1 NMatS0=      1 NMatT0=    0 NMatD0=    1 NMtDS0=    0 NMtDT0=    0
 Petite list used in FoFCou.
 Requested convergence on RMS density matrix=1.00D-08 within 128 cycles.
 Requested convergence on MAX density matrix=1.00D-06.
 Requested convergence on             energy=1.00D-06.
 No special actions if energy rises.
 SCF Done:  E(RwB97XD) =  -610.416245159     A.U. after   13 cycles
            NFock= 13  Conv=0.41D-08     -V/T= 2.0088
 Calling FoFJK, ICntrl=      2127 FMM=F ISym2X=0 I1Cent= 0 IOpClX= 0 NMat=1 NMatS=1 NMatT=0.
 ***** Axes restored to original set *****
 -------------------------------------------------------------------
 Center     Atomic                   Forces (Hartrees/Bohr)
 Number     Number              X              Y              Z
 -------------------------------------------------------------------
      1        6           0.000007652   -0.000057478   -0.000009976
      2        6          -0.000314428    0.000175185    0.000000683
      3        6          -0.000286116    0.000362640   -0.000009213
      4        6           0.000471381    0.000712526    0.000041914
      5        6           0.000009548   -0.000653821    0.000116783
      6        6           0.000046475   -0.000270763    0.000009026
      7        8           0.001679879    0.000508427    0.000018860
      8        6          -0.000469300   -0.000310443   -0.000472024
      9        6          -0.000422306   -0.000304044    0.000100128
     10        8           0.002926127    0.000082890    0.000284154
     11        8          -0.002308230    0.001472643    0.000095988
     12        8          -0.000336713   -0.000639159   -0.000003372
     13        1           0.000010444   -0.000080172   -0.000003252
     14        1          -0.000016385    0.000013944    0.000002138
     15        1          -0.000289717   -0.000538437    0.000003797
     16        1          -0.000246348   -0.000135757   -0.000111505
     17        1           0.000113951   -0.000074184    0.000007417
     18        1          -0.000215844   -0.000174273    0.000123180
     19        1          -0.000062805   -0.000651880   -0.000196341
     20        1          -0.000297265    0.000562156    0.000001615
 -------------------------------------------------------------------
 Cartesian Forces:  Max     0.002926127 RMS     0.000627541

 GradGradGradGradGradGradGradGradGradGradGradGradGradGradGradGradGradGrad
 Berny optimization.
 Using GEDIIS/GDIIS optimizer.
 FormGI is forming the generalized inverse of G from B-inverse, IUseBI=4.
 Internal  Forces:  Max     0.006706349 RMS     0.001380271
 Search for a local minimum.
 Step number   3 out of a maximum of  100
 All quantities printed in internal units (Hartrees-Bohrs-Radians)
 Mixed Optimization -- RFO/linear search
 Update second derivatives using D2CorX and points    1    3    2
 DE=  3.63D-05 DEPred=-6.56D-05 R=-5.53D-01
 Trust test=-5.53D-01 RLast= 2.45D-02 DXMaxT set to 1.50D-01
 ITU= -1  1  0
 Use linear search instead of GDIIS.
 Energy rises -- skip Quadratic/GDIIS search.
 Quartic linear search produced a step of -0.61161.
 Iteration  1 RMS(Cart)=  0.00616192 RMS(Int)=  0.00001113
 Iteration  2 RMS(Cart)=  0.00001804 RMS(Int)=  0.00000047
 Iteration  3 RMS(Cart)=  0.00000000 RMS(Int)=  0.00000047
 Variable       Old X    -DE/DX   Delta X   Delta X   Delta X     New X
                                 (Linear)    (Quad)   (Total)
    R1        2.64113   0.00042  -0.00046   0.00000  -0.00046   2.64067
    R2        2.61571   0.00031  -0.00061   0.00000  -0.00061   2.61510
    R3        2.05034   0.00006  -0.00000   0.00000  -0.00000   2.05033
    R4        2.61725   0.00044   0.00002   0.00000   0.00002   2.61727
    R5        2.55509   0.00064   0.00159   0.00000   0.00159   2.55668
    R6        2.63885   0.00090  -0.00068   0.00000  -0.00068   2.63816
    R7        2.05010   0.00002  -0.00004   0.00000  -0.00004   2.05006
    R8        2.69958   0.00300   0.00222   0.00000   0.00222   2.70180
    R9        2.50827  -0.00026   0.00024   0.00000   0.00024   2.50851
   R10        2.68167  -0.00043  -0.00084   0.00000  -0.00084   2.68084
   R11        2.77292   0.00159  -0.00224   0.00000  -0.00224   2.77069
[...]
 92165,-0.01614805,-0.00000111,0.00538564,0.00676969,0.00000043,-0.0135
 5056,-0.00083330,-0.00000016,0.02629070,-0.01371411,0.00000046,-0.1780
 3738,0.06902818,-0.00000425,0.46517034,0.02225027,-0.01432573,0.000000
 11,-0.00336963,0.00588971,-0.00000020,0.00153227,-0.00510517,-0.000000
 17,-0.00331567,-0.00126453,-0.00000052,0.01001316,-0.04817352,-0.00000
 174,0.12523389,-0.26292072,-0.00000435,0.11774424,0.65804587,-0.000000
 24,0.00000027,0.01305464,-0.00000044,-0.00000032,0.00970621,-0.0000000
 6,0.00000011,-0.00153924,-0.00000068,-0.00000066,0.00383787,0.00000217
 ,-0.00000225,0.00499899,-0.00000116,-0.00000926,-0.04685523,0.00004018
 ,0.00005386,0.03063115,0.01357887,-0.00608983,0.00000032,-0.01053360,0
 .00730998,-0.00000013,0.00026721,0.00341936,0.00000099,-0.02461009,0.0
 4636628,-0.00000089,-0.20179179,0.01220248,-0.00000677,-0.01868477,-0.
 04099747,-0.00000164,-0.00727436,0.01648140,0.00000025,0.59595855,0.00
 232286,-0.00796232,-0.00000059,-0.00277870,0.00060238,0.00000002,0.001
 90653,-0.00716812,0.,0.03585960,0.03630151,0.00000208,0.02985623,-0.11
 552445,-0.00000163,-0.03811950,-0.00066027,-0.00000093,0.00207412,0.00
 246832,0.00000010,0.09564490,0.83329241,0.00000017,-0.00000050,0.00562
 100,-0.00000009,0.00000020,-0.00102164,-0.00000016,-0.00000045,0.00327
 306,0.00000195,0.00000034,0.00281727,-0.00000330,-0.00000260,-0.067490
 54,-0.00000154,0.00000080,-0.00609412,-0.00000002,0.00000004,-0.002593
 40,-0.00000654,-0.00000266,0.22363107,-0.00067337,0.00031017,0.0000000
 1,0.00069832,-0.00013885,0.,-0.00007429,0.00151318,-0.00000022,-0.0050
 7974,-0.00389352,0.00000007,-0.01167355,0.02337425,0.00000353,0.000244
 50,0.00048245,-0.00000027,-0.00655254,-0.00491805,-0.00000047,-0.15365
 332,0.06930678,0.00000174,0.57184055,0.00082452,-0.00029581,0.00000008
 ,-0.00065806,0.00013095,0.00000005,0.00007507,0.00172795,0.,-0.0046293
 4,-0.00077328,-0.00000031,0.00434593,0.00955227,-0.00000122,-0.0000338
 5,-0.00246501,0.,-0.00343319,0.00045656,0.00000003,0.05299365,-0.14146
 020,-0.00000640,0.07224319,0.54302405,0.00000009,-0.00000006,-0.000237
 27,-0.00000018,0.00000006,0.00006481,0.,0.00000021,-0.00095482,-0.0000
 0073,0.00000015,0.00211131,-0.00000035,0.00000013,0.01335412,0.0000000
 2,-0.00000039,-0.00002085,0.00000045,0.00000069,-0.00116618,0.00000623
 ,-0.00001273,-0.08913785,0.00000683,-0.00000854,0.54653867,-0.00259275
 ,-0.00172185,-0.00000041,0.00414315,0.00015335,0.00000021,-0.00291397,
 -0.00366728,-0.00000038,0.00935498,0.00134440,0.00000037,-0.03621211,-
 0.05560229,0.00000056,-0.00633860,0.01419493,0.00000081,0.00308568,-0.
 00521824,-0.00000004,-0.19862141,-0.20524055,0.00000639,0.01879278,0.0
 1771445,0.00000131,0.25604494,-0.00877631,0.00494081,-0.00000022,0.004
 91695,-0.00883062,-0.00000017,0.00487309,0.00475056,-0.00000003,-0.005
 52100,-0.04221129,-0.00000103,-0.06603547,-0.01306751,0.,0.00932579,0.
 01524767,0.00000086,-0.00043954,-0.00314688,0.00000019,-0.16805557,-0.
 54585796,0.00001284,-0.01232880,-0.06235429,0.00000118,0.22368188,0.63
 003550,0.,0.00000015,-0.00140450,-0.00000005,-0.00000003,0.00028794,0.
 00000007,-0.00000004,0.00026163,-0.00000023,0.00000104,-0.00218847,-0.
 00000012,0.00000044,0.01794175,0.00000016,-0.00000068,0.00597333,-0.00
 000003,0.00000006,0.00011234,0.00000746,0.00001599,-0.06975504,0.00000
 160,-0.00000302,0.02370134,-0.00000938,-0.00001241,0.03444475,0.010708
 31,-0.01025028,-0.00000013,-0.00478406,0.02255324,0.00000080,-0.044311
 23,-0.06847686,-0.00000246,-0.15916098,-0.10666620,-0.00000151,0.03704
 888,0.00926083,0.00000146,-0.01677552,-0.00456034,-0.00000045,0.003300
 08,0.00032490,0.00000003,-0.03318023,-0.02694717,-0.00000046,0.0021776
 6,0.00435957,0.00000033,-0.03335173,0.05848669,-0.00000113,0.59349662,
 0.00200306,-0.00815791,-0.00000041,0.00469944,0.01062622,0.00000070,-0
 .03334657,-0.01178659,-0.00000023,-0.07721435,-0.33271426,-0.00000726,
 0.00208578,-0.05146826,-0.00000090,0.00196367,-0.00080886,0.00000033,-
 0.00064833,-0.00218165,-0.00000027,-0.02396068,-0.00935918,-0.00000012
 ,0.00058793,-0.00073143,-0.00000035,0.01867599,0.01421835,-0.00000047,
 0.06238408,0.45864224,0.00000024,-0.00000036,-0.00170919,0.00000008,0.
 00000056,0.00534626,-0.00000171,-0.00000099,0.00907035,0.00000015,-0.0
 0000436,-0.05232475,0.00000088,-0.00000124,0.01083089,-0.00000059,-0.0
 0000029,0.00689445,0.00000004,0.00000012,0.00010114,-0.00000010,-0.000
 00028,-0.00288997,-0.00000010,-0.00000010,-0.00068968,0.00000038,-0.00
 000005,0.00809183,-0.00001477,0.00001041,0.04424165,-0.04923481,0.0128
 3164,-0.00000134,-0.33655830,-0.04922726,-0.00000965,-0.04773433,-0.01
 100907,-0.00000198,0.01260896,-0.00465800,-0.00000023,-0.01542182,0.00
 089172,-0.00000018,0.00895536,0.00292354,-0.00000031,-0.00216254,0.001
 41998,0.00000013,0.01237381,0.00283002,0.00000019,-0.00061830,0.000883
 22,0.00000019,-0.00464700,-0.00484656,0.00000003,-0.00266433,-0.001156
 54,0.,0.54612459,0.04987880,0.00787089,0.00000138,0.00352682,-0.118180
 45,-0.00000083,-0.04808557,0.00224792,-0.00000161,0.00885377,-0.007429
 56,-0.00000035,0.00007011,0.00513092,0.00000032,-0.00689453,-0.0097776
 1,-0.00000075,0.00349049,-0.00049835,0.,-0.00078426,0.00000248,-0.0000
 0001,-0.00005797,0.00004763,-0.00000001,-0.00007340,0.00125535,0.00000
 001,-0.00436997,-0.00054679,0.,-0.15841348,0.57276229,0.00000045,-0.00
 000006,0.00716169,-0.00001066,-0.00000240,-0.04760784,-0.00000360,-0.0
 0000030,0.01182533,0.00000048,-0.00000081,0.00973201,-0.00000011,0.000
 00030,-0.00146655,-0.00000079,-0.00000036,0.00447612,0.00000011,0.,-0.
 00025576,0.00000005,0.00000006,-0.00034109,0.,-0.00000004,0.00016870,-
 0.00000006,0.00000004,-0.00007485,-0.00000042,-0.00000015,-0.00051474,
 0.00002077,-0.00000974,0.03051508,-0.12656048,-0.12293654,-0.00000813,
 0.01224794,0.01548514,0.00000093,-0.00186495,0.00290625,-0.00000006,-0
 .00126821,0.00073728,0.00000005,-0.00486574,0.00209300,-0.00000037,-0.
 01006657,-0.02829111,-0.00000146,0.00260025,-0.00117676,0.00000011,0.0
 0086624,-0.00125803,-0.00000006,-0.00000132,0.00001729,0.00000002,-0.0
 0081795,-0.00049594,0.00000005,0.00052317,0.00002889,0.,0.00101470,-0.
 00077059,0.00000009,0.12967561,-0.12154653,-0.28083045,-0.00001379,-0.
 01791369,-0.01933176,-0.00000143,0.00421997,-0.00246964,-0.00000012,0.
 00129644,0.00022050,0.00000011,0.00013637,0.00131448,-0.00000015,0.004
 09820,-0.00001322,0.00000002,0.00094342,0.00359720,0.00000043,0.000648
 65,0.00006756,-0.00000005,-0.00002721,0.00003789,0.00000002,-0.0002868
 4,-0.00001225,0.00000002,-0.00038720,-0.00003477,0.,-0.00054573,0.0019
 4765,0.00000017,0.13130540,0.29592680,-0.00000826,-0.00001368,-0.02487
 979,-0.00000043,-0.00000065,0.00280279,0.00000017,-0.00000004,0.004018
 27,0.,0.00000011,-0.00172175,-0.00000046,-0.00000023,0.00496696,-0.000
 00011,-0.00000078,0.00224333,0.00000044,0.00000038,-0.00518093,0.00000
 006,-0.00000005,0.00136756,0.,-0.00000002,-0.00015129,-0.00000007,-0.0
 0000001,-0.00052343,-0.00000004,0.00000003,0.00016430,0.00000016,0.000
 00016,-0.00305204,0.00000867,0.00001494,0.01868276,-0.00097079,-0.0027
 9352,-0.00000022,0.00897483,-0.01443313,-0.00000022,-0.13404770,0.1257
 2995,0.00000130,-0.01116236,0.03093931,0.00000045,-0.00495088,-0.00227
 330,-0.00000034,-0.00120495,-0.00123069,-0.00000008,0.00024971,0.00024
 902,0.00000001,0.00024575,0.00217999,0.00000006,-0.00048571,-0.0003102
 9,0.,0.00021635,-0.00079374,0.00000002,0.00318295,-0.00045903,0.000000
 07,0.00338003,-0.00042099,0.00000024,0.00054969,-0.00069044,-0.0000000
 6,0.13727278,-0.00382681,-0.00238511,-0.00000035,0.01833316,-0.0173007
 7,-0.00000009,0.12767811,-0.27355753,-0.00000432,-0.00238538,0.0035934
 2,-0.00000015,-0.00035962,0.00068026,-0.00000011,-0.00099121,0.0000717
 5,-0.00000001,0.00020877,0.00013553,0.00000002,-0.00059429,-0.00008416
 ,-0.00000003,0.00000655,-0.00001555,0.,0.00012201,0.00028725,0.,-0.000
 22212,0.00042297,0.00000011,0.00029431,0.00267988,0.00000024,0.0007838
 6,-0.00094167,-0.00000004,-0.13677645,0.28743239,-0.00000066,-0.000000
 28,0.00496203,0.00000055,-0.00000144,0.00171269,0.00000188,-0.00000403
 ,-0.02677546,-0.00000092,0.00000082,0.00400447,-0.00000020,-0.00000021
 ,0.00459184,0.00000026,-0.00000001,-0.00127484,-0.00000007,0.00000015,
 -0.00014276,0.00000003,0.,0.00050966,-0.00000003,0.00000002,-0.0001257
 2,0.,-0.00000004,-0.00009060,0.00000014,0.00000006,-0.00360847,0.00000
 048,0.00000014,-0.00446984,0.00000004,-0.00000008,0.00079464,-0.000001
 21,0.00000486,0.01980287,0.00061542,0.00558300,0.00000042,-0.00103011,
 -0.00011728,-0.00000002,-0.00020877,-0.00000082,0.00000005,0.00090578,
 0.00100396,-0.00000009,-0.00176364,0.00358806,-0.00000007,0.01494362,0
 .02410191,0.00000305,-0.24890332,-0.27099006,-0.00004089,-0.00059035,0
 .00045231,0.00000007,-0.00118881,0.00008283,0.00000022,0.00014927,0.00
 017179,0.,-0.00055208,-0.00029525,-0.00000004,0.00020394,-0.00010133,-
 0.00000002,-0.00177958,-0.00122057,-0.00000013,-0.00009315,-0.00015365
 ,-0.00000001,0.23963106,-0.00279725,0.00564449,0.00000029,0.00036590,-
 0.00222758,0.00000015,0.00081729,0.00118163,0.00000005,-0.00288790,-0.
 00089764,-0.00000004,0.00653337,-0.00206005,-0.00000011,-0.02609857,-0
 .03930859,-0.00000441,-0.21648049,-0.33075873,-0.00004276,-0.00084296,
 -0.00007599,0.,0.00018672,-0.00001279,-0.00000004,0.00049574,0.0004597
 1,0.00000001,0.00083458,0.00012139,0.00000004,-0.00094068,0.00052379,0
 .00000003,0.00153646,0.00017447,-0.00000016,0.00005335,0.00008023,-0.0
 0000005,0.23914774,0.36680665,-0.00000013,0.00000073,-0.00171146,-0.00
 000002,-0.00000008,-0.00109671,0.00000010,0.00000002,0.00001898,-0.000
 00017,0.00000015,0.00162431,0.,0.00000013,0.00269566,-0.00000090,0.000
 00055,-0.00206689,-0.00003683,-0.00004867,-0.00580460,-0.00000005,0.00
 000002,-0.00063456,0.,-0.00000006,0.00010132,0.,-0.00000002,-0.0000932
 4,0.00000006,0.00000005,-0.00022646,-0.00000008,0.00000007,-0.00004310
 ,0.00000013,-0.00000012,0.00115040,0.,0.,0.00002309,0.00003762,0.00004
 701,0.00564985,-0.00010619,-0.00009958,-0.00004305,0.00013613,0.000054
 22,-0.00008579,-0.00004062,-0.00034572,0.00029519,0.00051253,-0.000201
 56,-0.00053383,-0.00240173,-0.00069660,-0.00169158,-0.00124159,0.00262
 964,0.00036655,-0.00377149,-0.00301392,0.00082313,0.00755631,0.0073960
 9,0.02061678,-0.05756222,-0.02413177,-0.03693664,-0.00089843,0.0031336
 3,-0.00225208,-0.00039729,0.00008428,0.00004236,-0.00019466,-0.0000423
 7,-0.00001695,-0.00003336,-0.00001668,0.00005800,0.00001822,0.00000162
 ,0.00001871,-0.00018770,-0.00007886,-0.00006360,0.06021981,-0.00005935
 ,0.00001908,-0.00019401,0.00004155,-0.00014311,-0.00001757,0.00017404,
 0.00006770,-0.00026104,-0.00025471,-0.00047259,0.00055089,0.00025412,0
 .00032825,0.00190084,0.00038747,0.00029927,-0.00026127,-0.00227922,-0.
 00145300,0.00094919,-0.00792414,-0.01411669,-0.02215176,-0.02480617,-0
 .13337184,-0.13540580,0.00372899,-0.00494754,0.00296797,0.00084542,0.0
 0015057,-0.00012786,-0.00002504,0.00000349,0.00004943,-0.00000456,0.00
 000225,0.00000259,-0.00000906,-0.00000136,-0.00001644,-0.00036980,0.00
 011417,0.00020466,0.02919308,0.14721359,-0.00039413,0.00041076,-0.0001
 3285,0.00003496,-0.00036546,-0.00004627,0.00015941,0.00018185,0.000024
 15,-0.00011490,-0.00004522,0.00012521,0.00043258,-0.00018717,0.0001990
 0,0.00066486,-0.00193600,-0.00003309,-0.00129820,0.00056711,0.00041407
 ,-0.00038467,0.00274576,0.00152990,-0.03612659,-0.13152995,-0.22317287
 ,0.00033472,0.00102799,-0.00090274,0.00018388,0.00016584,-0.00002898,-
 0.00003139,0.00007014,0.00000711,0.00004161,0.00002520,0.00002843,0.00
 001202,0.00000669,-0.00000175,-0.00051048,0.00004377,0.00003732,0.0405
 7252,0.14198470,0.24054521,-0.00018346,0.00005190,-0.00000002,0.000297
 99,-0.00007219,0.,-0.00011344,0.00043693,0.,-0.00111495,-0.00143607,-0
 .00000008,-0.00023004,0.00416956,0.00000047,0.00072463,0.00014591,0.,-
 0.00008846,-0.00055663,0.00000002,-0.02424732,-0.00925018,0.00000075,-
 0.29661845,-0.09054340,0.00001243,0.00493698,-0.00255760,-0.00000035,0
 .00100479,0.00035271,0.,-0.00027958,-0.00000050,0.,-0.00001150,-0.0000
 2439,0.,-0.00013641,0.00000635,0.,-0.00010356,0.00020279,0.00000004,-0
 .00152783,0.00021640,0.00042154,0.32003960,-0.00025546,0.00035466,0.,-
 0.00003933,-0.00026627,0.,0.00016282,-0.00029816,0.,0.00123172,0.00066
 227,0.00000007,0.00117073,-0.00446800,-0.00000030,0.00033785,-0.001701
 21,-0.00000004,-0.00163518,0.00017251,-0.00000005,0.03012242,0.0079275
 2,-0.00000130,-0.09713223,-0.08239069,0.00000456,-0.00113775,0.0021437
 2,0.00000007,-0.00046362,0.00008792,0.00000002,0.00001612,0.00006299,0
 .,0.00005117,0.00002632,0.,0.00013933,0.00001264,0.,-0.00041689,0.0001
 3492,0.00000003,-0.01555363,-0.00506128,0.00277433,0.09832351,0.087806
 99,0.,0.00000005,-0.00015628,-0.00000002,-0.00000004,0.00000147,0.0000
 0004,-0.00000003,-0.00017845,0.00000009,0.00000011,0.00049251,-0.00000
 002,-0.00000049,0.00150766,0.00000009,-0.00000026,-0.00026726,0.000000
 09,0.00000021,0.00089729,0.00000327,0.00000140,-0.00124888,0.00001254,
 0.00000424,-0.05015967,-0.00000053,0.00000024,-0.00108447,-0.00000006,
 0.,-0.00006451,0.00000001,0.,0.00000914,0.,0.,0.00001612,0.00000002,0.
 ,-0.00000680,-0.00000003,-0.00000003,0.00015960,-0.02473469,-0.0066207
 1,0.00196821,-0.00001392,-0.00000443,0.04611244,-0.00010638,-0.0000992
 9,0.00004291,0.00013611,0.00005406,0.00008582,-0.00004054,-0.00034555,
 -0.00029525,0.00051224,-0.00020147,0.00053400,-0.00240125,-0.00069630,
 0.00169134,-0.00124091,0.00262788,-0.00036606,-0.00379050,-0.00302459,
 -0.00082223,0.00755357,0.00739775,-0.02061605,-0.05756556,-0.02412638,
 0.03691004,-0.00089753,0.00313413,0.00225177,-0.00039709,0.00008427,-0
 .00004235,-0.00019463,-0.00004232,0.00001694,-0.00003328,-0.00001664,-
 0.00005798,0.00001822,0.00000162,-0.00001871,-0.00018914,-0.00007776,0
 .00006388,-0.00061901,0.00186184,-0.00382437,-0.00152402,-0.01555845,0
 .02473304,0.06024074,-0.00005960,0.00001928,0.00019397,0.00004154,-0.0
 0014324,0.00001757,0.00017409,0.00006779,0.00026100,-0.00025463,-0.000
 47254,-0.00055093,0.00025458,0.00032829,-0.00190070,0.00038768,0.00029
 822,0.00026135,-0.00228954,-0.00145841,-0.00094868,-0.00792210,-0.0141
 1770,0.02215157,-0.02480022,-0.13340509,0.13542049,0.00372896,-0.00494
 871,-0.00296802,0.00084555,0.00015067,0.00012785,-0.00002500,0.0000035
 3,-0.00004942,-0.00000451,0.00000228,-0.00000258,-0.00000905,-0.000001
 35,0.00001644,-0.00037052,0.00011476,-0.00020446,0.00185871,0.01096348
 ,-0.01604274,0.00021745,-0.00506242,0.00661975,0.02919766,0.14725559,0
 .00039410,-0.00041068,-0.00013278,-0.00003488,0.00036538,-0.00004624,-
 0.00015940,-0.00018181,0.00002422,0.00011483,0.00004499,0.00012500,-0.
 00043261,0.00018744,0.00019836,-0.00066454,0.00193576,-0.00003303,0.00
 129837,-0.00056695,0.00041390,0.00038259,-0.00274741,0.00153508,0.0361
 0101,0.13154542,-0.22315823,-0.00033434,-0.00102909,-0.00090333,-0.000
 18371,-0.00016571,-0.00002894,0.00003131,-0.00007013,0.00000710,-0.000
 04161,-0.00002521,0.00002841,-0.00001203,-0.00000668,-0.00000175,0.000
 51032,-0.00004373,0.00003716,0.00382270,0.01604690,-0.02047826,-0.0004
 2088,-0.00277293,0.00196517,-0.04054443,-0.14200318,0.24053006,-0.0048
 2968,0.00474132,0.00000009,0.00003958,-0.00826750,-0.00000025,0.009653
 05,0.00529940,0.00000052,-0.03362483,-0.03682114,-0.00000022,-0.016208
 27,0.00381868,-0.00000069,0.00340197,0.00401634,-0.00000009,-0.0009357
 6,0.00099584,0.00000015,0.03568866,0.02665749,0.00000014,-0.00211857,-
 0.00559511,-0.00000026,-0.00995196,-0.03801438,0.00000222,-0.35703353,
 0.04341378,0.00001547,-0.00041561,0.00119758,0.00000008,-0.00026768,0.
 00014973,0.00000001,-0.00054052,-0.00008642,-0.00000005,0.00013908,0.0
 0000948,-0.00000002,0.00053303,-0.00096862,-0.00017019,-0.00086948,0.0
 0064979,0.00000008,0.00053288,-0.00096880,0.00017001,0.37722808,0.0031
 8585,-0.00220150,0.00000005,-0.00252666,0.00499183,-0.00000005,-0.0049
 9358,-0.00926817,-0.00000041,-0.04559850,0.01228203,0.00000185,0.00838
 864,-0.00179140,0.00000033,-0.00328185,-0.00306819,-0.00000020,0.00048
 072,0.00071022,-0.00000001,-0.00909329,-0.02450974,0.00000009,0.000092
 76,0.00222273,0.00000041,-0.01058627,0.01256293,-0.00000110,0.06254285
 ,-0.06651939,-0.00000359,0.00076064,-0.00108444,-0.00000004,0.00021857
 ,-0.00004466,0.,0.00033635,0.00003492,0.00000007,-0.00011045,0.0000009
 6,0.,-0.00014713,0.00040979,0.00010240,0.00032501,-0.00014046,-0.00000
 003,-0.00014702,0.00040982,-0.00010236,0.00000286,0.07488575,0.0000000
 4,0.00000006,0.00005264,-0.00000017,-0.00000009,0.00219753,-0.00000022
 ,-0.00000054,0.00377741,-0.00000115,-0.00000063,-0.00108826,-0.0000001
 3,-0.00000005,-0.00134762,0.00000006,0.,-0.00110246,0.,-0.00000009,-0.
 00006859,-0.00000061,0.00000085,0.00091785,0.00000034,-0.00000023,0.00
 299356,0.00000048,-0.00000018,-0.01380904,0.00001832,-0.00000160,-0.02
 264313,-0.00000007,-0.00000004,-0.00056043,0.,0.,-0.00002770,0.0000000
 4,0.00000005,-0.00076577,0.,-0.00000002,0.00007672,-0.00027220,0.00040
 111,-0.00009061,0.,-0.00000003,0.00002908,0.00027218,-0.00040112,-0.00
 009070,-0.00001693,0.00000256,0.03145328,-0.00587928,-0.00354986,-0.00
 000049,-0.02616004,0.04749409,-0.00000084,0.00375305,0.00055442,0.0000
 0021,-0.00180972,0.00004326,0.00000020,0.00109735,-0.00054568,-0.00000
 002,-0.00021008,0.00247604,0.00000006,-0.00030355,-0.00066141,0.000000
 02,-0.00090173,-0.00029054,-0.00000003,0.00011192,-0.00007832,-0.00000
 001,0.00051931,0.00014096,0.,0.00116564,0.00071688,0.,-0.12453549,0.15
 303972,-0.00000659,0.00009303,-0.00012225,0.,-0.00051604,-0.00204039,-
 0.00000024,0.00000206,0.00002107,-0.00000002,0.00000610,-0.00000226,-0
 .00000317,0.00004453,-0.00001293,0.,0.00000610,-0.00000226,0.00000318,
 -0.00042043,0.00015050,0.,0.15393727,-0.00167674,0.00177991,-0.0000000
 2,-0.00385048,0.00278087,-0.00000030,-0.00600533,0.00304665,-0.0000001
 6,0.00078700,-0.00121241,0.00000003,-0.00123439,0.00010465,0.,0.000522
 38,0.00037168,-0.00000009,0.00004063,-0.00018924,0.00000005,0.00107549
 ,0.00023459,0.,-0.00000095,0.00007596,0.00000002,-0.00030622,-0.000524
 77,0.,-0.00009395,-0.00011123,0.,0.20799618,-0.45702161,0.00001306,-0.
 00022525,0.00036101,0.00000005,0.00057241,-0.00114374,0.,0.00001502,-0
 .00001578,-0.00000002,-0.00002345,-0.00000424,0.,-0.00000755,-0.000003
 97,0.,-0.00002345,-0.00000424,0.,-0.00023030,0.00011697,0.,-0.19733105
 ,0.45135889,-0.00000024,-0.00000009,0.00312445,0.00000037,0.00000162,-
 0.00250388,0.,0.00000002,-0.00159891,0.00000005,0.00000007,-0.00107484
 ,-0.00000014,0.,-0.00006862,0.00000015,-0.00000010,0.00228518,0.000000
 04,-0.00000001,-0.00056088,0.00000015,0.,0.00000464,0.,0.00000003,-0.0
 0005937,-0.00000004,-0.00000008,0.00001483,0.00000012,0.00000005,-0.00
 001205,-0.00000805,0.00001125,-0.00551604,0.,0.00000005,-0.00072704,-0
 .00000009,-0.00000019,0.00086245,0.,-0.00000003,0.00010262,0.00001448,
 -0.00000183,0.00000880,0.,0.,0.00000761,-0.00001449,0.00000183,0.00000
 880,-0.00000006,0.00000003,0.00009622,0.00000773,-0.00001260,0.0056060
 4\\0.00001483,-0.00000988,0.00000093,-0.00012370,0.00005106,-0.0000001
 8,-0.00000381,-0.00003132,-0.00000012,0.00007099,0.00011876,0.00000188
 ,-0.00005236,-0.00001878,-0.00000588,0.00002174,-0.00012426,-0.0000031
 4,-0.00000371,0.00010037,0.00000068,0.00000232,0.00001508,0.00002489,0
 .00000138,-0.00003652,-0.00000752,0.00002242,0.00003464,-0.00000787,0.
 00004191,-0.00006888,0.00000044,0.00007857,-0.00003932,0.00000047,-0.0
 0000342,-0.00000144,0.,0.00000149,0.00001216,0.00000021,-0.00002614,-0
 .00000812,-0.00000075,-0.00000559,-0.00001284,-0.00000186,0.00000878,0
 .00000192,-0.00000002,-0.00000556,-0.00000928,0.00000112,-0.00005990,0
 .00000271,-0.00000271,0.00001976,0.00002394,-0.00000055\\\@


 IF I HAVE SEEN FARTHER, IT IS BY STANDING ON THE
 SHOULDERS OF GIANTS. -- SIR ISAAC NEWTON
 Job cpu time:       0 days  1 hours 13 minutes 50.6 seconds.
 File lengths (MBytes):  RWF=    155 Int=      0 D2E=      0 Chk=      6 Scr=      1
 Normal termination of Gaussian 09 at Sun Jun 16 16:14:57 2024.
