 Entering Gaussian System, Link 0=g09
 Input=B2PLYPD33HPA.gjf
 Output=B2PLYPD33HPA.log
 Initial command:
 /home/phzd/g09E/g09/l1.exe "/home/phzd/g09E/scratch/Gau-1460172.inp" -scrdir="/home/phzd/g09E/scratch/"
 Default is to use a total of  18 processors:
                               18 via shared-memory
                                1 via Linda
 Entering Link 1 = /home/phzd/g09E/g09/l1.exe PID=   1460174.
  
 Copyright (c) 1988,1990,1992,1993,1995,1998,2003,2009,2015,
            Gaussian, Inc.  All Rights Reserved.
  
 This is part of the Gaussian(R) 09 program.  It is based on
 the Gaussian(R) 03 system (copyright 2003, Gaussian, Inc.),
 the Gaussian(R) 98 system (copyright 1998, Gaussian, Inc.),
 the Gaussian(R) 94 system (copyright 1995, Gaussian, Inc.),
 the Gaussian 92(TM) system (copyright 1992, Gaussian, Inc.),
 the Gaussian 90(TM) system (copyright 1990, Gaussian, Inc.),
 the Gaussian 88(TM) system (copyright 1988, Gaussian, Inc.),
 the Gaussian 86(TM) system (copyright 1986, Carnegie Mellon
 University), and the Gaussian 82(TM) system (copyright 1983,
 Carnegie Mellon University). Gaussian is a federally registered
 trademark of Gaussian, Inc.
  
 This software contains proprietary and confidential information,
 including trade secrets, belonging to Gaussian, Inc.
  
 This software is provided under written license and may be
 used, copied, transmitted, or stored only in accord with that
 written license.
  
 The following legend is applicable only to US Government
 contracts under FAR:
  
                    RESTRICTED RIGHTS LEGEND
  
 Use, reproduction and disclosure by the US Government is
 subject to restrictions as set forth in subparagraphs (a)
 and (c) of the Commercial Computer Software - Restricted
 Rights clause in FAR 52.227-19.
  
 Gaussian, Inc.
 340 Quinnipiac St., Bldg. 40, Wallingford CT 06492
  
  
 ---------------------------------------------------------------
 Warning -- This program may not be used in any manner that
 competes with the business of Gaussian, Inc. or will provide
 assistance to any competitor of Gaussian, Inc.  The licensee
 of this program is prohibited from giving any competitor of
 Gaussian, Inc. access to this program.  By using this program,
 the user acknowledges that Gaussian, Inc. is engaged in the
 business of creating and licensing software in the field of
 computational chemistry and represents and warrants to the
 licensee that it is not a competitor of Gaussian, Inc. and that
 it will not use this program in any manner prohibited above.
 ---------------------------------------------------------------
  

 Cite this work as:
 Gaussian 09, Revision E.01,
 M. J. Frisch, G. W. Trucks, H. B. Schlegel, G. E. Scuseria, 
 M. A. Robb, J. R. Cheeseman, G. Scalmani, V. Barone, B. Mennucci, 
 G. A. Petersson, H. Nakatsuji, M. Caricato, X. Li, H. P. Hratchian, 
 A. F. Izmaylov, J. Bloino, G. Zheng, J. L. Sonnenberg, M. Hada, 
 M. Ehara, K. Toyota, R. Fukuda, J. Hasegawa, M. Ishida, T. Nakajima, 
 Y. Honda, O. Kitao, H. Nakai, T. Vreven, J. A. Montgomery, Jr., 
 J. E. Peralta, F. Ogliaro, M. Bearpark, J. J. Heyd, E. Brothers, 
 K. N. Kudin, V. N. Staroverov, T. Keith, R. Kobayashi, J. Normand, 
 K. Raghavachari, A. Rendell, J. C. Burant, S. S. Iyengar, J. Tomasi, 
 M. Cossi, N. Rega, J. M. Millam, M. Klene, J. E. Knox, J. B. Cross, 
 V. Bakken, C. Adamo, J. Jaramillo, R. Gomperts, R. E. Stratmann, 
 O. Yazyev, A. J. Austin, R. Cammi, C. Pomelli, J. W. Ochterski, 
 R. L. Martin, K. Morokuma, V. G. Zakrzewski, G. A. Voth, 
 P. Salvador, J. J. Dannenberg, S. Dapprich, A. D. Daniels, 
 O. Farkas, J. B. Foresman, J. V. Ortiz, J. Cioslowski, 
 and D. J. Fox, Gaussian, Inc., Wallingford CT, 2013.
 
 ******************************************
 Gaussian 09:  ES64L-G09RevE.01 30-Nov-2015
                18-Dec-2024 
 ******************************************
 %chk=B2PLYPD33HPA.chk
 -----------------------------------------------------
 # opt freq B2PLYP/6-31+g(d,p) EmpiricalDispersion=GD3
 -----------------------------------------------------
 1/18=20,19=15,38=1/1,3;
 2/9=110,12=2,17=6,18=5,40=1/2;
 3/5=1,6=6,7=111,11=9,16=1,25=1,30=1,71=1,74=-47,124=31/1,2,3;
 4//1;
 5/5=2,38=5/2;
 8/6=4,10=2/1;
 9/15=2,16=-3/6;
 10/5=1/2;
 6/7=2,8=2,9=2,10=2/1;
 7/12=2/1,2,3,16;
 1/18=20,19=15/3(2);
 2/9=110/2;
 99//99;
 2/9=110/2;
 3/5=1,6=6,7=111,11=9,16=1,25=1,30=1,71=1,74=-47,124=31/1,2,3;
 4/5=5,16=3,69=1/1;
 5/5=2,38=5/2;
 8/6=4,10=2/1;
 9/15=2,16=-3/6;
 10/5=1/2;
 7/12=2/1,2,3,16;
 1/18=20,19=15/3(-8);
 2/9=110/2;
 6/7=2,8=2,9=2,10=2/1;
 99//99;
 ----------
 [No Title]
 ----------
 Symbolic Z-matrix:
 Charge =  0 Multiplicity = 1
 N                    -0.44313  -1.44944   0.00003 
 C                    -1.76628  -1.47649   0.00004 
 C                    -2.55143  -0.3107    0.00002 
 C                    -1.92965   0.92339   0. 
 C                    -0.52654   0.97374  0. 
 C                     0.17294  -0.25694   0.00001 
 C                     1.64752  -0.22649  -0.00001 
 O                     2.29205   0.82512  -0.00007 
 O                     2.24875  -1.41439   0. 
 O                     0.07468   2.16645  -0.00001 
 H                    -2.23201  -2.45928   0.00005 
 H                    -3.63517  -0.384     0.00003 
 H                    -2.48725   1.85457  -0.00001 
 H                     3.20385  -1.24105  -0.00003 
 H                     1.0492    1.99928   0.00001 
 

 GradGradGradGradGradGradGradGradGradGradGradGradGradGradGradGradGradGrad
 Berny optimization.
 Initialization pass.
                           ----------------------------
                           !    Initial Parameters    !
                           ! (Angstroms and Degrees)  !
 --------------------------                            --------------------------
 ! Name  Definition              Value          Derivative Info.                !
 --------------------------------------------------------------------------------
 ! R1    R(1,2)                  1.3234         estimate D2E/DX2                !
 ! R2    R(1,6)                  1.3422         estimate D2E/DX2                !
 ! R3    R(2,3)                  1.4055         estimate D2E/DX2                !
 ! R4    R(2,11)                 1.0876         estimate D2E/DX2                !
 ! R5    R(3,4)                  1.3819         estimate D2E/DX2                !
 ! R6    R(3,12)                 1.0862         estimate D2E/DX2                !
 ! R7    R(4,5)                  1.404          estimate D2E/DX2                !
 ! R8    R(4,13)                 1.0854         estimate D2E/DX2                !
 ! R9    R(5,6)                  1.4156         estimate D2E/DX2                !
 ! R10   R(5,10)                 1.3357         estimate D2E/DX2                !
 ! R11   R(6,7)                  1.4749         estimate D2E/DX2                !
 ! R12   R(7,8)                  1.2334         estimate D2E/DX2                !
 ! R13   R(7,9)                  1.3314         estimate D2E/DX2                !
 ! R14   R(9,14)                 0.9707         estimate D2E/DX2                !
 ! R15   R(10,15)                0.9888         estimate D2E/DX2                !
 ! A1    A(2,1,6)              118.4932         estimate D2E/DX2                !
 ! A2    A(1,2,3)              122.7888         estimate D2E/DX2                !
 ! A3    A(1,2,11)             116.5266         estimate D2E/DX2                !
 ! A4    A(3,2,11)             120.6846         estimate D2E/DX2                !
 ! A5    A(2,3,4)              119.2992         estimate D2E/DX2                !
 ! A6    A(2,3,12)             120.0908         estimate D2E/DX2                !
 ! A7    A(4,3,12)             120.61           estimate D2E/DX2                !
 ! A8    A(3,4,5)              118.7961         estimate D2E/DX2                !
 ! A9    A(3,4,13)             122.3456         estimate D2E/DX2                !
 ! A10   A(5,4,13)             118.8583         estimate D2E/DX2                !
 ! A11   A(4,5,6)              117.5572         estimate D2E/DX2                !
 ! A12   A(4,5,10)             118.8068         estimate D2E/DX2                !
 ! A13   A(6,5,10)             123.6359         estimate D2E/DX2                !
 ! A14   A(1,6,5)              123.0655         estimate D2E/DX2                !
 ! A15   A(1,6,7)              118.5047         estimate D2E/DX2                !
 ! A16   A(5,6,7)              118.4298         estimate D2E/DX2                !
 ! A17   A(6,7,8)              122.6868         estimate D2E/DX2                !
 ! A18   A(6,7,9)              115.6624         estimate D2E/DX2                !
 ! A19   A(8,7,9)              121.6508         estimate D2E/DX2                !
 ! A20   A(7,9,14)             106.5583         estimate D2E/DX2                !
 ! A21   A(5,10,15)            107.0177         estimate D2E/DX2                !
 ! D1    D(6,1,2,3)              0.0002         estimate D2E/DX2                !
 ! D2    D(6,1,2,11)          -180.0            estimate D2E/DX2                !
 ! D3    D(2,1,6,5)              0.0            estimate D2E/DX2                !
 ! D4    D(2,1,6,7)           -179.9995         estimate D2E/DX2                !
 ! D5    D(1,2,3,4)             -0.0001         estimate D2E/DX2                !
 ! D6    D(1,2,3,12)           179.9999         estimate D2E/DX2                !
 ! D7    D(11,2,3,4)          -180.0            estimate D2E/DX2                !
 ! D8    D(11,2,3,12)            0.0001         estimate D2E/DX2                !
 ! D9    D(2,3,4,5)              0.0            estimate D2E/DX2                !
 ! D10   D(2,3,4,13)          -179.9998         estimate D2E/DX2                !
 ! D11   D(12,3,4,5)           179.9999         estimate D2E/DX2                !
 ! D12   D(12,3,4,13)            0.0002         estimate D2E/DX2                !
 ! D13   D(3,4,5,6)              0.0002         estimate D2E/DX2                !
 ! D14   D(3,4,5,10)          -179.9995         estimate D2E/DX2                !
 ! D15   D(13,4,5,6)           179.9999         estimate D2E/DX2                !
 ! D16   D(13,4,5,10)            0.0002         estimate D2E/DX2                !
 ! D17   D(4,5,6,1)             -0.0002         estimate D2E/DX2                !
 ! D18   D(4,5,6,7)            179.9994         estimate D2E/DX2                !
 ! D19   D(10,5,6,1)           179.9995         estimate D2E/DX2                !
 ! D20   D(10,5,6,7)            -0.0009         estimate D2E/DX2                !
 ! D21   D(4,5,10,15)          179.9989         estimate D2E/DX2                !
 ! D22   D(6,5,10,15)           -0.0008         estimate D2E/DX2                !
 ! D23   D(1,6,7,8)            179.9978         estimate D2E/DX2                !
 ! D24   D(1,6,7,9)             -0.0003         estimate D2E/DX2                !
 ! D25   D(5,6,7,8)             -0.0018         estimate D2E/DX2                !
 ! D26   D(5,6,7,9)           -179.9999         estimate D2E/DX2                !
 ! D27   D(6,7,9,14)           179.9991         estimate D2E/DX2                !
 ! D28   D(8,7,9,14)             0.0009         estimate D2E/DX2                !
 --------------------------------------------------------------------------------
 Trust Radius=3.00D-01 FncErr=1.00D-07 GrdErr=1.00D-07
 Number of steps in this run=     74 maximum allowed number of steps=    100.
 GradGradGradGradGradGradGradGradGradGradGradGradGradGradGradGradGradGrad

                          Input orientation:                          
 ---------------------------------------------------------------------
 Center     Atomic      Atomic             Coordinates (Angstroms)
 Number     Number       Type             X           Y           Z
 ---------------------------------------------------------------------
      1          7           0       -0.443132   -1.449437    0.000028
      2          6           0       -1.766278   -1.476489    0.000035
      3          6           0       -2.551429   -0.310702    0.000021
      4          6           0       -1.929646    0.923389    0.000002
      5          6           0       -0.526538    0.973743   -0.000002
      6          6           0        0.172942   -0.256936    0.000010
      7          6           0        1.647524   -0.226491   -0.000008
      8          8           0        2.292053    0.825120   -0.000065
      9          8           0        2.248751   -1.414390    0.000002
     10          8           0        0.074676    2.166451   -0.000011
     11          1           0       -2.232005   -2.459282    0.000050
     12          1           0       -3.635166   -0.383999    0.000026
     13          1           0       -2.487249    1.854572   -0.000006
     14          1           0        3.203854   -1.241045   -0.000027
     15          1           0        1.049199    1.999280    0.000006
 ---------------------------------------------------------------------
                    Distance matrix (angstroms):
                    1          2          3          4          5
     1  N    0.000000
     2  C    1.323423   0.000000
     3  C    2.396171   1.405532   0.000000
     4  C    2.800005   2.405432   1.381881   0.000000
     5  C    2.424615   2.746014   2.397912   1.404011   0.000000
     6  C    1.342239   2.290826   2.724901   2.411233   1.415572
     7  C    2.422073   3.635456   4.199797   3.757442   2.483366
     8  O    3.557365   4.665560   4.974878   4.222843   2.822507
     9  O    2.692111   4.015509   4.925429   4.787924   3.661340
    10  O    3.652776   4.081681   3.610085   2.358497   1.335669
    11  H    2.054228   1.087559   2.172194   3.396157   3.833312
    12  H    3.365151   2.164781   1.086213   2.148968   3.392202
    13  H    3.885214   3.408191   2.166225   1.085368   2.149476
    14  H    3.652935   4.975706   5.829993   5.571140   4.338330
    15  H    3.757752   4.473017   4.277913   3.167185   1.880073
                    6          7          8          9         10
     6  C    0.000000
     7  C    1.474896   0.000000
     8  O    2.379386   1.233411   0.000000
     9  O    2.376696   1.331382   2.239929   0.000000
    10  O    2.425378   2.863568   2.591511   4.189156   0.000000
    11  H    3.260996   4.476170   5.590563   4.600975   5.168963
    12  H    3.810227   5.285038   6.049289   5.973457   4.501969
    13  H    3.396334   4.628949   4.888916   5.754634   2.580839
    14  H    3.186675   1.857817   2.258411   0.970706   4.626314
    15  H    2.420400   2.304788   1.709777   3.618296   0.988757
                   11         12         13         14         15
    11  H    0.000000
    12  H    2.505127   0.000000
    13  H    4.321399   2.515733   0.000000
    14  H    5.570697   6.892512   6.478541   0.000000
    15  H    5.535799   5.255787   3.539407   3.891304   0.000000
 Stoichiometry    C6H5NO3
 Framework group  C1[X(C6H5NO3)]
 Deg. of freedom    39
 Full point group                 C1      NOp   1
 Largest Abelian subgroup         C1      NOp   1
 Largest concise Abelian subgroup C1      NOp   1
                         Standard orientation:                         
 ---------------------------------------------------------------------
 Center     Atomic      Atomic             Coordinates (Angstroms)
 Number     Number       Type             X           Y           Z
 ---------------------------------------------------------------------
      1          7           0       -0.443132   -1.449437    0.000028
      2          6           0       -1.766278   -1.476489    0.000035
      3          6           0       -2.551429   -0.310702    0.000021
      4          6           0       -1.929646    0.923389    0.000002
      5          6           0       -0.526538    0.973743   -0.000002
      6          6           0        0.172942   -0.256936    0.000010
      7          6           0        1.647524   -0.226491   -0.000008
      8          8           0        2.292053    0.825120   -0.000065
      9          8           0        2.248751   -1.414390    0.000002
     10          8           0        0.074676    2.166451   -0.000011
     11          1           0       -2.232005   -2.459282    0.000050
     12          1           0       -3.635166   -0.383999    0.000026
     13          1           0       -2.487249    1.854572   -0.000006
     14          1           0        3.203854   -1.241045   -0.000027
     15          1           0        1.049199    1.999280    0.000006
 ---------------------------------------------------------------------
 Rotational constants (GHZ):      2.3726204      1.2629476      0.8242165
 Standard basis: 6-31+G(d,p) (6D, 7F)
 There are   215 symmetry adapted cartesian basis functions of A   symmetry.
 There are   215 symmetry adapted basis functions of A   symmetry.
   215 basis functions,   355 primitive gaussians,   215 cartesian basis functions
    36 alpha electrons       36 beta electrons
       nuclear repulsion energy       507.9639111222 Hartrees.
 NAtoms=   15 NActive=   15 NUniq=   15 SFac= 1.00D+00 NAtFMM=   60 NAOKFM=F Big=F
 Integral buffers will be    131072 words long.
 Regular integral format.
 Two-electron integral symmetry is turned on.
 Nuclear repulsion after empirical dispersion term =      507.9582212545 Hartrees.
 One-electron integrals computed using PRISM.
 NBasis=   215 RedAO= T EigKep=  5.81D-06  NBF=   215
 NBsUse=   215 1.00D-06 EigRej= -1.00D+00 NBFU=   215
 ExpMin= 4.38D-02 ExpMax= 5.48D+03 ExpMxC= 8.25D+02 IAcc=2 IRadAn=         4 AccDes= 0.00D+00
 Harris functional with IExCor=  419 and IRadAn=       4 diagonalized for initial guess.
 HarFok:  IExCor=  419 AccDes= 0.00D+00 IRadAn=         4 IDoV= 1 UseB2=F ITyADJ=14
 ICtDFT=  3500011 ScaDFX=  1.000000  1.000000  1.000000  1.000000
 FoFCou: FMM=F IPFlag=           0 FMFlag=      100000 FMFlg1=           0
         NFxFlg=           0 DoJE=T BraDBF=F KetDBF=T FulRan=T
         wScrn=  0.000000 ICntrl=     500 IOpCl=  0 I1Cent=   200000004 NGrid=           0
         NMat0=    1 NMatS0=      1 NMatT0=    0 NMatD0=    1 NMtDS0=    0 NMtDT0=    0
 Petite list used in FoFCou.
 Keep R1 ints in memory in canonical form, NReq=274797245.
 Requested convergence on RMS density matrix=1.00D-08 within 128 cycles.
 Requested convergence on MAX density matrix=1.00D-06.
 Requested convergence on             energy=1.00D-06.
 No special actions if energy rises.
 SCF Done:  E(RB2PLYP) =  -511.150205276     A.U. after   15 cycles
            NFock= 15  Conv=0.90D-08     -V/T= 2.0067
 DoSCS=T DFT=T ScalE2(SS,OS)=  0.270000  0.270000
 ExpMin= 4.38D-02 ExpMax= 5.48D+03 ExpMxC= 8.25D+02 IAcc=3 IRadAn=         5 AccDes= 0.00D+00
 HarFok:  IExCor=  205 AccDes= 0.00D+00 IRadAn=         5 IDoV=-2 UseB2=F ITyADJ=14
 ICtDFT= 12500011 ScaDFX=  1.000000  1.000000  1.000000  1.000000
 Range of M.O.s used for correlation:    11   215
 NBasis=   215 NAE=    36 NBE=    36 NFC=    10 NFV=     0
 NROrb=    205 NOA=    26 NOB=    26 NVA=   179 NVB=   179

 **** Warning!!: The largest alpha MO coefficient is  0.96968898D+02

 DoSCS=T DFT=T ScalE2(SS,OS)=  0.270000  0.270000
 Fully direct method using O(ONN) memory.
 JobTyp=1 Pass  1:  I=  11 to  19 NPSUse= 18 ParTrn=T ParDer=T DoDerP=T.
 JobTyp=1 Pass  2:  I=  20 to  28 NPSUse= 18 ParTrn=T ParDer=T DoDerP=T.
 JobTyp=1 Pass  3:  I=  29 to  36 NPSUse= 18 ParTrn=T ParDer=T DoDerP=T.
 Spin components of T(2) and E(2):
     alpha-alpha T2 =       0.1119150351D+00 E2=     -0.6936648490D-01
     alpha-beta  T2 =       0.5593383079D+00 E2=     -0.3603531131D+00
     beta-beta   T2 =       0.1119150351D+00 E2=     -0.6936648490D-01
 E2(B2PLYP) =    -0.4990860829D+00 E(B2PLYP) =    -0.51164929135895D+03
          IDoAtm=111111111111111
          Differentiating once with respect to electric field.
                with respect to dipole field.
          Differentiating once with respect to nuclear coordinates.
 Keep R1 ints in memory in canonical form, NReq=274636562.
          There are     1 degrees of freedom in the 1st order CPHF.  IDoFFX=0 NUNeed=     1.
 LinEq1:  Iter=  0 NonCon=     1 RMS=2.14D-03 Max=4.78D-02 NDo=     1
 AX will form     1 AO Fock derivatives at one time.
 LinEq1:  Iter=  1 NonCon=     1 RMS=9.26D-04 Max=1.73D-02 NDo=     1
 LinEq1:  Iter=  2 NonCon=     1 RMS=3.23D-04 Max=5.33D-03 NDo=     1
 LinEq1:  Iter=  3 NonCon=     1 RMS=2.40D-04 Max=6.70D-03 NDo=     1
 LinEq1:  Iter=  4 NonCon=     1 RMS=1.06D-04 Max=2.87D-03 NDo=     1
 LinEq1:  Iter=  5 NonCon=     1 RMS=4.77D-05 Max=1.01D-03 NDo=     1
 LinEq1:  Iter=  6 NonCon=     1 RMS=2.77D-05 Max=9.76D-04 NDo=     1
 LinEq1:  Iter=  7 NonCon=     1 RMS=1.37D-05 Max=5.63D-04 NDo=     1
 LinEq1:  Iter=  8 NonCon=     1 RMS=5.46D-06 Max=1.12D-04 NDo=     1
 LinEq1:  Iter=  9 NonCon=     1 RMS=3.36D-06 Max=1.07D-04 NDo=     1
 LinEq1:  Iter= 10 NonCon=     1 RMS=8.49D-07 Max=1.52D-05 NDo=     1
 LinEq1:  Iter= 11 NonCon=     1 RMS=4.52D-07 Max=9.36D-06 NDo=     1
 LinEq1:  Iter= 12 NonCon=     1 RMS=1.77D-07 Max=3.80D-06 NDo=     1
 LinEq1:  Iter= 13 NonCon=     1 RMS=8.08D-08 Max=1.90D-06 NDo=     1
 LinEq1:  Iter= 14 NonCon=     1 RMS=4.36D-08 Max=1.03D-06 NDo=     1
 LinEq1:  Iter= 15 NonCon=     1 RMS=2.01D-08 Max=6.81D-07 NDo=     1
 LinEq1:  Iter= 16 NonCon=     1 RMS=8.51D-09 Max=2.14D-07 NDo=     1
 LinEq1:  Iter= 17 NonCon=     1 RMS=2.55D-09 Max=4.96D-08 NDo=     1
 LinEq1:  Iter= 18 NonCon=     1 RMS=1.27D-09 Max=3.30D-08 NDo=     1
 LinEq1:  Iter= 19 NonCon=     1 RMS=3.73D-10 Max=4.86D-09 NDo=     1
 LinEq1:  Iter= 20 NonCon=     1 RMS=1.12D-10 Max=1.49D-09 NDo=     1
 LinEq1:  Iter= 21 NonCon=     0 RMS=4.88D-11 Max=5.35D-10 NDo=     1
 Linear equations converged to 1.000D-10 1.000D-09 after    21 iterations.
 End of Minotr F.D. properties file   721 does not exist.
 End of Minotr F.D. properties file   722 does not exist.
 End of Minotr F.D. properties file   788 does not exist.

 **********************************************************************

            Population analysis using the SCF density.

 **********************************************************************

 Orbital symmetries:
       Occupied  (A) (A) (A) (A) (A) (A) (A) (A) (A) (A) (A) (A)
                 (A) (A) (A) (A) (A) (A) (A) (A) (A) (A) (A) (A)
                 (A) (A) (A) (A) (A) (A) (A) (A) (A) (A) (A) (A)
       Virtual   (A) (A) (A) (A) (A) (A) (A) (A) (A) (A) (A) (A)
                 (A) (A) (A) (A) (A) (A) (A) (A) (A) (A) (A) (A)
                 (A) (A) (A) (A) (A) (A) (A) (A) (A) (A) (A) (A)
                 (A) (A) (A) (A) (A) (A) (A) (A) (A) (A) (A) (A)
                 (A) (A) (A) (A) (A) (A) (A) (A) (A) (A) (A) (A)
                 (A) (A) (A) (A) (A) (A) (A) (A) (A) (A) (A) (A)
                 (A) (A) (A) (A) (A) (A) (A) (A) (A) (A) (A) (A)
                 (A) (A) (A) (A) (A) (A) (A) (A) (A) (A) (A) (A)
                 (A) (A) (A) (A) (A) (A) (A) (A) (A) (A) (A) (A)
                 (A) (A) (A) (A) (A) (A) (A) (A) (A) (A) (A) (A)
                 (A) (A) (A) (A) (A) (A) (A) (A) (A) (A) (A) (A)
                 (A) (A) (A) (A) (A) (A) (A) (A) (A) (A) (A) (A)
                 (A) (A) (A) (A) (A) (A) (A) (A) (A) (A) (A) (A)
                 (A) (A) (A) (A) (A) (A) (A) (A) (A) (A) (A) (A)
                 (A) (A) (A) (A) (A) (A) (A) (A) (A) (A) (A)
 The electronic state is 1-A.
 Alpha  occ. eigenvalues --  -19.81923 -19.78697 -19.76824 -14.88048 -10.80171
 Alpha  occ. eigenvalues --  -10.73031 -10.69159 -10.67819 -10.66721 -10.66273
 Alpha  occ. eigenvalues --   -1.28829  -1.23056  -1.18393  -1.10016  -0.94260
 Alpha  occ. eigenvalues --   -0.90652  -0.80226  -0.74576  -0.72939  -0.64689
 Alpha  occ. eigenvalues --   -0.63793  -0.60941  -0.58309  -0.56084  -0.55851
 Alpha  occ. eigenvalues --   -0.50991  -0.50562  -0.49704  -0.48429  -0.47560
 Alpha  occ. eigenvalues --   -0.44753  -0.41405  -0.38902  -0.34486  -0.34256
 Alpha  occ. eigenvalues --   -0.29412
 Alpha virt. eigenvalues --   -0.02646   0.02560   0.02571   0.03262   0.05197
 Alpha virt. eigenvalues --    0.05742   0.07055   0.07422   0.08016   0.08971
 Alpha virt. eigenvalues --    0.09933   0.10359   0.11082   0.11651   0.12858
 Alpha virt. eigenvalues --    0.14406   0.15186   0.16318   0.16501   0.17493
 Alpha virt. eigenvalues --    0.17497   0.19593   0.20266   0.20772   0.21623
 Alpha virt. eigenvalues --    0.22818   0.23276   0.24091   0.24621   0.25230
 Alpha virt. eigenvalues --    0.26668   0.27685   0.27909   0.28089   0.29485
 Alpha virt. eigenvalues --    0.30015   0.30936   0.31885   0.32238   0.32765
 Alpha virt. eigenvalues --    0.33134   0.33607   0.34187   0.35070   0.37343
 Alpha virt. eigenvalues --    0.37680   0.38433   0.39578   0.40663   0.41422
 Alpha virt. eigenvalues --    0.43731   0.44897   0.46687   0.47989   0.51138
 Alpha virt. eigenvalues --    0.53200   0.58853   0.68423   0.71439   0.73791
 Alpha virt. eigenvalues --    0.73868   0.76712   0.79258   0.80292   0.80747
 Alpha virt. eigenvalues --    0.81057   0.82794   0.84417   0.88924   0.91081
 Alpha virt. eigenvalues --    0.94615   0.97358   0.98480   1.02338   1.04670
 Alpha virt. eigenvalues --    1.06308   1.10701   1.11713   1.13077   1.16702
 Alpha virt. eigenvalues --    1.17247   1.19310   1.20601   1.22306   1.25643
 Alpha virt. eigenvalues --    1.26714   1.28680   1.30474   1.30532   1.31485
 Alpha virt. eigenvalues --    1.33118   1.35204   1.37589   1.39680   1.40014
 Alpha virt. eigenvalues --    1.42224   1.42482   1.43395   1.47165   1.48506
 Alpha virt. eigenvalues --    1.49262   1.51315   1.51596   1.53347   1.56519
 Alpha virt. eigenvalues --    1.57914   1.66840   1.67499   1.69592   1.72482
 Alpha virt. eigenvalues --    1.76062   1.85405   1.85711   1.87577   1.90226
 Alpha virt. eigenvalues --    1.93886   1.94593   1.97873   1.99903   2.01455
 Alpha virt. eigenvalues --    2.02866   2.06541   2.09334   2.10346   2.11229
 Alpha virt. eigenvalues --    2.14399   2.16753   2.21335   2.26945   2.30999
 Alpha virt. eigenvalues --    2.39535   2.39703   2.41770   2.46535   2.47171
 Alpha virt. eigenvalues --    2.47658   2.50411   2.54131   2.57311   2.61219
 Alpha virt. eigenvalues --    2.61619   2.62613   2.65757   2.66547   2.66732
 Alpha virt. eigenvalues --    2.70572   2.74426   2.77421   2.79390   2.80126
 Alpha virt. eigenvalues --    2.84397   2.87599   2.89373   2.91270   2.97852
 Alpha virt. eigenvalues --    3.02827   3.08702   3.18452   3.21729   3.23873
 Alpha virt. eigenvalues --    3.33159   3.33753   3.40274   3.46734   3.52944
 Alpha virt. eigenvalues --    3.56187   3.67719   3.74267   3.96605   4.32851
 Alpha virt. eigenvalues --    4.43162   4.48337   4.50378   4.53785   4.64220
 Alpha virt. eigenvalues --    4.74629   4.87169   5.00468   5.02840
          Condensed to atoms (all electrons):
               1          2          3          4          5          6
     1  N    6.904075  -0.069121   0.226796  -0.153525   0.192377   0.411857
     2  C   -0.069121   6.238824  -0.423552   0.559248  -0.840851   0.000746
     3  C    0.226796  -0.423552   5.942836  -0.934735   1.808333  -0.756943
     4  C   -0.153525   0.559248  -0.934735  10.327400  -4.884030   1.141868
     5  C    0.192377  -0.840851   1.808333  -4.884030  13.635764  -3.628747
     6  C    0.411857   0.000746  -0.756943   1.141868  -3.628747   8.952655
     7  C   -0.263393   0.254209  -0.198026   0.009732  -0.933537   0.257276
     8  O    0.012764  -0.014443   0.014381   0.018962   0.072309  -0.235632
     9  O    0.041178  -0.018038   0.011925  -0.001440   0.141307  -0.203801
    10  O    0.006452  -0.012439   0.024915  -0.516493   0.376846   0.132967
    11  H   -0.102501   0.454076  -0.090522   0.027021  -0.031259   0.025584
    12  H    0.000986   0.037398   0.258277   0.048967  -0.015756   0.002458
    13  H    0.001507  -0.026476   0.053905   0.175483   0.134836  -0.006850
    14  H    0.002973   0.004343  -0.002389   0.008206  -0.029659   0.002688
    15  H   -0.000678   0.003274  -0.008241   0.149286  -0.044484  -0.083743
               7          8          9         10         11         12
     1  N   -0.263393   0.012764   0.041178   0.006452  -0.102501   0.000986
     2  C    0.254209  -0.014443  -0.018038  -0.012439   0.454076   0.037398
     3  C   -0.198026   0.014381   0.011925   0.024915  -0.090522   0.258277
     4  C    0.009732   0.018962  -0.001440  -0.516493   0.027021   0.048967
     5  C   -0.933537   0.072309   0.141307   0.376846  -0.031259  -0.015756
     6  C    0.257276  -0.235632  -0.203801   0.132967   0.025584   0.002458
     7  C    5.643948   0.412098   0.188749  -0.038171   0.020070   0.001247
     8  O    0.412098   8.466418  -0.151470  -0.031172   0.000010   0.000003
     9  O    0.188749  -0.151470   8.267156  -0.002925  -0.000480  -0.000003
    10  O   -0.038171  -0.031172  -0.002925   8.466696   0.000124  -0.000538
    11  H    0.020070   0.000010  -0.000480   0.000124   0.554607  -0.001180
    12  H    0.001247   0.000003  -0.000003  -0.000538  -0.001180   0.509339
    13  H    0.003966   0.000072   0.000016  -0.006432  -0.000098  -0.003230
    14  H    0.044574   0.001377   0.200317   0.000141  -0.000001   0.000000
    15  H   -0.008277   0.044143   0.002964   0.202727  -0.000000   0.000003
              13         14         15
     1  N    0.001507   0.002973  -0.000678
     2  C   -0.026476   0.004343   0.003274
     3  C    0.053905  -0.002389  -0.008241
     4  C    0.175483   0.008206   0.149286
     5  C    0.134836  -0.029659  -0.044484
     6  C   -0.006850   0.002688  -0.083743
     7  C    0.003966   0.044574  -0.008277
     8  O    0.000072   0.001377   0.044143
     9  O    0.000016   0.200317   0.002964
    10  O   -0.006432   0.000141   0.202727
    11  H   -0.000098  -0.000001  -0.000000
    12  H   -0.003230   0.000000   0.000003
    13  H    0.501001  -0.000000   0.000005
    14  H   -0.000000   0.373327   0.000028
    15  H    0.000005   0.000028   0.305818
 Mulliken charges:
               1
     1  N   -0.211746
     2  C   -0.147197
     3  C    0.073040
     4  C    0.024051
     5  C    0.046553
     6  C   -0.012383
     7  C    0.605534
     8  O   -0.609821
     9  O   -0.475456
    10  O   -0.602700
    11  H    0.144549
    12  H    0.162029
    13  H    0.172295
    14  H    0.394076
    15  H    0.437174
 Sum of Mulliken charges =  -0.00000
 Mulliken charges with hydrogens summed into heavy atoms:
               1
     1  N   -0.211746
     2  C   -0.002648
     3  C    0.235069
     4  C    0.196346
     5  C    0.046553
     6  C   -0.012383
     7  C    0.605534
     8  O   -0.609821
     9  O   -0.081380
    10  O   -0.165526
 Electronic spatial extent (au):  <R**2>=           1308.4515
 Charge=             -0.0000 electrons
 Dipole moment (field-independent basis, Debye):
    X=             -1.4375    Y=             -0.5827    Z=              0.0001  Tot=              1.5511
 Quadrupole moment (field-independent basis, Debye-Ang):
   XX=            -43.5554   YY=            -63.3716   ZZ=            -58.5953
   XY=             -2.4252   XZ=              0.0001   YZ=              0.0003
 Traceless Quadrupole moment (field-independent basis, Debye-Ang):
   XX=             11.6187   YY=             -8.1975   ZZ=             -3.4212
   XY=             -2.4252   XZ=              0.0001   YZ=              0.0003
 Octapole moment (field-independent basis, Debye-Ang**2):
  XXX=             16.6314  YYY=              1.7547  ZZZ=             -0.0004  XYY=             -1.5316
  XXY=            -18.5304  XXZ=              0.0003  XZZ=             11.0342  YZZ=              1.7364
  YYZ=              0.0001  XYZ=              0.0009
 Hexadecapole moment (field-independent basis, Debye-Ang**3):
 XXXX=           -854.5481 YYYY=           -597.9933 ZZZZ=            -60.6918 XXXY=            -75.8117
 XXXZ=              0.0044 YYYX=             17.0127 YYYZ=              0.0036 ZZZX=              0.0055
 ZZZY=              0.0035 XXYY=           -234.6096 XXZZ=           -195.9498 YYZZ=           -109.8874
 XXYZ=              0.0022 YYXZ=              0.0014 ZZXY=             -2.7761
 N-N= 5.079582212545D+02 E-N=-2.211423499785D+03  KE= 5.077454396601D+02
 Calling FoFJK, ICntrl=  10002127 FMM=F ISym2X=0 I1Cent= 0 IOpClX= 0 NMat=1 NMatS=1 NMatT=0.
 ***** Axes restored to original set *****
 -------------------------------------------------------------------
 Center     Atomic                   Forces (Hartrees/Bohr)
 Number     Number              X              Y              Z
 -------------------------------------------------------------------
      1        7           0.003810806   -0.005274093    0.000000441
      2        6          -0.005774123   -0.003251653   -0.000000229
      3        6          -0.004300774   -0.001027992   -0.000000011
      4        6          -0.001141326    0.003937219    0.000000010
      5        6          -0.002331231   -0.005601748    0.000000761
      6        6           0.001058274    0.003564084    0.000000615
      7        6          -0.004096727   -0.001779684   -0.000003947
      8        8           0.004746379    0.006209429    0.000002239
      9        8           0.001109464   -0.005580708    0.000001234
     10        8           0.003867067    0.006329883    0.000000750
     11        1           0.000848169    0.001865035   -0.000000006
     12        1           0.001778947    0.000094317    0.000000001
     13        1           0.000991367   -0.001372591   -0.000000063
     14        1           0.001164571   -0.000097745   -0.000000060
     15        1          -0.001730865    0.001986247   -0.000001734
 -------------------------------------------------------------------
 Cartesian Forces:  Max     0.006329883 RMS     0.002829307

 GradGradGradGradGradGradGradGradGradGradGradGradGradGradGradGradGradGrad
 Berny optimization.
 FormGI is forming the generalized inverse of G from B-inverse, IUseBI=4.
 Internal  Forces:  Max     0.008387636 RMS     0.002379568
 Search for a local minimum.
 Step number   1 out of a maximum of   74
 All quantities printed in internal units (Hartrees-Bohrs-Radians)
 Mixed Optimization -- RFO/linear search
 Second derivative matrix not updated -- first step.
 ITU=  0
     Eigenvalues ---    0.01098   0.01591   0.01741   0.01974   0.02095
     Eigenvalues ---    0.02130   0.02170   0.02199   0.02264   0.02472
     Eigenvalues ---    0.02543   0.02599   0.16000   0.16000   0.16000
     Eigenvalues ---    0.16000   0.16000   0.22081   0.23319   0.24912
     Eigenvalues ---    0.25000   0.25000   0.25000   0.25000   0.35096
     Eigenvalues ---    0.35161   0.35254   0.35354   0.40644   0.43532
     Eigenvalues ---    0.44176   0.47447   0.49721   0.53233   0.55194
     Eigenvalues ---    0.58187   0.59180   0.59430   0.89680
 RFO step:  Lambda=-8.20245503D-04 EMin= 1.09802181D-02
 Linear search not attempted -- first point.
 Iteration  1 RMS(Cart)=  0.02475674 RMS(Int)=  0.00022686
 Iteration  2 RMS(Cart)=  0.00033366 RMS(Int)=  0.00000075
 Iteration  3 RMS(Cart)=  0.00000006 RMS(Int)=  0.00000075
 Variable       Old X    -DE/DX   Delta X   Delta X   Delta X     New X
                                 (Linear)    (Quad)   (Total)
    R1        2.50091   0.00555   0.00000   0.00936   0.00936   2.51027
    R2        2.53646   0.00565   0.00000   0.01033   0.01034   2.54680
    R3        2.65607   0.00134   0.00000   0.00292   0.00291   2.65899
    R4        2.05519  -0.00205   0.00000  -0.00582  -0.00582   2.04936
    R5        2.61138   0.00276   0.00000   0.00520   0.00520   2.61658
    R6        2.05264  -0.00178   0.00000  -0.00504  -0.00504   2.04760
    R7        2.65320   0.00203   0.00000   0.00412   0.00412   2.65732
    R8        2.05105  -0.00169   0.00000  -0.00476  -0.00476   2.04629
    R9        2.67504   0.00385   0.00000   0.00902   0.00902   2.68406
   R10        2.52405   0.00839   0.00000   0.01439   0.01439   2.53844
   R11        2.78715   0.00290   0.00000   0.00822   0.00822   2.79537
   R12        2.33081   0.00777   0.00000   0.00866   0.00866   2.33947
   R13        2.51595   0.00609   0.00000   0.01028   0.01028   2.52623
   R14        1.83437   0.00113   0.00000   0.00212   0.00212   1.83648
   R15        1.86848  -0.00204   0.00000  -0.00410  -0.00410   1.86438
    A1        2.06810  -0.00017   0.00000   0.00146   0.00146   2.06956
    A2        2.14307  -0.00022   0.00000  -0.00052  -0.00052   2.14255
    A3        2.03377   0.00014   0.00000   0.00047   0.00047   2.03424
    A4        2.10634   0.00007   0.00000   0.00005   0.00005   2.10639
    A5        2.08216   0.00006   0.00000  -0.00110  -0.00111   2.08106
    A6        2.09598  -0.00006   0.00000   0.00039   0.00039   2.09637
    A7        2.10504  -0.00001   0.00000   0.00071   0.00072   2.10576
    A8        2.07338   0.00143   0.00000   0.00444   0.00444   2.07782
    A9        2.13533  -0.00057   0.00000  -0.00129  -0.00129   2.13404
   A10        2.07447  -0.00087   0.00000  -0.00315  -0.00315   2.07132
   A11        2.05176  -0.00015   0.00000  -0.00133  -0.00133   2.05043
   A12        2.07357  -0.00380   0.00000  -0.01477  -0.01477   2.05880
   A13        2.15785   0.00395   0.00000   0.01610   0.01610   2.17395
   A14        2.14790  -0.00096   0.00000  -0.00295  -0.00294   2.14495
   A15        2.06830  -0.00324   0.00000  -0.01334  -0.01334   2.05496
   A16        2.06699   0.00420   0.00000   0.01629   0.01629   2.08327
   A17        2.14129   0.00188   0.00000   0.00751   0.00751   2.14879
   A18        2.01869  -0.00190   0.00000  -0.00756  -0.00756   2.01113
   A19        2.12321   0.00001   0.00000   0.00005   0.00005   2.12326
   A20        1.85979   0.00056   0.00000   0.00348   0.00348   1.86327
   A21        1.86781   0.00311   0.00000   0.01934   0.01934   1.88715
    D1        0.00000  -0.00000   0.00000  -0.00001  -0.00001  -0.00001
    D2       -3.14159  -0.00000   0.00000  -0.00000  -0.00000   3.14159
    D3       -0.00000  -0.00000   0.00000  -0.00000  -0.00000  -0.00000
    D4       -3.14158  -0.00000   0.00000  -0.00003  -0.00003   3.14158
    D5       -0.00000   0.00000   0.00000   0.00001   0.00001   0.00001
    D6        3.14159   0.00000   0.00000   0.00000   0.00000  -3.14159
    D7       -3.14159   0.00000   0.00000   0.00000   0.00000  -3.14159
    D8        0.00000  -0.00000   0.00000  -0.00000  -0.00000  -0.00000
    D9       -0.00000   0.00000   0.00000   0.00000   0.00000   0.00000
   D10       -3.14159  -0.00000   0.00000  -0.00001  -0.00001   3.14159
   D11        3.14159   0.00000   0.00000   0.00001   0.00001  -3.14159
   D12        0.00000  -0.00000   0.00000  -0.00001  -0.00001  -0.00000
   D13        0.00000  -0.00000   0.00000  -0.00001  -0.00001  -0.00001
   D14       -3.14158  -0.00000   0.00000  -0.00003  -0.00003   3.14157
   D15        3.14159   0.00000   0.00000   0.00000   0.00000  -3.14159
   D16        0.00000  -0.00000   0.00000  -0.00002  -0.00002  -0.00001
   D17       -0.00000   0.00000   0.00000   0.00001   0.00001   0.00001
   D18        3.14158   0.00000   0.00000   0.00003   0.00003  -3.14157
   D19        3.14158   0.00000   0.00000   0.00003   0.00003  -3.14157
   D20       -0.00002   0.00000   0.00000   0.00006   0.00006   0.00004
   D21        3.14157   0.00000   0.00000   0.00007   0.00007  -3.14154
   D22       -0.00001   0.00000   0.00000   0.00005   0.00005   0.00003
   D23        3.14155   0.00000   0.00000   0.00014   0.00014  -3.14149
   D24       -0.00001  -0.00000   0.00000  -0.00001  -0.00001  -0.00002
   D25       -0.00003   0.00000   0.00000   0.00012   0.00012   0.00009
   D26       -3.14159  -0.00000   0.00000  -0.00003  -0.00003   3.14156
   D27        3.14158   0.00000   0.00000   0.00007   0.00007  -3.14153
   D28        0.00002  -0.00000   0.00000  -0.00008  -0.00008  -0.00006
         Item               Value     Threshold  Converged?
 Maximum Force            0.008388     0.000450     NO 
 RMS     Force            0.002380     0.000300     NO 
 Maximum Displacement     0.129335     0.001800     NO 
 RMS     Displacement     0.024929     0.001200     NO 
 Predicted change in Energy=-4.110876D-04
 GradGradGradGradGradGradGradGradGradGradGradGradGradGradGradGradGradGrad

                          Input orientation:                          
 ---------------------------------------------------------------------
 Center     Atomic      Atomic             Coordinates (Angstroms)
 Number     Number       Type             X           Y           Z
 ---------------------------------------------------------------------
      1          7           0       -0.435598   -1.447509   -0.000014
      2          6           0       -1.763578   -1.479920    0.000015
      3          6           0       -2.553602   -0.315566    0.000042
      4          6           0       -1.933468    0.922433    0.000030
      5          6           0       -0.528555    0.982385   -0.000008
      6          6           0        0.179994   -0.248607   -0.000026
      7          6           0        1.659169   -0.234111   -0.000036
      8          8           0        2.325351    0.809360    0.000060
      9          8           0        2.240805   -1.437770   -0.000012
     10          8           0        0.050110    2.194641   -0.000044
     11          1           0       -2.224561   -2.461544    0.000023
     12          1           0       -3.634449   -0.391979    0.000068
     13          1           0       -2.493141    1.849433    0.000043
     14          1           0        3.200577   -1.285182    0.000032
     15          1           0        1.028500    2.067721   -0.000113
 ---------------------------------------------------------------------
                    Distance matrix (angstroms):
                    1          2          3          4          5
     1  N    0.000000
     2  C    1.328375   0.000000
     3  C    2.401507   1.407074   0.000000
     4  C    2.803612   2.408353   1.384633   0.000000
     5  C    2.431671   2.754674   2.405305   1.406192   0.000000
     6  C    1.347708   2.300783   2.734415   2.416207   1.420346
     7  C    2.420823   3.642422   4.213558   3.774206   2.503197
     8  O    3.565992   4.686165   5.006959   4.260320   2.859146
     9  O    2.676421   4.004605   4.923990   4.795323   3.677840
    10  O    3.674393   4.097788   3.616691   2.356500   1.343286
    11  H    2.056369   1.084477   2.171057   3.396474   3.838891
    12  H    3.368500   2.164203   1.083545   2.149655   3.396389
    13  H    3.886297   3.408350   2.165843   1.082849   2.147410
    14  H    3.639797   4.967973   5.835301   5.588559   4.364434
    15  H    3.807942   4.514583   4.302501   3.175680   1.897992
                    6          7          8          9         10
     6  C    0.000000
     7  C    1.479246   0.000000
     8  O    2.392040   1.237994   0.000000
     9  O    2.379297   1.336824   2.248720   0.000000
    10  O    2.446698   2.913401   2.663780   4.241881   0.000000
    11  H    3.267869   4.477143   5.603616   4.581223   5.182102
    12  H    3.817136   5.295971   6.079674   5.967604   4.501842
    13  H    3.398149   4.645732   4.929464   5.763328   2.566572
    14  H    3.193496   1.865661   2.270050   0.971826   4.694104
    15  H    2.466848   2.386665   1.807013   3.709198   0.986588
                   11         12         13         14         15
    11  H    0.000000
    12  H    2.504173   0.000000
    13  H    4.319335   2.515256   0.000000
    14  H    5.551212   6.893142   6.499557   0.000000
    15  H    5.576437   5.271928   3.528400   3.994982   0.000000
 Stoichiometry    C6H5NO3
 Framework group  C1[X(C6H5NO3)]
 Deg. of freedom    39
 Full point group                 C1      NOp   1
 Largest Abelian subgroup         C1      NOp   1
 Largest concise Abelian subgroup C1      NOp   1
                         Standard orientation:                         
 ---------------------------------------------------------------------
 Center     Atomic      Atomic             Coordinates (Angstroms)
 Number     Number       Type             X           Y           Z
 ---------------------------------------------------------------------
      1          7           0       -0.422603   -1.450953   -0.000015
      2          6           0       -1.750188   -1.496771    0.000014
      3          6           0       -2.551928   -0.340453    0.000041
      4          6           0       -1.944326    0.903745    0.000029
      5          6           0       -0.540089    0.977879   -0.000010
      6          6           0        0.180852   -0.245897   -0.000027
      7          6           0        1.659805   -0.216466   -0.000037
      8          8           0        2.315418    0.833678    0.000059
      9          8           0        2.253565   -1.414191   -0.000014
     10          8           0        0.026306    2.195915   -0.000045
     11          1           0       -2.201236   -2.482999    0.000022
     12          1           0       -3.631949   -0.427776    0.000066
     13          1           0       -2.513330    1.825046    0.000042
     14          1           0        3.211748   -1.251921    0.000030
     15          1           0        1.005928    2.078881   -0.000114
 ---------------------------------------------------------------------
 Rotational constants (GHZ):      2.3371123      1.2554154      0.8167082
 Standard basis: 6-31+G(d,p) (6D, 7F)
 There are   215 symmetry adapted cartesian basis functions of A   symmetry.
 There are   215 symmetry adapted basis functions of A   symmetry.
   215 basis functions,   355 primitive gaussians,   215 cartesian basis functions
    36 alpha electrons       36 beta electrons
       nuclear repulsion energy       505.7297412816 Hartrees.
 NAtoms=   15 NActive=   15 NUniq=   15 SFac= 1.00D+00 NAtFMM=   60 NAOKFM=F Big=F
 Integral buffers will be    131072 words long.
 Regular integral format.
 Two-electron integral symmetry is turned on.
 Nuclear repulsion after empirical dispersion term =      505.7239774013 Hartrees.
 One-electron integrals computed using PRISM.
 NBasis=   215 RedAO= T EigKep=  5.84D-06  NBF=   215
 NBsUse=   215 1.00D-06 EigRej= -1.00D+00 NBFU=   215
 Initial guess from the checkpoint file:  "B2PLYPD33HPA.chk"
 B after Tr=     0.000000    0.000000    0.000000
         Rot=    0.999990   -0.000004    0.000003   -0.004517 Ang=  -0.52 deg.
 ExpMin= 4.38D-02 ExpMax= 5.48D+03 ExpMxC= 8.25D+02 IAcc=2 IRadAn=         4 AccDes= 0.00D+00
 Harris functional with IExCor=  419 and IRadAn=       4 diagonalized for initial guess.
 HarFok:  IExCor=  419 AccDes= 0.00D+00 IRadAn=         4 IDoV= 1 UseB2=F ITyADJ=14
 ICtDFT=  3500011 ScaDFX=  1.000000  1.000000  1.000000  1.000000
 FoFCou: FMM=F IPFlag=           0 FMFlag=      100000 FMFlg1=           0
         NFxFlg=           0 DoJE=T BraDBF=F KetDBF=T FulRan=T
         wScrn=  0.000000 ICntrl=     500 IOpCl=  0 I1Cent=   200000004 NGrid=           0
         NMat0=    1 NMatS0=      1 NMatT0=    0 NMatD0=    1 NMtDS0=    0 NMtDT0=    0
 Petite list used in FoFCou.
 Keep R1 ints in memory in canonical form, NReq=274797245.
 Requested convergence on RMS density matrix=1.00D-08 within 128 cycles.
 Requested convergence on MAX density matrix=1.00D-06.
 Requested convergence on             energy=1.00D-06.
 No special actions if energy rises.
 SCF Done:  E(RB2PLYP) =  -511.149600043     A.U. after   13 cycles
            NFock= 13  Conv=0.40D-08     -V/T= 2.0070
 DoSCS=T DFT=T ScalE2(SS,OS)=  0.270000  0.270000
 ExpMin= 4.38D-02 ExpMax= 5.48D+03 ExpMxC= 8.25D+02 IAcc=3 IRadAn=         5 AccDes= 0.00D+00
 HarFok:  IExCor=  205 AccDes= 0.00D+00 IRadAn=         5 IDoV=-2 UseB2=F ITyADJ=14
 ICtDFT= 12500011 ScaDFX=  1.000000  1.000000  1.000000  1.000000
 Range of M.O.s used for correlation:    11   215
 NBasis=   215 NAE=    36 NBE=    36 NFC=    10 NFV=     0
 NROrb=    205 NOA=    26 NOB=    26 NVA=   179 NVB=   179

 **** Warning!!: The largest alpha MO coefficient is  0.10496813D+03

 DoSCS=T DFT=T ScalE2(SS,OS)=  0.270000  0.270000
 Fully direct method using O(ONN) memory.
 JobTyp=1 Pass  1:  I=  11 to  19 NPSUse= 18 ParTrn=T ParDer=T DoDerP=T.
 JobTyp=1 Pass  2:  I=  20 to  28 NPSUse= 18 ParTrn=T ParDer=T DoDerP=T.
 JobTyp=1 Pass  3:  I=  29 to  36 NPSUse= 18 ParTrn=T ParDer=T DoDerP=T.
 Spin components of T(2) and E(2):
     alpha-alpha T2 =       0.1125200077D+00 E2=     -0.6941803521D-01
     alpha-beta  T2 =       0.5630443614D+00 E2=     -0.3610652423D+00
     beta-beta   T2 =       0.1125200077D+00 E2=     -0.6941803521D-01
 E2(B2PLYP) =    -0.4999013128D+00 E(B2PLYP) =    -0.51164950135594D+03
          IDoAtm=111111111111111
          Differentiating once with respect to electric field.
                with respect to dipole field.
          Differentiating once with respect to nuclear coordinates.
 Keep R1 ints in memory in canonical form, NReq=274636562.
          There are     1 degrees of freedom in the 1st order CPHF.  IDoFFX=0 NUNeed=     1.
 LinEq1:  Iter=  0 NonCon=     1 RMS=2.16D-03 Max=4.89D-02 NDo=     1
 AX will form     1 AO Fock derivatives at one time.
 LinEq1:  Iter=  1 NonCon=     1 RMS=9.37D-04 Max=1.79D-02 NDo=     1
 LinEq1:  Iter=  2 NonCon=     1 RMS=3.34D-04 Max=5.61D-03 NDo=     1
 LinEq1:  Iter=  3 NonCon=     1 RMS=2.50D-04 Max=7.08D-03 NDo=     1
 LinEq1:  Iter=  4 NonCon=     1 RMS=1.12D-04 Max=3.04D-03 NDo=     1
 LinEq1:  Iter=  5 NonCon=     1 RMS=4.95D-05 Max=1.06D-03 NDo=     1
 LinEq1:  Iter=  6 NonCon=     1 RMS=2.95D-05 Max=1.08D-03 NDo=     1
 LinEq1:  Iter=  7 NonCon=     1 RMS=1.47D-05 Max=6.17D-04 NDo=     1
 LinEq1:  Iter=  8 NonCon=     1 RMS=5.89D-06 Max=1.23D-04 NDo=     1
 LinEq1:  Iter=  9 NonCon=     1 RMS=3.51D-06 Max=1.07D-04 NDo=     1
 LinEq1:  Iter= 10 NonCon=     1 RMS=8.83D-07 Max=1.72D-05 NDo=     1
 LinEq1:  Iter= 11 NonCon=     1 RMS=4.83D-07 Max=9.56D-06 NDo=     1
 LinEq1:  Iter= 12 NonCon=     1 RMS=1.89D-07 Max=4.12D-06 NDo=     1
 LinEq1:  Iter= 13 NonCon=     1 RMS=9.01D-08 Max=2.02D-06 NDo=     1
 LinEq1:  Iter= 14 NonCon=     1 RMS=4.65D-08 Max=1.11D-06 NDo=     1
 LinEq1:  Iter= 15 NonCon=     1 RMS=2.02D-08 Max=6.49D-07 NDo=     1
 LinEq1:  Iter= 16 NonCon=     1 RMS=8.91D-09 Max=2.27D-07 NDo=     1
 LinEq1:  Iter= 17 NonCon=     1 RMS=2.57D-09 Max=4.45D-08 NDo=     1
 LinEq1:  Iter= 18 NonCon=     1 RMS=1.24D-09 Max=3.20D-08 NDo=     1
 LinEq1:  Iter= 19 NonCon=     1 RMS=4.03D-10 Max=5.38D-09 NDo=     1
 LinEq1:  Iter= 20 NonCon=     1 RMS=1.19D-10 Max=1.46D-09 NDo=     1
 LinEq1:  Iter= 21 NonCon=     0 RMS=5.15D-11 Max=5.51D-10 NDo=     1
 Linear equations converged to 1.000D-10 1.000D-09 after    21 iterations.
 End of Minotr F.D. properties file   721 does not exist.
 End of Minotr F.D. properties file   722 does not exist.
 End of Minotr F.D. properties file   788 does not exist.
 Calling FoFJK, ICntrl=  10002127 FMM=F ISym2X=0 I1Cent= 0 IOpClX= 0 NMat=1 NMatS=1 NMatT=0.
 ***** Axes restored to original set *****
 -------------------------------------------------------------------
 Center     Atomic                   Forces (Hartrees/Bohr)
 Number     Number              X              Y              Z
 -------------------------------------------------------------------
      1        7           0.000629026   -0.000784640   -0.000001099
      2        6          -0.001230314    0.001135531    0.000000825
      3        6           0.000135689   -0.000619933    0.000000055
      4        6           0.001081101    0.000580261    0.000000174
      5        6          -0.000550652   -0.005766419   -0.000002152
      6        6          -0.001014169    0.002523860   -0.000003000
      7        6           0.001351181    0.003700745    0.000015522
      8        8          -0.002991438   -0.000162501   -0.000008062
      9        8           0.000093096   -0.002039461   -0.000004513
     10        8           0.005981813    0.001350371   -0.000001675
     11        1           0.000283431   -0.000052576   -0.000000049
     12        1          -0.000019774    0.000089503    0.000000005
     13        1           0.000044237    0.000103569    0.000000076
     14        1          -0.000229853    0.000506292    0.000000052
     15        1          -0.003563373   -0.000564602    0.000003841
 -------------------------------------------------------------------
 Cartesian Forces:  Max     0.005981813 RMS     0.001675814

 GradGradGradGradGradGradGradGradGradGradGradGradGradGradGradGradGradGrad
 Berny optimization.
 Using GEDIIS/GDIIS optimizer.
 FormGI is forming the generalized inverse of G from B-inverse, IUseBI=4.
 Internal  Forces:  Max     0.005837566 RMS     0.001626165
 Search for a local minimum.
 Step number   2 out of a maximum of   74
 All quantities printed in internal units (Hartrees-Bohrs-Radians)
 Mixed Optimization -- RFO/linear search
 Update second derivatives using D2CorX and points    1    2
 DE= -2.10D-04 DEPred=-4.11D-04 R= 5.11D-01
 TightC=F SS=  1.41D+00  RLast= 4.85D-02 DXNew= 5.0454D-01 1.4554D-01
 Trust test= 5.11D-01 RLast= 4.85D-02 DXMaxT set to 3.00D-01
 ITU=  1  0
 Use linear search instead of GDIIS.
     Eigenvalues ---    0.01098   0.01588   0.01739   0.01974   0.02095
     Eigenvalues ---    0.02130   0.02170   0.02199   0.02264   0.02472
     Eigenvalues ---    0.02543   0.02599   0.15865   0.16000   0.16000
     Eigenvalues ---    0.16000   0.16236   0.22041   0.23247   0.24216
     Eigenvalues ---    0.24912   0.25000   0.25000   0.32482   0.34373
     Eigenvalues ---    0.35186   0.35320   0.36056   0.41923   0.43547
     Eigenvalues ---    0.44466   0.47439   0.49101   0.53261   0.56207
     Eigenvalues ---    0.58804   0.59324   0.62754   0.92549
 RFO step:  Lambda=-1.90828648D-04 EMin= 1.09802227D-02
 Quartic linear search produced a step of -0.32758.
 Iteration  1 RMS(Cart)=  0.01378353 RMS(Int)=  0.00006252
 Iteration  2 RMS(Cart)=  0.00007848 RMS(Int)=  0.00000029
 Iteration  3 RMS(Cart)=  0.00000000 RMS(Int)=  0.00000029
 Variable       Old X    -DE/DX   Delta X   Delta X   Delta X     New X
                                 (Linear)    (Quad)   (Total)
    R1        2.51027   0.00112  -0.00307   0.00650   0.00343   2.51370
    R2        2.54680   0.00009  -0.00339   0.00567   0.00229   2.54909
    R3        2.65899  -0.00001  -0.00095   0.00188   0.00092   2.65991
    R4        2.04936  -0.00007   0.00191  -0.00328  -0.00137   2.04799
    R5        2.61658   0.00021  -0.00170   0.00325   0.00154   2.61812
    R6        2.04760   0.00001   0.00165  -0.00269  -0.00104   2.04656
    R7        2.65732  -0.00144  -0.00135  -0.00009  -0.00144   2.65588
    R8        2.04629   0.00007   0.00156  -0.00244  -0.00088   2.04540
    R9        2.68406  -0.00571  -0.00296  -0.00430  -0.00726   2.67681
   R10        2.53844   0.00175  -0.00472   0.00992   0.00520   2.54364
   R11        2.79537  -0.00176  -0.00269   0.00107  -0.00162   2.79375
   R12        2.33947  -0.00175  -0.00284   0.00348   0.00065   2.34012
   R13        2.52623   0.00132  -0.00337   0.00714   0.00377   2.53000
   R14        1.83648  -0.00015  -0.00069   0.00097   0.00028   1.83676
   R15        1.86438  -0.00346   0.00134  -0.00692  -0.00557   1.85881
    A1        2.06956  -0.00184  -0.00048  -0.00397  -0.00445   2.06511
    A2        2.14255   0.00021   0.00017   0.00133   0.00150   2.14405
    A3        2.03424  -0.00039  -0.00015  -0.00176  -0.00191   2.03233
    A4        2.10639   0.00018  -0.00002   0.00043   0.00042   2.10681
    A5        2.08106  -0.00034   0.00036  -0.00074  -0.00038   2.08068
    A6        2.09637   0.00026  -0.00013   0.00067   0.00055   2.09692
    A7        2.10576   0.00008  -0.00023   0.00007  -0.00017   2.10559
    A8        2.07782  -0.00101  -0.00145  -0.00082  -0.00228   2.07555
    A9        2.13404   0.00060   0.00042   0.00128   0.00170   2.13574
   A10        2.07132   0.00041   0.00103  -0.00045   0.00058   2.07190
   A11        2.05043   0.00165   0.00044   0.00290   0.00333   2.05376
   A12        2.05880   0.00246   0.00484  -0.00078   0.00405   2.06286
   A13        2.17395  -0.00412  -0.00527  -0.00211  -0.00739   2.16657
   A14        2.14495   0.00133   0.00096   0.00131   0.00228   2.14723
   A15        2.05496   0.00451   0.00437   0.00540   0.00977   2.06473
   A16        2.08327  -0.00584  -0.00533  -0.00671  -0.01205   2.07123
   A17        2.14879  -0.00346  -0.00246  -0.00533  -0.00778   2.14101
   A18        2.01113   0.00123   0.00248  -0.00071   0.00177   2.01290
   A19        2.12326   0.00223  -0.00002   0.00603   0.00602   2.12927
   A20        1.86327  -0.00099  -0.00114  -0.00236  -0.00350   1.85977
   A21        1.88715  -0.00190  -0.00634   0.00192  -0.00442   1.88273
    D1       -0.00001   0.00000   0.00000   0.00001   0.00002   0.00001
    D2        3.14159   0.00000   0.00000   0.00000   0.00000  -3.14159
    D3       -0.00000  -0.00000   0.00000  -0.00000  -0.00000  -0.00000
    D4        3.14158   0.00000   0.00001   0.00003   0.00004  -3.14157
    D5        0.00001  -0.00000  -0.00000  -0.00001  -0.00001  -0.00001
    D6       -3.14159  -0.00000  -0.00000  -0.00000  -0.00001   3.14159
    D7       -3.14159  -0.00000  -0.00000  -0.00000  -0.00000  -3.14159
    D8       -0.00000   0.00000   0.00000   0.00001   0.00001   0.00000
    D9        0.00000  -0.00000  -0.00000  -0.00000  -0.00000  -0.00000
   D10        3.14159   0.00000   0.00000   0.00001   0.00002  -3.14158
   D11       -3.14159  -0.00000  -0.00000  -0.00001  -0.00001   3.14159
   D12       -0.00000   0.00000   0.00000   0.00001   0.00001   0.00001
   D13       -0.00001   0.00000   0.00000   0.00001   0.00001   0.00001
   D14        3.14157   0.00000   0.00001   0.00004   0.00005  -3.14156
   D15       -3.14159  -0.00000  -0.00000  -0.00000  -0.00001   3.14159
   D16       -0.00001   0.00000   0.00001   0.00003   0.00003   0.00002
   D17        0.00001  -0.00000  -0.00000  -0.00001  -0.00001  -0.00001
   D18       -3.14157  -0.00000  -0.00001  -0.00004  -0.00005   3.14156
   D19       -3.14157  -0.00000  -0.00001  -0.00004  -0.00005   3.14156
   D20        0.00004  -0.00000  -0.00002  -0.00008  -0.00010  -0.00006
   D21       -3.14154  -0.00000  -0.00002  -0.00009  -0.00011   3.14153
   D22        0.00003  -0.00000  -0.00002  -0.00005  -0.00007  -0.00003
   D23       -3.14149  -0.00001  -0.00005  -0.00029  -0.00033   3.14136
   D24       -0.00002   0.00000   0.00000   0.00007   0.00007   0.00005
   D25        0.00009  -0.00001  -0.00004  -0.00025  -0.00029  -0.00021
   D26        3.14156   0.00000   0.00001   0.00010   0.00011  -3.14152
   D27       -3.14153  -0.00000  -0.00002  -0.00017  -0.00020   3.14145
   D28       -0.00006   0.00000   0.00002   0.00017   0.00020   0.00014
         Item               Value     Threshold  Converged?
 Maximum Force            0.005838     0.000450     NO 
 RMS     Force            0.001626     0.000300     NO 
 Maximum Displacement     0.050976     0.001800     NO 
 RMS     Displacement     0.013800     0.001200     NO 
 Predicted change in Energy=-1.545547D-04
 GradGradGradGradGradGradGradGradGradGradGradGradGradGradGradGradGradGrad

                          Input orientation:                          
 ---------------------------------------------------------------------
 Center     Atomic      Atomic             Coordinates (Angstroms)
 Number     Number       Type             X           Y           Z
 ---------------------------------------------------------------------
      1          7           0       -0.440654   -1.456031    0.000079
      2          6           0       -1.770605   -1.481410    0.000054
      3          6           0       -2.556441   -0.313638   -0.000003
      4          6           0       -1.930741    0.922473   -0.000026
      5          6           0       -0.526231    0.973293    0.000010
      6          6           0        0.176533   -0.256588    0.000059
      7          6           0        1.654664   -0.228942    0.000059
      8          8           0        2.303524    0.825790   -0.000196
      9          8           0        2.249998   -1.428116    0.000014
     10          8           0        0.066382    2.181858    0.000024
     11          1           0       -2.234621   -2.460800    0.000073
     12          1           0       -3.637063   -0.385289   -0.000024
     13          1           0       -2.484693    1.852358   -0.000060
     14          1           0        3.207657   -1.261920   -0.000110
     15          1           0        1.039846    2.040745    0.000107
 ---------------------------------------------------------------------
                    Distance matrix (angstroms):
                    1          2          3          4          5
     1  N    0.000000
     2  C    1.330192   0.000000
     3  C    2.404499   1.407562   0.000000
     4  C    2.806713   2.409211   1.385450   0.000000
     5  C    2.430830   2.752095   2.403736   1.405429   0.000000
     6  C    1.348920   2.300334   2.733570   2.414703   1.416504
     7  C    2.428190   3.647073   4.211958   3.765752   2.490316
     8  O    3.568924   4.682061   4.991749   4.235369   2.833597
     9  O    2.690797   4.020956   4.933956   4.796233   3.670724
    10  O    3.673053   4.098055   3.620318   2.361049   1.346039
    11  H    2.056180   1.083751   2.171146   3.396893   3.835569
    12  H    3.370981   2.164520   1.082994   2.149832   3.394557
    13  H    3.888899   3.409389   2.167184   1.082381   2.146702
    14  H    3.653472   4.983098   5.841581   5.583432   4.351792
    15  H    3.797279   4.506019   4.298419   3.174102   1.895271
                    6          7          8          9         10
     6  C    0.000000
     7  C    1.478389   0.000000
     8  O    2.386552   1.238337   0.000000
     9  O    2.381540   1.338820   2.254541   0.000000
    10  O    2.440933   2.886970   2.616051   4.219015   0.000000
    11  H    3.266836   4.484164   5.603252   4.601983   5.181591
    12  H    3.815768   5.294037   6.062779   5.978710   4.506191
    13  H    3.395553   4.633152   4.897027   5.760105   2.572267
    14  H    3.193494   1.865162   2.275079   0.971973   4.661246
    15  H    2.454190   2.351485   1.752998   3.673890   0.983638
                   11         12         13         14         15
    11  H    0.000000
    12  H    2.504912   0.000000
    13  H    4.320402   2.516947   0.000000
    14  H    5.572765   6.900628   6.488573   0.000000
    15  H    5.566511   5.268693   3.529571   3.950570   0.000000
 Stoichiometry    C6H5NO3
 Framework group  C1[X(C6H5NO3)]
 Deg. of freedom    39
 Full point group                 C1      NOp   1
 Largest Abelian subgroup         C1      NOp   1
 Largest concise Abelian subgroup C1      NOp   1
                         Standard orientation:                         
 ---------------------------------------------------------------------
 Center     Atomic      Atomic             Coordinates (Angstroms)
 Number     Number       Type             X           Y           Z
 ---------------------------------------------------------------------
      1          7           0       -0.438214   -1.455866    0.000076
      2          6           0       -1.768107   -1.484095    0.000052
      3          6           0       -2.556444   -0.318010   -0.000006
      4          6           0       -1.933395    0.919439   -0.000029
      5          6           0       -0.528997    0.973269    0.000007
      6          6           0        0.176402   -0.255103    0.000056
      7          6           0        1.654470   -0.224290    0.000056
      8          8           0        2.301068    0.831830   -0.000199
      9          8           0        2.252373   -1.422185    0.000012
     10          8           0        0.061025    2.183101    0.000022
     11          1           0       -2.230023   -2.464477    0.000071
     12          1           0       -3.636910   -0.391977   -0.000027
     13          1           0       -2.489338    1.848135   -0.000063
     14          1           0        3.209673   -1.253937   -0.000113
     15          1           0        1.034789    2.044075    0.000104
 ---------------------------------------------------------------------
 Rotational constants (GHZ):      2.3464239      1.2574999      0.8187265
 Standard basis: 6-31+G(d,p) (6D, 7F)
 There are   215 symmetry adapted cartesian basis functions of A   symmetry.
 There are   215 symmetry adapted basis functions of A   symmetry.
   215 basis functions,   355 primitive gaussians,   215 cartesian basis functions
    36 alpha electrons       36 beta electrons
       nuclear repulsion energy       506.1850110782 Hartrees.
 NAtoms=   15 NActive=   15 NUniq=   15 SFac= 1.00D+00 NAtFMM=   60 NAOKFM=F Big=F
 Integral buffers will be    131072 words long.
 Regular integral format.
 Two-electron integral symmetry is turned on.
 Nuclear repulsion after empirical dispersion term =      506.1792719105 Hartrees.
 One-electron integrals computed using PRISM.
 NBasis=   215 RedAO= T EigKep=  5.84D-06  NBF=   215
 NBsUse=   215 1.00D-06 EigRej= -1.00D+00 NBFU=   215
 Initial guess from the checkpoint file:  "B2PLYPD33HPA.chk"
 B after Tr=    -0.000000    0.000000   -0.000000
         Rot=    0.999994    0.000009   -0.000005    0.003503 Ang=   0.40 deg.
 ExpMin= 4.38D-02 ExpMax= 5.48D+03 ExpMxC= 8.25D+02 IAcc=2 IRadAn=         4 AccDes= 0.00D+00
 Harris functional with IExCor=  419 and IRadAn=       4 diagonalized for initial guess.
 HarFok:  IExCor=  419 AccDes= 0.00D+00 IRadAn=         4 IDoV= 1 UseB2=F ITyADJ=14
 ICtDFT=  3500011 ScaDFX=  1.000000  1.000000  1.000000  1.000000
 FoFCou: FMM=F IPFlag=           0 FMFlag=      100000 FMFlg1=           0
         NFxFlg=           0 DoJE=T BraDBF=F KetDBF=T FulRan=T
         wScrn=  0.000000 ICntrl=     500 IOpCl=  0 I1Cent=   200000004 NGrid=           0
         NMat0=    1 NMatS0=      1 NMatT0=    0 NMatD0=    1 NMtDS0=    0 NMtDT0=    0
 Petite list used in FoFCou.
 Keep R1 ints in memory in canonical form, NReq=274797245.
 Requested convergence on RMS density matrix=1.00D-08 within 128 cycles.
 Requested convergence on MAX density matrix=1.00D-06.
 Requested convergence on             energy=1.00D-06.
 No special actions if energy rises.
 SCF Done:  E(RB2PLYP) =  -511.149544903     A.U. after   12 cycles
            NFock= 12  Conv=0.58D-08     -V/T= 2.0070
 DoSCS=T DFT=T ScalE2(SS,OS)=  0.270000  0.270000
 ExpMin= 4.38D-02 ExpMax= 5.48D+03 ExpMxC= 8.25D+02 IAcc=3 IRadAn=         5 AccDes= 0.00D+00
 HarFok:  IExCor=  205 AccDes= 0.00D+00 IRadAn=         5 IDoV=-2 UseB2=F ITyADJ=14
 ICtDFT= 12500011 ScaDFX=  1.000000  1.000000  1.000000  1.000000
 Range of M.O.s used for correlation:    11   215
 NBasis=   215 NAE=    36 NBE=    36 NFC=    10 NFV=     0
 NROrb=    205 NOA=    26 NOB=    26 NVA=   179 NVB=   179

 **** Warning!!: The largest alpha MO coefficient is  0.10605347D+03

 DoSCS=T DFT=T ScalE2(SS,OS)=  0.270000  0.270000
 Fully direct method using O(ONN) memory.
 JobTyp=1 Pass  1:  I=  11 to  19 NPSUse= 18 ParTrn=T ParDer=T DoDerP=T.
 JobTyp=1 Pass  2:  I=  20 to  28 NPSUse= 18 ParTrn=T ParDer=T DoDerP=T.
 JobTyp=1 Pass  3:  I=  29 to  36 NPSUse= 18 ParTrn=T ParDer=T DoDerP=T.
 Spin components of T(2) and E(2):
     alpha-alpha T2 =       0.1125901264D+00 E2=     -0.6946034761D-01
     alpha-beta  T2 =       0.5631682581D+00 E2=     -0.3611557121D+00
     beta-beta   T2 =       0.1125901264D+00 E2=     -0.6946034761D-01
 E2(B2PLYP) =    -0.5000764073D+00 E(B2PLYP) =    -0.51164962130988D+03
          IDoAtm=111111111111111
          Differentiating once with respect to electric field.
                with respect to dipole field.
          Differentiating once with respect to nuclear coordinates.
 Keep R1 ints in memory in canonical form, NReq=274636562.
          There are     1 degrees of freedom in the 1st order CPHF.  IDoFFX=0 NUNeed=     1.
 LinEq1:  Iter=  0 NonCon=     1 RMS=2.16D-03 Max=4.85D-02 NDo=     1
 AX will form     1 AO Fock derivatives at one time.
 LinEq1:  Iter=  1 NonCon=     1 RMS=9.40D-04 Max=1.79D-02 NDo=     1
 LinEq1:  Iter=  2 NonCon=     1 RMS=3.33D-04 Max=5.52D-03 NDo=     1
 LinEq1:  Iter=  3 NonCon=     1 RMS=2.48D-04 Max=7.01D-03 NDo=     1
 LinEq1:  Iter=  4 NonCon=     1 RMS=1.11D-04 Max=3.01D-03 NDo=     1
 LinEq1:  Iter=  5 NonCon=     1 RMS=4.93D-05 Max=1.03D-03 NDo=     1
 LinEq1:  Iter=  6 NonCon=     1 RMS=2.94D-05 Max=1.09D-03 NDo=     1
 LinEq1:  Iter=  7 NonCon=     1 RMS=1.47D-05 Max=6.17D-04 NDo=     1
 LinEq1:  Iter=  8 NonCon=     1 RMS=5.89D-06 Max=1.24D-04 NDo=     1
 LinEq1:  Iter=  9 NonCon=     1 RMS=3.52D-06 Max=1.09D-04 NDo=     1
 LinEq1:  Iter= 10 NonCon=     1 RMS=8.92D-07 Max=1.81D-05 NDo=     1
 LinEq1:  Iter= 11 NonCon=     1 RMS=4.91D-07 Max=1.00D-05 NDo=     1
 LinEq1:  Iter= 12 NonCon=     1 RMS=1.92D-07 Max=4.08D-06 NDo=     1
 LinEq1:  Iter= 13 NonCon=     1 RMS=9.18D-08 Max=2.01D-06 NDo=     1
 LinEq1:  Iter= 14 NonCon=     1 RMS=4.68D-08 Max=1.12D-06 NDo=     1
 LinEq1:  Iter= 15 NonCon=     1 RMS=2.07D-08 Max=6.54D-07 NDo=     1
 LinEq1:  Iter= 16 NonCon=     1 RMS=9.00D-09 Max=2.30D-07 NDo=     1
 LinEq1:  Iter= 17 NonCon=     1 RMS=2.63D-09 Max=4.77D-08 NDo=     1
 LinEq1:  Iter= 18 NonCon=     1 RMS=1.29D-09 Max=3.35D-08 NDo=     1
 LinEq1:  Iter= 19 NonCon=     1 RMS=4.02D-10 Max=5.35D-09 NDo=     1
 LinEq1:  Iter= 20 NonCon=     1 RMS=1.21D-10 Max=1.49D-09 NDo=     1
 LinEq1:  Iter= 21 NonCon=     0 RMS=5.26D-11 Max=5.78D-10 NDo=     1
 Linear equations converged to 1.000D-10 1.000D-09 after    21 iterations.
 End of Minotr F.D. properties file   721 does not exist.
 End of Minotr F.D. properties file   722 does not exist.
 End of Minotr F.D. properties file   788 does not exist.
 Calling FoFJK, ICntrl=  10002127 FMM=F ISym2X=0 I1Cent= 0 IOpClX= 0 NMat=1 NMatS=1 NMatT=0.
 ***** Axes restored to original set *****
 -------------------------------------------------------------------
 Center     Atomic                   Forces (Hartrees/Bohr)
 Number     Number              X              Y              Z
 -------------------------------------------------------------------
      1        7          -0.000130381    0.000197994    0.000002786
      2        6           0.000497105    0.001374889   -0.000001746
      3        6           0.001139520    0.000014526   -0.000000132
      4        6           0.000436975   -0.000280857   -0.000000592
      5        6           0.000062851   -0.000691998    0.000004158
      6        6          -0.000196518    0.000297052    0.000008142
      7        6           0.000122422    0.001286966   -0.000037532
      8        8           0.000095222   -0.002632886    0.000018093
      9        8           0.000087282    0.000885466    0.000010717
     10        8          -0.001330287    0.000328761    0.000002256
     11        1          -0.000007169   -0.000435129   -0.000000019
     12        1          -0.000371940   -0.000025997    0.000000112
     13        1          -0.000215605    0.000286577   -0.000000135
     14        1          -0.000077262    0.000030417   -0.000000052
     15        1          -0.000112214   -0.000635781   -0.000006059
 -------------------------------------------------------------------
 Cartesian Forces:  Max     0.002632886 RMS     0.000606198

 GradGradGradGradGradGradGradGradGradGradGradGradGradGradGradGradGradGrad
 Berny optimization.
 Using GEDIIS/GDIIS optimizer.
 FormGI is forming the generalized inverse of G from B-inverse, IUseBI=4.
 Internal  Forces:  Max     0.002192740 RMS     0.000632385
 Search for a local minimum.
 Step number   3 out of a maximum of   74
 All quantities printed in internal units (Hartrees-Bohrs-Radians)
 Mixed Optimization -- En-DIIS/RFO-DIIS
 Update second derivatives using D2CorX and points    1    2    3
 DE= -1.20D-04 DEPred=-1.55D-04 R= 7.76D-01
 TightC=F SS=  1.41D+00  RLast= 2.55D-02 DXNew= 5.0454D-01 7.6424D-02
 Trust test= 7.76D-01 RLast= 2.55D-02 DXMaxT set to 3.00D-01
 ITU=  1  1  0
 Use linear search instead of GDIIS.
     Eigenvalues ---    0.01098   0.01594   0.01741   0.01974   0.02095
     Eigenvalues ---    0.02130   0.02170   0.02199   0.02264   0.02471
     Eigenvalues ---    0.02543   0.02599   0.15804   0.16000   0.16000
     Eigenvalues ---    0.16012   0.16492   0.21861   0.22318   0.24835
     Eigenvalues ---    0.24944   0.25000   0.25628   0.33371   0.35008
     Eigenvalues ---    0.35194   0.35321   0.36172   0.42983   0.43412
     Eigenvalues ---    0.46900   0.47584   0.53197   0.55336   0.56231
     Eigenvalues ---    0.58935   0.59426   0.67829   0.94251
 RFO step:  Lambda=-3.01939888D-05 EMin= 1.09802735D-02
 Quartic linear search produced a step of -0.19753.
 Iteration  1 RMS(Cart)=  0.00313317 RMS(Int)=  0.00000551
 Iteration  2 RMS(Cart)=  0.00000597 RMS(Int)=  0.00000020
 Iteration  3 RMS(Cart)=  0.00000000 RMS(Int)=  0.00000020
 Variable       Old X    -DE/DX   Delta X   Delta X   Delta X     New X
                                 (Linear)    (Quad)   (Total)
    R1        2.51370  -0.00081  -0.00068  -0.00004  -0.00072   2.51298
    R2        2.54909  -0.00072  -0.00045  -0.00036  -0.00081   2.54828
    R3        2.65991  -0.00074  -0.00018  -0.00098  -0.00117   2.65874
    R4        2.04799   0.00040   0.00027   0.00045   0.00072   2.04871
    R5        2.61812  -0.00080  -0.00031  -0.00077  -0.00107   2.61705
    R6        2.04656   0.00037   0.00021   0.00050   0.00070   2.04727
    R7        2.65588  -0.00069   0.00028  -0.00165  -0.00136   2.65451
    R8        2.04540   0.00036   0.00017   0.00051   0.00069   2.04609
    R9        2.67681   0.00007   0.00143  -0.00254  -0.00110   2.67570
   R10        2.54364  -0.00091  -0.00103   0.00032  -0.00071   2.54293
   R11        2.79375   0.00022   0.00032  -0.00029   0.00003   2.79378
   R12        2.34012  -0.00219  -0.00013  -0.00174  -0.00187   2.33825
   R13        2.53000  -0.00082  -0.00075   0.00006  -0.00069   2.52932
   R14        1.83676  -0.00007  -0.00006  -0.00005  -0.00010   1.83666
   R15        1.85881  -0.00002   0.00110  -0.00184  -0.00074   1.85806
    A1        2.06511   0.00004   0.00088  -0.00158  -0.00070   2.06440
    A2        2.14405   0.00032  -0.00030   0.00139   0.00109   2.14514
    A3        2.03233  -0.00034   0.00038  -0.00194  -0.00157   2.03076
    A4        2.10681   0.00003  -0.00008   0.00056   0.00048   2.10729
    A5        2.08068  -0.00001   0.00007  -0.00027  -0.00019   2.08049
    A6        2.09692   0.00000  -0.00011   0.00026   0.00015   2.09707
    A7        2.10559   0.00001   0.00003   0.00000   0.00004   2.10563
    A8        2.07555  -0.00021   0.00045  -0.00149  -0.00104   2.07451
    A9        2.13574   0.00007  -0.00034   0.00077   0.00043   2.13617
   A10        2.07190   0.00014  -0.00011   0.00072   0.00061   2.07251
   A11        2.05376   0.00033  -0.00066   0.00233   0.00167   2.05543
   A12        2.06286  -0.00104  -0.00080  -0.00135  -0.00215   2.06071
   A13        2.16657   0.00071   0.00146  -0.00098   0.00048   2.16705
   A14        2.14723  -0.00047  -0.00045  -0.00038  -0.00083   2.14640
   A15        2.06473  -0.00152  -0.00193  -0.00067  -0.00260   2.06213
   A16        2.07123   0.00199   0.00238   0.00104   0.00342   2.07465
   A17        2.14101   0.00190   0.00154   0.00253   0.00406   2.14507
   A18        2.01290  -0.00039  -0.00035  -0.00033  -0.00068   2.01222
   A19        2.12927  -0.00152  -0.00119  -0.00219  -0.00338   2.12589
   A20        1.85977  -0.00008   0.00069  -0.00169  -0.00100   1.85877
   A21        1.88273  -0.00120   0.00087  -0.00722  -0.00635   1.87639
    D1        0.00001  -0.00000  -0.00000  -0.00002  -0.00002  -0.00001
    D2       -3.14159  -0.00000  -0.00000  -0.00001  -0.00001   3.14159
    D3       -0.00000   0.00000   0.00000   0.00001   0.00001   0.00001
    D4       -3.14157  -0.00000  -0.00001  -0.00003  -0.00004   3.14158
    D5       -0.00001   0.00000   0.00000   0.00002   0.00002   0.00001
    D6        3.14159   0.00000   0.00000   0.00001   0.00001  -3.14159
    D7       -3.14159   0.00000   0.00000   0.00000   0.00000  -3.14159
    D8        0.00000  -0.00000  -0.00000  -0.00001  -0.00001  -0.00000
    D9       -0.00000   0.00000   0.00000   0.00000   0.00000   0.00000
   D10       -3.14158  -0.00000  -0.00000  -0.00002  -0.00002   3.14158
   D11        3.14159   0.00000   0.00000   0.00001   0.00001  -3.14159
   D12        0.00001  -0.00000  -0.00000  -0.00001  -0.00001  -0.00001
   D13        0.00001  -0.00000  -0.00000  -0.00001  -0.00001  -0.00001
   D14       -3.14156  -0.00000  -0.00001  -0.00006  -0.00007   3.14156
   D15        3.14159   0.00000   0.00000   0.00001   0.00001  -3.14159
   D16        0.00002  -0.00000  -0.00001  -0.00004  -0.00004  -0.00002
   D17       -0.00001   0.00000   0.00000   0.00001   0.00001   0.00000
   D18        3.14156   0.00000   0.00001   0.00004   0.00005  -3.14157
   D19        3.14156   0.00000   0.00001   0.00005   0.00006  -3.14156
   D20       -0.00006   0.00000   0.00002   0.00009   0.00011   0.00005
   D21        3.14153   0.00001   0.00002   0.00013   0.00015  -3.14151
   D22       -0.00003   0.00000   0.00001   0.00008   0.00009   0.00006
   D23        3.14136   0.00001   0.00007   0.00040   0.00047  -3.14135
   D24        0.00005  -0.00001  -0.00001  -0.00022  -0.00023  -0.00018
   D25       -0.00021   0.00001   0.00006   0.00037   0.00042   0.00022
   D26       -3.14152  -0.00001  -0.00002  -0.00025  -0.00028   3.14139
   D27        3.14145   0.00001   0.00004   0.00031   0.00035  -3.14139
   D28        0.00014  -0.00001  -0.00004  -0.00031  -0.00035  -0.00021
         Item               Value     Threshold  Converged?
 Maximum Force            0.002193     0.000450     NO 
 RMS     Force            0.000632     0.000300     NO 
 Maximum Displacement     0.011590     0.001800     NO 
 RMS     Displacement     0.003133     0.001200     NO 
 Predicted change in Energy=-2.336581D-05
 GradGradGradGradGradGradGradGradGradGradGradGradGradGradGradGradGradGrad

                          Input orientation:                          
 ---------------------------------------------------------------------
 Center     Atomic      Atomic             Coordinates (Angstroms)
 Number     Number       Type             X           Y           Z
 ---------------------------------------------------------------------
      1          7           0       -0.438776   -1.453787   -0.000080
      2          6           0       -1.768342   -1.479463   -0.000013
      3          6           0       -2.555373   -0.313240    0.000067
      4          6           0       -1.931322    0.923069    0.000065
      5          6           0       -0.527537    0.973984   -0.000017
      6          6           0        0.177099   -0.254153   -0.000087
      7          6           0        1.655290   -0.228969   -0.000142
      8          8           0        2.309658    0.821187    0.000097
      9          8           0        2.247644   -1.429212    0.000034
     10          8           0        0.062205    2.183534   -0.000058
     11          1           0       -2.230762   -2.460030   -0.000015
     12          1           0       -3.636282   -0.386176    0.000125
     13          1           0       -2.486109    1.852880    0.000115
     14          1           0        3.205472   -1.264322    0.000166
     15          1           0        1.034692    2.038482   -0.000196
 ---------------------------------------------------------------------
                    Distance matrix (angstroms):
                    1          2          3          4          5
     1  N    0.000000
     2  C    1.329813   0.000000
     3  C    2.404336   1.406945   0.000000
     4  C    2.806624   2.408054   1.384883   0.000000
     5  C    2.429394   2.749364   2.401889   1.404708   0.000000
     6  C    1.348490   2.299158   2.733112   2.414807   1.415922
     7  C    2.425962   3.644858   4.211506   3.767091   2.492354
[...]
 ! R4    R(2,11)                 1.0844         -DE/DX =    0.0                 !
 ! R5    R(3,4)                  1.3848         -DE/DX =    0.0                 !
 ! R6    R(3,12)                 1.0835         -DE/DX =    0.0                 !
 ! R7    R(4,5)                  1.4047         -DE/DX =    0.0                 !
 ! R8    R(4,13)                 1.0829         -DE/DX =    0.0                 !
 ! R9    R(5,6)                  1.4156         -DE/DX =    0.0                 !
 ! R10   R(5,10)                 1.346          -DE/DX =    0.0                 !
 ! R11   R(6,7)                  1.4782         -DE/DX =    0.0                 !
 ! R12   R(7,8)                  1.2367         -DE/DX =    0.0                 !
 ! R13   R(7,9)                  1.3385         -DE/DX =    0.0                 !
 ! R14   R(9,14)                 0.9719         -DE/DX =    0.0                 !
 ! R15   R(10,15)                0.9835         -DE/DX =    0.0                 !
 ! A1    A(2,1,6)              118.2875         -DE/DX =    0.0                 !
 ! A2    A(1,2,3)              122.9051         -DE/DX =    0.0                 !
 ! A3    A(1,2,11)             116.35           -DE/DX =    0.0                 !
 ! A4    A(3,2,11)             120.7449         -DE/DX =    0.0                 !
 ! A5    A(2,3,4)              119.2091         -DE/DX =    0.0                 !
 ! A6    A(2,3,12)             120.1288         -DE/DX =    0.0                 !
 ! A7    A(4,3,12)             120.6621         -DE/DX =    0.0                 !
 ! A8    A(3,4,5)              118.8463         -DE/DX =    0.0                 !
 ! A9    A(3,4,13)             122.405          -DE/DX =    0.0                 !
 ! A10   A(5,4,13)             118.7486         -DE/DX =    0.0                 !
 ! A11   A(4,5,6)              117.7775         -DE/DX =    0.0                 !
 ! A12   A(4,5,10)             118.0685         -DE/DX =    0.0                 !
 ! A13   A(6,5,10)             124.154          -DE/DX =    0.0                 !
 ! A14   A(1,6,5)              122.9744         -DE/DX =    0.0                 !
 ! A15   A(1,6,7)              118.1431         -DE/DX =    0.0                 !
 ! A16   A(5,6,7)              118.8824         -DE/DX =    0.0                 !
 ! A17   A(6,7,8)              122.8949         -DE/DX =    0.0                 !
 ! A18   A(6,7,9)              115.2854         -DE/DX =    0.0                 !
 ! A19   A(8,7,9)              121.8198         -DE/DX =    0.0                 !
 ! A20   A(7,9,14)             106.4931         -DE/DX =    0.0                 !
 ! A21   A(5,10,15)            107.666          -DE/DX =    0.0                 !
 ! D1    D(6,1,2,3)              0.0            -DE/DX =    0.0                 !
 ! D2    D(6,1,2,11)          -180.0            -DE/DX =    0.0                 !
 ! D3    D(2,1,6,5)             -0.0001         -DE/DX =    0.0                 !
 ! D4    D(2,1,6,7)            180.0            -DE/DX =    0.0                 !
 ! D5    D(1,2,3,4)              0.0            -DE/DX =    0.0                 !
 ! D6    D(1,2,3,12)           180.0            -DE/DX =    0.0                 !
 ! D7    D(11,2,3,4)           180.0            -DE/DX =    0.0                 !
 ! D8    D(11,2,3,12)            0.0            -DE/DX =    0.0                 !
 ! D9    D(2,3,4,5)              0.0            -DE/DX =    0.0                 !
 ! D10   D(2,3,4,13)           180.0            -DE/DX =    0.0                 !
 ! D11   D(12,3,4,5)          -180.0            -DE/DX =    0.0                 !
 ! D12   D(12,3,4,13)            0.0            -DE/DX =    0.0                 !
 ! D13   D(3,4,5,6)             -0.0001         -DE/DX =    0.0                 !
 ! D14   D(3,4,5,10)          -180.0            -DE/DX =    0.0                 !
 ! D15   D(13,4,5,6)          -180.0            -DE/DX =    0.0                 !
 ! D16   D(13,4,5,10)            0.0            -DE/DX =    0.0                 !
 ! D17   D(4,5,6,1)              0.0001         -DE/DX =    0.0                 !
 ! D18   D(4,5,6,7)           -180.0            -DE/DX =    0.0                 !
 ! D19   D(10,5,6,1)          -180.0            -DE/DX =    0.0                 !
 ! D20   D(10,5,6,7)            -0.0001         -DE/DX =    0.0                 !
 ! D21   D(4,5,10,15)          180.0002         -DE/DX =    0.0                 !
 ! D22   D(6,5,10,15)            0.0003         -DE/DX =    0.0                 !
 ! D23   D(1,6,7,8)            179.9991         -DE/DX =    0.0                 !
 ! D24   D(1,6,7,9)              0.0            -DE/DX =    0.0                 !
 ! D25   D(5,6,7,8)             -0.0008         -DE/DX =    0.0                 !
 ! D26   D(5,6,7,9)            180.0001         -DE/DX =    0.0                 !
 ! D27   D(6,7,9,14)           179.9995         -DE/DX =    0.0                 !
 ! D28   D(8,7,9,14)             0.0003         -DE/DX =    0.0                 !
 --------------------------------------------------------------------------------
 GradGradGradGradGradGradGradGradGradGradGradGradGradGradGradGradGradGrad

 1\1\ WCSS.PL-BEM-QINLAB\Freq\RB2PLYP-FC\6-31+G(d,p)\C6H5N1O3\PHZD\18-D
 ec-2024\0\\#N Geom=AllCheck Guess=TCheck SCRF=Check GenChk RB2PLYP(FC)
 /6-31+G(d,p) Freq\\[No Title]\\0,1\N,-0.4388310009,-1.4536124852,0.000
 0203715\C,-1.7681488836,-1.4794028218,0.0000304396\C,-2.5551035851,-0.
 3134239467,0.0000253697\C,-1.9312632864,0.9229472362,0.0000088673\C,-0
 .5275260242,0.9737340465,-0.0000025147\C,0.1770339702,-0.2540348152,0.
 0000049735\C,1.6550345412,-0.2290851422,-0.0000065881\O,2.3090770633,0
 .8205443334,-0.0000364245\O,2.2470739718,-1.429492581,-0.0000003563\O,
 0.0624622638,2.1835803174,-0.0000185462\H,-2.2305226948,-2.4602859814,
 0.0000425606\H,-3.6361585498,-0.3868921208,0.0000343599\H,-2.486067438
 2,1.8528777609,0.0000041365\H,3.2048692111,-1.2647530439,-0.0000176393
 \H,1.0356264416,2.0410832439,-0.0000280094\\Version=ES64L-G09RevE.01\S
 tate=1-A\HF=-511.1497372\MP2=-511.6496443\RMSD=2.302e-09\RMSF=1.309e-0
 5\ZeroPoint=0.1086539\Thermal=0.1164536\Dipole=-0.5086973,-0.1610281,0
 .0000077\DipoleDeriv=0.0543037,-0.0575439,-0.0000018,0.4029404,-0.4008
 466,-0.0000019,-0.0000082,0.0000019,-0.2434171,-0.2736986,0.0833906,0.
 0000016,0.2635746,0.2783359,-0.0000048,-0.0000005,-0.000003,-0.0270273
 ,0.1546325,0.0637158,-0.0000025,-0.3206983,0.0452814,0.0000016,0.00000
 09,-0.0000019,-0.0798248,0.0605305,-0.3864601,0.000002,0.017124,-0.002
 7229,-0.0000016,-0.0000011,0.0000022,-0.1423003,0.2144033,0.6497634,-0
 .0000062,0.4391939,1.1080146,-0.0000122,-0.000006,-0.0000145,0.1585348
 ,-0.5602898,0.2571864,0.000003,-0.4056698,-0.1224791,0.0000055,0.00000
 82,0.,0.0336672,2.0811495,-0.2890154,-0.0000126,-0.2364848,1.627522,-0
 .0000177,-0.0000148,-0.0000164,0.3079181,-1.1099275,-0.2404007,0.00001
 05,-0.1936795,-0.9822718,0.0000097,0.0000129,0.0000149,-0.3647663,-0.8
 369864,0.5794022,-0.0000042,0.5936763,-1.0244858,0.0000045,-0.0000018,
 -0.0000003,-0.3478327,-0.631724,-0.4875836,0.0000067,-0.3419289,-1.222
 4498,0.0000107,0.0000063,0.0000105,-0.3487639,0.0073921,-0.0578737,0.0
 000015,-0.0838863,-0.0529804,0.0000022,0.0000019,0.0000018,0.1197725,-
 0.075958,-0.0151627,0.0000017,-0.0157177,0.0852044,0.0000006,0.0000017
 ,0.0000005,0.1343611,0.0581956,0.0359431,0.0000003,0.0512922,0.0004716
 ,0.000001,0.0000003,0.0000013,0.1451167,0.3305273,-0.0971762,0.0000018
 ,-0.1282002,0.2808016,0.0000026,0.000003,0.000002,0.3456032,0.5274498,
 -0.0381851,-0.0000018,-0.041536,0.382605,0.,-0.0000028,0.0000011,0.308
 9589\Polar=117.6362996,3.4123907,97.6648519,-0.0006553,-0.0005692,46.8
 671047\PG=C01 [X(C6H5N1O3)]\NImag=0\\0.63210478,0.11242482,0.44377836,
 -0.00000497,-0.00000418,0.08904764,-0.37408494,0.00070179,0.00000229,0
 .69657442,-0.01816256,-0.11811706,0.00000071,0.05820568,0.74596182,0.0
 0000249,0.00000060,-0.05856297,-0.00000462,-0.00000592,0.13747483,-0.0
 5307371,0.02298979,0.00000028,-0.17822365,0.11004641,-0.00000013,0.760
 13362,0.08205298,0.04037394,-0.00000079,0.04467018,-0.26555172,0.00000
 152,0.03185240,0.68222384,-0.00000024,-0.00000032,0.01897948,0.0000004
 7,0.00000106,-0.05955650,-0.00000518,-0.00000554,0.12143922,-0.0490792
 6,-0.02940895,0.00000060,0.06522830,-0.01241006,-0.00000030,-0.1840288
 3,-0.07162288,0.00000174,0.68862117,-0.03184909,-0.01418354,0.00000033
 ,0.02411370,-0.05463802,0.00000037,-0.12804495,-0.33350258,0.00000372,
 -0.01475104,0.78445645,0.00000067,0.00000032,-0.00235784,-0.00000070,0
 .00000064,0.00181638,0.00000227,0.00000329,-0.04533732,-0.00000429,-0.
 00000637,0.11287905,0.07129561,0.02380654,-0.00000067,-0.05586738,0.02
 385472,0.00000013,-0.01356951,-0.07527318,0.00000075,-0.32003762,0.046
 91058,0.00000166,0.71920009,-0.02364254,-0.06393513,0.00000080,0.03043
 222,-0.00679967,-0.00000018,-0.03952036,0.02384997,-0.00000002,-0.0118
 6745,-0.12235883,0.00000071,0.02804059,0.69100314,-0.00000020,0.000000
 51,0.00806998,0.00000005,-0.00000013,-0.00391716,0.00000041,0.00000020
 ,-0.00949439,0.00000221,0.00000030,-0.05432673,-0.00000478,-0.00000569
 ,0.13849404,-0.14128598,-0.07708996,0.00000128,-0.06484292,-0.03854363
 ,0.00000077,0.00148045,-0.01754134,0.00000011,-0.01243901,0.02844689,-
 0.00000026,-0.19454342,0.08773088,0.00000008,0.65272705,-0.08042013,-0
 .28392926,0.00000276,-0.07454421,0.00383577,0.00000050,0.01524305,-0.0
 5572080,0.00000035,0.05522554,0.03247808,-0.00000066,0.04302037,-0.226
 34898,0.00000150,0.01456987,0.68361014,0.00000123,0.00000273,-0.051898
 48,0.00000121,0.00000019,0.00206614,-0.00000017,0.00000064,-0.00362218
 ,-0.00000043,-0.00000048,0.00116416,0.00000051,0.00000122,-0.05092775,
 -0.00000415,-0.00000589,0.11697689,-0.04017194,-0.03179206,0.00000052,
 0.02265970,-0.00748608,0.00000006,-0.00048198,0.01461208,-0.00000013,-
 0.00957265,-0.00187369,0.00000022,-0.00389651,0.03770370,-0.00000034,-
 0.20552621,0.01529690,0.00000054,0.72347805,-0.03527928,-0.00367679,0.
 00000011,-0.00624356,-0.00652401,0.00000022,0.00015435,-0.00212012,0.0
 0000003,0.00250091,-0.00673750,0.00000015,0.03720562,0.02367266,-0.000
 00052,0.02592186,-0.09477272,0.00000001,0.10547796,0.83509593,0.000000
 45,0.00000009,-0.01491720,-0.00000003,0.00000023,0.01199958,0.00000003
 ,-0.00000010,0.00012851,0.00000009,0.00000018,0.00723914,-0.00000041,-
 0.00000080,-0.00364670,0.00000112,0.00000018,-0.06544526,-0.00000923,-
 0.00001178,0.19621805,-0.00562752,0.00382185,0.00000014,-0.00529046,-0
 .00007332,-0.00000003,0.00006444,-0.00344132,0.00000004,0.00196754,-0.
 00018851,-0.00000003,-0.00016991,-0.00301879,0.00000009,-0.02359699,-0
 .04309815,0.00000129,-0.27644967,-0.23450222,0.00000728,0.29456514,0.0
 0270291,0.00622646,0.00000002,-0.00610484,0.00337972,-0.00000005,0.000
 33054,-0.00566320,0.00000005,0.00554847,0.00368151,-0.00000012,-0.0104
 7412,-0.02695234,0.00000031,-0.03352045,-0.00660906,0.00000087,-0.2222
 4709,-0.46208306,0.00001038,0.26773698,0.57041918,0.00000020,-0.000000
 03,0.00594508,0.00000008,-0.00000004,-0.00241915,-0.00000001,0.0000000
 8,0.00014561,-0.00000005,-0.00000004,-0.00100721,0.00000011,0.00000043
 ,0.00144502,0.00000072,0.00000091,0.01586397,0.00000751,0.00001076,-0.
 07158146,-0.00000866,-0.00001347,0.03455447,-0.00071771,0.00354848,-0.
 00000004,-0.00285614,0.00242501,0.,-0.00029614,-0.00199971,0.00000002,
 0.00055476,0.00267248,-0.00000005,-0.00826189,-0.00946820,0.00000016,-
 0.02976903,0.04251891,-0.00000004,-0.17339080,0.10180594,0.00000027,0.
 03617489,-0.01167247,-0.00000001,0.65400971,-0.00474214,-0.00118424,0.
 00000012,0.00447283,-0.00056036,-0.00000004,-0.00044780,0.00214285,-0.
 00000002,-0.00065153,0.00051770,0.,-0.00279144,-0.00132241,0.00000006,
 0.01451682,-0.00396928,-0.00000009,0.06246244,-0.26096279,0.00000182,0
 .00866857,-0.10252684,0.00000183,-0.02156050,0.42299927,0.00000009,0.0
 0000005,0.00276763,-0.00000001,-0.00000004,-0.00159739,0.,0.,-0.000154
 38,-0.00000001,-0.00000006,-0.00082341,0.00000015,0.00000014,0.0021641
 1,0.00000011,-0.00000033,0.00903652,0.00000082,0.00000086,-0.06178295,
 -0.00000022,0.00000233,0.02671914,-0.00000905,-0.00000514,0.03815160,-
 0.01274382,-0.00334165,0.00000022,0.01022112,-0.00807795,0.,-0.0061903
 1,0.01599250,-0.00000006,-0.03839294,-0.06209657,0.00000091,-0.1502934
 8,-0.10662776,0.00000198,0.02871355,0.00958631,-0.00000027,-0.02981126
 ,-0.02096766,0.00000069,-0.01088670,0.03856362,-0.00000027,0.00337436,
 0.00771984,-0.00000017,0.61608326,-0.00009700,-0.00598869,0.00000015,0
 .00363969,-0.00546771,0.00000002,0.00384553,0.00634889,-0.00000003,-0.
 02304817,-0.00769050,0.00000032,-0.06858415,-0.29827406,0.00000292,-0.
 00848506,-0.04289435,0.00000052,-0.01995166,-0.00590688,0.00000029,0.0
 1477888,0.00696078,-0.00000027,0.00324016,-0.00071993,-0.00000004,0.05
 121025,0.41502738,0.00000009,0.00000017,0.00828097,-0.00000009,0.00000
 007,-0.00113045,0.00000007,-0.00000008,0.00654495,0.00000051,0.0000006
 1,0.00450462,0.00000170,0.00000338,-0.04094211,-0.00000001,0.00000038,
 0.00373752,0.00000043,0.00000027,0.00071298,0.00000006,-0.00000040,0.0
 0387617,-0.00000006,-0.00000012,-0.00106482,-0.00000664,-0.00000380,0.
 03578528,-0.02605216,-0.03235290,0.00000043,-0.09814044,-0.10160725,0.
 00000136,0.01121009,0.01781588,-0.00000022,-0.00228138,0.00313320,0.00
 000003,-0.00111655,0.00030761,0.00000001,-0.00418874,-0.00073286,0.000
 00010,0.00079433,-0.00126740,0.,-0.00085643,-0.00021659,0.00000002,-0.
 00028575,0.00021910,0.,0.00035943,-0.00044131,-0.00000001,0.11965457,-
 0.00410400,0.00591170,-0.00000009,-0.10370284,-0.30133397,0.00000312,-
 0.01301800,-0.01681826,0.00000028,0.00392697,-0.00258863,0.00000005,0.
 00110852,0.00021748,0.,0.00167384,0.00284277,0.00000006,0.00020336,0.0
 0014815,0.,-0.00008817,0.00001783,0.,-0.00018947,0.00003860,0.,-0.0001
 9149,0.00007602,-0.00000001,0.11472126,0.31204208,0.00000018,0.0000001
 0,-0.00720662,0.00000137,0.00000308,-0.03656991,0.00000006,0.00000008,
 0.00343444,0.00000002,0.00000006,0.00620104,0.,0.,0.00077855,0.0000001
 1,0.00000010,0.01095180,0.,0.00000002,0.00096091,0.,0.,-0.00050275,0.,
 0.,0.00005019,-0.00000002,-0.00000002,-0.00162837,-0.00000171,-0.00000
 339,0.02591352,-0.00149937,0.00362095,0.00000003,-0.01106272,-0.006848
 55,0.00000015,-0.34951336,-0.01871468,0.00000258,-0.00839860,0.0020279
 0,0.00000006,0.00168846,-0.00156970,0.00000008,0.00158932,0.00057414,-
 0.00000002,-0.00004192,0.00005405,-0.00000002,-0.00016148,-0.00000233,
 0.,-0.00015349,0.00003170,0.,-0.00092305,-0.00012419,0.00000001,0.0004
 0047,0.00037143,-0.00000002,0.36708663,0.00515854,-0.00411072,0.000000
 07,0.02589404,0.00981057,-0.00000029,-0.01803898,-0.06253860,0.0000003
 8,-0.02980636,0.00329317,0.00000022,-0.00126761,-0.00483053,0.00000015
 ,-0.00124652,-0.00227291,0.00000003,0.00047866,-0.00020288,-0.00000002
 ,-0.00003997,0.00017891,0.,-0.00006944,0.00021843,0.,-0.00192266,0.000
 28790,0.00000002,-0.00063486,0.00033448,-0.00000002,0.02099598,0.05929
 320,0.,0.00000005,0.00680578,-0.00000015,-0.00000003,0.00078220,0.0000
 0257,0.00000038,-0.03650690,0.00000037,0.,0.00255577,0.00000007,0.0000
 0016,0.00992991,0.,0.00000001,-0.00040803,-0.00000003,-0.00000002,-0.0
 0210321,0.,0.,0.00033259,0.,0.,0.00028789,0.00000003,0.,0.00002553,-0.
 00000001,-0.00000003,-0.00233635,-0.00000282,-0.00000048,0.02539974,-0
 .00078973,-0.00102907,-0.00000001,-0.00093244,-0.00365123,0.00000012,0
 .01313181,-0.01446114,0.00000006,-0.13942877,0.12933110,-0.00000044,-0
 .01116938,0.03033636,-0.00000018,-0.00542035,-0.00190796,0.00000011,0.
 00031848,0.00186970,-0.00000003,0.00008194,-0.00050064,0.,-0.00080664,
 -0.00005632,0.00000001,0.00295471,-0.00033554,-0.00000004,0.00053584,-
 0.00079402,0.,0.00076165,0.00050302,-0.00000005,0.14101823,-0.00051405
 ,0.00025904,-0.00000003,-0.00435479,-0.00282588,0.00000015,0.01642548,
 -0.01662599,0.00000006,0.13132986,-0.27326437,0.00000130,-0.00321459,0
 .00369625,0.00000003,-0.00060544,0.00113894,0.00000005,-0.00061716,0.0
 0003878,0.,0.00011440,0.00018080,0.,0.00000984,-0.00003356,0.,0.000408
 53,0.00084687,-0.00000004,0.00091312,-0.00084483,0.,-0.00017725,0.0009
 6928,-0.00000005,-0.13960942,0.28637229,-0.00000001,-0.00000003,-0.003
 42796,0.00000012,0.00000015,0.00943101,-0.00000024,0.00000029,0.002427
 91,-0.00000046,0.00000132,-0.03555303,0.00000014,-0.00000023,0.0046960
 2,0.00000011,0.00000007,0.00651236,0.,-0.00000003,-0.00046138,0.,0.,-0
 .00000771,0.,0.,-0.00002422,-0.00000005,-0.00000003,-0.00300036,-0.000
 00001,0.00000001,-0.00009329,-0.00000004,-0.00000006,-0.00438402,0.000
 00045,-0.00000147,0.02437958,0.00042773,-0.00000076,0.,0.00054558,-0.0
 0037838,0.,0.00012008,0.00037838,0.,-0.00021702,0.00038614,0.,-0.00092
 866,-0.00065795,0.00000002,0.00183167,0.00301825,0.00000006,-0.0335786
 6,0.00388058,0.00000042,0.00304632,-0.00947404,0.00000003,-0.47551659,
 -0.05855126,0.00000806,0.00112222,-0.00028643,-0.00000001,0.00001645,0
 .00002705,0.,0.00003504,0.00000527,0.,-0.00006663,-0.00002581,0.,0.504
 38054,-0.00164382,0.00007637,0.,-0.00001286,0.00045510,0.,-0.00022036,
 -0.00008919,0.,0.00012846,-0.00053236,0.,0.00173312,0.00114417,0.,0.00
 112492,-0.00686656,0.00000014,0.05646903,0.00503311,-0.00000091,-0.007
 23835,0.00145183,0.00000003,-0.11127872,-0.06050890,0.00000227,-0.0013
 2101,0.00011207,0.00000001,-0.00004546,-0.00003071,0.,-0.00004849,0.00
 003444,0.,0.00013991,0.00001806,0.,0.06088905,0.06057805,0.,-0.0000000
 1,-0.00054283,0.,0.,0.00011988,0.,0.,0.00007191,0.,0.,-0.00046112,0.,0
 .00000001,0.00076009,-0.00000003,0.00000012,0.00485185,-0.00000004,-0.
 00000007,0.00389195,-0.00000006,0.00000002,-0.00599554,0.00000873,0.00
 000146,-0.01561397,0.,0.,-0.00000133,0.,0.,-0.00000269,0.,0.,-0.000014
 54,0.,0.,0.00002332,-0.00000858,-0.00000152,0.01288968,0.00129802,0.00
 410113,-0.00000008,-0.00392802,0.00270719,0.,-0.00076300,-0.00432014,0
 .00000006,0.00750429,0.00178187,-0.00000004,-0.03232986,-0.01817860,0.
 00000042,-0.00472940,0.00164996,0.00000003,0.02567105,0.01938914,-0.00
 000065,-0.01286110,-0.02066996,0.00000032,-0.00205953,-0.00929032,0.00
 000021,-0.41358709,0.04463902,0.00000398,-0.00004972,0.00005557,0.,0.0
 0019242,-0.00000911,0.,-0.00018871,-0.00008273,0.,-0.00121807,0.001324
 60,0.,0.43704872,-0.00188463,-0.00150045,0.00000003,0.00283299,-0.0016
 2459,0.,-0.00159712,0.00369096,-0.00000002,-0.00509376,-0.00893057,0.0
 0000016,-0.04407498,0.00723828,0.00000036,0.00304732,-0.00052177,0.,-0
 .00873638,-0.02100189,0.00000042,-0.00343188,0.01133746,-0.00000017,0.
 00001769,0.00587146,-0.00000007,0.08106571,-0.06271780,-0.00000045,0.0
 0018846,-0.00001272,0.,-0.00019096,-0.00046474,0.,0.00016525,0.0000743
 3,0.,0.00078991,-0.00087551,0.,-0.02309761,0.06943751,0.00000001,-0.00
 000005,-0.00098266,0.,0.,0.00006352,0.00000002,0.00000001,0.00149963,0
 .,0.00000008,0.00350652,0.00000064,0.00000007,-0.00308288,0.00000004,0
 .00000001,0.00114047,-0.00000029,0.,-0.00121296,0.00000011,0.00000006,
 -0.00736823,0.00000006,0.00000012,0.00188407,0.00000366,-0.00000003,-0
 .01570058,0.,0.,0.00004952,0.,0.,-0.00036636,0.,0.,-0.00051824,0.00000
 001,-0.00000001,0.00002335,-0.00000426,-0.00000025,0.02106482\\-0.0000
 0083,-0.00000232,-0.00000020,-0.00002949,0.00002756,0.00000010,0.00002
 580,-0.00002594,-0.00000002,0.00000891,0.00000695,0.00000004,-0.000011
 12,-0.00003321,-0.00000016,0.00001983,0.00004189,-0.00000042,0.0000011
 8,0.00000728,0.00000202,-0.00001140,-0.00002160,-0.00000085,0.00000057
 ,0.00000549,-0.00000055,0.00000087,0.00000556,0.00000002,-0.00000387,-
 0.00001514,0.,-0.00000697,-0.00000475,0.,-0.00000274,0.00000445,0.,-0.
 00000316,0.00000274,-0.00000003,0.00001242,0.00000104,0.00000005\\\@


 THE MOLECULE ALSO HAS A BODY.  WHEN THIS BODY IS HIT, THE MOLECULE
 FEELS HURT ALL OVER -- A. KITAIGORODSKI
 Job cpu time:       0 days  3 hours 33 minutes 22.0 seconds.
 File lengths (MBytes):  RWF=  11796 Int=      0 D2E=      0 Chk=      6 Scr=      1
 Normal termination of Gaussian 09 at Wed Dec 18 01:24:20 2024.
