 Entering Gaussian System, Link 0=g09
 Input=B2PLYPD33HPA2.gjf
 Output=B2PLYPD33HPA2.log
 Initial command:
 /home/c612/g09E/g09/l1.exe "/mnt/ja_sm883/scratch/Gau-1889677.inp" -scrdir="/mnt/ja_sm883/scratch/"
 Default is to use a total of  18 processors:
                               18 via shared-memory
                                1 via Linda
 Entering Link 1 = /home/c612/g09E/g09/l1.exe PID=   1889679.
  
 Copyright (c) 1988,1990,1992,1993,1995,1998,2003,2009,2015,
            Gaussian, Inc.  All Rights Reserved.
  
 This is part of the Gaussian(R) 09 program.  It is based on
 the Gaussian(R) 03 system (copyright 2003, Gaussian, Inc.),
 the Gaussian(R) 98 system (copyright 1998, Gaussian, Inc.),
 the Gaussian(R) 94 system (copyright 1995, Gaussian, Inc.),
 the Gaussian 92(TM) system (copyright 1992, Gaussian, Inc.),
 the Gaussian 90(TM) system (copyright 1990, Gaussian, Inc.),
 the Gaussian 88(TM) system (copyright 1988, Gaussian, Inc.),
 the Gaussian 86(TM) system (copyright 1986, Carnegie Mellon
 University), and the Gaussian 82(TM) system (copyright 1983,
 Carnegie Mellon University). Gaussian is a federally registered
 trademark of Gaussian, Inc.
  
 This software contains proprietary and confidential information,
 including trade secrets, belonging to Gaussian, Inc.
  
 This software is provided under written license and may be
 used, copied, transmitted, or stored only in accord with that
 written license.
  
 The following legend is applicable only to US Government
 contracts under FAR:
  
                    RESTRICTED RIGHTS LEGEND
  
 Use, reproduction and disclosure by the US Government is
 subject to restrictions as set forth in subparagraphs (a)
 and (c) of the Commercial Computer Software - Restricted
 Rights clause in FAR 52.227-19.
  
 Gaussian, Inc.
 340 Quinnipiac St., Bldg. 40, Wallingford CT 06492
  
  
 ---------------------------------------------------------------
 Warning -- This program may not be used in any manner that
 competes with the business of Gaussian, Inc. or will provide
 assistance to any competitor of Gaussian, Inc.  The licensee
 of this program is prohibited from giving any competitor of
 Gaussian, Inc. access to this program.  By using this program,
 the user acknowledges that Gaussian, Inc. is engaged in the
 business of creating and licensing software in the field of
 computational chemistry and represents and warrants to the
 licensee that it is not a competitor of Gaussian, Inc. and that
 it will not use this program in any manner prohibited above.
 ---------------------------------------------------------------
  

 Cite this work as:
 Gaussian 09, Revision E.01,
 M. J. Frisch, G. W. Trucks, H. B. Schlegel, G. E. Scuseria, 
 M. A. Robb, J. R. Cheeseman, G. Scalmani, V. Barone, B. Mennucci, 
 G. A. Petersson, H. Nakatsuji, M. Caricato, X. Li, H. P. Hratchian, 
 A. F. Izmaylov, J. Bloino, G. Zheng, J. L. Sonnenberg, M. Hada, 
 M. Ehara, K. Toyota, R. Fukuda, J. Hasegawa, M. Ishida, T. Nakajima, 
 Y. Honda, O. Kitao, H. Nakai, T. Vreven, J. A. Montgomery, Jr., 
 J. E. Peralta, F. Ogliaro, M. Bearpark, J. J. Heyd, E. Brothers, 
 K. N. Kudin, V. N. Staroverov, T. Keith, R. Kobayashi, J. Normand, 
 K. Raghavachari, A. Rendell, J. C. Burant, S. S. Iyengar, J. Tomasi, 
 M. Cossi, N. Rega, J. M. Millam, M. Klene, J. E. Knox, J. B. Cross, 
 V. Bakken, C. Adamo, J. Jaramillo, R. Gomperts, R. E. Stratmann, 
 O. Yazyev, A. J. Austin, R. Cammi, C. Pomelli, J. W. Ochterski, 
 R. L. Martin, K. Morokuma, V. G. Zakrzewski, G. A. Voth, 
 P. Salvador, J. J. Dannenberg, S. Dapprich, A. D. Daniels, 
 O. Farkas, J. B. Foresman, J. V. Ortiz, J. Cioslowski, 
 and D. J. Fox, Gaussian, Inc., Wallingford CT, 2013.
 
 ******************************************
 Gaussian 09:  ES64L-G09RevE.01 30-Nov-2015
                18-Dec-2024 
 ******************************************
 %chk=B2PLYPD33HPA2.chk
 -----------------------------------------------------
 # opt freq B2PLYP/6-31+g(d,p) EmpiricalDispersion=GD3
 -----------------------------------------------------
 1/18=20,19=15,38=1/1,3;
 2/9=110,12=2,17=6,18=5,40=1/2;
 3/5=1,6=6,7=111,11=9,16=1,25=1,30=1,71=1,74=-47,124=31/1,2,3;
 4//1;
 5/5=2,38=5/2;
 8/6=4,10=2/1;
 9/15=2,16=-3/6;
 10/5=1/2;
 6/7=2,8=2,9=2,10=2/1;
 7/12=2/1,2,3,16;
 1/18=20,19=15/3(2);
 2/9=110/2;
 99//99;
 2/9=110/2;
 3/5=1,6=6,7=111,11=9,16=1,25=1,30=1,71=1,74=-47,124=31/1,2,3;
 4/5=5,16=3,69=1/1;
 5/5=2,38=5/2;
 8/6=4,10=2/1;
 9/15=2,16=-3/6;
 10/5=1/2;
 7/12=2/1,2,3,16;
 1/18=20,19=15/3(-8);
 2/9=110/2;
 6/7=2,8=2,9=2,10=2/1;
 99//99;
 ----------
 [No Title]
 ----------
 Symbolic Z-matrix:
 Charge =  1 Multiplicity = 1
 N                    -0.50626  -1.35033  -0.00004 
 C                    -1.83537  -1.42015  -0.00002 
 C                    -2.56483  -0.22804   0.00005 
 C                    -1.89785   0.98128   0.00009 
 C                    -0.48334   1.02407   0.00006 
 C                     0.20632  -0.19613  -0.00001 
 C                     1.67697  -0.42244  -0.00004 
 O                     2.15021  -1.53255  -0.00015 
 O                     2.36549   0.7265   -0.00002 
 O                     0.09018   2.21546   0.0001 
 H                     0.06858  -2.19871  -0.00009 
 H                    -2.28324  -2.40674  -0.00005 
 H                    -3.64836  -0.26734   0.00006 
 H                    -2.43581   1.92466   0.00014 
 H                     3.32208   0.54278  -0.00007 
 H                     1.06218   2.15085   0.00007 
 

 GradGradGradGradGradGradGradGradGradGradGradGradGradGradGradGradGradGrad
 Berny optimization.
 Initialization pass.
                           ----------------------------
                           !    Initial Parameters    !
                           ! (Angstroms and Degrees)  !
 --------------------------                            --------------------------
 ! Name  Definition              Value          Derivative Info.                !
 --------------------------------------------------------------------------------
 ! R1    R(1,2)                  1.3309         estimate D2E/DX2                !
 ! R2    R(1,6)                  1.3564         estimate D2E/DX2                !
 ! R3    R(1,11)                 1.0248         estimate D2E/DX2                !
 ! R4    R(2,3)                  1.3976         estimate D2E/DX2                !
 ! R5    R(2,12)                 1.0835         estimate D2E/DX2                !
 ! R6    R(3,4)                  1.3811         estimate D2E/DX2                !
 ! R7    R(3,13)                 1.0842         estimate D2E/DX2                !
 ! R8    R(4,5)                  1.4152         estimate D2E/DX2                !
 ! R9    R(4,14)                 1.086          estimate D2E/DX2                !
 ! R10   R(5,6)                  1.4016         estimate D2E/DX2                !
 ! R11   R(5,10)                 1.3223         estimate D2E/DX2                !
 ! R12   R(6,7)                  1.488          estimate D2E/DX2                !
 ! R13   R(7,8)                  1.2068         estimate D2E/DX2                !
 ! R14   R(7,9)                  1.3394         estimate D2E/DX2                !
 ! R15   R(9,15)                 0.9741         estimate D2E/DX2                !
 ! R16   R(10,16)                0.9742         estimate D2E/DX2                !
 ! A1    A(2,1,6)              124.6979         estimate D2E/DX2                !
 ! A2    A(2,1,11)             121.1133         estimate D2E/DX2                !
 ! A3    A(6,1,11)             114.1888         estimate D2E/DX2                !
 ! A4    A(1,2,3)              118.4556         estimate D2E/DX2                !
 ! A5    A(1,2,12)             117.4234         estimate D2E/DX2                !
 ! A6    A(3,2,12)             124.121          estimate D2E/DX2                !
 ! A7    A(2,3,4)              119.6591         estimate D2E/DX2                !
 ! A8    A(2,3,13)             119.3855         estimate D2E/DX2                !
 ! A9    A(4,3,13)             120.9554         estimate D2E/DX2                !
 ! A10   A(3,4,5)              120.6105         estimate D2E/DX2                !
 ! A11   A(3,4,14)             121.4279         estimate D2E/DX2                !
 ! A12   A(5,4,14)             117.9615         estimate D2E/DX2                !
 ! A13   A(4,5,6)              117.7429         estimate D2E/DX2                !
 ! A14   A(4,5,10)             117.4377         estimate D2E/DX2                !
 ! A15   A(6,5,10)             124.8194         estimate D2E/DX2                !
 ! A16   A(1,6,5)              118.834          estimate D2E/DX2                !
 ! A17   A(1,6,7)              112.9425         estimate D2E/DX2                !
 ! A18   A(5,6,7)              128.2235         estimate D2E/DX2                !
 ! A19   A(6,7,8)              121.8365         estimate D2E/DX2                !
 ! A20   A(6,7,9)              112.1846         estimate D2E/DX2                !
 ! A21   A(8,7,9)              125.9789         estimate D2E/DX2                !
 ! A22   A(7,9,15)             110.0612         estimate D2E/DX2                !
 ! A23   A(5,10,16)            111.902          estimate D2E/DX2                !
 ! D1    D(6,1,2,3)              0.0            estimate D2E/DX2                !
 ! D2    D(6,1,2,12)           180.0            estimate D2E/DX2                !
 ! D3    D(11,1,2,3)           179.9999         estimate D2E/DX2                !
 ! D4    D(11,1,2,12)           -0.0001         estimate D2E/DX2                !
 ! D5    D(2,1,6,5)              0.0            estimate D2E/DX2                !
 ! D6    D(2,1,6,7)            179.9998         estimate D2E/DX2                !
 ! D7    D(11,1,6,5)          -179.9998         estimate D2E/DX2                !
 ! D8    D(11,1,6,7)            -0.0001         estimate D2E/DX2                !
 ! D9    D(1,2,3,4)             -0.0001         estimate D2E/DX2                !
 ! D10   D(1,2,3,13)          -180.0            estimate D2E/DX2                !
 ! D11   D(12,2,3,4)           179.9999         estimate D2E/DX2                !
 ! D12   D(12,2,3,13)            0.0001         estimate D2E/DX2                !
 ! D13   D(2,3,4,5)              0.0001         estimate D2E/DX2                !
 ! D14   D(2,3,4,14)           179.9999         estimate D2E/DX2                !
 ! D15   D(13,3,4,5)           180.0            estimate D2E/DX2                !
 ! D16   D(13,3,4,14)           -0.0002         estimate D2E/DX2                !
 ! D17   D(3,4,5,6)             -0.0001         estimate D2E/DX2                !
 ! D18   D(3,4,5,10)           179.9997         estimate D2E/DX2                !
 ! D19   D(14,4,5,6)          -179.9999         estimate D2E/DX2                !
 ! D20   D(14,4,5,10)           -0.0001         estimate D2E/DX2                !
 ! D21   D(4,5,6,1)              0.0            estimate D2E/DX2                !
 ! D22   D(4,5,6,7)           -179.9997         estimate D2E/DX2                !
 ! D23   D(10,5,6,1)          -179.9998         estimate D2E/DX2                !
 ! D24   D(10,5,6,7)             0.0005         estimate D2E/DX2                !
 ! D25   D(4,5,10,16)         -179.9995         estimate D2E/DX2                !
 ! D26   D(6,5,10,16)            0.0003         estimate D2E/DX2                !
 ! D27   D(1,6,7,8)              0.0032         estimate D2E/DX2                !
 ! D28   D(1,6,7,9)            179.9992         estimate D2E/DX2                !
 ! D29   D(5,6,7,8)           -179.9971         estimate D2E/DX2                !
 ! D30   D(5,6,7,9)             -0.0011         estimate D2E/DX2                !
 ! D31   D(6,7,9,15)          -179.9979         estimate D2E/DX2                !
 ! D32   D(8,7,9,15)            -0.0021         estimate D2E/DX2                !
 --------------------------------------------------------------------------------
 Trust Radius=3.00D-01 FncErr=1.00D-07 GrdErr=1.00D-07
 Number of steps in this run=     81 maximum allowed number of steps=    100.
 GradGradGradGradGradGradGradGradGradGradGradGradGradGradGradGradGradGrad

                          Input orientation:                          
 ---------------------------------------------------------------------
 Center     Atomic      Atomic             Coordinates (Angstroms)
 Number     Number       Type             X           Y           Z
 ---------------------------------------------------------------------
      1          7           0       -0.506264   -1.350327   -0.000041
      2          6           0       -1.835367   -1.420151   -0.000019
      3          6           0       -2.564829   -0.228041    0.000045
      4          6           0       -1.897850    0.981282    0.000086
      5          6           0       -0.483339    1.024065    0.000061
      6          6           0        0.206322   -0.196131   -0.000005
      7          6           0        1.676970   -0.422436   -0.000037
      8          8           0        2.150208   -1.532553   -0.000146
      9          8           0        2.365485    0.726499   -0.000019
     10          8           0        0.090178    2.215464    0.000097
     11          1           0        0.068577   -2.198708   -0.000086
     12          1           0       -2.283240   -2.406742   -0.000053
     13          1           0       -3.648355   -0.267343    0.000064
     14          1           0       -2.435809    1.924655    0.000135
     15          1           0        3.322077    0.542782   -0.000074
     16          1           0        1.062184    2.150847    0.000068
 ---------------------------------------------------------------------
                    Distance matrix (angstroms):
                    1          2          3          4          5
     1  N    0.000000
     2  C    1.330936   0.000000
     3  C    2.344614   1.397584   0.000000
     4  C    2.715311   2.402246   1.381059   0.000000
     5  C    2.374503   2.793237   2.429068   1.415158   0.000000
     6  C    1.356447   2.380487   2.771335   2.411191   1.401610
     7  C    2.372234   3.651294   4.246251   3.840542   2.599865
     8  O    2.662715   3.987160   4.892170   4.765096   3.670404
     9  O    3.544030   4.717548   5.021866   4.270941   2.864323
    10  O    3.615330   4.114052   3.608293   2.339970   1.322253
    11  H    1.024789   2.056977   3.289127   3.738873   3.269691
    12  H    2.067282   1.083491   2.196823   3.409873   3.874284
    13  H    3.323491   2.148463   1.084239   2.150194   3.418342
    14  H    3.801138   3.398273   2.156559   1.085980   2.150163
    15  H    4.270838   5.518363   5.937157   5.238313   3.835730
    16  H    3.836437   4.598677   4.337549   3.182716   1.912663
                    6          7          8          9         10
     6  C    0.000000
     7  C    1.487958   0.000000
     8  O    2.358965   1.206778   0.000000
     9  O    2.348027   1.339442   2.269286   0.000000
    10  O    2.414390   3.078380   4.276839   2.719198   0.000000
    11  H    2.007309   2.396262   2.185624   3.719223   4.414225
    12  H    3.329372   4.429530   4.518813   5.606054   5.195950
    13  H    3.855335   5.327583   5.934989   6.095408   4.487868
    14  H    3.388007   4.735376   5.743156   4.948535   2.542672
    15  H    3.202175   1.907360   2.383336   0.974074   3.639098
    16  H    2.498160   2.645704   3.840733   1.930637   0.974151
                   11         12         13         14         15
    11  H    0.000000
    12  H    2.361000   0.000000
    13  H    4.188765   2.537827   0.000000
    14  H    4.824321   4.334083   2.505020   0.000000
    15  H    4.254530   6.333977   7.017352   5.921387   0.000000
    16  H    4.461601   5.653625   5.294981   3.505299   2.773624
                   16
    16  H    0.000000
 Stoichiometry    C6H6NO3(1+)
 Framework group  C1[X(C6H6NO3)]
 Deg. of freedom    42
 Full point group                 C1      NOp   1
 Largest Abelian subgroup         C1      NOp   1
 Largest concise Abelian subgroup C1      NOp   1
                         Standard orientation:                         
 ---------------------------------------------------------------------
 Center     Atomic      Atomic             Coordinates (Angstroms)
 Number     Number       Type             X           Y           Z
 ---------------------------------------------------------------------
      1          7           0       -0.506264   -1.350327   -0.000041
      2          6           0       -1.835367   -1.420151   -0.000019
      3          6           0       -2.564829   -0.228040    0.000045
      4          6           0       -1.897850    0.981283    0.000086
      5          6           0       -0.483339    1.024065    0.000061
      6          6           0        0.206322   -0.196131   -0.000005
      7          6           0        1.676970   -0.422437   -0.000037
      8          8           0        2.150208   -1.532554   -0.000146
      9          8           0        2.365485    0.726498   -0.000019
     10          8           0        0.090179    2.215464    0.000097
     11          1           0        0.068576   -2.198708   -0.000086
     12          1           0       -2.283241   -2.406741   -0.000053
     13          1           0       -3.648355   -0.267342    0.000064
     14          1           0       -2.435808    1.924656    0.000135
     15          1           0        3.322077    0.542781   -0.000074
     16          1           0        1.062185    2.150847    0.000068
 ---------------------------------------------------------------------
 Rotational constants (GHZ):      2.2876459      1.2515636      0.8089757
 Standard basis: 6-31+G(d,p) (6D, 7F)
 There are   220 symmetry adapted cartesian basis functions of A   symmetry.
 There are   220 symmetry adapted basis functions of A   symmetry.
   220 basis functions,   362 primitive gaussians,   220 cartesian basis functions
    36 alpha electrons       36 beta electrons
       nuclear repulsion energy       521.6884515608 Hartrees.
 NAtoms=   16 NActive=   16 NUniq=   16 SFac= 1.00D+00 NAtFMM=   60 NAOKFM=F Big=F
 Integral buffers will be    131072 words long.
 Regular integral format.
 Two-electron integral symmetry is turned on.
 Nuclear repulsion after empirical dispersion term =      521.6819640744 Hartrees.
 One-electron integrals computed using PRISM.
 NBasis=   220 RedAO= T EigKep=  4.76D-06  NBF=   220
 NBsUse=   220 1.00D-06 EigRej= -1.00D+00 NBFU=   220
 ExpMin= 4.38D-02 ExpMax= 5.48D+03 ExpMxC= 8.25D+02 IAcc=2 IRadAn=         4 AccDes= 0.00D+00
 Harris functional with IExCor=  419 and IRadAn=       4 diagonalized for initial guess.
 HarFok:  IExCor=  419 AccDes= 0.00D+00 IRadAn=         4 IDoV= 1 UseB2=F ITyADJ=14
 ICtDFT=  3500011 ScaDFX=  1.000000  1.000000  1.000000  1.000000
 FoFCou: FMM=F IPFlag=           0 FMFlag=      100000 FMFlg1=           0
         NFxFlg=           0 DoJE=T BraDBF=F KetDBF=T FulRan=T
         wScrn=  0.000000 ICntrl=     500 IOpCl=  0 I1Cent=   200000004 NGrid=           0
         NMat0=    1 NMatS0=      1 NMatT0=    0 NMatD0=    1 NMtDS0=    0 NMtDT0=    0
 Petite list used in FoFCou.
 Keep R1 ints in memory in canonical form, NReq=301066375.
 Requested convergence on RMS density matrix=1.00D-08 within 128 cycles.
 Requested convergence on MAX density matrix=1.00D-06.
 Requested convergence on             energy=1.00D-06.
 No special actions if energy rises.
 SCF Done:  E(RB2PLYP) =  -511.512177059     A.U. after   15 cycles
            NFock= 15  Conv=0.58D-08     -V/T= 2.0068
 DoSCS=T DFT=T ScalE2(SS,OS)=  0.270000  0.270000
 ExpMin= 4.38D-02 ExpMax= 5.48D+03 ExpMxC= 8.25D+02 IAcc=3 IRadAn=         5 AccDes= 0.00D+00
 HarFok:  IExCor=  205 AccDes= 0.00D+00 IRadAn=         5 IDoV=-2 UseB2=F ITyADJ=14
 ICtDFT= 12500011 ScaDFX=  1.000000  1.000000  1.000000  1.000000
 Range of M.O.s used for correlation:    11   220
 NBasis=   220 NAE=    36 NBE=    36 NFC=    10 NFV=     0
 NROrb=    210 NOA=    26 NOB=    26 NVA=   184 NVB=   184

 **** Warning!!: The largest alpha MO coefficient is  0.12726193D+03

 DoSCS=T DFT=T ScalE2(SS,OS)=  0.270000  0.270000
 Fully direct method using O(ONN) memory.
 JobTyp=1 Pass  1:  I=  11 to  18 NPSUse= 18 ParTrn=T ParDer=T DoDerP=T.
 JobTyp=1 Pass  2:  I=  19 to  26 NPSUse= 18 ParTrn=T ParDer=T DoDerP=T.
 JobTyp=1 Pass  3:  I=  27 to  34 NPSUse= 18 ParTrn=T ParDer=T DoDerP=T.
 JobTyp=1 Pass  4:  I=  35 to  36 NPSUse= 18 ParTrn=T ParDer=T DoDerP=T.
 Spin components of T(2) and E(2):
     alpha-alpha T2 =       0.1081259012D+00 E2=     -0.6830041456D-01
     alpha-beta  T2 =       0.5546941755D+00 E2=     -0.3602937448D+00
     beta-beta   T2 =       0.1081259012D+00 E2=     -0.6830041456D-01
 E2(B2PLYP) =    -0.4968945740D+00 E(B2PLYP) =    -0.51200907163317D+03
          IDoAtm=1111111111111111
          Differentiating once with respect to electric field.
                with respect to dipole field.
          Differentiating once with respect to nuclear coordinates.
 Keep R1 ints in memory in canonical form, NReq=300899106.
          There are     1 degrees of freedom in the 1st order CPHF.  IDoFFX=0 NUNeed=     1.
 LinEq1:  Iter=  0 NonCon=     1 RMS=2.11D-03 Max=4.60D-02 NDo=     1
 AX will form     1 AO Fock derivatives at one time.
 LinEq1:  Iter=  1 NonCon=     1 RMS=9.06D-04 Max=1.58D-02 NDo=     1
 LinEq1:  Iter=  2 NonCon=     1 RMS=3.39D-04 Max=5.39D-03 NDo=     1
 LinEq1:  Iter=  3 NonCon=     1 RMS=2.97D-04 Max=9.04D-03 NDo=     1
 LinEq1:  Iter=  4 NonCon=     1 RMS=1.12D-04 Max=2.63D-03 NDo=     1
 LinEq1:  Iter=  5 NonCon=     1 RMS=5.18D-05 Max=1.62D-03 NDo=     1
 LinEq1:  Iter=  6 NonCon=     1 RMS=2.65D-05 Max=8.68D-04 NDo=     1
 LinEq1:  Iter=  7 NonCon=     1 RMS=1.14D-05 Max=3.08D-04 NDo=     1
 LinEq1:  Iter=  8 NonCon=     1 RMS=4.67D-06 Max=1.33D-04 NDo=     1
 LinEq1:  Iter=  9 NonCon=     1 RMS=2.56D-06 Max=6.90D-05 NDo=     1
 LinEq1:  Iter= 10 NonCon=     1 RMS=8.94D-07 Max=2.71D-05 NDo=     1
 LinEq1:  Iter= 11 NonCon=     1 RMS=4.51D-07 Max=8.03D-06 NDo=     1
 LinEq1:  Iter= 12 NonCon=     1 RMS=2.07D-07 Max=6.11D-06 NDo=     1
 LinEq1:  Iter= 13 NonCon=     1 RMS=8.82D-08 Max=2.42D-06 NDo=     1
 LinEq1:  Iter= 14 NonCon=     1 RMS=4.68D-08 Max=1.27D-06 NDo=     1
 LinEq1:  Iter= 15 NonCon=     1 RMS=1.61D-08 Max=4.27D-07 NDo=     1
 LinEq1:  Iter= 16 NonCon=     1 RMS=7.54D-09 Max=1.91D-07 NDo=     1
 LinEq1:  Iter= 17 NonCon=     1 RMS=2.48D-09 Max=3.68D-08 NDo=     1
 LinEq1:  Iter= 18 NonCon=     1 RMS=1.26D-09 Max=3.04D-08 NDo=     1
 LinEq1:  Iter= 19 NonCon=     1 RMS=3.30D-10 Max=4.40D-09 NDo=     1
 LinEq1:  Iter= 20 NonCon=     0 RMS=7.20D-11 Max=8.39D-10 NDo=     1
 Linear equations converged to 1.000D-10 1.000D-09 after    20 iterations.
 End of Minotr F.D. properties file   721 does not exist.
 End of Minotr F.D. properties file   722 does not exist.
 End of Minotr F.D. properties file   788 does not exist.

 **********************************************************************

            Population analysis using the SCF density.

 **********************************************************************

 Orbital symmetries:
       Occupied  (A) (A) (A) (A) (A) (A) (A) (A) (A) (A) (A) (A)
                 (A) (A) (A) (A) (A) (A) (A) (A) (A) (A) (A) (A)
                 (A) (A) (A) (A) (A) (A) (A) (A) (A) (A) (A) (A)
       Virtual   (A) (A) (A) (A) (A) (A) (A) (A) (A) (A) (A) (A)
                 (A) (A) (A) (A) (A) (A) (A) (A) (A) (A) (A) (A)
                 (A) (A) (A) (A) (A) (A) (A) (A) (A) (A) (A) (A)
                 (A) (A) (A) (A) (A) (A) (A) (A) (A) (A) (A) (A)
                 (A) (A) (A) (A) (A) (A) (A) (A) (A) (A) (A) (A)
                 (A) (A) (A) (A) (A) (A) (A) (A) (A) (A) (A) (A)
                 (A) (A) (A) (A) (A) (A) (A) (A) (A) (A) (A) (A)
                 (A) (A) (A) (A) (A) (A) (A) (A) (A) (A) (A) (A)
                 (A) (A) (A) (A) (A) (A) (A) (A) (A) (A) (A) (A)
                 (A) (A) (A) (A) (A) (A) (A) (A) (A) (A) (A) (A)
                 (A) (A) (A) (A) (A) (A) (A) (A) (A) (A) (A) (A)
                 (A) (A) (A) (A) (A) (A) (A) (A) (A) (A) (A) (A)
                 (A) (A) (A) (A) (A) (A) (A) (A) (A) (A) (A) (A)
                 (A) (A) (A) (A) (A) (A) (A) (A) (A) (A) (A) (A)
                 (A) (A) (A) (A) (A) (A) (A) (A) (A) (A) (A) (A)
                 (A) (A) (A) (A)
 The electronic state is 1-A.
 Alpha  occ. eigenvalues --  -19.99298 -19.96771 -19.93200 -15.15676 -10.97446
 Alpha  occ. eigenvalues --  -10.92364 -10.90060 -10.89936 -10.85572 -10.85164
 Alpha  occ. eigenvalues --   -1.45655  -1.41233  -1.36888  -1.34478  -1.14416
 Alpha  occ. eigenvalues --   -1.11730  -0.99762  -0.96279  -0.92840  -0.86856
 Alpha  occ. eigenvalues --   -0.83728  -0.80140  -0.77613  -0.76241  -0.74985
 Alpha  occ. eigenvalues --   -0.74321  -0.69616  -0.69008  -0.67697  -0.66707
 Alpha  occ. eigenvalues --   -0.65972  -0.61943  -0.58239  -0.55414  -0.53940
 Alpha  occ. eigenvalues --   -0.48674
 Alpha virt. eigenvalues --   -0.22430  -0.16652  -0.11600  -0.09736  -0.08189
 Alpha virt. eigenvalues --   -0.07865  -0.07432  -0.06266  -0.06000  -0.05230
 Alpha virt. eigenvalues --   -0.02916  -0.02778  -0.01786  -0.01438  -0.00221
 Alpha virt. eigenvalues --    0.01300   0.01612   0.02130   0.02665   0.03296
 Alpha virt. eigenvalues --    0.03490   0.04478   0.05803   0.06542   0.06582
 Alpha virt. eigenvalues --    0.06693   0.08279   0.09118   0.09786   0.11042
 Alpha virt. eigenvalues --    0.11331   0.11706   0.12051   0.13014   0.13074
 Alpha virt. eigenvalues --    0.14589   0.14886   0.15820   0.16366   0.17855
 Alpha virt. eigenvalues --    0.18266   0.18282   0.18715   0.19972   0.20587
 Alpha virt. eigenvalues --    0.21311   0.22435   0.23326   0.24333   0.25199
 Alpha virt. eigenvalues --    0.27059   0.28751   0.28949   0.30678   0.32121
 Alpha virt. eigenvalues --    0.35548   0.39893   0.42441   0.50358   0.53222
 Alpha virt. eigenvalues --    0.55833   0.55996   0.59904   0.60580   0.61963
 Alpha virt. eigenvalues --    0.63451   0.64869   0.66454   0.67196   0.71677
 Alpha virt. eigenvalues --    0.72487   0.74920   0.78988   0.80264   0.82698
 Alpha virt. eigenvalues --    0.86845   0.87293   0.89938   0.92116   0.95330
 Alpha virt. eigenvalues --    0.95781   0.99124   1.01048   1.02749   1.04229
 Alpha virt. eigenvalues --    1.07256   1.08134   1.09632   1.10625   1.11391
 Alpha virt. eigenvalues --    1.13672   1.14950   1.17100   1.18037   1.21122
 Alpha virt. eigenvalues --    1.22386   1.23853   1.25103   1.27419   1.27873
 Alpha virt. eigenvalues --    1.28943   1.30521   1.30769   1.31905   1.32415
 Alpha virt. eigenvalues --    1.34383   1.38765   1.45061   1.49020   1.49820
 Alpha virt. eigenvalues --    1.53110   1.54126   1.65268   1.66090   1.67809
 Alpha virt. eigenvalues --    1.69127   1.71081   1.74109   1.77635   1.81603
 Alpha virt. eigenvalues --    1.84911   1.85683   1.86537   1.89246   1.91892
 Alpha virt. eigenvalues --    1.92104   1.96158   2.00248   2.00835   2.02192
 Alpha virt. eigenvalues --    2.04357   2.06792   2.17299   2.18984   2.22230
 Alpha virt. eigenvalues --    2.23787   2.28830   2.30134   2.31606   2.32725
 Alpha virt. eigenvalues --    2.33692   2.34764   2.40588   2.43733   2.47081
 Alpha virt. eigenvalues --    2.47084   2.48907   2.48950   2.52218   2.53007
 Alpha virt. eigenvalues --    2.54468   2.59786   2.61286   2.64397   2.69853
 Alpha virt. eigenvalues --    2.70502   2.71631   2.74083   2.77452   2.84121
 Alpha virt. eigenvalues --    2.92490   3.01336   3.05886   3.08547   3.14552
 Alpha virt. eigenvalues --    3.19624   3.22908   3.23295   3.33086   3.38563
 Alpha virt. eigenvalues --    3.44183   3.49751   3.57759   3.85295   4.17205
 Alpha virt. eigenvalues --    4.25345   4.30254   4.34308   4.38757   4.45101
 Alpha virt. eigenvalues --    4.52714   4.65919   4.88501   4.92568
          Condensed to atoms (all electrons):
               1          2          3          4          5          6
     1  N    6.667463   0.195581  -0.038229  -0.070342  -0.200362   0.409884
     2  C    0.195581   5.686111   0.069445   0.363706  -0.381704  -0.301498
     3  C   -0.038229   0.069445   5.267860  -0.424295   1.104216  -0.313240
     4  C   -0.070342   0.363706  -0.424295   7.628196  -2.707196   0.996984
     5  C   -0.200362  -0.381704   1.104216  -2.707196  11.854587  -3.328406
     6  C    0.409884  -0.301498  -0.313240   0.996984  -3.328406   8.609654
     7  C   -0.029922   0.097200  -0.152397   0.175876  -1.247979   0.332132
     8  O    0.027003   0.042203  -0.009173   0.026486   0.034194  -0.344568
     9  O    0.019111   0.007342  -0.001680   0.024203  -0.041173  -0.020883
    10  O    0.014411   0.004578   0.025053  -0.340595   0.365202  -0.020052
    11  H    0.311282  -0.041183   0.028190  -0.019132   0.070108  -0.015519
    12  H   -0.062476   0.360164   0.006142   0.024068  -0.025684   0.023004
    13  H    0.000639   0.031348   0.275793   0.049121  -0.028229   0.014295
    14  H    0.002970  -0.020230   0.073314   0.179183   0.144717  -0.035587
    15  H   -0.001383  -0.001498   0.000671   0.000059   0.011917   0.011963
    16  H   -0.001170  -0.002723  -0.004144   0.065227   0.003351  -0.079135
               7          8          9         10         11         12
     1  N   -0.029922   0.027003   0.019111   0.014411   0.311282  -0.062476
     2  C    0.097200   0.042203   0.007342   0.004578  -0.041183   0.360164
     3  C   -0.152397  -0.009173  -0.001680   0.025053   0.028190   0.006142
     4  C    0.175876   0.026486   0.024203  -0.340595  -0.019132   0.024068
     5  C   -1.247979   0.034194  -0.041173   0.365202   0.070108  -0.025684
     6  C    0.332132  -0.344568  -0.020883  -0.020052  -0.015519   0.023004
     7  C    5.763135   0.575849   0.070468  -0.016611  -0.055108   0.015247
     8  O    0.575849   8.233404  -0.138241  -0.001950   0.023883  -0.000126
     9  O    0.070468  -0.138241   8.441633   0.002387   0.001967   0.000025
    10  O   -0.016611  -0.001950   0.002387   8.293075  -0.000291   0.000094
    11  H   -0.055108   0.023883   0.001967  -0.000291   0.300661  -0.002664
    12  H    0.015247  -0.000126   0.000025   0.000094  -0.002664   0.434778
    13  H    0.002996   0.000005   0.000002  -0.000377  -0.000094  -0.001702
    14  H    0.001450  -0.000000   0.000150  -0.008540   0.000010  -0.000075
    15  H   -0.007888   0.005317   0.236649   0.000779  -0.000036  -0.000000
    16  H    0.017908   0.001272   0.020230   0.229737  -0.000014  -0.000000
              13         14         15         16
     1  N    0.000639   0.002970  -0.001383  -0.001170
     2  C    0.031348  -0.020230  -0.001498  -0.002723
     3  C    0.275793   0.073314   0.000671  -0.004144
     4  C    0.049121   0.179183   0.000059   0.065227
     5  C   -0.028229   0.144717   0.011917   0.003351
     6  C    0.014295  -0.035587   0.011963  -0.079135
     7  C    0.002996   0.001450  -0.007888   0.017908
     8  O    0.000005  -0.000000   0.005317   0.001272
     9  O    0.000002   0.000150   0.236649   0.020230
    10  O   -0.000377  -0.008540   0.000779   0.229737
    11  H   -0.000094   0.000010  -0.000036  -0.000014
    12  H   -0.001702  -0.000075  -0.000000  -0.000000
    13  H    0.432389  -0.002905   0.000000   0.000002
    14  H   -0.002905   0.436118  -0.000000  -0.000018
    15  H    0.000000  -0.000000   0.285894   0.001064
    16  H    0.000002  -0.000018   0.001064   0.302242
 Mulliken charges:
               1
     1  N   -0.244461
     2  C   -0.108844
     3  C    0.092476
     4  C    0.028451
     5  C    0.372440
     6  C    0.060973
     7  C    0.457644
     8  O   -0.475558
     9  O   -0.622189
    10  O   -0.546903
    11  H    0.397942
    12  H    0.229206
    13  H    0.226717
    14  H    0.229444
    15  H    0.456490
    16  H    0.446173
 Sum of Mulliken charges =   1.00000
 Mulliken charges with hydrogens summed into heavy atoms:
               1
     1  N    0.153480
     2  C    0.120362
     3  C    0.319193
     4  C    0.257895
     5  C    0.372440
     6  C    0.060973
     7  C    0.457644
     8  O   -0.475558
     9  O   -0.165699
    10  O   -0.100729
 Electronic spatial extent (au):  <R**2>=           1309.5631
 Charge=              1.0000 electrons
 Dipole moment (field-independent basis, Debye):
    X=             -2.8806    Y=             -1.3016    Z=              0.0001  Tot=              3.1610
 Quadrupole moment (field-independent basis, Debye-Ang):
   XX=            -25.4754   YY=            -45.3433   ZZ=            -56.4949
   XY=              9.9717   XZ=             -0.0002   YZ=              0.0001
 Traceless Quadrupole moment (field-independent basis, Debye-Ang):
   XX=             16.9625   YY=             -2.9055   ZZ=            -14.0570
   XY=              9.9717   XZ=             -0.0002   YZ=              0.0001
 Octapole moment (field-independent basis, Debye-Ang**2):
  XXX=              9.2093  YYY=            -16.9536  ZZZ=             -0.0006  XYY=            -14.9184
  XXY=             17.4866  XXZ=              0.0006  XZZ=              8.9080  YZZ=              0.5942
  YYZ=             -0.0004  XYZ=             -0.0018
 Hexadecapole moment (field-independent basis, Debye-Ang**3):
 XXXX=           -650.7898 YYYY=           -494.9636 ZZZZ=            -54.0165 XXXY=             71.8948
 XXXZ=              0.0048 YYYX=             49.9861 YYYZ=             -0.0101 ZZZX=              0.0118
 ZZZY=             -0.0120 XXYY=           -224.4511 XXZZ=           -185.5357 YYZZ=           -104.9648
 XXYZ=             -0.0045 YYXZ=              0.0053 ZZXY=             -0.6483
 N-N= 5.216819640744D+02 E-N=-2.225524694379D+03  KE= 5.080731922833D+02
 Calling FoFJK, ICntrl=  10002127 FMM=F ISym2X=0 I1Cent= 0 IOpClX= 0 NMat=1 NMatS=1 NMatT=0.
 ***** Axes restored to original set *****
 -------------------------------------------------------------------
 Center     Atomic                   Forces (Hartrees/Bohr)
 Number     Number              X              Y              Z
 -------------------------------------------------------------------
      1        7           0.003496765   -0.003923816    0.000000341
      2        6          -0.005265748   -0.003787729   -0.000000291
      3        6          -0.004104017   -0.001112171    0.000000321
      4        6          -0.000826933    0.004581276   -0.000000188
      5        6          -0.002599230   -0.004621733   -0.000000334
      6        6           0.001792078    0.002491559    0.000002918
      7        6          -0.004490391    0.003163272   -0.000008721
      8        8           0.004161670   -0.009013275    0.000002965
      9        8           0.001772832    0.005347129    0.000002802
     10        8           0.002696121    0.005767936    0.000000278
     11        1          -0.001220595    0.000133441   -0.000000291
     12        1           0.000825393    0.001654979    0.000000017
     13        1           0.001889478    0.000062998   -0.000000083
     14        1           0.001006575   -0.001476409    0.000000030
     15        1           0.001009078   -0.000121660    0.000000029
     16        1          -0.000143074    0.000854204    0.000000208
 -------------------------------------------------------------------
 Cartesian Forces:  Max     0.009013275 RMS     0.002744183

 GradGradGradGradGradGradGradGradGradGradGradGradGradGradGradGradGradGrad
 Berny optimization.
 FormGI is forming the generalized inverse of G from B-inverse, IUseBI=4.
 Internal  Forces:  Max     0.009923674 RMS     0.002017196
 Search for a local minimum.
 Step number   1 out of a maximum of   81
 All quantities printed in internal units (Hartrees-Bohrs-Radians)
 Mixed Optimization -- RFO/linear search
 Second derivative matrix not updated -- first step.
 ITU=  0
     Eigenvalues ---    0.00925   0.01482   0.01758   0.02012   0.02117
     Eigenvalues ---    0.02156   0.02205   0.02233   0.02339   0.02391
     Eigenvalues ---    0.02469   0.02493   0.02720   0.16000   0.16000
     Eigenvalues ---    0.16000   0.16000   0.16000   0.16000   0.22000
     Eigenvalues ---    0.22479   0.24466   0.25000   0.25000   0.25000
     Eigenvalues ---    0.25000   0.33674   0.35281   0.35487   0.35576
     Eigenvalues ---    0.41216   0.42750   0.43583   0.45716   0.47268
     Eigenvalues ---    0.52352   0.52538   0.52553   0.57330   0.57614
     Eigenvalues ---    0.61373   1.01490
 RFO step:  Lambda=-4.88124709D-04 EMin= 9.25237861D-03
 Linear search not attempted -- first point.
 Iteration  1 RMS(Cart)=  0.00854052 RMS(Int)=  0.00002707
 Iteration  2 RMS(Cart)=  0.00003232 RMS(Int)=  0.00000062
 Iteration  3 RMS(Cart)=  0.00000000 RMS(Int)=  0.00000062
 Variable       Old X    -DE/DX   Delta X   Delta X   Delta X     New X
                                 (Linear)    (Quad)   (Total)
    R1        2.51510   0.00505   0.00000   0.00884   0.00884   2.52395
    R2        2.56331   0.00513   0.00000   0.00991   0.00991   2.57322
    R3        1.93657  -0.00080   0.00000  -0.00182  -0.00182   1.93475
    R4        2.64105   0.00167   0.00000   0.00363   0.00363   2.64468
    R5        2.04750  -0.00185   0.00000  -0.00519  -0.00519   2.04231
    R6        2.60982   0.00310   0.00000   0.00594   0.00594   2.61577
    R7        2.04891  -0.00189   0.00000  -0.00532  -0.00532   2.04359
    R8        2.67426   0.00143   0.00000   0.00286   0.00286   2.67712
    R9        2.05220  -0.00178   0.00000  -0.00504  -0.00504   2.04716
   R10        2.64866   0.00288   0.00000   0.00635   0.00635   2.65501
   R11        2.49870   0.00707   0.00000   0.01152   0.01152   2.51021
   R12        2.81183   0.00252   0.00000   0.00747   0.00747   2.81931
   R13        2.28048   0.00992   0.00000   0.00977   0.00977   2.29025
   R14        2.53118   0.00591   0.00000   0.01030   0.01030   2.54148
   R15        1.84073   0.00101   0.00000   0.00193   0.00193   1.84266
   R16        1.84088  -0.00020   0.00000  -0.00038  -0.00038   1.84050
    A1        2.17639  -0.00038   0.00000  -0.00007  -0.00006   2.17633
    A2        2.11383  -0.00071   0.00000  -0.00561  -0.00562   2.10821
    A3        1.99297   0.00110   0.00000   0.00568   0.00568   1.99865
    A4        2.06744  -0.00028   0.00000  -0.00038  -0.00038   2.06706
    A5        2.04943   0.00007   0.00000  -0.00024  -0.00024   2.04919
    A6        2.16632   0.00021   0.00000   0.00062   0.00062   2.16694
    A7        2.08845   0.00025   0.00000   0.00028   0.00028   2.08872
    A8        2.08367  -0.00013   0.00000  -0.00017  -0.00017   2.08350
    A9        2.11107  -0.00012   0.00000  -0.00011  -0.00011   2.11096
   A10        2.10505   0.00061   0.00000   0.00100   0.00099   2.10604
   A11        2.11932  -0.00016   0.00000   0.00042   0.00042   2.11974
   A12        2.05882  -0.00045   0.00000  -0.00142  -0.00142   2.05740
   A13        2.05500   0.00062   0.00000   0.00167   0.00167   2.05667
   A14        2.04967  -0.00180   0.00000  -0.00678  -0.00678   2.04290
   A15        2.17851   0.00118   0.00000   0.00511   0.00511   2.18362
   A16        2.07404  -0.00082   0.00000  -0.00250  -0.00250   2.07155
   A17        1.97122   0.00084   0.00000   0.00297   0.00297   1.97419
   A18        2.23792  -0.00002   0.00000  -0.00047  -0.00047   2.23745
   A19        2.12645   0.00074   0.00000   0.00296   0.00296   2.12941
   A20        1.95799  -0.00081   0.00000  -0.00325  -0.00325   1.95474
   A21        2.19875   0.00007   0.00000   0.00029   0.00029   2.19904
   A22        1.92093   0.00013   0.00000   0.00080   0.00080   1.92174
   A23        1.95306   0.00155   0.00000   0.00966   0.00966   1.96272
    D1        0.00000  -0.00000   0.00000  -0.00000  -0.00000  -0.00000
    D2        3.14159  -0.00000   0.00000  -0.00000  -0.00000   3.14159
    D3        3.14159   0.00000   0.00000   0.00001   0.00001  -3.14159
    D4       -0.00000   0.00000   0.00000   0.00001   0.00001   0.00000
    D5        0.00000   0.00000   0.00000   0.00000   0.00000   0.00000
    D6        3.14159   0.00000   0.00000   0.00001   0.00001  -3.14159
    D7       -3.14159  -0.00000   0.00000  -0.00001  -0.00001   3.14159
    D8       -0.00000  -0.00000   0.00000  -0.00000  -0.00000  -0.00000
    D9       -0.00000   0.00000   0.00000   0.00000   0.00000   0.00000
   D10       -3.14159   0.00000   0.00000   0.00000   0.00000  -3.14159
   D11        3.14159   0.00000   0.00000   0.00000   0.00000  -3.14159
   D12        0.00000   0.00000   0.00000   0.00000   0.00000   0.00000
   D13        0.00000  -0.00000   0.00000  -0.00000  -0.00000  -0.00000
   D14        3.14159   0.00000   0.00000   0.00000   0.00000  -3.14159
   D15        3.14159   0.00000   0.00000  -0.00000  -0.00000   3.14159
   D16       -0.00000   0.00000   0.00000   0.00001   0.00001   0.00000
   D17       -0.00000   0.00000   0.00000   0.00000   0.00000   0.00000
   D18        3.14159   0.00000   0.00000   0.00001   0.00001  -3.14159
   D19       -3.14159  -0.00000   0.00000  -0.00000  -0.00000   3.14159
   D20       -0.00000   0.00000   0.00000   0.00000   0.00000   0.00000
   D21       -0.00000  -0.00000   0.00000  -0.00000  -0.00000  -0.00000
   D22       -3.14159  -0.00000   0.00000  -0.00001  -0.00001   3.14159
   D23       -3.14159  -0.00000   0.00000  -0.00001  -0.00001   3.14159
   D24        0.00001  -0.00000   0.00000  -0.00001  -0.00001  -0.00000
   D25       -3.14158  -0.00000   0.00000  -0.00001  -0.00001  -3.14159
   D26        0.00000  -0.00000   0.00000  -0.00000  -0.00000   0.00000
   D27        0.00006  -0.00000   0.00000  -0.00018  -0.00018  -0.00012
   D28        3.14158   0.00000   0.00000   0.00012   0.00012  -3.14149
   D29       -3.14154  -0.00000   0.00000  -0.00017  -0.00017   3.14147
   D30       -0.00002   0.00000   0.00000   0.00012   0.00012   0.00010
   D31       -3.14156  -0.00000   0.00000  -0.00016  -0.00016   3.14147
   D32       -0.00004   0.00000   0.00000   0.00015   0.00015   0.00012
         Item               Value     Threshold  Converged?
 Maximum Force            0.009924     0.000450     NO 
 RMS     Force            0.002017     0.000300     NO 
 Maximum Displacement     0.040441     0.001800     NO 
 RMS     Displacement     0.008545     0.001200     NO 
 Predicted change in Energy=-2.443081D-04
 GradGradGradGradGradGradGradGradGradGradGradGradGradGradGradGradGradGrad

                          Input orientation:                          
 ---------------------------------------------------------------------
 Center     Atomic      Atomic             Coordinates (Angstroms)
 Number     Number       Type             X           Y           Z
 ---------------------------------------------------------------------
      1          7           0       -0.508762   -1.357575   -0.000073
      2          6           0       -1.842701   -1.424446   -0.000015
      3          6           0       -2.569844   -0.228674    0.000074
      4          6           0       -1.898316    0.981726    0.000096
      5          6           0       -0.482228    1.022420    0.000032
      6          6           0        0.209283   -0.200590   -0.000057
      7          6           0        1.683982   -0.426563   -0.000140
      8          8           0        2.163249   -1.539724   -0.000088
      9          8           0        2.370819    0.729721    0.000008
     10          8           0        0.087617    2.222331    0.000061
     11          1           0        0.058727   -2.209733   -0.000143
     12          1           0       -2.291566   -2.407569   -0.000040
     13          1           0       -3.650655   -0.265054    0.000123
     14          1           0       -2.432201    1.924346    0.000165
     15          1           0        3.329264    0.550299    0.000060
     16          1           0        1.060280    2.172247    0.000012
 ---------------------------------------------------------------------
                    Distance matrix (angstroms):
                    1          2          3          4          5
     1  N    0.000000
     2  C    1.335615   0.000000
     3  C    2.349995   1.399502   0.000000
     4  C    2.720881   2.406815   1.384203   0.000000
     5  C    2.380144   2.799651   2.433799   1.416673   0.000000
     6  C    1.361692   2.389239   2.779269   2.416577   1.404970
     7  C    2.382207   3.665142   4.258427   3.849174   2.606150
     8  O    2.678212   4.007608   4.911315   4.780588   3.682815
     9  O    3.556514   4.732250   5.032760   4.276567   2.868022
    10  O    3.629242   4.126150   3.615180   2.341587   1.328348
    11  H    1.023824   2.057208   3.291501   3.743719   3.277109
    12  H    2.069028   1.080745   2.196593   3.412033   3.877955
    13  H    3.326424   2.147764   1.081423   2.150617   3.420018
    14  H    3.804028   3.400283   2.157416   1.083312   2.148457
    15  H    4.286073   5.536139   5.950317   5.245353   3.840620
    16  H    3.862841   4.622067   4.352267   3.189143   1.923911
                    6          7          8          9         10
     6  C    0.000000
     7  C    1.491912   0.000000
     8  O    2.368811   1.211950   0.000000
     9  O    2.353235   1.344894   2.278918   0.000000
    10  O    2.425973   3.092737   4.296662   2.727800   0.000000
    11  H    2.014776   2.412706   2.208602   3.739807   4.432158
    12  H    3.335417   4.441775   4.538561   5.619646   5.205428
    13  H    3.860476   5.337082   5.951997   6.103092   4.490185
    14  H    3.390102   4.740226   5.754819   4.949357   2.537376
    15  H    3.209067   1.913429   2.393279   0.975094   3.647460
    16  H    2.520824   2.672606   3.872373   1.948947   0.973951
                   11         12         13         14         15
    11  H    0.000000
    12  H    2.358605   0.000000
    13  H    4.188233   2.537222   0.000000
    14  H    4.826524   4.334198   2.505614   0.000000
    15  H    4.279508   6.351591   7.027380   5.923047   0.000000
    16  H    4.494982   5.675349   5.304088   3.501268   2.789087
                   16
    16  H    0.000000
 Stoichiometry    C6H6NO3(1+)
 Framework group  C1[X(C6H6NO3)]
 Deg. of freedom    42
 Full point group                 C1      NOp   1
 Largest Abelian subgroup         C1      NOp   1
 Largest concise Abelian subgroup C1      NOp   1
                         Standard orientation:                         
 ---------------------------------------------------------------------
 Center     Atomic      Atomic             Coordinates (Angstroms)
 Number     Number       Type             X           Y           Z
 ---------------------------------------------------------------------
      1          7           0       -0.509540   -1.356407   -0.000066
      2          6           0       -1.843459   -1.423685   -0.000007
      3          6           0       -2.570967   -0.228136    0.000081
      4          6           0       -1.899809    0.982470    0.000104
      5          6           0       -0.483733    1.023596    0.000039
      6          6           0        0.208151   -0.199202   -0.000049
      7          6           0        1.682920   -0.424726   -0.000132
      8          8           0        2.162526   -1.537740   -0.000080
      9          8           0        2.369403    0.731768    0.000015
     10          8           0        0.085746    2.223681    0.000069
     11          1           0        0.058209   -2.208392   -0.000135
     12          1           0       -2.292024   -2.406945   -0.000033
     13          1           0       -3.651767   -0.264845    0.000130
     14          1           0       -2.433982    1.924927    0.000172
     15          1           0        3.327903    0.552639    0.000068
     16          1           0        1.058424    2.173894    0.000020
 ---------------------------------------------------------------------
 Rotational constants (GHZ):      2.2720408      1.2443251      0.8039998
 Standard basis: 6-31+G(d,p) (6D, 7F)
 There are   220 symmetry adapted cartesian basis functions of A   symmetry.
 There are   220 symmetry adapted basis functions of A   symmetry.
   220 basis functions,   362 primitive gaussians,   220 cartesian basis functions
    36 alpha electrons       36 beta electrons
       nuclear repulsion energy       520.1527820838 Hartrees.
 NAtoms=   16 NActive=   16 NUniq=   16 SFac= 1.00D+00 NAtFMM=   60 NAOKFM=F Big=F
 Integral buffers will be    131072 words long.
 Regular integral format.
 Two-electron integral symmetry is turned on.
 Nuclear repulsion after empirical dispersion term =      520.1462632298 Hartrees.
 One-electron integrals computed using PRISM.
 NBasis=   220 RedAO= T EigKep=  4.84D-06  NBF=   220
 NBsUse=   220 1.00D-06 EigRej= -1.00D+00 NBFU=   220
 Initial guess from the checkpoint file:  "B2PLYPD33HPA2.chk"
 B after Tr=    -0.000000   -0.000000    0.000000
         Rot=    1.000000    0.000003    0.000000   -0.000253 Ang=   0.03 deg.
 ExpMin= 4.38D-02 ExpMax= 5.48D+03 ExpMxC= 8.25D+02 IAcc=2 IRadAn=         4 AccDes= 0.00D+00
 Harris functional with IExCor=  419 and IRadAn=       4 diagonalized for initial guess.
 HarFok:  IExCor=  419 AccDes= 0.00D+00 IRadAn=         4 IDoV= 1 UseB2=F ITyADJ=14
 ICtDFT=  3500011 ScaDFX=  1.000000  1.000000  1.000000  1.000000
 FoFCou: FMM=F IPFlag=           0 FMFlag=      100000 FMFlg1=           0
         NFxFlg=           0 DoJE=T BraDBF=F KetDBF=T FulRan=T
         wScrn=  0.000000 ICntrl=     500 IOpCl=  0 I1Cent=   200000004 NGrid=           0
         NMat0=    1 NMatS0=      1 NMatT0=    0 NMatD0=    1 NMtDS0=    0 NMtDT0=    0
 Petite list used in FoFCou.
 Keep R1 ints in memory in canonical form, NReq=301066375.
 Requested convergence on RMS density matrix=1.00D-08 within 128 cycles.
 Requested convergence on MAX density matrix=1.00D-06.
 Requested convergence on             energy=1.00D-06.
 No special actions if energy rises.
 SCF Done:  E(RB2PLYP) =  -511.511513431     A.U. after   12 cycles
            NFock= 12  Conv=0.33D-08     -V/T= 2.0070
 DoSCS=T DFT=T ScalE2(SS,OS)=  0.270000  0.270000
 ExpMin= 4.38D-02 ExpMax= 5.48D+03 ExpMxC= 8.25D+02 IAcc=3 IRadAn=         5 AccDes= 0.00D+00
 HarFok:  IExCor=  205 AccDes= 0.00D+00 IRadAn=         5 IDoV=-2 UseB2=F ITyADJ=14
 ICtDFT= 12500011 ScaDFX=  1.000000  1.000000  1.000000  1.000000
 Range of M.O.s used for correlation:    11   220
 NBasis=   220 NAE=    36 NBE=    36 NFC=    10 NFV=     0
 NROrb=    210 NOA=    26 NOB=    26 NVA=   184 NVB=   184

 **** Warning!!: The largest alpha MO coefficient is  0.12497475D+03

 DoSCS=T DFT=T ScalE2(SS,OS)=  0.270000  0.270000
 Fully direct method using O(ONN) memory.
 JobTyp=1 Pass  1:  I=  11 to  18 NPSUse= 18 ParTrn=T ParDer=T DoDerP=T.
 JobTyp=1 Pass  2:  I=  19 to  26 NPSUse= 18 ParTrn=T ParDer=T DoDerP=T.
 JobTyp=1 Pass  3:  I=  27 to  34 NPSUse= 18 ParTrn=T ParDer=T DoDerP=T.
 JobTyp=1 Pass  4:  I=  35 to  36 NPSUse= 18 ParTrn=T ParDer=T DoDerP=T.
 Spin components of T(2) and E(2):
     alpha-alpha T2 =       0.1087004216D+00 E2=     -0.6839359763D-01
     alpha-beta  T2 =       0.5580546061D+00 E2=     -0.3610059509D+00
     beta-beta   T2 =       0.1087004216D+00 E2=     -0.6839359763D-01
 E2(B2PLYP) =    -0.4977931462D+00 E(B2PLYP) =    -0.51200930657717D+03
          IDoAtm=1111111111111111
          Differentiating once with respect to electric field.
                with respect to dipole field.
          Differentiating once with respect to nuclear coordinates.
 Keep R1 ints in memory in canonical form, NReq=300899106.
          There are     1 degrees of freedom in the 1st order CPHF.  IDoFFX=0 NUNeed=     1.
 LinEq1:  Iter=  0 NonCon=     1 RMS=2.13D-03 Max=4.64D-02 NDo=     1
 AX will form     1 AO Fock derivatives at one time.
 LinEq1:  Iter=  1 NonCon=     1 RMS=9.20D-04 Max=1.64D-02 NDo=     1
 LinEq1:  Iter=  2 NonCon=     1 RMS=3.50D-04 Max=5.53D-03 NDo=     1
 LinEq1:  Iter=  3 NonCon=     1 RMS=3.07D-04 Max=9.25D-03 NDo=     1
 LinEq1:  Iter=  4 NonCon=     1 RMS=1.17D-04 Max=2.67D-03 NDo=     1
 LinEq1:  Iter=  5 NonCon=     1 RMS=5.31D-05 Max=1.66D-03 NDo=     1
 LinEq1:  Iter=  6 NonCon=     1 RMS=2.73D-05 Max=9.26D-04 NDo=     1
 LinEq1:  Iter=  7 NonCon=     1 RMS=1.19D-05 Max=3.27D-04 NDo=     1
 LinEq1:  Iter=  8 NonCon=     1 RMS=4.90D-06 Max=1.37D-04 NDo=     1
 LinEq1:  Iter=  9 NonCon=     1 RMS=2.69D-06 Max=7.34D-05 NDo=     1
 LinEq1:  Iter= 10 NonCon=     1 RMS=9.34D-07 Max=2.79D-05 NDo=     1
 LinEq1:  Iter= 11 NonCon=     1 RMS=4.74D-07 Max=8.36D-06 NDo=     1
 LinEq1:  Iter= 12 NonCon=     1 RMS=2.16D-07 Max=6.44D-06 NDo=     1
 LinEq1:  Iter= 13 NonCon=     1 RMS=9.16D-08 Max=2.40D-06 NDo=     1
 LinEq1:  Iter= 14 NonCon=     1 RMS=4.88D-08 Max=1.34D-06 NDo=     1
 LinEq1:  Iter= 15 NonCon=     1 RMS=1.75D-08 Max=4.78D-07 NDo=     1
 LinEq1:  Iter= 16 NonCon=     1 RMS=8.14D-09 Max=2.11D-07 NDo=     1
 LinEq1:  Iter= 17 NonCon=     1 RMS=2.71D-09 Max=4.04D-08 NDo=     1
 LinEq1:  Iter= 18 NonCon=     1 RMS=1.39D-09 Max=3.43D-08 NDo=     1
 LinEq1:  Iter= 19 NonCon=     1 RMS=3.54D-10 Max=5.04D-09 NDo=     1
 LinEq1:  Iter= 20 NonCon=     1 RMS=8.00D-11 Max=1.03D-09 NDo=     1
 LinEq1:  Iter= 21 NonCon=     0 RMS=2.68D-11 Max=3.70D-10 NDo=     1
 Linear equations converged to 1.000D-10 1.000D-09 after    21 iterations.
 End of Minotr F.D. properties file   721 does not exist.
 End of Minotr F.D. properties file   722 does not exist.
 End of Minotr F.D. properties file   788 does not exist.
 Calling FoFJK, ICntrl=  10002127 FMM=F ISym2X=0 I1Cent= 0 IOpClX= 0 NMat=1 NMatS=1 NMatT=0.
 ***** Axes restored to original set *****
 -------------------------------------------------------------------
 Center     Atomic                   Forces (Hartrees/Bohr)
 Number     Number              X              Y              Z
 -------------------------------------------------------------------
      1        7           0.001179215   -0.000056570   -0.000001871
      2        6          -0.000844819    0.000666789    0.000000365
      3        6           0.000363633   -0.000415117   -0.000000185
      4        6           0.000528835    0.000375012    0.000000905
      5        6          -0.000225402   -0.002244847   -0.000000779
      6        6           0.000561959    0.001017283   -0.000007639
      7        6          -0.000897930   -0.000530549    0.000029183
      8        8          -0.000036064   -0.000148473   -0.000011525
      9        8          -0.000069606    0.001129434   -0.000008507
     10        8           0.000139447    0.001178819   -0.000000520
     11        1          -0.000330745    0.000108032    0.000000615
     12        1           0.000132338   -0.000146135    0.000000289
     13        1          -0.000091356    0.000032551   -0.000000057
     14        1          -0.000006036    0.000061608   -0.000000114
     15        1          -0.000105122   -0.000377850   -0.000000607
     16        1          -0.000298347   -0.000649987    0.000000446
 -------------------------------------------------------------------
 Cartesian Forces:  Max     0.002244847 RMS     0.000546923

 GradGradGradGradGradGradGradGradGradGradGradGradGradGradGradGradGradGrad
 Berny optimization.
 Using GEDIIS/GDIIS optimizer.
 FormGI is forming the generalized inverse of G from B-inverse, IUseBI=4.
 Internal  Forces:  Max     0.001231136 RMS     0.000327227
 Search for a local minimum.
 Step number   2 out of a maximum of   81
 All quantities printed in internal units (Hartrees-Bohrs-Radians)
 Mixed Optimization -- En-DIIS/RFO-DIIS
 Update second derivatives using D2CorX and points    1    2
 DE= -2.35D-04 DEPred=-2.44D-04 R= 9.62D-01
 TightC=F SS=  1.41D+00  RLast= 3.20D-02 DXNew= 5.0454D-01 9.5937D-02
 Trust test= 9.62D-01 RLast= 3.20D-02 DXMaxT set to 3.00D-01
 ITU=  1  0
 Use linear search instead of GDIIS.
     Eigenvalues ---    0.00925   0.01481   0.01757   0.02012   0.02117
     Eigenvalues ---    0.02157   0.02205   0.02233   0.02339   0.02391
     Eigenvalues ---    0.02469   0.02493   0.02720   0.15651   0.16000
     Eigenvalues ---    0.16000   0.16000   0.16000   0.16740   0.21997
     Eigenvalues ---    0.22472   0.24151   0.24845   0.25000   0.25000
     Eigenvalues ---    0.25245   0.34212   0.35333   0.35531   0.35852
     Eigenvalues ---    0.41266   0.42826   0.43477   0.46609   0.47293
     Eigenvalues ---    0.52332   0.52548   0.54035   0.55255   0.57514
     Eigenvalues ---    0.60816   1.00847
 RFO step:  Lambda=-2.57937649D-05 EMin= 9.25237937D-03
 Quartic linear search produced a step of -0.03175.
 Iteration  1 RMS(Cart)=  0.00265420 RMS(Int)=  0.00000630
 Iteration  2 RMS(Cart)=  0.00000609 RMS(Int)=  0.00000015
 Iteration  3 RMS(Cart)=  0.00000000 RMS(Int)=  0.00000015
 Variable       Old X    -DE/DX   Delta X   Delta X   Delta X     New X
                                 (Linear)    (Quad)   (Total)
    R1        2.52395   0.00053  -0.00028   0.00167   0.00139   2.52533
    R2        2.57322  -0.00033  -0.00031   0.00023  -0.00008   2.57314
    R3        1.93475  -0.00027   0.00006  -0.00076  -0.00070   1.93404
    R4        2.64468  -0.00042  -0.00012  -0.00048  -0.00059   2.64409
    R5        2.04231   0.00008   0.00016  -0.00022  -0.00006   2.04225
    R6        2.61577  -0.00004  -0.00019   0.00043   0.00024   2.61600
    R7        2.04359   0.00009   0.00017  -0.00020  -0.00003   2.04356
    R8        2.67712  -0.00063  -0.00009  -0.00126  -0.00135   2.67578
    R9        2.04716   0.00006   0.00016  -0.00027  -0.00011   2.04706
   R10        2.65501  -0.00123  -0.00020  -0.00219  -0.00239   2.65262
   R11        2.51021   0.00041  -0.00037   0.00162   0.00125   2.51147
   R12        2.81931  -0.00111  -0.00024  -0.00255  -0.00279   2.81651
   R13        2.29025   0.00012  -0.00031   0.00094   0.00063   2.29089
   R14        2.54148   0.00056  -0.00033   0.00181   0.00148   2.54296
   R15        1.84266  -0.00003  -0.00006   0.00010   0.00004   1.84270
   R16        1.84050  -0.00026   0.00001  -0.00052  -0.00051   1.84000
    A1        2.17633  -0.00025   0.00000  -0.00094  -0.00094   2.17539
    A2        2.10821  -0.00008   0.00018  -0.00127  -0.00109   2.10712
    A3        1.99865   0.00034  -0.00018   0.00220   0.00202   2.00067
    A4        2.06706   0.00005   0.00001   0.00059   0.00060   2.06766
    A5        2.04919  -0.00021   0.00001  -0.00144  -0.00144   2.04775
    A6        2.16694   0.00016  -0.00002   0.00085   0.00083   2.16777
    A7        2.08872  -0.00013  -0.00001  -0.00027  -0.00028   2.08844
    A8        2.08350   0.00010   0.00001   0.00036   0.00037   2.08387
    A9        2.11096   0.00003   0.00000  -0.00009  -0.00008   2.11088
   A10        2.10604  -0.00023  -0.00003  -0.00104  -0.00107   2.10498
   A11        2.11974   0.00014  -0.00001   0.00076   0.00074   2.12048
   A12        2.05740   0.00009   0.00004   0.00028   0.00033   2.05773
   A13        2.05667   0.00063  -0.00005   0.00229   0.00224   2.05891
   A14        2.04290  -0.00017   0.00022  -0.00107  -0.00085   2.04205
   A15        2.18362  -0.00046  -0.00016  -0.00122  -0.00139   2.18223
   A16        2.07155  -0.00007   0.00008  -0.00063  -0.00055   2.07099
   A17        1.97419   0.00010  -0.00009   0.00073   0.00064   1.97482
   A18        2.23745  -0.00003   0.00001  -0.00010  -0.00008   2.23737
   A19        2.12941   0.00007  -0.00009   0.00052   0.00042   2.12983
   A20        1.95474  -0.00035   0.00010  -0.00163  -0.00153   1.95322
   A21        2.19904   0.00028  -0.00001   0.00111   0.00110   2.20014
   A22        1.92174  -0.00072  -0.00003  -0.00430  -0.00433   1.91741
   A23        1.96272  -0.00122  -0.00031  -0.00660  -0.00691   1.95582
    D1       -0.00000   0.00000   0.00000   0.00001   0.00001   0.00001
    D2        3.14159   0.00000   0.00000   0.00001   0.00001  -3.14158
    D3       -3.14159  -0.00000  -0.00000  -0.00001  -0.00001   3.14158
    D4        0.00000  -0.00000  -0.00000  -0.00001  -0.00001  -0.00001
    D5        0.00000  -0.00000  -0.00000  -0.00001  -0.00001  -0.00001
    D6       -3.14159  -0.00000  -0.00000  -0.00001  -0.00001   3.14158
    D7        3.14159   0.00000   0.00000   0.00001   0.00001  -3.14159
    D8       -0.00000   0.00000   0.00000   0.00001   0.00001   0.00001
    D9        0.00000  -0.00000  -0.00000  -0.00000  -0.00000  -0.00000
   D10       -3.14159  -0.00000  -0.00000  -0.00000  -0.00000   3.14159
   D11       -3.14159  -0.00000  -0.00000  -0.00001  -0.00001   3.14159
   D12        0.00000  -0.00000  -0.00000  -0.00001  -0.00001  -0.00000
   D13       -0.00000   0.00000   0.00000   0.00000   0.00000   0.00000
   D14       -3.14159  -0.00000  -0.00000  -0.00000  -0.00000   3.14159
   D15        3.14159  -0.00000   0.00000   0.00000   0.00000  -3.14159
   D16        0.00000  -0.00000  -0.00000  -0.00000  -0.00000  -0.00000
   D17        0.00000  -0.00000  -0.00000  -0.00001  -0.00001  -0.00001
   D18       -3.14159   0.00000  -0.00000   0.00000   0.00000  -3.14159
   D19        3.14159  -0.00000   0.00000  -0.00000  -0.00000   3.14159
   D20        0.00000   0.00000  -0.00000   0.00001   0.00001   0.00001
   D21       -0.00000   0.00000   0.00000   0.00001   0.00001   0.00001
   D22        3.14159   0.00000   0.00000   0.00001   0.00001  -3.14159
   D23        3.14159   0.00000   0.00000   0.00000   0.00000   3.14159
   D24       -0.00000   0.00000   0.00000   0.00000   0.00000  -0.00000
   D25       -3.14159  -0.00000   0.00000  -0.00002  -0.00002   3.14158
   D26        0.00000  -0.00000   0.00000  -0.00001  -0.00001  -0.00001
   D27       -0.00012   0.00001   0.00001   0.00048   0.00049   0.00036
   D28       -3.14149  -0.00001  -0.00000  -0.00045  -0.00045   3.14125
   D29        3.14147   0.00001   0.00001   0.00048   0.00049  -3.14123
   D30        0.00010  -0.00001  -0.00000  -0.00044  -0.00045  -0.00034
   D31        3.14147   0.00001   0.00001   0.00050   0.00051  -3.14120
   D32        0.00012  -0.00001  -0.00000  -0.00047  -0.00047  -0.00036
         Item               Value     Threshold  Converged?
 Maximum Force            0.001231     0.000450     NO 
 RMS     Force            0.000327     0.000300     NO 
 Maximum Displacement     0.016484     0.001800     NO 
 RMS     Displacement     0.002654     0.001200     NO 
 Predicted change in Energy=-1.314399D-05
 GradGradGradGradGradGradGradGradGradGradGradGradGradGradGradGradGradGrad

                          Input orientation:                          
 ---------------------------------------------------------------------
 Center     Atomic      Atomic             Coordinates (Angstroms)
 Number     Number       Type             X           Y           Z
 ---------------------------------------------------------------------
      1          7           0       -0.507957   -1.357751    0.000035
      2          6           0       -1.842677   -1.423713   -0.000035
      3          6           0       -2.569532   -0.228132   -0.000028
      4          6           0       -1.897474    0.982117    0.000053
      5          6           0       -0.482040    1.020731    0.000127
      6          6           0        0.209803   -0.200639    0.000121
      7          6           0        1.683236   -0.425117    0.000196
      8          8           0        2.164066   -1.537968   -0.000195
      9          8           0        2.367706    0.733479   -0.000151
     10          8           0        0.088814    2.220895    0.000206
     11          1           0        0.057795   -2.210617    0.000039
     12          1           0       -2.290813   -2.407133   -0.000090
     13          1           0       -3.650343   -0.264001   -0.000084
     14          1           0       -2.430265    1.925291    0.000060
     15          1           0        3.325822    0.552196   -0.000447
     16          1           0        1.060806    2.163524    0.000269
 ---------------------------------------------------------------------
                    Distance matrix (angstroms):
                    1          2          3          4          5
     1  N    0.000000
     2  C    1.336349   0.000000
     3  C    2.350773   1.399190   0.000000
     4  C    2.721349   2.406454   1.384329   0.000000
     5  C    2.378623   2.797613   2.432546   1.415960   0.000000
     6  C    1.361649   2.389264   2.779470   2.416511   1.403706
     7  C    2.381414   3.664595   4.257328   3.847310   2.603632
     8  O    2.678093   4.008371   4.911478   4.779846   3.680872
     9  O    3.555655   4.730835   5.030012   4.272421   2.864187
    10  O    3.628063   4.124781   3.614489   2.340920   1.329010
    11  H    1.023452   2.056942   3.291366   3.743879   3.276130
    12  H    2.068763   1.080713   2.196755   3.411999   3.875811
    13  H    3.327293   2.147694   1.081406   2.150666   3.418871
    14  H    3.804423   3.400160   2.157921   1.083255   2.147978
    15  H    4.283195   5.533317   5.946773   5.240959   3.836579
    16  H    3.854919   4.615028   4.347341   3.185457   1.919987
                    6          7          8          9         10
     6  C    0.000000
     7  C    1.490435   0.000000
     8  O    2.368036   1.212285   0.000000
     9  O    2.351409   1.345676   2.280557   0.000000
    10  O    2.424554   3.089266   4.293684   2.721352   0.000000
    11  H    2.015718   2.414554   2.211071   3.742111   4.431620
    12  H    3.334921   4.440884   4.538876   5.618296   5.203966
    13  H    3.860666   5.336012   5.952339   6.100155   4.489544
    14  H    3.389621   4.737648   5.753437   4.943778   2.536363
    15  H    3.205673   1.911342   2.391331   0.975115   3.641810
    16  H    2.512663   2.662421   3.862412   1.937271   0.973683
                   11         12         13         14         15
    11  H    0.000000
    12  H    2.356815   0.000000
    13  H    4.188030   2.537979   0.000000
    14  H    4.826611   4.334668   2.506310   0.000000
    15  H    4.279386   6.348560   7.023750   5.917595   0.000000
    16  H    4.487666   5.667827   5.299793   3.499190   2.779691
                   16
    16  H    0.000000
 Stoichiometry    C6H6NO3(1+)
 Framework group  C1[X(C6H6NO3)]
 Deg. of freedom    42
 Full point group                 C1      NOp   1
 Largest Abelian subgroup         C1      NOp   1
 Largest concise Abelian subgroup C1      NOp   1
                         Standard orientation:                         
 ---------------------------------------------------------------------
 Center     Atomic      Atomic             Coordinates (Angstroms)
 Number     Number       Type             X           Y           Z
 ---------------------------------------------------------------------
      1          7           0       -0.509922   -1.356623    0.000014
      2          6           0       -1.844677   -1.421863   -0.000055
      3          6           0       -2.570886   -0.225889   -0.000048
      4          6           0       -1.898173    0.983997    0.000033
      5          6           0       -0.482719    1.021845    0.000106
      6          6           0        0.208463   -0.199898    0.000101
      7          6           0        1.681775   -0.425174    0.000176
      8          8           0        2.162003   -1.538284   -0.000215
      9          8           0        2.366872    0.733053   -0.000171
     10          8           0        0.088784    2.221700    0.000186
     11          1           0        0.055368   -2.209794    0.000019
     12          1           0       -2.293345   -2.405041   -0.000110
     13          1           0       -3.651716   -0.261174   -0.000104
     14          1           0       -2.430454    1.927458    0.000040
     15          1           0        3.324889    0.551252   -0.000468
     16          1           0        1.060744    2.163804    0.000248
 ---------------------------------------------------------------------
 Rotational constants (GHZ):      2.2739732      1.2453196      0.8046569
 Standard basis: 6-31+G(d,p) (6D, 7F)
 There are   220 symmetry adapted cartesian basis functions of A   symmetry.
 There are   220 symmetry adapted basis functions of A   symmetry.
   220 basis functions,   362 primitive gaussians,   220 cartesian basis functions
    36 alpha electrons       36 beta electrons
       nuclear repulsion energy       520.3108268581 Hartrees.
 NAtoms=   16 NActive=   16 NUniq=   16 SFac= 1.00D+00 NAtFMM=   60 NAOKFM=F Big=F
 Integral buffers will be    131072 words long.
 Regular integral format.
 Two-electron integral symmetry is turned on.
 Nuclear repulsion after empirical dispersion term =      520.3043099326 Hartrees.
 One-electron integrals computed using PRISM.
 NBasis=   220 RedAO= T EigKep=  4.82D-06  NBF=   220
 NBsUse=   220 1.00D-06 EigRej= -1.00D+00 NBFU=   220
 Initial guess from the checkpoint file:  "B2PLYPD33HPA2.chk"
 B after Tr=    -0.000000   -0.000000    0.000000
         Rot=    1.000000   -0.000006    0.000000    0.000285 Ang=  -0.03 deg.
 Keep R1 ints in memory in canonical form, NReq=301066375.
 Requested convergence on RMS density matrix=1.00D-08 within 128 cycles.
 Requested convergence on MAX density matrix=1.00D-06.
 Requested convergence on             energy=1.00D-06.
 No special actions if energy rises.
 SCF Done:  E(RB2PLYP) =  -511.511466392     A.U. after   10 cycles
            NFock= 10  Conv=0.51D-08     -V/T= 2.0070
 DoSCS=T DFT=T ScalE2(SS,OS)=  0.270000  0.270000
 ExpMin= 4.38D-02 ExpMax= 5.48D+03 ExpMxC= 8.25D+02 IAcc=3 IRadAn=         5 AccDes= 0.00D+00
 HarFok:  IExCor=  205 AccDes= 0.00D+00 IRadAn=         5 IDoV=-2 UseB2=F ITyADJ=14
 ICtDFT= 12500011 ScaDFX=  1.000000  1.000000  1.000000  1.000000
 Range of M.O.s used for correlation:    11   220
 NBasis=   220 NAE=    36 NBE=    36 NFC=    10 NFV=     0
 NROrb=    210 NOA=    26 NOB=    26 NVA=   184 NVB=   184

 **** Warning!!: The largest alpha MO coefficient is  0.12533446D+03

 DoSCS=T DFT=T ScalE2(SS,OS)=  0.270000  0.270000
 Fully direct method using O(ONN) memory.
 JobTyp=1 Pass  1:  I=  11 to  18 NPSUse= 18 ParTrn=T ParDer=T DoDerP=T.
 JobTyp=1 Pass  2:  I=  19 to  26 NPSUse= 18 ParTrn=T ParDer=T DoDerP=T.
 JobTyp=1 Pass  3:  I=  27 to  34 NPSUse= 18 ParTrn=T ParDer=T DoDerP=T.
 JobTyp=1 Pass  4:  I=  35 to  36 NPSUse= 18 ParTrn=T ParDer=T DoDerP=T.
 Spin components of T(2) and E(2):
     alpha-alpha T2 =       0.1087197008D+00 E2=     -0.6840595789D-01
     alpha-beta  T2 =       0.5581032356D+00 E2=     -0.3610403011D+00
     beta-beta   T2 =       0.1087197008D+00 E2=     -0.6840595789D-01
 E2(B2PLYP) =    -0.4978522169D+00 E(B2PLYP) =    -0.51200931860871D+03
          IDoAtm=1111111111111111
          Differentiating once with respect to electric field.
                with respect to dipole field.
          Differentiating once with respect to nuclear coordinates.
 Keep R1 ints in memory in canonical form, NReq=300899106.
          There are     1 degrees of freedom in the 1st order CPHF.  IDoFFX=0 NUNeed=     1.
 LinEq1:  Iter=  0 NonCon=     1 RMS=2.14D-03 Max=4.65D-02 NDo=     1
 AX will form     1 AO Fock derivatives at one time.
 LinEq1:  Iter=  1 NonCon=     1 RMS=9.21D-04 Max=1.64D-02 NDo=     1
 LinEq1:  Iter=  2 NonCon=     1 RMS=3.51D-04 Max=5.51D-03 NDo=     1
 LinEq1:  Iter=  3 NonCon=     1 RMS=3.08D-04 Max=9.32D-03 NDo=     1
 LinEq1:  Iter=  4 NonCon=     1 RMS=1.17D-04 Max=2.65D-03 NDo=     1
 LinEq1:  Iter=  5 NonCon=     1 RMS=5.31D-05 Max=1.66D-03 NDo=     1
 LinEq1:  Iter=  6 NonCon=     1 RMS=2.73D-05 Max=9.28D-04 NDo=     1
 LinEq1:  Iter=  7 NonCon=     1 RMS=1.19D-05 Max=3.27D-04 NDo=     1
 LinEq1:  Iter=  8 NonCon=     1 RMS=4.90D-06 Max=1.36D-04 NDo=     1
 LinEq1:  Iter=  9 NonCon=     1 RMS=2.69D-06 Max=7.34D-05 NDo=     1
 LinEq1:  Iter= 10 NonCon=     1 RMS=9.35D-07 Max=2.79D-05 NDo=     1
 LinEq1:  Iter= 11 NonCon=     1 RMS=4.75D-07 Max=8.38D-06 NDo=     1
 LinEq1:  Iter= 12 NonCon=     1 RMS=2.16D-07 Max=6.43D-06 NDo=     1
 LinEq1:  Iter= 13 NonCon=     1 RMS=9.14D-08 Max=2.38D-06 NDo=     1
 LinEq1:  Iter= 14 NonCon=     1 RMS=4.88D-08 Max=1.35D-06 NDo=     1
 LinEq1:  Iter= 15 NonCon=     1 RMS=1.76D-08 Max=4.83D-07 NDo=     1
 LinEq1:  Iter= 16 NonCon=     1 RMS=8.16D-09 Max=2.12D-07 NDo=     1
 LinEq1:  Iter= 17 NonCon=     1 RMS=2.72D-09 Max=4.07D-08 NDo=     1
 LinEq1:  Iter= 18 NonCon=     1 RMS=1.39D-09 Max=3.45D-08 NDo=     1
 LinEq1:  Iter= 19 NonCon=     1 RMS=3.55D-10 Max=5.08D-09 NDo=     1
 LinEq1:  Iter= 20 NonCon=     1 RMS=8.13D-11 Max=1.08D-09 NDo=     1
 LinEq1:  Iter= 21 NonCon=     0 RMS=2.83D-11 Max=3.95D-10 NDo=     1
 Linear equations converged to 1.000D-10 1.000D-09 after    21 iterations.
 End of Minotr F.D. properties file   721 does not exist.
 End of Minotr F.D. properties file   722 does not exist.
 End of Minotr F.D. properties file   788 does not exist.
 Calling FoFJK, ICntrl=  10002127 FMM=F ISym2X=0 I1Cent= 0 IOpClX= 0 NMat=1 NMatS=1 NMatT=0.
 ***** Axes restored to original set *****
 -------------------------------------------------------------------
 Center     Atomic                   Forces (Hartrees/Bohr)
 Number     Number              X              Y              Z
 -------------------------------------------------------------------
      1        7           0.000086318    0.000111794    0.000005220
      2        6          -0.000038552    0.000323413   -0.000000885
      3        6           0.000240884   -0.000111947    0.000000266
      4        6           0.000085472   -0.000093875   -0.000002847
      5        6          -0.000332204   -0.000513224    0.000003418
      6        6           0.000142091   -0.000026377    0.000023563
      7        6          -0.000533131   -0.000699156   -0.000091280
      8        8          -0.000017842    0.000610865    0.000035898
      9        8           0.000363242   -0.000031353    0.000026850
     10        8          -0.000029061    0.000343862    0.000001635
     11        1          -0.000084846    0.000002535   -0.000001454
     12        1           0.000009279   -0.000121791   -0.000000904
     13        1          -0.000105279   -0.000015939    0.000000210
     14        1          -0.000034814    0.000070573    0.000000265
     15        1           0.000091547    0.000053277    0.000001954
     16        1           0.000156897    0.000097343   -0.000001908
 -------------------------------------------------------------------
 Cartesian Forces:  Max     0.000699156 RMS     0.000209255

 GradGradGradGradGradGradGradGradGradGradGradGradGradGradGradGradGradGrad
 Berny optimization.
 Using GEDIIS/GDIIS optimizer.
 FormGI is forming the generalized inverse of G from B-inverse, IUseBI=4.
 Internal  Forces:  Max     0.000567303 RMS     0.000143547
 Search for a local minimum.
 Step number   3 out of a maximum of   81
 All quantities printed in internal units (Hartrees-Bohrs-Radians)
 Mixed Optimization -- En-DIIS/RFO-DIIS
 Swapping is turned off.
 Update second derivatives using D2CorX and points    1    2    3
 DE= -1.20D-05 DEPred=-1.31D-05 R= 9.15D-01
 TightC=F SS=  1.41D+00  RLast= 1.07D-02 DXNew= 5.0454D-01 3.1993D-02
 Trust test= 9.15D-01 RLast= 1.07D-02 DXMaxT set to 3.00D-01
 ITU=  1  1  0
     Eigenvalues ---    0.00925   0.01487   0.01757   0.02012   0.02117
     Eigenvalues ---    0.02156   0.02205   0.02233   0.02339   0.02391
     Eigenvalues ---    0.02468   0.02493   0.02720   0.14389   0.16000
     Eigenvalues ---    0.16000   0.16000   0.16014   0.17112   0.21838
     Eigenvalues ---    0.22241   0.23561   0.24950   0.25000   0.25084
     Eigenvalues ---    0.29081   0.34465   0.35322   0.35526   0.35791
     Eigenvalues ---    0.40839   0.43227   0.44130   0.45151   0.47345
     Eigenvalues ---    0.52419   0.52829   0.53257   0.54940   0.57841
     Eigenvalues ---    0.61660   1.04540
 En-DIIS/RFO-DIIS IScMMF=        0 using points:     3    2
 RFO step:  Lambda=-2.19097413D-06.
 DidBck=F Rises=F RFO-DIIS coefs:    0.92323    0.07677
 Iteration  1 RMS(Cart)=  0.00140843 RMS(Int)=  0.00000107
 Iteration  2 RMS(Cart)=  0.00000140 RMS(Int)=  0.00000034
 Iteration  3 RMS(Cart)=  0.00000000 RMS(Int)=  0.00000034
 Variable       Old X    -DE/DX   Delta X   Delta X   Delta X     New X
                                 (Linear)    (Quad)   (Total)
    R1        2.52533  -0.00008  -0.00011   0.00019   0.00008   2.52541
    R2        2.57314  -0.00013   0.00001  -0.00020  -0.00020   2.57295
    R3        1.93404  -0.00005   0.00005  -0.00026  -0.00021   1.93384
    R4        2.64409  -0.00025   0.00005  -0.00062  -0.00058   2.64351
    R5        2.04225   0.00011   0.00000   0.00025   0.00025   2.04250
    R6        2.61600  -0.00009  -0.00002  -0.00010  -0.00012   2.61588
    R7        2.04356   0.00011   0.00000   0.00025   0.00025   2.04381
    R8        2.67578  -0.00007   0.00010  -0.00042  -0.00032   2.67546
    R9        2.04706   0.00008   0.00001   0.00017   0.00017   2.04723
   R10        2.65262   0.00006   0.00018  -0.00035  -0.00017   2.65245
   R11        2.51147   0.00045  -0.00010   0.00099   0.00089   2.51236
   R12        2.81651  -0.00008   0.00021  -0.00081  -0.00059   2.81592
   R13        2.29089  -0.00057  -0.00005  -0.00035  -0.00039   2.29049
   R14        2.54296   0.00025  -0.00011   0.00075   0.00064   2.54360
   R15        1.84270   0.00008  -0.00000   0.00016   0.00015   1.84285
   R16        1.84000   0.00015   0.00004   0.00016   0.00019   1.84019
    A1        2.17539   0.00007   0.00007   0.00007   0.00014   2.17553
    A2        2.10712  -0.00010   0.00008  -0.00078  -0.00069   2.10643
    A3        2.00067   0.00003  -0.00016   0.00071   0.00056   2.00123
    A4        2.06766   0.00005  -0.00005   0.00025   0.00020   2.06786
    A5        2.04775  -0.00008   0.00011  -0.00071  -0.00060   2.04715
    A6        2.16777   0.00004  -0.00006   0.00046   0.00040   2.16817
    A7        2.08844  -0.00003   0.00002  -0.00022  -0.00019   2.08824
    A8        2.08387   0.00000  -0.00003   0.00009   0.00006   2.08393
    A9        2.11088   0.00002   0.00001   0.00013   0.00013   2.11101
   A10        2.10498   0.00002   0.00008  -0.00013  -0.00005   2.10493
   A11        2.12048  -0.00000  -0.00006   0.00015   0.00009   2.12057
   A12        2.05773  -0.00001  -0.00002  -0.00001  -0.00004   2.05769
   A13        2.05891   0.00002  -0.00017   0.00060   0.00043   2.05934
   A14        2.04205  -0.00020   0.00007  -0.00096  -0.00089   2.04115
   A15        2.18223   0.00018   0.00011   0.00036   0.00046   2.18270
   A16        2.07099  -0.00013   0.00004  -0.00056  -0.00052   2.07047
   A17        1.97482  -0.00022  -0.00005  -0.00068  -0.00072   1.97410
   A18        2.23737   0.00035   0.00001   0.00124   0.00125   2.23861
   A19        2.12983   0.00006  -0.00003   0.00033   0.00030   2.13013
   A20        1.95322   0.00039   0.00012   0.00110   0.00122   1.95444
   A21        2.20014  -0.00045  -0.00008  -0.00143  -0.00152   2.19862
   A22        1.91741   0.00013   0.00033  -0.00020   0.00013   1.91754
   A23        1.95582   0.00020   0.00053  -0.00033   0.00020   1.95602
    D1        0.00001  -0.00000  -0.00000  -0.00003  -0.00003  -0.00002
    D2       -3.14158  -0.00000  -0.00000  -0.00004  -0.00004   3.14156
    D3        3.14158   0.00000   0.00000   0.00003   0.00003  -3.14157
    D4       -0.00001   0.00000   0.00000   0.00002   0.00002   0.00001
    D5       -0.00001   0.00000   0.00000   0.00004   0.00004   0.00003
    D6        3.14158   0.00000   0.00000   0.00003   0.00003  -3.14157
    D7       -3.14159  -0.00000  -0.00000  -0.00001  -0.00001   3.14158
    D8        0.00001  -0.00000  -0.00000  -0.00002  -0.00002  -0.00002
    D9       -0.00000   0.00000   0.00000   0.00001   0.00001   0.00001
   D10        3.14159   0.00000   0.00000   0.00000   0.00000  -3.14159
   D11        3.14159   0.00000   0.00000   0.00002   0.00002  -3.14158
   D12       -0.00000   0.00000   0.00000   0.00002   0.00002   0.00001
   D13        0.00000  -0.00000  -0.00000  -0.00001  -0.00001  -0.00001
[...]
 ! D2    D(6,1,2,12)           179.9997         -DE/DX =    0.0                 !
 ! D3    D(11,1,2,3)          -179.9998         -DE/DX =    0.0                 !
 ! D4    D(11,1,2,12)            0.0001         -DE/DX =    0.0                 !
 ! D5    D(2,1,6,5)              0.0003         -DE/DX =    0.0                 !
 ! D6    D(2,1,6,7)           -179.9998         -DE/DX =    0.0                 !
 ! D7    D(11,1,6,5)           179.9999         -DE/DX =    0.0                 !
 ! D8    D(11,1,6,7)            -0.0002         -DE/DX =    0.0                 !
 ! D9    D(1,2,3,4)              0.0001         -DE/DX =    0.0                 !
 ! D10   D(1,2,3,13)           180.0            -DE/DX =    0.0                 !
 ! D11   D(12,2,3,4)          -179.9999         -DE/DX =    0.0                 !
 ! D12   D(12,2,3,13)            0.0001         -DE/DX =    0.0                 !
 ! D13   D(2,3,4,5)              0.0            -DE/DX =    0.0                 !
 ! D14   D(2,3,4,14)          -180.0            -DE/DX =    0.0                 !
 ! D15   D(13,3,4,5)          -180.0            -DE/DX =    0.0                 !
 ! D16   D(13,3,4,14)            0.0            -DE/DX =    0.0                 !
 ! D17   D(3,4,5,6)              0.0002         -DE/DX =    0.0                 !
 ! D18   D(3,4,5,10)           179.9999         -DE/DX =    0.0                 !
 ! D19   D(14,4,5,6)           180.0001         -DE/DX =    0.0                 !
 ! D20   D(14,4,5,10)           -0.0002         -DE/DX =    0.0                 !
 ! D21   D(4,5,6,1)             -0.0003         -DE/DX =    0.0                 !
 ! D22   D(4,5,6,7)            179.9998         -DE/DX =    0.0                 !
 ! D23   D(10,5,6,1)           180.0            -DE/DX =    0.0                 !
 ! D24   D(10,5,6,7)             0.0001         -DE/DX =    0.0                 !
 ! D25   D(4,5,10,16)         -179.9995         -DE/DX =    0.0                 !
 ! D26   D(6,5,10,16)            0.0002         -DE/DX =    0.0                 !
 ! D27   D(1,6,7,8)             -0.0094         -DE/DX =    0.0                 !
 ! D28   D(1,6,7,9)            180.009          -DE/DX =    0.0                 !
 ! D29   D(5,6,7,8)            179.9905         -DE/DX =    0.0                 !
 ! D30   D(5,6,7,9)              0.0089         -DE/DX =    0.0                 !
 ! D31   D(6,7,9,15)           179.99           -DE/DX =    0.0                 !
 ! D32   D(8,7,9,15)             0.0092         -DE/DX =    0.0                 !
 --------------------------------------------------------------------------------
 GradGradGradGradGradGradGradGradGradGradGradGradGradGradGradGradGradGrad

 1\1\ WCSS.PL-BEM-JP\Freq\RB2PLYP-FC\6-31+G(d,p)\C6H6N1O3(1+)\C612\18-D
 ec-2024\0\\#N Geom=AllCheck Guess=TCheck SCRF=Check GenChk RB2PLYP(FC)
 /6-31+G(d,p) Freq\\[No Title]\\1,1\N,-0.5078823016,-1.3573788728,-0.00
 00850207\C,-1.8425869403,-1.42341472,-0.0000120706\C,-2.5696089286,-0.
 228312013,0.0000848747\C,-1.8976259927,0.9819252208,0.0001016926\C,-0.
 4823585305,1.0204879769,0.0000225872\C,0.209930432,-0.2004371538,-0.00
 00759333\C,1.6828698064,-0.4253552891,-0.0001742928\O,2.1639155495,-1.
 5377571173,-0.0000850046\O,2.3687875809,0.7327934296,0.0000319768\O,0.
 0881012055,2.2215113041,0.0000422893\H,0.0572480068,-2.2105563643,-0.0
 001600596\H,-2.290050083,-2.4073333374,-0.0000336836\H,-3.6505816488,-
 0.2644242076,0.0001451393\H,-2.4303544243,1.9252739443,0.0001760861\H,
 3.3267951004,0.5506396213,0.0001215598\H,1.0603491683,2.1654995785,-0.
 0000241404\\Version=ES64L-G09RevE.01\State=1-A\HF=-511.5114811\MP2=-51
 2.0093202\RMSD=2.961e-09\RMSF=3.015e-05\ZeroPoint=0.1220515\Thermal=0.
 1301483\Dipole=-1.0324714,-0.4975883,-0.0000299\DipoleDeriv=0.1135844,
 0.170415,-0.0000015,0.552465,-0.2986221,-0.0000305,0.0000319,-0.000028
 3,-0.1083012,-0.2479338,-0.1586591,-0.0000001,0.1270479,0.2398212,0.00
 00031,0.0000257,0.0000167,0.0712147,0.2070281,0.0442674,-0.0000122,-0.
 3059131,-0.1156339,0.0000051,-0.0000254,-0.000007,-0.0536825,0.1385068
 ,-0.336393,-0.0000176,0.0064078,0.1037954,0.0000102,-0.0000208,0.00002
 88,-0.0352145,0.0721659,0.6880652,0.0000241,0.6192757,1.3448271,0.0000
 048,0.0000625,0.0000052,0.2028956,-0.5447662,0.2747093,0.0000245,-0.48
 17164,-0.2181239,0.0000134,0.0000477,-0.0000377,0.0850533,2.0078466,-0
 .0612758,-0.0000298,0.078176,1.5661597,0.0001303,-0.0000136,0.0001117,
 0.3552592,-0.8581284,0.2561421,0.000041,0.1827655,-0.9151376,-0.000089
 1,-0.0000195,0.000036,-0.3132398,-1.0191642,-0.4396752,-0.0000326,-0.4
 075745,-0.9103335,-0.0000379,-0.0000943,-0.0001173,-0.3532164,-0.52807
 22,-0.6188745,-0.0000143,-0.4119031,-1.1566736,-0.0000015,-0.0000141,0
 .0000124,-0.3263685,0.3483471,-0.0319971,-0.0000016,-0.08865,0.3690423
 ,0.0000116,-0.0000071,0.0000109,0.2826479,0.1175077,0.0406074,0.000003
 9,0.0337078,0.1180466,-0.0000033,-0.0000003,-0.0000016,0.1659608,0.112
 6517,-0.0051079,0.0000021,-0.0100588,0.1096122,-0.0000015,0.0000028,-0
 .0000012,0.1529454,0.1162231,-0.0136865,0.0000007,-0.0134687,0.1109145
 ,-0.000001,-0.0000011,-0.0000038,0.1483959,0.4910097,0.0886348,0.00000
 98,0.0960424,0.2759641,-0.000003,0.0000164,-0.0000034,0.3817284,0.4731
 938,0.1028279,0.0000035,0.0233963,0.3763414,-0.0000109,0.0000092,-0.00
 00216,0.3439218\Polar=109.1628373,1.6134865,94.2390137,-0.0018634,0.00
 19957,41.1955554\PG=C01 [X(C6H6N1O3)]\NImag=0\\0.85702324,-0.05548101,
 0.80022146,-0.00004796,0.00003603,0.11351591,-0.38760216,0.01432060,0.
 00002105,0.72045285,-0.04270312,-0.15350346,-0.00000294,0.04291725,0.8
 0300880,0.00001748,-0.00000625,-0.05105132,-0.00003184,0.00002902,0.12
 791430,-0.04769867,0.03404583,0.00000465,-0.18299722,0.11309470,0.0000
 1238,0.78652776,0.07410770,0.02418705,-0.00000265,0.06250747,-0.288274
 05,-0.00001440,0.01869429,0.69299926,0.00000599,-0.00000122,0.00156984
 ,0.00001051,-0.00001729,-0.05435191,-0.00003719,0.00002541,0.12067317,
 -0.04289568,-0.02199198,0.00000149,0.05894151,-0.00903580,-0.00000414,
 -0.19517675,-0.08452816,0.00000465,0.67722556,-0.02677497,-0.01114004,
 0.00000088,0.01659024,-0.05323896,-0.00000319,-0.13246499,-0.32913222,
 -0.00000538,-0.00404248,0.79109383,0.00000157,0.00000086,0.00345534,-0
 .00000287,-0.00000184,-0.00266725,0.00000250,-0.00000845,-0.04432841,-
 0.00003203,0.00003140,0.11896345,0.06063290,0.01745446,-0.00000301,-0.
 04356490,0.01308498,0.00000346,-0.01336809,-0.05752240,-0.00000229,-0.
 30468008,0.04338159,0.00001556,0.70102917,-0.01098331,-0.06081539,-0.0
 0000114,0.02443997,-0.00062709,-0.00000178,-0.03834371,0.01830296,0.00
 000341,-0.00485662,-0.11915163,-0.00000240,0.03208710,0.74630578,-0.00
 000557,-0.00000385,-0.01072838,0.00000439,-0.00000136,0.00249643,-0.00
 000146,0.00000548,-0.01031234,0.00001418,-0.00000527,-0.05149310,-0.00
 003267,0.00002611,0.13091310,-0.17838805,-0.09818414,0.00000530,-0.055
 36498,-0.02624213,0.00000242,0.00336125,-0.02217364,-0.00000104,-0.008
 78731,0.03401943,0.00000214,-0.20059180,0.09108455,0.00001603,0.660377
 53,-0.05559085,-0.28308536,-0.00000876,-0.07225247,0.01147071,0.000005
 26,0.01269816,-0.04265116,-0.00000274,0.04801140,0.02746110,-0.0000014
 7,0.06581324,-0.25692975,-0.00001509,-0.01643884,0.73638322,0.00000849
 ,-0.00000550,-0.03930428,-0.00000040,0.00000302,0.00045364,0.00000022,
 -0.00000122,0.00260890,0.00000219,-0.00000182,-0.00542433,0.00001459,-
 0.00001512,-0.03748193,-0.00002974,0.00003246,0.09283732,-0.05030928,-
 0.02304528,0.00000085,0.02071136,-0.00525686,-0.00000179,-0.00262691,0
 .01373772,0.00000074,-0.00909795,-0.00543020,0.00000016,0.01247921,0.0
 3297792,-0.00000046,-0.19094786,0.01088426,0.00001699,0.65683457,-0.02
 912765,0.00428528,0.00000373,-0.00585017,-0.00911687,0.00000007,0.0020
 1900,-0.00186357,-0.00000020,0.00114898,-0.00586512,-0.00000099,0.0335
 2320,0.01750270,-0.00000072,0.01187531,-0.09076798,-0.00000604,-0.1215
 1549,0.94664932,0.00000035,0.00000090,-0.00654227,-0.00000172,0.000000
 09,0.00660057,-0.00000010,-0.00000096,-0.00123827,0.00000151,-0.000000
 69,0.00871713,0.00000180,0.00000197,-0.00376437,0.00000676,-0.00000549
 ,-0.05826239,0.00003439,-0.00000295,0.18153341,-0.00202882,0.00655222,
 -0.00000008,-0.00241397,0.00318803,0.00000037,-0.00027679,-0.00206360,
 -0.00000010,0.00074087,0.00319385,0.00000055,-0.00964267,-0.01145449,-
 0.00000030,-0.03201437,0.04691374,-0.00000243,-0.21714775,0.23430817,-
 0.00001910,0.22361557,-0.01425130,-0.00297416,-0.00000012,0.00622729,0
 .00164181,-0.00000067,-0.00185852,0.00263984,0.00000028,-0.00044686,-0
 .00133277,-0.00000032,-0.00010612,0.00110585,0.00000027,0.03599760,-0.
 02258087,0.00000217,0.22917070,-0.61429952,0.00003436,-0.26936111,0.72
 405807,0.00000046,0.,0.00215627,0.00000008,-0.00000022,-0.00074768,0.0
 0000014,0.00000013,-0.00009092,-0.00000034,0.00000041,-0.00167690,-0.0
 0000032,-0.00000067,0.00290123,0.00000075,0.00000224,0.01760412,-0.000
 02184,0.00003940,-0.07004468,0.00002031,-0.00003377,0.03171084,-0.0066
 1695,0.00579203,0.00000053,-0.00294364,-0.00128098,0.00000039,0.000400
 31,-0.00294240,-0.00000025,0.00250530,0.00078139,-0.00000005,-0.004067
 27,-0.00376023,-0.00000003,-0.03324477,-0.03979972,-0.00000723,-0.1909
 0483,-0.10709727,-0.00002219,0.03485827,-0.00060044,0.00000060,0.67997
 525,0.00105083,0.00476956,-0.00000014,-0.00125538,0.00217521,0.0000001
 4,-0.00006221,-0.00257726,-0.00000014,0.00310432,0.00198371,0.00000016
 ,-0.00782894,-0.01488913,-0.00000012,-0.01594087,0.00119684,-0.0000021
 6,-0.05781338,-0.24169992,-0.00002131,-0.02572646,-0.09177008,-0.00000
 909,0.02200502,0.40372053,-0.00000075,0.00000062,0.00149658,0.00000019
 ,0.00000003,0.00005989,0.00000002,-0.00000021,0.00036647,0.,0.00000033
 ,-0.00125755,-0.00000144,-0.00000177,0.00227485,-0.00000063,-0.0000014
 9,0.00593680,-0.00001956,-0.00003375,-0.05595736,-0.00000060,-0.000002
 66,0.02557887,0.00006685,0.00003211,0.03578155,-0.01229631,-0.00333738
 ,0.00000071,0.00865763,-0.00599400,-0.00000091,-0.00685117,0.01456384,
 0.00000125,-0.03934236,-0.06242263,0.00000008,-0.16325786,-0.12632714,
 0.00000158,0.02782558,0.00980695,-0.00000099,-0.01923385,-0.01224347,-
 0.00000123,0.00459789,0.00407198,-0.00000004,-0.00491751,0.01526140,0.
 00000129,0.67854527,-0.00005683,-0.00323769,-0.00000090,0.00410725,-0.
 00776438,-0.00000049,0.00415639,0.00932649,0.00000003,-0.02685031,-0.0
 1117383,0.00000087,-0.08465171,-0.32626902,-0.00000804,-0.00650628,-0.
 05101956,-0.00000191,-0.01778910,-0.00525787,-0.00000047,0.00412514,0.
 00072079,0.00000003,0.01051574,0.00650614,0.00000104,0.10134897,0.4370
 2782,0.00000156,-0.00000035,0.00921874,-0.00000039,0.00000010,-0.00192
 192,0.00000094,-0.00000064,0.00522448,0.00000127,0.00000322,0.00371485
 ,0.00000401,-0.00000618,-0.03940759,-0.00000267,-0.00000220,0.00358111
 ,0.00000016,0.00000007,-0.00146827,0.00000002,0.00000007,-0.00026434,0
 .00000035,0.00000002,0.00117596,-0.00003648,0.00001194,0.03270026,-0.1
 6986270,0.15623080,0.00001653,-0.01466858,0.02890913,0.00000229,-0.005
 15856,-0.00331551,0.00000066,-0.00033802,-0.00065717,-0.00000011,-0.00
 226206,-0.00309044,0.00000050,0.01697593,-0.01450105,-0.00000206,0.003
 38109,-0.01414702,-0.00000063,0.00045465,0.00818811,-0.00000014,0.0004
 5609,0.00567186,0.00000076,-0.00056601,-0.00224148,-0.00000007,0.17046
 605,0.15637128,-0.31902731,-0.00002339,-0.00280948,0.01125021,0.000000
 79,-0.00271822,0.00239390,-0.00000010,-0.00081524,-0.00016953,0.000000
 10,-0.00479340,-0.00268329,-0.00000001,0.01390504,-0.02562611,-0.00000
 234,-0.00186526,-0.00219765,0.00000032,0.00280272,0.00016526,0.,0.0011
 1896,-0.00012375,0.00000006,0.00140298,0.00002068,-0.00000015,-0.16119
 162,0.33431524,0.00001699,-0.00002325,-0.02909492,0.00000023,-0.000001
 20,-0.00099400,0.00000074,-0.00000030,0.00804363,0.00000011,0.00000016
 ,-0.00164574,0.00000003,0.00000002,0.00599921,-0.00000081,-0.00000047,
 -0.00154821,0.00000064,0.00000052,-0.00148832,-0.00000009,0.,-0.002745
 15,-0.00000021,-0.00000013,0.00041703,0.00000016,0.00000009,0.00058803
 ,-0.00001739,0.00002438,0.02645122,-0.01897580,-0.03596277,-0.00000053
 ,-0.10785336,-0.10475362,-0.00000105,0.01360858,0.01593908,0.00000019,
 -0.00272986,0.00359747,0.00000067,-0.00039132,-0.00031821,-0.00000002,
 -0.00352626,0.00413146,0.00000097,0.00004751,-0.00156885,0.00000011,0.
 00002572,0.00019763,-0.00000004,-0.00060757,0.00009107,-0.00000007,0.0
 0044570,0.00020493,-0.00000004,0.00053905,-0.00092999,-0.00000031,0.11
 839076,0.00309438,0.00623353,0.00000011,-0.11558011,-0.31946319,-0.000
 00676,-0.01140434,-0.01185944,-0.00000007,0.00289048,-0.00237489,-0.00
 000058,0.00113278,-0.00076650,-0.00000009,0.00209690,0.00247859,-0.000
 00043,-0.00060313,0.00040182,-0.00000010,0.00017210,-0.00023778,0.0000
 0002,0.00032328,0.00009766,0.00000005,-0.00001347,0.00051966,0.0000000
 5,-0.00018529,0.00102983,0.00000028,0.11891380,0.32396256,0.00000105,0
 .00000251,-0.00083320,-0.00000150,-0.00000754,-0.03538325,-0.00000107,
 -0.00000169,0.00395256,0.00000074,-0.00000063,0.00651223,0.00000003,-0
 .00000016,-0.00069113,0.00000077,-0.00000043,0.00832558,0.,0.00000010,
 0.00175731,-0.00000003,-0.00000002,-0.00007514,0.00000017,0.00000002,-
 0.00038416,0.00000002,0.00000011,-0.00065698,-0.00000029,0.00000027,-0
 .00401900,0.00000037,0.00000730,0.02504393,0.00065740,0.00239942,0.000
 00051,-0.00899597,-0.00316931,0.00000035,-0.36258645,-0.00857797,0.000
 01812,-0.00705302,0.00121638,0.00000062,0.00073570,-0.00127394,0.00000
 046,0.00082710,-0.00017287,-0.00000012,-0.00042414,0.00006534,-0.00000
 003,0.00007925,-0.00011737,0.,0.00010444,0.00004658,0.,-0.00035676,0.0
 0017752,0.00000001,-0.00012196,-0.00036388,0.00000002,0.00048944,0.000
 00877,-0.00000017,0.37589063,0.00414094,-0.00578800,-0.00000088,0.0277
 8719,0.00664754,-0.00000122,-0.00971082,-0.06069143,-0.00000046,-0.029
 41698,0.00388945,0.00000168,-0.00124353,-0.00495133,-0.00000061,-0.000
 94156,-0.00127713,0.00000005,0.00041531,-0.00029598,0.,0.00006514,0.00
 037008,0.,-0.00000862,0.00012903,0.00000002,-0.00173593,0.00028498,0.0
 0000014,0.00106261,0.00055408,-0.00000008,-0.00029216,0.00052811,0.000
 00015,0.00972202,0.06008374,0.00000074,-0.00000059,0.00745807,0.000001
 60,0.00000059,-0.00004691,0.00001809,-0.00000056,-0.03801833,-0.000000
 91,-0.00000018,0.00300975,0.00000061,-0.00000063,0.00987721,-0.0000002
 0,-0.00000004,-0.00110563,0.00000008,0.,-0.00093287,0.,0.00000006,0.00
 011024,0.,0.,-0.00003982,-0.00000013,0.,-0.00032118,0.00000005,0.00000
 002,0.00053079,-0.00000018,0.00000015,-0.00264528,-0.00001947,0.000000
 96,0.02692029,-0.00102908,-0.00148058,-0.00000009,-0.00129315,-0.00408
 696,0.00000040,0.01339626,-0.01622712,-0.00000128,-0.13428984,0.128576
 58,0.00001127,-0.01137415,0.02902354,0.00000226,-0.00544540,-0.0009642
 3,0.00000081,0.00064683,0.00146395,0.00000010,-0.00069173,0.00024016,-
 0.00000008,0.00002121,-0.00031199,-0.00000006,0.00248779,0.00007601,-0
 .00000030,-0.00008204,0.00007873,-0.00000002,0.00070165,-0.00074427,-0
 .00000011,0.00074858,0.00021723,-0.00000026,0.13613487,-0.00092366,0.0
 0069238,0.00000016,-0.00278518,-0.00313589,-0.00000044,0.01350613,-0.0
 1524995,-0.00000165,0.12966877,-0.28386289,-0.00001878,-0.00320898,0.0
 0639513,0.00000025,-0.00122933,-0.00018544,-0.00000021,0.00010639,0.00
 030274,0.00000014,-0.00027310,0.00015392,-0.00000005,-0.00015901,-0.00
 004122,-0.00000003,-0.00003340,0.00000947,0.00000010,0.00007984,-0.000
 07067,0.00000003,0.00078708,-0.00050192,-0.00000005,0.00014893,0.00088
 273,0.00000025,-0.13573318,0.29451840,0.00000003,0.00000022,-0.0015063
 4,0.00000031,-0.00000026,0.00972433,0.00000012,-0.00000014,0.00418370,
 0.00001142,-0.00001871,-0.04035775,0.00000079,-0.00000135,0.00551808,0
 .00000059,-0.00000045,0.00644299,0.00000011,0.00000009,-0.00131596,-0.
 00000007,0.00000003,0.00016929,-0.00000003,0.,-0.00001009,-0.00000029,
 -0.00000004,-0.00233198,-0.00000005,0.00000004,-0.00076110,-0.00000005
 ,0.00000005,-0.00066240,-0.00000028,0.00000023,-0.00436207,-0.00001260
 ,0.00002025,0.02566270,-0.00076205,-0.00018919,-0.00000011,0.00087383,
 -0.00060684,-0.00000004,-0.00000211,0.00068860,0.00000002,-0.00050687,
 -0.00017376,0.00000009,0.00070862,-0.00003844,0.00000020,0.00104428,-0
 .00258851,-0.00000172,-0.03014070,-0.00297312,-0.00000152,0.00336124,0
 .00746623,0.00000060,-0.46495119,0.06777365,-0.00004459,0.00141481,-0.
 00027313,-0.00000024,-0.00050361,-0.00014752,-0.00000005,-0.00006145,-
 0.00002460,0.00000004,-0.00002330,0.00000929,-0.00000001,0.00000104,0.
 00005204,-0.00000002,0.49152559,-0.00148727,0.00016282,0.00000002,-0.0
 0003603,-0.00044624,0.00000007,0.00007370,-0.00006525,0.,0.00023369,0.
 00019438,-0.00000007,-0.00078737,-0.00151928,0.00000016,-0.00234389,-0
 .00513112,-0.00000114,-0.04904635,0.01258802,-0.00000460,0.00668784,-0
 .00085763,0.00000156,0.11633174,-0.06942267,0.00000523,0.00276660,-0.0
 0075240,-0.00000006,-0.00048071,0.00010388,-0.00000006,-0.00012048,0.0
 0001469,0.00000003,-0.00000028,0.00001106,-0.00000001,-0.00002794,0.00
 002269,0.,-0.07066870,0.06176527,-0.00000028,0.,0.00099802,0.00000025,
 -0.00000018,-0.00026327,0.00000001,0.00000018,0.00007496,-0.00000010,0
 .,-0.00008538,0.00000008,-0.00000025,-0.00090993,0.00000049,-0.0000010
 0,0.00465254,-0.00001101,0.00000083,0.00277325,0.00000174,0.00000045,-
 0.00515357,-0.00003829,0.00000075,-0.01391154,0.00000040,0.00000009,0.
 00053891,-0.00000006,-0.00000001,0.00027222,-0.00000003,0.00000001,-0.
 00018050,0.,0.,0.00006746,0.,0.,0.00005343,0.00004716,-0.00000120,0.01
 158890,0.00015200,0.00287695,0.00000015,-0.00193927,0.00193553,0.00000
 022,-0.00055145,-0.00288789,0.00000001,0.00548450,0.00060925,-0.000000
 15,-0.02238542,-0.00916656,0.00000090,-0.00210089,0.00404936,0.0000004
 4,0.01673268,0.01011908,0.00000151,-0.00351736,-0.00481798,-0.00000014
 ,-0.01006716,-0.00606551,-0.00000142,-0.47715285,0.01365690,0.00003186
 ,0.00129069,-0.00004509,-0.00000005,-0.00010280,-0.00007728,-0.0000000
 3,0.00002905,-0.00007012,-0.00000002,0.00006716,-0.00000333,0.,-0.0019
 7815,-0.00109454,-0.00000036,0.49603927,-0.00138516,-0.00098065,-0.000
 00002,0.00167158,-0.00062414,-0.00000012,-0.00172538,0.00251482,0.0000
 0009,-0.00307321,-0.00718062,-0.00000017,-0.04633489,-0.00101001,0.000
 00289,0.00102186,0.00026403,0.00000018,-0.00492724,-0.01036540,-0.0000
 0121,0.00086980,0.00319721,0.,-0.00121952,-0.00005464,0.00000044,0.062
 88471,-0.04894127,-0.00000615,-0.00033204,0.00006523,0.,0.00008354,-0.
 00006274,0.00000002,-0.00010935,-0.00037693,-0.00000001,-0.00009994,0.
 00007051,0.00000004,0.00169400,0.00333179,0.00000033,-0.00901878,0.060
 15285,-0.00000015,-0.00000014,-0.00080806,0.00000011,-0.00000004,0.000
 17834,0.00000001,0.00000004,0.00164246,-0.00000001,-0.00000051,0.00456
 364,-0.00000123,-0.00000006,-0.00519135,-0.00000016,-0.00000033,0.0006
 8375,0.00000054,-0.00000016,-0.00036693,-0.00000020,-0.00000016,0.0005
 6749,-0.00000062,-0.00000011,-0.00152749,0.00003455,-0.00000235,-0.010
 37008,0.,0.,-0.00000569,0.,0.,-0.00006057,-0.00000003,0.00000001,-0.00
 050172,-0.00000005,0.00000002,-0.00044682,0.00000018,0.00000005,-0.000
 51550,-0.00003293,0.00000371,0.01215850\\0.00001693,0.00000433,0.00000
 232,-0.00002748,0.00005142,-0.00000040,0.00002988,-0.00002064,0.000000
 09,0.00001413,-0.00001553,-0.00000129,-0.00005841,-0.00013591,0.000001
 65,0.00002061,0.00003889,0.00001058,-0.00005878,0.00000784,-0.00004116
 ,0.00001433,0.00000572,0.00001614,-0.00002376,-0.00000025,0.00001216,0
 .00005761,0.00004760,0.00000073,-0.00000921,0.00000316,-0.00000064,0.0
 0000305,-0.00001612,-0.00000040,-0.00001462,-0.00000067,0.00000010,-0.
 00000336,0.00000923,0.00000011,0.00001055,-0.00000369,0.00000090,0.000
 02852,0.00002463,-0.00000090\\\@


 HONESTY IN A LAWYER IS LIKE A HEN'S HIND LEGS.
  -- MAGNUS OLESON, LAKE WOBEGON PATRIARCH, C.1875
 Job cpu time:       0 days  2 hours 37 minutes 55.6 seconds.
 File lengths (MBytes):  RWF=  12664 Int=      0 D2E=      0 Chk=      6 Scr=      1
 Normal termination of Gaussian 09 at Wed Dec 18 15:20:48 2024.
