 Entering Gaussian System, Link 0=g09
 Input=b3lypD33HPA.gjf
 Output=b3lypD33HPA.log
 Initial command:
 /home/c612/g09E/g09/l1.exe "/mnt/ja_sm883/scratch/Gau-1438449.inp" -scrdir="/mnt/ja_sm883/scratch/"
 Default is to use a total of  18 processors:
                               18 via shared-memory
                                1 via Linda
 Entering Link 1 = /home/c612/g09E/g09/l1.exe PID=   1438451.
  
 Copyright (c) 1988,1990,1992,1993,1995,1998,2003,2009,2015,
            Gaussian, Inc.  All Rights Reserved.
  
 This is part of the Gaussian(R) 09 program.  It is based on
 the Gaussian(R) 03 system (copyright 2003, Gaussian, Inc.),
 the Gaussian(R) 98 system (copyright 1998, Gaussian, Inc.),
 the Gaussian(R) 94 system (copyright 1995, Gaussian, Inc.),
 the Gaussian 92(TM) system (copyright 1992, Gaussian, Inc.),
 the Gaussian 90(TM) system (copyright 1990, Gaussian, Inc.),
 the Gaussian 88(TM) system (copyright 1988, Gaussian, Inc.),
 the Gaussian 86(TM) system (copyright 1986, Carnegie Mellon
 University), and the Gaussian 82(TM) system (copyright 1983,
 Carnegie Mellon University). Gaussian is a federally registered
 trademark of Gaussian, Inc.
  
 This software contains proprietary and confidential information,
 including trade secrets, belonging to Gaussian, Inc.
  
 This software is provided under written license and may be
 used, copied, transmitted, or stored only in accord with that
 written license.
  
 The following legend is applicable only to US Government
 contracts under FAR:
  
                    RESTRICTED RIGHTS LEGEND
  
 Use, reproduction and disclosure by the US Government is
 subject to restrictions as set forth in subparagraphs (a)
 and (c) of the Commercial Computer Software - Restricted
 Rights clause in FAR 52.227-19.
  
 Gaussian, Inc.
 340 Quinnipiac St., Bldg. 40, Wallingford CT 06492
  
  
 ---------------------------------------------------------------
 Warning -- This program may not be used in any manner that
 competes with the business of Gaussian, Inc. or will provide
 assistance to any competitor of Gaussian, Inc.  The licensee
 of this program is prohibited from giving any competitor of
 Gaussian, Inc. access to this program.  By using this program,
 the user acknowledges that Gaussian, Inc. is engaged in the
 business of creating and licensing software in the field of
 computational chemistry and represents and warrants to the
 licensee that it is not a competitor of Gaussian, Inc. and that
 it will not use this program in any manner prohibited above.
 ---------------------------------------------------------------
  

 Cite this work as:
 Gaussian 09, Revision E.01,
 M. J. Frisch, G. W. Trucks, H. B. Schlegel, G. E. Scuseria, 
 M. A. Robb, J. R. Cheeseman, G. Scalmani, V. Barone, B. Mennucci, 
 G. A. Petersson, H. Nakatsuji, M. Caricato, X. Li, H. P. Hratchian, 
 A. F. Izmaylov, J. Bloino, G. Zheng, J. L. Sonnenberg, M. Hada, 
 M. Ehara, K. Toyota, R. Fukuda, J. Hasegawa, M. Ishida, T. Nakajima, 
 Y. Honda, O. Kitao, H. Nakai, T. Vreven, J. A. Montgomery, Jr., 
 J. E. Peralta, F. Ogliaro, M. Bearpark, J. J. Heyd, E. Brothers, 
 K. N. Kudin, V. N. Staroverov, T. Keith, R. Kobayashi, J. Normand, 
 K. Raghavachari, A. Rendell, J. C. Burant, S. S. Iyengar, J. Tomasi, 
 M. Cossi, N. Rega, J. M. Millam, M. Klene, J. E. Knox, J. B. Cross, 
 V. Bakken, C. Adamo, J. Jaramillo, R. Gomperts, R. E. Stratmann, 
 O. Yazyev, A. J. Austin, R. Cammi, C. Pomelli, J. W. Ochterski, 
 R. L. Martin, K. Morokuma, V. G. Zakrzewski, G. A. Voth, 
 P. Salvador, J. J. Dannenberg, S. Dapprich, A. D. Daniels, 
 O. Farkas, J. B. Foresman, J. V. Ortiz, J. Cioslowski, 
 and D. J. Fox, Gaussian, Inc., Wallingford CT, 2013.
 
 ******************************************
 Gaussian 09:  ES64L-G09RevE.01 30-Nov-2015
                17-Dec-2024 
 ******************************************
 %chk=b3lypD33HPA.chk
 ----------------------------------------------------
 # opt freq b3lyp/6-31+g(d,p) EmpiricalDispersion=GD3
 ----------------------------------------------------
 1/14=-1,18=20,19=15,26=3,38=1/1,3;
 2/9=110,12=2,17=6,18=5,40=1/2;
 3/5=1,6=6,7=111,11=2,16=1,25=1,30=1,71=1,74=-5,124=31/1,2,3;
 4//1;
 5/5=2,38=5/2;
 6/7=2,8=2,9=2,10=2,28=1/1;
 7//1,2,3,16;
 1/14=-1,18=20,19=15,26=3/3(2);
 2/9=110/2;
 99//99;
 2/9=110/2;
 3/5=1,6=6,7=111,11=2,16=1,25=1,30=1,71=1,74=-5,124=31/1,2,3;
 4/5=5,16=3,69=1/1;
 5/5=2,38=5/2;
 7//1,2,3,16;
 1/14=-1,18=20,19=15,26=3/3(-5);
 2/9=110/2;
 6/7=2,8=2,9=2,10=2,19=2,28=1/1;
 99/9=1/99;
 ----------
 [No Title]
 ----------
 Symbolic Z-matrix:
 Charge =  0 Multiplicity = 1
 N                    -0.44313  -1.44944   0.00003 
 C                    -1.76628  -1.47649   0.00004 
 C                    -2.55143  -0.3107    0.00002 
 C                    -1.92965   0.92339   0. 
 C                    -0.52654   0.97374  0. 
 C                     0.17294  -0.25694   0.00001 
 C                     1.64752  -0.22649  -0.00001 
 O                     2.29205   0.82512  -0.00007 
 O                     2.24875  -1.41439   0. 
 O                     0.07468   2.16645  -0.00001 
 H                    -2.23201  -2.45928   0.00005 
 H                    -3.63517  -0.384     0.00003 
 H                    -2.48725   1.85457  -0.00001 
 H                     3.20385  -1.24105  -0.00003 
 H                     1.0492    1.99928   0.00001 
 

 GradGradGradGradGradGradGradGradGradGradGradGradGradGradGradGradGradGrad
 Berny optimization.
 Initialization pass.
                           ----------------------------
                           !    Initial Parameters    !
                           ! (Angstroms and Degrees)  !
 --------------------------                            --------------------------
 ! Name  Definition              Value          Derivative Info.                !
 --------------------------------------------------------------------------------
 ! R1    R(1,2)                  1.3234         estimate D2E/DX2                !
 ! R2    R(1,6)                  1.3422         estimate D2E/DX2                !
 ! R3    R(2,3)                  1.4055         estimate D2E/DX2                !
 ! R4    R(2,11)                 1.0876         estimate D2E/DX2                !
 ! R5    R(3,4)                  1.3819         estimate D2E/DX2                !
 ! R6    R(3,12)                 1.0862         estimate D2E/DX2                !
 ! R7    R(4,5)                  1.404          estimate D2E/DX2                !
 ! R8    R(4,13)                 1.0854         estimate D2E/DX2                !
 ! R9    R(5,6)                  1.4156         estimate D2E/DX2                !
 ! R10   R(5,10)                 1.3357         estimate D2E/DX2                !
 ! R11   R(6,7)                  1.4749         estimate D2E/DX2                !
 ! R12   R(7,8)                  1.2334         estimate D2E/DX2                !
 ! R13   R(7,9)                  1.3314         estimate D2E/DX2                !
 ! R14   R(9,14)                 0.9707         estimate D2E/DX2                !
 ! R15   R(10,15)                0.9888         estimate D2E/DX2                !
 ! A1    A(2,1,6)              118.4932         estimate D2E/DX2                !
 ! A2    A(1,2,3)              122.7888         estimate D2E/DX2                !
 ! A3    A(1,2,11)             116.5266         estimate D2E/DX2                !
 ! A4    A(3,2,11)             120.6846         estimate D2E/DX2                !
 ! A5    A(2,3,4)              119.2992         estimate D2E/DX2                !
 ! A6    A(2,3,12)             120.0908         estimate D2E/DX2                !
 ! A7    A(4,3,12)             120.61           estimate D2E/DX2                !
 ! A8    A(3,4,5)              118.7961         estimate D2E/DX2                !
 ! A9    A(3,4,13)             122.3456         estimate D2E/DX2                !
 ! A10   A(5,4,13)             118.8583         estimate D2E/DX2                !
 ! A11   A(4,5,6)              117.5572         estimate D2E/DX2                !
 ! A12   A(4,5,10)             118.8068         estimate D2E/DX2                !
 ! A13   A(6,5,10)             123.6359         estimate D2E/DX2                !
 ! A14   A(1,6,5)              123.0655         estimate D2E/DX2                !
 ! A15   A(1,6,7)              118.5047         estimate D2E/DX2                !
 ! A16   A(5,6,7)              118.4298         estimate D2E/DX2                !
 ! A17   A(6,7,8)              122.6868         estimate D2E/DX2                !
 ! A18   A(6,7,9)              115.6624         estimate D2E/DX2                !
 ! A19   A(8,7,9)              121.6508         estimate D2E/DX2                !
 ! A20   A(7,9,14)             106.5583         estimate D2E/DX2                !
 ! A21   A(5,10,15)            107.0177         estimate D2E/DX2                !
 ! D1    D(6,1,2,3)              0.0002         estimate D2E/DX2                !
 ! D2    D(6,1,2,11)          -180.0            estimate D2E/DX2                !
 ! D3    D(2,1,6,5)              0.0            estimate D2E/DX2                !
 ! D4    D(2,1,6,7)           -179.9995         estimate D2E/DX2                !
 ! D5    D(1,2,3,4)             -0.0001         estimate D2E/DX2                !
 ! D6    D(1,2,3,12)           179.9999         estimate D2E/DX2                !
 ! D7    D(11,2,3,4)          -180.0            estimate D2E/DX2                !
 ! D8    D(11,2,3,12)            0.0001         estimate D2E/DX2                !
 ! D9    D(2,3,4,5)              0.0            estimate D2E/DX2                !
 ! D10   D(2,3,4,13)          -179.9998         estimate D2E/DX2                !
 ! D11   D(12,3,4,5)           179.9999         estimate D2E/DX2                !
 ! D12   D(12,3,4,13)            0.0002         estimate D2E/DX2                !
 ! D13   D(3,4,5,6)              0.0002         estimate D2E/DX2                !
 ! D14   D(3,4,5,10)          -179.9995         estimate D2E/DX2                !
 ! D15   D(13,4,5,6)           179.9999         estimate D2E/DX2                !
 ! D16   D(13,4,5,10)            0.0002         estimate D2E/DX2                !
 ! D17   D(4,5,6,1)             -0.0002         estimate D2E/DX2                !
 ! D18   D(4,5,6,7)            179.9994         estimate D2E/DX2                !
 ! D19   D(10,5,6,1)           179.9995         estimate D2E/DX2                !
 ! D20   D(10,5,6,7)            -0.0009         estimate D2E/DX2                !
 ! D21   D(4,5,10,15)          179.9989         estimate D2E/DX2                !
 ! D22   D(6,5,10,15)           -0.0008         estimate D2E/DX2                !
 ! D23   D(1,6,7,8)            179.9978         estimate D2E/DX2                !
 ! D24   D(1,6,7,9)             -0.0003         estimate D2E/DX2                !
 ! D25   D(5,6,7,8)             -0.0018         estimate D2E/DX2                !
 ! D26   D(5,6,7,9)           -179.9999         estimate D2E/DX2                !
 ! D27   D(6,7,9,14)           179.9991         estimate D2E/DX2                !
 ! D28   D(8,7,9,14)             0.0009         estimate D2E/DX2                !
 --------------------------------------------------------------------------------
 Trust Radius=3.00D-01 FncErr=1.00D-07 GrdErr=1.00D-06
 Number of steps in this run=     74 maximum allowed number of steps=    100.
 GradGradGradGradGradGradGradGradGradGradGradGradGradGradGradGradGradGrad

                          Input orientation:                          
 ---------------------------------------------------------------------
 Center     Atomic      Atomic             Coordinates (Angstroms)
 Number     Number       Type             X           Y           Z
 ---------------------------------------------------------------------
      1          7           0       -0.443132   -1.449437    0.000028
      2          6           0       -1.766278   -1.476489    0.000035
      3          6           0       -2.551429   -0.310702    0.000021
      4          6           0       -1.929646    0.923389    0.000002
      5          6           0       -0.526538    0.973743   -0.000002
      6          6           0        0.172942   -0.256936    0.000010
      7          6           0        1.647524   -0.226491   -0.000008
      8          8           0        2.292053    0.825120   -0.000065
      9          8           0        2.248751   -1.414390    0.000002
     10          8           0        0.074676    2.166451   -0.000011
     11          1           0       -2.232005   -2.459282    0.000050
     12          1           0       -3.635166   -0.383999    0.000026
     13          1           0       -2.487249    1.854572   -0.000006
     14          1           0        3.203854   -1.241045   -0.000027
     15          1           0        1.049199    1.999280    0.000006
 ---------------------------------------------------------------------
                    Distance matrix (angstroms):
                    1          2          3          4          5
     1  N    0.000000
     2  C    1.323423   0.000000
     3  C    2.396171   1.405532   0.000000
     4  C    2.800005   2.405432   1.381881   0.000000
     5  C    2.424615   2.746014   2.397912   1.404011   0.000000
     6  C    1.342239   2.290826   2.724901   2.411233   1.415572
     7  C    2.422073   3.635456   4.199797   3.757442   2.483366
     8  O    3.557365   4.665560   4.974878   4.222843   2.822507
     9  O    2.692111   4.015509   4.925429   4.787924   3.661340
    10  O    3.652776   4.081681   3.610085   2.358497   1.335669
    11  H    2.054228   1.087559   2.172194   3.396157   3.833312
    12  H    3.365151   2.164781   1.086213   2.148968   3.392202
    13  H    3.885214   3.408191   2.166225   1.085368   2.149476
    14  H    3.652935   4.975706   5.829993   5.571140   4.338330
    15  H    3.757752   4.473017   4.277913   3.167185   1.880073
                    6          7          8          9         10
     6  C    0.000000
     7  C    1.474896   0.000000
     8  O    2.379386   1.233411   0.000000
     9  O    2.376696   1.331382   2.239929   0.000000
    10  O    2.425378   2.863568   2.591511   4.189156   0.000000
    11  H    3.260996   4.476170   5.590563   4.600975   5.168963
    12  H    3.810227   5.285038   6.049289   5.973457   4.501969
    13  H    3.396334   4.628949   4.888916   5.754634   2.580839
    14  H    3.186675   1.857817   2.258411   0.970706   4.626314
    15  H    2.420400   2.304788   1.709777   3.618296   0.988757
                   11         12         13         14         15
    11  H    0.000000
    12  H    2.505127   0.000000
    13  H    4.321399   2.515733   0.000000
    14  H    5.570697   6.892512   6.478541   0.000000
    15  H    5.535799   5.255787   3.539407   3.891304   0.000000
 Stoichiometry    C6H5NO3
 Framework group  C1[X(C6H5NO3)]
 Deg. of freedom    39
 Full point group                 C1      NOp   1
 Largest Abelian subgroup         C1      NOp   1
 Largest concise Abelian subgroup C1      NOp   1
                         Standard orientation:                         
 ---------------------------------------------------------------------
 Center     Atomic      Atomic             Coordinates (Angstroms)
 Number     Number       Type             X           Y           Z
 ---------------------------------------------------------------------
      1          7           0       -0.443132   -1.449437    0.000028
      2          6           0       -1.766278   -1.476489    0.000035
      3          6           0       -2.551429   -0.310702    0.000021
      4          6           0       -1.929646    0.923389    0.000002
      5          6           0       -0.526538    0.973743   -0.000002
      6          6           0        0.172942   -0.256936    0.000010
      7          6           0        1.647524   -0.226491   -0.000008
      8          8           0        2.292053    0.825120   -0.000065
      9          8           0        2.248751   -1.414390    0.000002
     10          8           0        0.074676    2.166451   -0.000011
     11          1           0       -2.232005   -2.459282    0.000050
     12          1           0       -3.635166   -0.383999    0.000026
     13          1           0       -2.487249    1.854572   -0.000006
     14          1           0        3.203854   -1.241045   -0.000027
     15          1           0        1.049199    1.999280    0.000006
 ---------------------------------------------------------------------
 Rotational constants (GHZ):      2.3726204      1.2629476      0.8242165
 Standard basis: 6-31+G(d,p) (6D, 7F)
 There are   215 symmetry adapted cartesian basis functions of A   symmetry.
 There are   215 symmetry adapted basis functions of A   symmetry.
   215 basis functions,   355 primitive gaussians,   215 cartesian basis functions
    36 alpha electrons       36 beta electrons
       nuclear repulsion energy       507.9639111222 Hartrees.
 NAtoms=   15 NActive=   15 NUniq=   15 SFac= 1.00D+00 NAtFMM=   60 NAOKFM=F Big=F
 Integral buffers will be    131072 words long.
 Raffenetti 2 integral format.
 Two-electron integral symmetry is turned on.
 Nuclear repulsion after empirical dispersion term =      507.9540079334 Hartrees.
 One-electron integrals computed using PRISM.
 NBasis=   215 RedAO= T EigKep=  5.81D-06  NBF=   215
 NBsUse=   215 1.00D-06 EigRej= -1.00D+00 NBFU=   215
 ExpMin= 4.38D-02 ExpMax= 5.48D+03 ExpMxC= 8.25D+02 IAcc=2 IRadAn=         4 AccDes= 0.00D+00
 Harris functional with IExCor=  402 and IRadAn=       4 diagonalized for initial guess.
 HarFok:  IExCor=  402 AccDes= 0.00D+00 IRadAn=         4 IDoV= 1 UseB2=F ITyADJ=14
 ICtDFT=  3500011 ScaDFX=  1.000000  1.000000  1.000000  1.000000
 FoFCou: FMM=F IPFlag=           0 FMFlag=      100000 FMFlg1=           0
         NFxFlg=           0 DoJE=T BraDBF=F KetDBF=T FulRan=T
         wScrn=  0.000000 ICntrl=     500 IOpCl=  0 I1Cent=   200000004 NGrid=           0
         NMat0=    1 NMatS0=      1 NMatT0=    0 NMatD0=    1 NMtDS0=    0 NMtDT0=    0
 Petite list used in FoFCou.
 Keep R1 ints in memory in canonical form, NReq=274797245.
 Requested convergence on RMS density matrix=1.00D-08 within 128 cycles.
 Requested convergence on MAX density matrix=1.00D-06.
 Requested convergence on             energy=1.00D-06.
 No special actions if energy rises.
 SCF Done:  E(RB3LYP) =  -512.131999356     A.U. after   14 cycles
            NFock= 14  Conv=0.89D-08     -V/T= 2.0090

 **********************************************************************

            Population analysis using the SCF density.

 **********************************************************************

 Orbital symmetries:
       Occupied  (A) (A) (A) (A) (A) (A) (A) (A) (A) (A) (A) (A)
                 (A) (A) (A) (A) (A) (A) (A) (A) (A) (A) (A) (A)
                 (A) (A) (A) (A) (A) (A) (A) (A) (A) (A) (A) (A)
       Virtual   (A) (A) (A) (A) (A) (A) (A) (A) (A) (A) (A) (A)
                 (A) (A) (A) (A) (A) (A) (A) (A) (A) (A) (A) (A)
                 (A) (A) (A) (A) (A) (A) (A) (A) (A) (A) (A) (A)
                 (A) (A) (A) (A) (A) (A) (A) (A) (A) (A) (A) (A)
                 (A) (A) (A) (A) (A) (A) (A) (A) (A) (A) (A) (A)
                 (A) (A) (A) (A) (A) (A) (A) (A) (A) (A) (A) (A)
                 (A) (A) (A) (A) (A) (A) (A) (A) (A) (A) (A) (A)
                 (A) (A) (A) (A) (A) (A) (A) (A) (A) (A) (A) (A)
                 (A) (A) (A) (A) (A) (A) (A) (A) (A) (A) (A) (A)
                 (A) (A) (A) (A) (A) (A) (A) (A) (A) (A) (A) (A)
                 (A) (A) (A) (A) (A) (A) (A) (A) (A) (A) (A) (A)
                 (A) (A) (A) (A) (A) (A) (A) (A) (A) (A) (A) (A)
                 (A) (A) (A) (A) (A) (A) (A) (A) (A) (A) (A) (A)
                 (A) (A) (A) (A) (A) (A) (A) (A) (A) (A) (A) (A)
                 (A) (A) (A) (A) (A) (A) (A) (A) (A) (A) (A)
 The electronic state is 1-A.
 Alpha  occ. eigenvalues --  -19.22654 -19.19794 -19.17735 -14.35987 -10.35285
 Alpha  occ. eigenvalues --  -10.28870 -10.25324 -10.23908 -10.22796 -10.22498
 Alpha  occ. eigenvalues --   -1.14244  -1.09040  -1.04461  -0.96868  -0.82556
 Alpha  occ. eigenvalues --   -0.79381  -0.70381  -0.65258  -0.64131  -0.56819
 Alpha  occ. eigenvalues --   -0.55755  -0.52308  -0.50570  -0.48612  -0.48568
 Alpha  occ. eigenvalues --   -0.43711  -0.43655  -0.42550  -0.41149  -0.40491
 Alpha  occ. eigenvalues --   -0.38617  -0.34982  -0.31988  -0.30571  -0.27654
 Alpha  occ. eigenvalues --   -0.25815
 Alpha virt. eigenvalues --   -0.08116  -0.03202  -0.00636   0.00364   0.02238
 Alpha virt. eigenvalues --    0.02357   0.02911   0.04589   0.04924   0.05297
 Alpha virt. eigenvalues --    0.07453   0.07749   0.08355   0.08954   0.10028
 Alpha virt. eigenvalues --    0.11394   0.12289   0.13365   0.13399   0.13741
 Alpha virt. eigenvalues --    0.14557   0.15620   0.16561   0.16688   0.16997
 Alpha virt. eigenvalues --    0.17823   0.18925   0.19780   0.20948   0.21447
 Alpha virt. eigenvalues --    0.22298   0.22741   0.23468   0.24312   0.24641
 Alpha virt. eigenvalues --    0.25263   0.25717   0.26820   0.27364   0.27988
 Alpha virt. eigenvalues --    0.28636   0.28925   0.29098   0.30431   0.31662
 Alpha virt. eigenvalues --    0.31893   0.33248   0.33965   0.34642   0.35774
 Alpha virt. eigenvalues --    0.37442   0.38427   0.39609   0.41801   0.43766
 Alpha virt. eigenvalues --    0.45836   0.50266   0.58219   0.61128   0.64513
 Alpha virt. eigenvalues --    0.64645   0.67755   0.70106   0.70954   0.71300
 Alpha virt. eigenvalues --    0.71390   0.73555   0.74908   0.79420   0.81615
 Alpha virt. eigenvalues --    0.84966   0.87536   0.88396   0.92821   0.94726
 Alpha virt. eigenvalues --    0.96658   1.00738   1.01840   1.04024   1.07268
 Alpha virt. eigenvalues --    1.08173   1.09730   1.11192   1.13127   1.13538
 Alpha virt. eigenvalues --    1.16829   1.18771   1.18793   1.20597   1.20931
 Alpha virt. eigenvalues --    1.23462   1.23582   1.27619   1.29019   1.29555
 Alpha virt. eigenvalues --    1.30834   1.31629   1.32591   1.36280   1.37486
 Alpha virt. eigenvalues --    1.37881   1.40150   1.40303   1.42398   1.45366
 Alpha virt. eigenvalues --    1.47331   1.55902   1.56100   1.57842   1.61956
 Alpha virt. eigenvalues --    1.64630   1.73608   1.74318   1.75828   1.78045
 Alpha virt. eigenvalues --    1.81854   1.82269   1.85580   1.87099   1.88785
 Alpha virt. eigenvalues --    1.90267   1.94165   1.97345   1.97739   1.98863
 Alpha virt. eigenvalues --    2.02003   2.04520   2.08371   2.13911   2.18127
 Alpha virt. eigenvalues --    2.26445   2.26452   2.28435   2.33348   2.33981
 Alpha virt. eigenvalues --    2.34554   2.37205   2.40859   2.43851   2.47958
 Alpha virt. eigenvalues --    2.48242   2.49347   2.52201   2.53211   2.53249
 Alpha virt. eigenvalues --    2.57086   2.60786   2.63584   2.65709   2.66350
 Alpha virt. eigenvalues --    2.70659   2.73508   2.75277   2.77228   2.83717
 Alpha virt. eigenvalues --    2.88310   2.94369   3.03651   3.06969   3.09210
 Alpha virt. eigenvalues --    3.18277   3.18961   3.25558   3.31639   3.37715
 Alpha virt. eigenvalues --    3.40951   3.52063   3.58667   3.80653   4.15820
 Alpha virt. eigenvalues --    4.25990   4.31255   4.33291   4.36519   4.47067
 Alpha virt. eigenvalues --    4.57599   4.69697   4.82952   4.85459
          Condensed to atoms (all electrons):
               1          2          3          4          5          6
     1  N    7.019346  -0.184629   0.274578  -0.150105   0.197342   0.316039
     2  C   -0.184629   6.442400  -0.503309   0.355367  -0.462092  -0.133736
     3  C    0.274578  -0.503309   6.026550  -0.909854   1.697677  -0.750943
     4  C   -0.150105   0.355367  -0.909854  10.304004  -4.808950   1.327851
     5  C    0.197342  -0.462092   1.697677  -4.808950  13.999229  -4.541781
     6  C    0.316039  -0.133736  -0.750943   1.327851  -4.541781  10.186383
     7  C   -0.224670   0.230533  -0.164609   0.001283  -0.688757  -0.037053
     8  O    0.015989  -0.017129   0.016076   0.001097   0.097404  -0.252216
     9  O    0.043849  -0.030716   0.017781  -0.002197   0.157270  -0.287367
    10  O    0.004893  -0.023950   0.027372  -0.535835   0.267574   0.228856
    11  H   -0.108838   0.476035  -0.137612   0.041970  -0.043845   0.036362
    12  H    0.004182   0.038123   0.269073   0.026973  -0.011303  -0.009396
    13  H    0.001820  -0.020478   0.033532   0.191349   0.122629  -0.010963
    14  H    0.003293   0.004905  -0.002412   0.008310  -0.031019   0.028854
    15  H    0.000250   0.004852  -0.009789   0.150131  -0.016006  -0.113491
               7          8          9         10         11         12
     1  N   -0.224670   0.015989   0.043849   0.004893  -0.108838   0.004182
     2  C    0.230533  -0.017129  -0.030716  -0.023950   0.476035   0.038123
     3  C   -0.164609   0.016076   0.017781   0.027372  -0.137612   0.269073
     4  C    0.001283   0.001097  -0.002197  -0.535835   0.041970   0.026973
     5  C   -0.688757   0.097404   0.157270   0.267574  -0.043845  -0.011303
     6  C   -0.037053  -0.252216  -0.287367   0.228856   0.036362  -0.009396
     7  C    5.765372   0.373863   0.217008  -0.046511   0.015338  -0.000802
     8  O    0.373863   8.478357  -0.163738  -0.038065   0.000008   0.000003
     9  O    0.217008  -0.163738   8.297512  -0.004002  -0.000435  -0.000009
    10  O   -0.046511  -0.038065  -0.004002   8.512257   0.000183  -0.000673
    11  H    0.015338   0.000008  -0.000435   0.000183   0.592971  -0.002300
    12  H   -0.000802   0.000003  -0.000009  -0.000673  -0.002300   0.551576
    13  H    0.000669   0.000085   0.000021  -0.008055  -0.000128  -0.005035
    14  H    0.029985   0.001703   0.176923   0.000181  -0.000001   0.000000
    15  H   -0.000028   0.054041   0.003678   0.173796  -0.000000   0.000003
              13         14         15
     1  N    0.001820   0.003293   0.000250
     2  C   -0.020478   0.004905   0.004852
     3  C    0.033532  -0.002412  -0.009789
     4  C    0.191349   0.008310   0.150131
     5  C    0.122629  -0.031019  -0.016006
     6  C   -0.010963   0.028854  -0.113491
     7  C    0.000669   0.029985  -0.000028
     8  O    0.000085   0.001703   0.054041
     9  O    0.000021   0.176923   0.003678
    10  O   -0.008055   0.000181   0.173796
    11  H   -0.000128  -0.000001  -0.000000
    12  H   -0.005035   0.000000   0.000003
    13  H    0.543791  -0.000000   0.000041
    14  H   -0.000000   0.394941   0.000017
    15  H    0.000041   0.000017   0.336936
 Mulliken charges:
               1
     1  N   -0.213340
     2  C   -0.176173
     3  C    0.115889
     4  C   -0.001394
     5  C    0.064629
     6  C    0.012599
     7  C    0.528377
     8  O   -0.567478
     9  O   -0.425576
    10  O   -0.558020
    11  H    0.130293
    12  H    0.139586
    13  H    0.150722
    14  H    0.384319
    15  H    0.415568
 Sum of Mulliken charges =  -0.00000
 Mulliken charges with hydrogens summed into heavy atoms:
               1
     1  N   -0.213340
     2  C   -0.045880
     3  C    0.255475
     4  C    0.149327
     5  C    0.064629
     6  C    0.012599
     7  C    0.528377
     8  O   -0.567478
     9  O   -0.041257
    10  O   -0.142451
 Electronic spatial extent (au):  <R**2>=           1308.3478
 Charge=             -0.0000 electrons
 Dipole moment (field-independent basis, Debye):
    X=             -1.2580    Y=             -0.4442    Z=              0.0001  Tot=              1.3341
 Quadrupole moment (field-independent basis, Debye-Ang):
   XX=            -44.0392   YY=            -63.0274   ZZ=            -58.3164
   XY=             -2.4154   XZ=              0.0001   YZ=              0.0003
 Traceless Quadrupole moment (field-independent basis, Debye-Ang):
   XX=             11.0885   YY=             -7.8997   ZZ=             -3.1888
   XY=             -2.4154   XZ=              0.0001   YZ=              0.0003
 Octapole moment (field-independent basis, Debye-Ang**2):
  XXX=             17.9633  YYY=              2.5254  ZZZ=             -0.0004  XYY=             -0.8025
  XXY=            -17.9751  XXZ=              0.0003  XZZ=             10.5420  YZZ=              1.7368
  YYZ=              0.0000  XYZ=              0.0008
 Hexadecapole moment (field-independent basis, Debye-Ang**3):
 XXXX=           -867.4652 YYYY=           -599.9391 ZZZZ=            -60.6949 XXXY=            -75.0985
 XXXZ=              0.0044 YYYX=             16.1459 YYYZ=              0.0036 ZZZX=              0.0054
 ZZZY=              0.0034 XXYY=           -236.9208 XXZZ=           -195.7167 YYZZ=           -109.9456
 XXYZ=              0.0022 YYXZ=              0.0014 ZZXY=             -2.5840
 N-N= 5.079540079334D+02 E-N=-2.211662752548D+03  KE= 5.075637483447D+02
 Calling FoFJK, ICntrl=      2127 FMM=F ISym2X=0 I1Cent= 0 IOpClX= 0 NMat=1 NMatS=1 NMatT=0.
 ***** Axes restored to original set *****
 -------------------------------------------------------------------
 Center     Atomic                   Forces (Hartrees/Bohr)
 Number     Number              X              Y              Z
 -------------------------------------------------------------------
      1        7           0.000959879   -0.002825669    0.000000460
      2        6          -0.002089858   -0.003152076   -0.000000267
      3        6          -0.002724020    0.000203507   -0.000000030
      4        6          -0.001360233    0.002366954    0.000000035
      5        6          -0.002611772   -0.002341414    0.000000684
      6        6           0.001528749    0.000729276    0.000000705
      7        6          -0.002970178   -0.000012538   -0.000004186
      8        8           0.003322009    0.003398007    0.000002506
      9        8           0.001310733   -0.003887254    0.000001198
     10        8           0.001481965    0.004310478    0.000000795
     11        1          -0.000017807    0.000305693    0.000000020
     12        1           0.000230918   -0.000068423    0.000000011
     13        1           0.000310870   -0.000163377   -0.000000072
     14        1           0.002094400   -0.000677160   -0.000000066
     15        1           0.000534345    0.001813997   -0.000001794
 -------------------------------------------------------------------
 Cartesian Forces:  Max     0.004310478 RMS     0.001706208

 GradGradGradGradGradGradGradGradGradGradGradGradGradGradGradGradGradGrad
 Berny optimization.
 FormGI is forming the generalized inverse of G from B-inverse, IUseBI=4.
 Internal  Forces:  Max     0.006376635 RMS     0.001938198
 Search for a local minimum.
 Step number   1 out of a maximum of   74
 All quantities printed in internal units (Hartrees-Bohrs-Radians)
 Mixed Optimization -- RFO/linear search
 Second derivative matrix not updated -- first step.
 ITU=  0
     Eigenvalues ---    0.01098   0.01591   0.01741   0.01974   0.02095
     Eigenvalues ---    0.02130   0.02170   0.02199   0.02264   0.02472
     Eigenvalues ---    0.02543   0.02599   0.16000   0.16000   0.16000
     Eigenvalues ---    0.16000   0.16000   0.22081   0.23319   0.24912
     Eigenvalues ---    0.25000   0.25000   0.25000   0.25000   0.35096
     Eigenvalues ---    0.35161   0.35254   0.35354   0.40644   0.43532
     Eigenvalues ---    0.44176   0.47447   0.49721   0.53233   0.55194
     Eigenvalues ---    0.58187   0.59180   0.59430   0.89680
 RFO step:  Lambda=-6.06533929D-04 EMin= 1.09802181D-02
 Linear search not attempted -- first point.
 Iteration  1 RMS(Cart)=  0.02153384 RMS(Int)=  0.00019109
 Iteration  2 RMS(Cart)=  0.00027058 RMS(Int)=  0.00000142
 Iteration  3 RMS(Cart)=  0.00000005 RMS(Int)=  0.00000142
 Variable       Old X    -DE/DX   Delta X   Delta X   Delta X     New X
                                 (Linear)    (Quad)   (Total)
    R1        2.50091   0.00316   0.00000   0.00527   0.00527   2.50617
    R2        2.53646   0.00422   0.00000   0.00768   0.00769   2.54415
    R3        2.65607   0.00228   0.00000   0.00492   0.00492   2.66099
    R4        2.05519  -0.00027   0.00000  -0.00076  -0.00076   2.05442
    R5        2.61138   0.00237   0.00000   0.00455   0.00455   2.61593
    R6        2.05264  -0.00023   0.00000  -0.00064  -0.00064   2.05201
    R7        2.65320   0.00250   0.00000   0.00540   0.00540   2.65860
    R8        2.05105  -0.00030   0.00000  -0.00085  -0.00085   2.05020
    R9        2.67504   0.00507   0.00000   0.01194   0.01194   2.68699
   R10        2.52405   0.00638   0.00000   0.01095   0.01095   2.53500
   R11        2.78715   0.00373   0.00000   0.01059   0.01059   2.79774
   R12        2.33081   0.00463   0.00000   0.00516   0.00516   2.33597
   R13        2.51595   0.00561   0.00000   0.00947   0.00947   2.52542
   R14        1.83437   0.00194   0.00000   0.00364   0.00364   1.83801
   R15        1.86848   0.00022   0.00000   0.00044   0.00044   1.86892
    A1        2.06810   0.00105   0.00000   0.00536   0.00536   2.07346
    A2        2.14307  -0.00041   0.00000  -0.00198  -0.00198   2.14108
    A3        2.03377   0.00036   0.00000   0.00194   0.00194   2.03571
    A4        2.10634   0.00005   0.00000   0.00004   0.00005   2.10639
    A5        2.08216   0.00015   0.00000  -0.00046  -0.00046   2.08170
    A6        2.09598  -0.00016   0.00000  -0.00030  -0.00030   2.09568
    A7        2.10504   0.00001   0.00000   0.00076   0.00076   2.10580
    A8        2.07338   0.00098   0.00000   0.00338   0.00338   2.07676
    A9        2.13533  -0.00030   0.00000  -0.00052  -0.00052   2.13482
   A10        2.07447  -0.00068   0.00000  -0.00286  -0.00286   2.07161
   A11        2.05176  -0.00019   0.00000  -0.00081  -0.00080   2.05096
   A12        2.07357  -0.00286   0.00000  -0.01141  -0.01141   2.06216
   A13        2.15785   0.00306   0.00000   0.01221   0.01221   2.17007
   A14        2.14790  -0.00158   0.00000  -0.00549  -0.00548   2.14241
   A15        2.06830  -0.00193   0.00000  -0.00809  -0.00809   2.06020
   A16        2.06699   0.00350   0.00000   0.01358   0.01358   2.08057
   A17        2.14129   0.00146   0.00000   0.00583   0.00583   2.14712
   A18        2.01869  -0.00046   0.00000  -0.00183  -0.00183   2.01686
   A19        2.12321  -0.00100   0.00000  -0.00400  -0.00400   2.11921
   A20        1.85979   0.00191   0.00000   0.01189   0.01189   1.87169
   A21        1.86781   0.00351   0.00000   0.02185   0.02185   1.88966
    D1        0.00000  -0.00000   0.00000  -0.00001  -0.00001  -0.00001
    D2       -3.14159  -0.00000   0.00000  -0.00000  -0.00000   3.14159
    D3       -0.00000  -0.00000   0.00000  -0.00000  -0.00000  -0.00000
    D4       -3.14158  -0.00000   0.00000  -0.00003  -0.00003   3.14157
    D5       -0.00000   0.00000   0.00000   0.00001   0.00001   0.00001
    D6        3.14159   0.00000   0.00000   0.00000   0.00000  -3.14159
    D7       -3.14159   0.00000   0.00000   0.00000   0.00000  -3.14159
    D8        0.00000  -0.00000   0.00000  -0.00000  -0.00000  -0.00000
    D9       -0.00000   0.00000   0.00000   0.00000   0.00000   0.00000
   D10       -3.14159  -0.00000   0.00000  -0.00001  -0.00001   3.14158
   D11        3.14159   0.00000   0.00000   0.00001   0.00001  -3.14159
   D12        0.00000  -0.00000   0.00000  -0.00001  -0.00001  -0.00000
   D13        0.00000  -0.00000   0.00000  -0.00001  -0.00001  -0.00001
   D14       -3.14158  -0.00000   0.00000  -0.00003  -0.00003   3.14157
   D15        3.14159   0.00000   0.00000   0.00000   0.00000  -3.14159
   D16        0.00000  -0.00000   0.00000  -0.00002  -0.00002  -0.00001
   D17       -0.00000   0.00000   0.00000   0.00001   0.00001   0.00001
   D18        3.14158   0.00000   0.00000   0.00004   0.00004  -3.14157
   D19        3.14158   0.00000   0.00000   0.00003   0.00003  -3.14157
   D20       -0.00002   0.00000   0.00000   0.00006   0.00006   0.00004
   D21        3.14157   0.00000   0.00000   0.00007   0.00007  -3.14154
   D22       -0.00001   0.00000   0.00000   0.00005   0.00005   0.00004
   D23        3.14155   0.00000   0.00000   0.00015   0.00015  -3.14148
   D24       -0.00001  -0.00000   0.00000  -0.00001  -0.00001  -0.00001
   D25       -0.00003   0.00000   0.00000   0.00013   0.00013   0.00010
   D26       -3.14159  -0.00000   0.00000  -0.00003  -0.00003   3.14156
   D27        3.14158   0.00000   0.00000   0.00008   0.00008  -3.14153
   D28        0.00002  -0.00000   0.00000  -0.00008  -0.00008  -0.00006
         Item               Value     Threshold  Converged?
 Maximum Force            0.006377     0.000450     NO 
 RMS     Force            0.001938     0.000300     NO 
 Maximum Displacement     0.115075     0.001800     NO 
 RMS     Displacement     0.021693     0.001200     NO 
 Predicted change in Energy=-3.038554D-04
 GradGradGradGradGradGradGradGradGradGradGradGradGradGradGradGradGradGrad

                          Input orientation:                          
 ---------------------------------------------------------------------
 Center     Atomic      Atomic             Coordinates (Angstroms)
 Number     Number       Type             X           Y           Z
 ---------------------------------------------------------------------
      1          7           0       -0.440129   -1.446922   -0.000016
      2          6           0       -1.765925   -1.480098    0.000015
      3          6           0       -2.555555   -0.314194    0.000043
      4          6           0       -1.935322    0.923370    0.000032
      5          6           0       -0.529658    0.981566   -0.000009
      6          6           0        0.178748   -0.251291   -0.000027
      7          6           0        1.659148   -0.233868   -0.000036
      8          8           0        2.320535    0.810458    0.000071
      9          8           0        2.249839   -1.432632   -0.000015
     10          8           0        0.053818    2.189488   -0.000046
     11          1           0       -2.228885   -2.463750    0.000022
     12          1           0       -3.638738   -0.390599    0.000070
     13          1           0       -2.495155    1.852692    0.000045
     14          1           0        3.210517   -1.280612    0.000034
     15          1           0        1.034320    2.060175   -0.000121
 ---------------------------------------------------------------------
                    Distance matrix (angstroms):
                    1          2          3          4          5
     1  N    0.000000
     2  C    1.326211   0.000000
     3  C    2.399603   1.408136   0.000000
     4  C    2.802478   2.409430   1.384288   0.000000
     5  C    2.430137   2.754658   2.404839   1.406868   0.000000
     6  C    1.346307   2.300374   2.735026   2.418495   1.421891
     7  C    2.424554   3.644751   4.215468   3.776164   2.503628
     8  O    3.566094   4.684634   5.004107   4.257354   2.855324
     9  O    2.690006   4.016044   4.933833   4.802740   3.681570
    10  O    3.669803   4.096013   3.616248   2.357909   1.341462
    11  H    2.057569   1.087154   2.174236   3.399818   3.841559
    12  H    3.368518   2.166665   1.085875   2.151311   3.398413
    13  H    3.887233   3.411636   2.167727   1.084920   2.149892
    14  H    3.654432   4.980438   5.846498   5.597963   4.371082
    15  H    3.804435   4.513857   4.304048   3.179796   1.899849
                    6          7          8          9         10
     6  C    0.000000
     7  C    1.480502   0.000000
     8  O    2.390514   1.236143   0.000000
     9  O    2.384320   1.336394   2.244204   0.000000
    10  O    2.443973   2.906843   2.653248   4.235830   0.000000
    11  H    3.269813   4.482095   5.605146   4.595886   5.182987
    12  H    3.820027   5.300203   6.079101   5.980064   4.504644
    13  H    3.402425   4.648867   4.927182   5.771336   2.571128
    14  H    3.201738   1.871475   2.272585   0.972632   4.691091
    15  H    2.464726   2.377613   1.793360   3.698268   0.988992
                   11         12         13         14         15
    11  H    0.000000
    12  H    2.507117   0.000000
    13  H    4.324646   2.517962   0.000000
    14  H    5.566589   6.906838   6.509400   0.000000
    15  H    5.578029   5.276719   3.535568   3.987065   0.000000
 Stoichiometry    C6H5NO3
 Framework group  C1[X(C6H5NO3)]
 Deg. of freedom    39
 Full point group                 C1      NOp   1
 Largest Abelian subgroup         C1      NOp   1
 Largest concise Abelian subgroup C1      NOp   1
                         Standard orientation:                         
 ---------------------------------------------------------------------
 Center     Atomic      Atomic             Coordinates (Angstroms)
 Number     Number       Type             X           Y           Z
 ---------------------------------------------------------------------
      1          7           0       -0.428068   -1.450153   -0.000017
      2          6           0       -1.753497   -1.495683    0.000013
      3          6           0       -2.553958   -0.337188    0.000042
      4          6           0       -1.945286    0.906102    0.000030
      5          6           0       -0.540225    0.977395   -0.000011
      6          6           0        0.179640   -0.248806   -0.000029
      7          6           0        1.659813   -0.217588   -0.000038
      8          8           0        2.311439    0.832856    0.000070
      9          8           0        2.261650   -1.410795   -0.000017
     10          8           0        0.031969    2.190702   -0.000048
     11          1           0       -2.207271   -2.483606    0.000020
     12          1           0       -3.636382   -0.423685    0.000069
     13          1           0       -2.513755    1.830166    0.000044
     14          1           0        3.220869   -1.249829    0.000032
     15          1           0        1.013633    2.070532   -0.000122
 ---------------------------------------------------------------------
 Rotational constants (GHZ):      2.3435939      1.2529212      0.8164399
 Standard basis: 6-31+G(d,p) (6D, 7F)
 There are   215 symmetry adapted cartesian basis functions of A   symmetry.
 There are   215 symmetry adapted basis functions of A   symmetry.
   215 basis functions,   355 primitive gaussians,   215 cartesian basis functions
    36 alpha electrons       36 beta electrons
       nuclear repulsion energy       505.7647823253 Hartrees.
 NAtoms=   15 NActive=   15 NUniq=   15 SFac= 1.00D+00 NAtFMM=   60 NAOKFM=F Big=F
 Integral buffers will be    131072 words long.
 Raffenetti 2 integral format.
 Two-electron integral symmetry is turned on.
 Nuclear repulsion after empirical dispersion term =      505.7547761735 Hartrees.
 One-electron integrals computed using PRISM.
 NBasis=   215 RedAO= T EigKep=  5.89D-06  NBF=   215
 NBsUse=   215 1.00D-06 EigRej= -1.00D+00 NBFU=   215
 Initial guess from the checkpoint file:  "b3lypD33HPA.chk"
 B after Tr=     0.000000    0.000000    0.000000
         Rot=    0.999991   -0.000005    0.000003   -0.004255 Ang=  -0.49 deg.
 ExpMin= 4.38D-02 ExpMax= 5.48D+03 ExpMxC= 8.25D+02 IAcc=2 IRadAn=         4 AccDes= 0.00D+00
 Harris functional with IExCor=  402 and IRadAn=       4 diagonalized for initial guess.
 HarFok:  IExCor=  402 AccDes= 0.00D+00 IRadAn=         4 IDoV= 1 UseB2=F ITyADJ=14
 ICtDFT=  3500011 ScaDFX=  1.000000  1.000000  1.000000  1.000000
 FoFCou: FMM=F IPFlag=           0 FMFlag=      100000 FMFlg1=           0
         NFxFlg=           0 DoJE=T BraDBF=F KetDBF=T FulRan=T
         wScrn=  0.000000 ICntrl=     500 IOpCl=  0 I1Cent=   200000004 NGrid=           0
         NMat0=    1 NMatS0=      1 NMatT0=    0 NMatD0=    1 NMtDS0=    0 NMtDT0=    0
 Petite list used in FoFCou.
 Keep R1 ints in memory in canonical form, NReq=274797245.
 Requested convergence on RMS density matrix=1.00D-08 within 128 cycles.
 Requested convergence on MAX density matrix=1.00D-06.
 Requested convergence on             energy=1.00D-06.
 No special actions if energy rises.
 SCF Done:  E(RB3LYP) =  -512.132109297     A.U. after   12 cycles
            NFock= 12  Conv=0.39D-08     -V/T= 2.0093
 Calling FoFJK, ICntrl=      2127 FMM=F ISym2X=0 I1Cent= 0 IOpClX= 0 NMat=1 NMatS=1 NMatT=0.
 ***** Axes restored to original set *****
 -------------------------------------------------------------------
 Center     Atomic                   Forces (Hartrees/Bohr)
 Number     Number              X              Y              Z
 -------------------------------------------------------------------
      1        7           0.000087641    0.000013546   -0.000001231
      2        6          -0.000193446    0.000565566    0.000000935
      3        6           0.000040220   -0.000210397    0.000000026
      4        6           0.000832271    0.000304535    0.000000184
      5        6          -0.000087503   -0.004014519   -0.000002177
      6        6          -0.000749594    0.001023600   -0.000003461
      7        6           0.001908689    0.003682695    0.000017170
      8        8          -0.002994850   -0.000216919   -0.000009139
      9        8          -0.000283797   -0.001990238   -0.000004874
     10        8           0.004911962    0.000792554   -0.000002015
     11        1           0.000172250    0.000058757   -0.000000054
     12        1           0.000025114    0.000066613   -0.000000002
     13        1           0.000111679    0.000055292    0.000000069
     14        1          -0.000540242    0.000594140    0.000000033
     15        1          -0.003240395   -0.000725223    0.000004535
 -------------------------------------------------------------------
 Cartesian Forces:  Max     0.004911962 RMS     0.001379806

 GradGradGradGradGradGradGradGradGradGradGradGradGradGradGradGradGradGrad
 Berny optimization.
 Using GEDIIS/GDIIS optimizer.
 FormGI is forming the generalized inverse of G from B-inverse, IUseBI=4.
 Internal  Forces:  Max     0.005278052 RMS     0.001446620
 Search for a local minimum.
 Step number   2 out of a maximum of   74
 All quantities printed in internal units (Hartrees-Bohrs-Radians)
 Mixed Optimization -- RFO/linear search
 Update second derivatives using D2CorX and points    1    2
 DE= -1.10D-04 DEPred=-3.04D-04 R= 3.62D-01
 Trust test= 3.62D-01 RLast= 4.42D-02 DXMaxT set to 3.00D-01
 ITU=  0  0
 Use linear search instead of GDIIS.
     Eigenvalues ---    0.01098   0.01587   0.01738   0.01974   0.02095
     Eigenvalues ---    0.02130   0.02170   0.02199   0.02265   0.02472
     Eigenvalues ---    0.02543   0.02599   0.15920   0.16000   0.16000
     Eigenvalues ---    0.16000   0.16179   0.22084   0.23398   0.24424
     Eigenvalues ---    0.24940   0.25000   0.25000   0.31679   0.35078
     Eigenvalues ---    0.35249   0.35347   0.36369   0.41854   0.43526
     Eigenvalues ---    0.47092   0.47421   0.49636   0.53394   0.56100
     Eigenvalues ---    0.58757   0.59354   0.63722   0.91836
 RFO step:  Lambda=-9.56408996D-05 EMin= 1.09802257D-02
 Quartic linear search produced a step of -0.39162.
 Iteration  1 RMS(Cart)=  0.01231876 RMS(Int)=  0.00005087
 Iteration  2 RMS(Cart)=  0.00006063 RMS(Int)=  0.00000041
 Iteration  3 RMS(Cart)=  0.00000000 RMS(Int)=  0.00000041
 Variable       Old X    -DE/DX   Delta X   Delta X   Delta X     New X
                                 (Linear)    (Quad)   (Total)
    R1        2.50617   0.00031  -0.00206   0.00323   0.00116   2.50734
    R2        2.54415  -0.00052  -0.00301   0.00347   0.00046   2.54461
    R3        2.66099   0.00023  -0.00193   0.00317   0.00125   2.66224
    R4        2.05442  -0.00013   0.00030  -0.00062  -0.00032   2.05410
    R5        2.61593   0.00002  -0.00178   0.00258   0.00080   2.61673
    R6        2.05201  -0.00003   0.00025  -0.00039  -0.00014   2.05187
    R7        2.65860  -0.00132  -0.00211   0.00099  -0.00113   2.65747
    R8        2.05020  -0.00001   0.00033  -0.00047  -0.00013   2.05007
    R9        2.68699  -0.00474  -0.00468  -0.00057  -0.00524   2.68174
   R10        2.53500   0.00079  -0.00429   0.00671   0.00242   2.53742
   R11        2.79774  -0.00189  -0.00415   0.00234  -0.00181   2.79594
   R12        2.33597  -0.00179  -0.00202   0.00159  -0.00043   2.33554
   R13        2.52542   0.00089  -0.00371   0.00601   0.00230   2.52772
   R14        1.83801  -0.00044  -0.00143   0.00145   0.00002   1.83803
   R15        1.86892  -0.00312  -0.00017  -0.00358  -0.00375   1.86517
    A1        2.07346  -0.00142  -0.00210  -0.00068  -0.00278   2.07067
    A2        2.14108   0.00013   0.00078   0.00004   0.00082   2.14190
    A3        2.03571  -0.00020  -0.00076  -0.00006  -0.00082   2.03489
    A4        2.10639   0.00007  -0.00002   0.00002  -0.00000   2.10639
    A5        2.08170  -0.00030   0.00018  -0.00030  -0.00012   2.08159
    A6        2.09568   0.00022   0.00012   0.00013   0.00025   2.09593
    A7        2.10580   0.00008  -0.00030   0.00017  -0.00013   2.10567
    A8        2.07676  -0.00092  -0.00132  -0.00073  -0.00205   2.07471
    A9        2.13482   0.00059   0.00020   0.00144   0.00164   2.13646
   A10        2.07161   0.00034   0.00112  -0.00070   0.00042   2.07203
   A11        2.05096   0.00128   0.00031   0.00210   0.00241   2.05337
   A12        2.06216   0.00230   0.00447  -0.00004   0.00442   2.06659
   A13        2.17007  -0.00358  -0.00478  -0.00205  -0.00684   2.16323
   A14        2.14241   0.00124   0.00215  -0.00043   0.00172   2.14413
   A15        2.06020   0.00404   0.00317   0.00591   0.00908   2.06929
   A16        2.08057  -0.00528  -0.00532  -0.00548  -0.01080   2.06977
   A17        2.14712  -0.00303  -0.00228  -0.00434  -0.00663   2.14049
   A18        2.01686   0.00042   0.00072   0.00008   0.00079   2.01765
   A19        2.11921   0.00261   0.00157   0.00427   0.00583   2.12504
   A20        1.87169  -0.00124  -0.00466   0.00128  -0.00338   1.86831
   A21        1.88966  -0.00214  -0.00856   0.00286  -0.00570   1.88396
    D1       -0.00001   0.00000   0.00000   0.00001   0.00002   0.00001
    D2        3.14159   0.00000   0.00000   0.00000   0.00000  -3.14159
    D3       -0.00000   0.00000   0.00000  -0.00000  -0.00000  -0.00000
    D4        3.14157   0.00000   0.00001   0.00003   0.00004  -3.14157
    D5        0.00001  -0.00000  -0.00000  -0.00001  -0.00002  -0.00001
    D6       -3.14159  -0.00000  -0.00000  -0.00001  -0.00001   3.14159
    D7       -3.14159  -0.00000  -0.00000  -0.00000  -0.00000   3.14159
    D8       -0.00000   0.00000   0.00000   0.00001   0.00001   0.00000
    D9        0.00000  -0.00000  -0.00000  -0.00000  -0.00000  -0.00000
   D10        3.14158   0.00000   0.00000   0.00002   0.00002  -3.14158
   D11       -3.14159  -0.00000  -0.00000  -0.00001  -0.00001   3.14159
   D12       -0.00000   0.00000   0.00000   0.00001   0.00001   0.00001
   D13       -0.00001   0.00000   0.00000   0.00001   0.00002   0.00001
   D14        3.14157   0.00000   0.00001   0.00005   0.00006  -3.14156
   D15       -3.14159  -0.00000  -0.00000  -0.00000  -0.00000   3.14159
   D16       -0.00001   0.00000   0.00001   0.00003   0.00004   0.00002
   D17        0.00001  -0.00000  -0.00000  -0.00001  -0.00002  -0.00001
   D18       -3.14157  -0.00000  -0.00001  -0.00005  -0.00006   3.14156
   D19       -3.14157  -0.00000  -0.00001  -0.00005  -0.00006   3.14156
   D20        0.00004  -0.00000  -0.00002  -0.00008  -0.00010  -0.00006
   D21       -3.14154  -0.00000  -0.00003  -0.00009  -0.00012   3.14152
   D22        0.00004  -0.00000  -0.00002  -0.00006  -0.00008  -0.00004
   D23       -3.14148  -0.00001  -0.00006  -0.00030  -0.00036   3.14135
   D24       -0.00001   0.00000   0.00000   0.00006   0.00006   0.00005
   D25        0.00010  -0.00001  -0.00005  -0.00026  -0.00031  -0.00022
   D26        3.14156   0.00000   0.00001   0.00009   0.00010  -3.14152
   D27       -3.14153  -0.00000  -0.00003  -0.00017  -0.00020   3.14145
   D28       -0.00006   0.00000   0.00003   0.00017   0.00021   0.00014
         Item               Value     Threshold  Converged?
 Maximum Force            0.005278     0.000450     NO 
 RMS     Force            0.001447     0.000300     NO 
 Maximum Displacement     0.050185     0.001800     NO 
 RMS     Displacement     0.012320     0.001200     NO 
 Predicted change in Energy=-1.171453D-04
 GradGradGradGradGradGradGradGradGradGradGradGradGradGradGradGradGradGrad

                          Input orientation:                          
 ---------------------------------------------------------------------
 Center     Atomic      Atomic             Coordinates (Angstroms)
 Number     Number       Type             X           Y           Z
 ---------------------------------------------------------------------
      1          7           0       -0.444493   -1.453246    0.000081
      2          6           0       -1.771024   -1.481233    0.000056
      3          6           0       -2.557399   -0.312336   -0.000005
      4          6           0       -1.932992    0.923604   -0.000028
      5          6           0       -0.527638    0.974365    0.000011
      6          6           0        0.175862   -0.258104    0.000060
      7          6           0        1.655120   -0.228949    0.000057
      8          8           0        2.301107    0.824705   -0.000213
      9          8           0        2.256803   -1.423594    0.000019
     10          8           0        0.068094    2.177720    0.000029
     11          1           0       -2.236963   -2.463288    0.000075
     12          1           0       -3.640759   -0.385104   -0.000028
     13          1           0       -2.488268    1.855573   -0.000063
     14          1           0        3.215582   -1.259949   -0.000111
     15          1           0        1.044525    2.033618    0.000120
 ---------------------------------------------------------------------
                    Distance matrix (angstroms):
                    1          2          3          4          5
     1  N    0.000000
     2  C    1.326826   0.000000
     3  C    2.401260   1.408796   0.000000
     4  C    2.804469   2.410285   1.384713   0.000000
     5  C    2.429034   2.752448   2.403233   1.406271   0.000000
     6  C    1.346552   2.299219   2.733799   2.417375   1.419117
     7  C    2.430489   3.647833   4.213345   3.768678   2.492468
     8  O    3.567545   4.679701   4.989783   4.235254   2.832701
     9  O    2.701459   4.028240   4.940793   4.802471   3.674687
    10  O    3.666968   4.095154   3.618506   2.361599   1.342743
    11  H    2.057459   1.086983   2.174689   3.400505   3.839173
    12  H    3.370021   2.167350   1.085801   2.151554   3.397010
    13  H    3.889126   3.413021   2.169011   1.084849   2.149558
    14  H    3.665176   4.991514   5.850238   5.592470   4.359341
    15  H    3.791489   4.503498   4.298529   3.177694   1.895709
                    6          7          8          9         10
     6  C    0.000000
     7  C    1.479546   0.000000
     8  O    2.385192   1.235914   0.000000
     9  O    2.385096   1.337610   2.248735   0.000000
    10  O    2.438207   2.882830   2.610938   4.214251   0.000000
    11  H    3.268725   4.487827   5.604014   4.612472   5.181915
    12  H    3.818733   5.298181   6.063778   5.988297   4.508176
    13  H    3.400768   4.638200   4.899061   5.767898   2.576580
    14  H    3.200561   1.870295   2.276410   0.972644   4.660928
    15  H    2.450830   2.343509   1.743695   3.663596   0.987007
                   11         12         13         14         15
    11  H    0.000000
    12  H    2.507886   0.000000
    13  H    4.326166   2.519696   0.000000
    14  H    5.583751   6.911929   6.499260   0.000000
    15  H    5.566896   5.272769   3.537276   3.944753   0.000000
 Stoichiometry    C6H5NO3
 Framework group  C1[X(C6H5NO3)]
 Deg. of freedom    39
 Full point group                 C1      NOp   1
 Largest Abelian subgroup         C1      NOp   1
 Largest concise Abelian subgroup C1      NOp   1
                         Standard orientation:                         
 ---------------------------------------------------------------------
 Center     Atomic      Atomic             Coordinates (Angstroms)
 Number     Number       Type             X           Y           Z
 ---------------------------------------------------------------------
      1          7           0       -0.441529   -1.453535    0.000079
      2          6           0       -1.767987   -1.484765    0.000054
      3          6           0       -2.557217   -0.317793   -0.000007
      4          6           0       -1.935833    0.919669   -0.000030
      5          6           0       -0.530607    0.973864    0.000009
      6          6           0        0.175903   -0.256882    0.000058
      7          6           0        1.655086   -0.224110    0.000055
      8          8           0        2.298495    0.831119   -0.000215
      9          8           0        2.259687   -1.417282    0.000017
     10          8           0        0.062182    2.178672    0.000027
     11          1           0       -2.231525   -2.467956    0.000073
     12          1           0       -3.640396   -0.393209   -0.000030
     13          1           0       -2.493385    1.850278   -0.000065
     14          1           0        3.218063   -1.251293   -0.000113
     15          1           0        1.038962    2.036957    0.000118
 ---------------------------------------------------------------------
 Rotational constants (GHZ):      2.3530236      1.2553259      0.8186046
 Standard basis: 6-31+G(d,p) (6D, 7F)
 There are   215 symmetry adapted cartesian basis functions of A   symmetry.
 There are   215 symmetry adapted basis functions of A   symmetry.
   215 basis functions,   355 primitive gaussians,   215 cartesian basis functions
    36 alpha electrons       36 beta electrons
       nuclear repulsion energy       506.2896285292 Hartrees.
 NAtoms=   15 NActive=   15 NUniq=   15 SFac= 1.00D+00 NAtFMM=   60 NAOKFM=F Big=F
 Integral buffers will be    131072 words long.
 Raffenetti 2 integral format.
 Two-electron integral symmetry is turned on.
 Nuclear repulsion after empirical dispersion term =      506.2796642799 Hartrees.
 One-electron integrals computed using PRISM.
 NBasis=   215 RedAO= T EigKep=  5.89D-06  NBF=   215
 NBsUse=   215 1.00D-06 EigRej= -1.00D+00 NBFU=   215
 Initial guess from the checkpoint file:  "b3lypD33HPA.chk"
 B after Tr=    -0.000000   -0.000000   -0.000000
         Rot=    0.999995    0.000010   -0.000006    0.003023 Ang=   0.35 deg.
 ExpMin= 4.38D-02 ExpMax= 5.48D+03 ExpMxC= 8.25D+02 IAcc=2 IRadAn=         4 AccDes= 0.00D+00
 Harris functional with IExCor=  402 and IRadAn=       4 diagonalized for initial guess.
 HarFok:  IExCor=  402 AccDes= 0.00D+00 IRadAn=         4 IDoV= 1 UseB2=F ITyADJ=14
 ICtDFT=  3500011 ScaDFX=  1.000000  1.000000  1.000000  1.000000
 FoFCou: FMM=F IPFlag=           0 FMFlag=      100000 FMFlg1=           0
         NFxFlg=           0 DoJE=T BraDBF=F KetDBF=T FulRan=T
         wScrn=  0.000000 ICntrl=     500 IOpCl=  0 I1Cent=   200000004 NGrid=           0
         NMat0=    1 NMatS0=      1 NMatT0=    0 NMatD0=    1 NMtDS0=    0 NMtDT0=    0
 Petite list used in FoFCou.
 Keep R1 ints in memory in canonical form, NReq=274797245.
 Requested convergence on RMS density matrix=1.00D-08 within 128 cycles.
 Requested convergence on MAX density matrix=1.00D-06.
 Requested convergence on             energy=1.00D-06.
 No special actions if energy rises.
 SCF Done:  E(RB3LYP) =  -512.132208442     A.U. after   12 cycles
            NFock= 12  Conv=0.40D-08     -V/T= 2.0092
 Calling FoFJK, ICntrl=      2127 FMM=F ISym2X=0 I1Cent= 0 IOpClX= 0 NMat=1 NMatS=1 NMatT=0.
 ***** Axes restored to original set *****
 -------------------------------------------------------------------
 Center     Atomic                   Forces (Hartrees/Bohr)
 Number     Number              X              Y              Z
 -------------------------------------------------------------------
      1        7           0.000033672    0.000137746    0.000002908
      2        6           0.000308497    0.000684662   -0.000001948
      3        6           0.000476804    0.000061783   -0.000000085
      4        6           0.000253907   -0.000091653   -0.000000584
      5        6           0.000200581   -0.000596272    0.000003964
      6        6          -0.000157219    0.000047626    0.000009060
      7        6           0.000062906    0.001054297   -0.000039575
      8        8           0.000234312   -0.001586350    0.000019560
      9        8          -0.000001056    0.000242684    0.000011098
     10        8          -0.000805446    0.000452803    0.000002962
     11        1           0.000077037   -0.000004904   -0.000000003
     12        1          -0.000006916   -0.000005489    0.000000119
     13        1          -0.000002267    0.000012801   -0.000000106
     14        1          -0.000268887    0.000121120   -0.000000022
     15        1          -0.000405924   -0.000530854   -0.000007347
 -------------------------------------------------------------------
 Cartesian Forces:  Max     0.001586350 RMS     0.000378665

 GradGradGradGradGradGradGradGradGradGradGradGradGradGradGradGradGradGrad
 Berny optimization.
 Using GEDIIS/GDIIS optimizer.
 FormGI is forming the generalized inverse of G from B-inverse, IUseBI=4.
 Internal  Forces:  Max     0.001567659 RMS     0.000471170
 Search for a local minimum.
 Step number   3 out of a maximum of   74
 All quantities printed in internal units (Hartrees-Bohrs-Radians)
 Mixed Optimization -- En-DIIS/RFO-DIIS
 Update second derivatives using D2CorX and points    1    2    3
 DE= -9.91D-05 DEPred=-1.17D-04 R= 8.46D-01
 TightC=F SS=  1.41D+00  RLast= 2.18D-02 DXNew= 5.0454D-01 6.5356D-02
 Trust test= 8.46D-01 RLast= 2.18D-02 DXMaxT set to 3.00D-01
 ITU=  1  0  0
 Use linear search instead of GDIIS.
     Eigenvalues ---    0.01098   0.01592   0.01740   0.01974   0.02095
     Eigenvalues ---    0.02130   0.02170   0.02199   0.02265   0.02472
     Eigenvalues ---    0.02543   0.02599   0.15932   0.16000   0.16000
     Eigenvalues ---    0.16011   0.16894   0.22076   0.22863   0.24422
     Eigenvalues ---    0.24943   0.25000   0.25298   0.34987   0.35060
     Eigenvalues ---    0.35243   0.35341   0.36872   0.43208   0.44772
     Eigenvalues ---    0.46119   0.47522   0.53271   0.55897   0.55912
     Eigenvalues ---    0.58747   0.59591   0.68102   0.91868
 RFO step:  Lambda=-2.18128705D-05 EMin= 1.09803513D-02
 Quartic linear search produced a step of -0.15590.
 Iteration  1 RMS(Cart)=  0.00284953 RMS(Int)=  0.00000403
 Iteration  2 RMS(Cart)=  0.00000451 RMS(Int)=  0.00000014
 Iteration  3 RMS(Cart)=  0.00000000 RMS(Int)=  0.00000014
 Variable       Old X    -DE/DX   Delta X   Delta X   Delta X     New X
                                 (Linear)    (Quad)   (Total)
    R1        2.50734  -0.00056  -0.00018  -0.00034  -0.00053   2.50681
    R2        2.54461  -0.00056  -0.00007  -0.00060  -0.00067   2.54394
    R3        2.66224  -0.00050  -0.00019  -0.00048  -0.00067   2.66157
    R4        2.05410  -0.00003   0.00005  -0.00016  -0.00011   2.05399
    R5        2.61673  -0.00063  -0.00013  -0.00071  -0.00083   2.61590
    R6        2.05187   0.00001   0.00002  -0.00003  -0.00001   2.05186
    R7        2.65747  -0.00057   0.00018  -0.00128  -0.00110   2.65637
    R8        2.05007   0.00001   0.00002  -0.00002   0.00000   2.05007
    R9        2.68174   0.00005   0.00082  -0.00160  -0.00078   2.68096
   R10        2.53742  -0.00061  -0.00038  -0.00004  -0.00042   2.53700
   R11        2.79594   0.00002   0.00028  -0.00056  -0.00028   2.79566
   R12        2.33554  -0.00123   0.00007  -0.00117  -0.00110   2.33444
   R13        2.52772  -0.00045  -0.00036   0.00014  -0.00022   2.52749
   R14        1.83803  -0.00024  -0.00000  -0.00034  -0.00035   1.83768
   R15        1.86517  -0.00032   0.00058  -0.00168  -0.00109   1.86408
    A1        2.07067  -0.00000   0.00043  -0.00099  -0.00056   2.07012
    A2        2.14190   0.00024  -0.00013   0.00094   0.00081   2.14272
    A3        2.03489  -0.00019   0.00013  -0.00094  -0.00081   2.03408
    A4        2.10639  -0.00005   0.00000  -0.00000  -0.00000   2.10639
    A5        2.08159  -0.00005   0.00002  -0.00029  -0.00027   2.08131
    A6        2.09593   0.00002  -0.00004   0.00019   0.00015   2.09608
    A7        2.10567   0.00003   0.00002   0.00011   0.00013   2.10580
    A8        2.07471  -0.00008   0.00032  -0.00091  -0.00059   2.07411
    A9        2.13646   0.00005  -0.00026   0.00069   0.00044   2.13689
   A10        2.07203   0.00004  -0.00006   0.00022   0.00015   2.07218
   A11        2.05337   0.00020  -0.00038   0.00148   0.00110   2.05447
   A12        2.06659  -0.00089  -0.00069  -0.00119  -0.00188   2.06470
   A13        2.16323   0.00069   0.00107  -0.00029   0.00078   2.16401
   A14        2.14413  -0.00030  -0.00027  -0.00023  -0.00050   2.14363
   A15        2.06929  -0.00124  -0.00142  -0.00067  -0.00209   2.06720
   A16        2.06977   0.00154   0.00168   0.00090   0.00259   2.07235
   A17        2.14049   0.00157   0.00103   0.00241   0.00344   2.14393
   A18        2.01765  -0.00073  -0.00012  -0.00188  -0.00200   2.01565
   A19        2.12504  -0.00084  -0.00091  -0.00053  -0.00144   2.12360
   A20        1.86831  -0.00030   0.00053  -0.00247  -0.00194   1.86637
   A21        1.88396  -0.00109   0.00089  -0.00680  -0.00592   1.87805
    D1        0.00001  -0.00000  -0.00000  -0.00003  -0.00003  -0.00002
    D2       -3.14159  -0.00000  -0.00000  -0.00001  -0.00001   3.14159
    D3       -0.00000   0.00000   0.00000   0.00001   0.00001   0.00001
    D4       -3.14157  -0.00000  -0.00001  -0.00004  -0.00005   3.14157
    D5       -0.00001   0.00000   0.00000   0.00002   0.00003   0.00002
    D6        3.14159   0.00000   0.00000   0.00001   0.00001  -3.14158
    D7        3.14159   0.00000   0.00000   0.00000   0.00000  -3.14159
    D8        0.00000  -0.00000  -0.00000  -0.00001  -0.00001  -0.00001
    D9       -0.00000   0.00000   0.00000   0.00000   0.00000   0.00000
   D10       -3.14158  -0.00000  -0.00000  -0.00003  -0.00003   3.14158
   D11        3.14159   0.00000   0.00000   0.00001   0.00001  -3.14158
   D12        0.00001  -0.00000  -0.00000  -0.00002  -0.00002  -0.00001
   D13        0.00001  -0.00000  -0.00000  -0.00002  -0.00002  -0.00001
   D14       -3.14156  -0.00000  -0.00001  -0.00008  -0.00008   3.14154
   D15        3.14159   0.00000   0.00000   0.00001   0.00001  -3.14159
   D16        0.00002  -0.00000  -0.00001  -0.00005  -0.00006  -0.00003
   D17       -0.00001   0.00000   0.00000   0.00002   0.00002   0.00001
   D18        3.14156   0.00000   0.00001   0.00007   0.00008  -3.14155
   D19        3.14156   0.00000   0.00001   0.00008   0.00009  -3.14154
   D20       -0.00006   0.00000   0.00002   0.00013   0.00014   0.00008
   D21        3.14152   0.00001   0.00002   0.00017   0.00019  -3.14147
   D22       -0.00004   0.00001   0.00001   0.00011   0.00012   0.00008
   D23        3.14135   0.00001   0.00006   0.00052   0.00057  -3.14126
   D24        0.00005  -0.00001  -0.00001  -0.00022  -0.00023  -0.00019
   D25       -0.00022   0.00001   0.00005   0.00047   0.00052   0.00030
   D26       -3.14152  -0.00001  -0.00002  -0.00027  -0.00029   3.14138
   D27        3.14145   0.00001   0.00003   0.00036   0.00040  -3.14134
   D28        0.00014  -0.00001  -0.00003  -0.00037  -0.00040  -0.00025
         Item               Value     Threshold  Converged?
 Maximum Force            0.001568     0.000450     NO 
 RMS     Force            0.000471     0.000300     NO 
 Maximum Displacement     0.009718     0.001800     NO 
 RMS     Displacement     0.002850     0.001200     NO 
 Predicted change in Energy=-1.458401D-05
 GradGradGradGradGradGradGradGradGradGradGradGradGradGradGradGradGradGrad

                          Input orientation:                          
 ---------------------------------------------------------------------
 Center     Atomic      Atomic             Coordinates (Angstroms)
 Number     Number       Type             X           Y           Z
 ---------------------------------------------------------------------
      1          7           0       -0.442506   -1.451387   -0.000102
      2          6           0       -1.768749   -1.479857   -0.000023
      3          6           0       -2.556306   -0.312185    0.000079
      4          6           0       -1.933222    0.923929    0.000080
      5          6           0       -0.528467    0.975117   -0.000022
      6          6           0        0.176581   -0.255991   -0.000105
      7          6           0        1.655726   -0.228562   -0.000160
      8          8           0        2.306249    0.821610    0.000175
      9          8           0        2.253568   -1.425003    0.000022
     10          8           0        0.064514    2.179582   -0.000079
     11          1           0       -2.233503   -2.462408   -0.000028
     12          1           0       -3.639587   -0.386074    0.000149
     13          1           0       -2.488939    1.855638    0.000140
     14          1           0        3.212366   -1.262568    0.000198
     15          1           0        1.039832    2.031943   -0.000261
 ---------------------------------------------------------------------
                    Distance matrix (angstroms):
                    1          2          3          4          5
     1  N    0.000000
     2  C    1.326548   0.000000
     3  C    2.401236   1.408441   0.000000
     4  C    2.804347   2.409407   1.384273   0.000000
     5  C    2.428026   2.750490   2.401932   1.405688   0.000000
     6  C    1.346195   2.298294   2.733465   2.417329   1.418703
     7  C    2.428555   3.645925   4.212862   3.769454   2.493901
     8  O    3.566816   4.679996   4.992989   4.240706   2.838869
     9  O    2.696203   4.022690   4.936927   4.800697   3.674274
    10  O    3.666198   4.092964   3.616297   2.359580   1.342521
    11  H    2.056655   1.086923   2.174318   3.399624   3.837150
    12  H    3.369898   2.167117   1.085797   2.151229   3.395866
    13  H    3.888998   3.412360   2.168870   1.084851   2.149132
    14  H    3.659746   4.985851   5.846435   5.590872   4.359021
    15  H    3.785620   4.496762   4.292685   3.172814   1.891148
                    6          7          8          9         10
     6  C    0.000000
     7  C    1.479400   0.000000
     8  O    2.386779   1.235331   0.000000
     9  O    2.383373   1.337493   2.247231   0.000000
    10  O    2.438150   2.886367   2.620966   4.217226   0.000000
    11  H    3.267534   4.485105   5.603046   4.605433   5.179667
    12  H    3.818384   5.297655   6.067245   5.984032   4.505880
    13  H    3.400584   4.639196   4.905410   5.766626   2.573920
    14  H    3.198310   1.868769   2.272630   0.972460   4.664480
    15  H    2.445372   2.342906   1.751776   3.663828   0.986429
                   11         12         13         14         15
    11  H    0.000000
    12  H    2.507635   0.000000
    13  H    4.325594   2.519775   0.000000
    14  H    5.576477   6.907785   6.498314   0.000000
    15  H    5.560028   5.267235   3.533173   3.946354   0.000000
 Stoichiometry    C6H5NO3
 Framework group  C1[X(C6H5NO3)]
 Deg. of freedom    39
 Full point group                 C1      NOp   1
 Largest Abelian subgroup         C1      NOp   1
 Largest concise Abelian subgroup C1      NOp   1
                         Standard orientation:                         
 ---------------------------------------------------------------------
 Center     Atomic      Atomic             Coordinates (Angstroms)
 Number     Number       Type             X           Y           Z
 ---------------------------------------------------------------------
      1          7           0       -0.437416   -1.452646   -0.000095
      2          6           0       -1.763531   -1.486535   -0.000017
      3          6           0       -2.555854   -0.322091    0.000085
      4          6           0       -1.937827    0.916559    0.000087
      5          6           0       -0.533292    0.973487   -0.000015
      6          6           0        0.176781   -0.254729   -0.000098
      7          6           0        1.655802   -0.221256   -0.000153
      8          8           0        2.302028    0.831566    0.000182
      9          8           0        2.258528   -1.415244    0.000028
     10          8           0        0.054762    2.180365   -0.000072
     11          1           0       -2.224266   -2.470977   -0.000022
     12          1           0       -3.638823   -0.400407    0.000155
     13          1           0       -2.497346    1.845989    0.000147
     14          1           0        3.216654   -1.248892    0.000204
     15          1           0        1.030675    2.036713   -0.000254
 ---------------------------------------------------------------------
 Rotational constants (GHZ):      2.3531395      1.2554900      0.8186884
 Standard basis: 6-31+G(d,p) (6D, 7F)
 There are   215 symmetry adapted cartesian basis functions of A   symmetry.
 There are   215 symmetry adapted basis functions of A   symmetry.
   215 basis functions,   355 primitive gaussians,   215 cartesian basis functions
    36 alpha electrons       36 beta electrons
       nuclear repulsion energy       506.3469292763 Hartrees.
 NAtoms=   15 NActive=   15 NUniq=   15 SFac= 1.00D+00 NAtFMM=   60 NAOKFM=F Big=F
 Integral buffers will be    131072 words long.
 Raffenetti 2 integral format.
 Two-electron integral symmetry is turned on.
 Nuclear repulsion after empirical dispersion term =      506.3369621788 Hartrees.
 One-electron integrals computed using PRISM.
 NBasis=   215 RedAO= T EigKep=  5.87D-06  NBF=   215
 NBsUse=   215 1.00D-06 EigRej= -1.00D+00 NBFU=   215
 Initial guess from the checkpoint file:  "b3lypD33HPA.chk"
 B after Tr=     0.000000    0.000000    0.000000
         Rot=    1.000000   -0.000015    0.000008   -0.000739 Ang=  -0.08 deg.
 Keep R1 ints in memory in canonical form, NReq=274797245.
 Requested convergence on RMS density matrix=1.00D-08 within 128 cycles.
 Requested convergence on MAX density matrix=1.00D-06.
 Requested convergence on             energy=1.00D-06.
 No special actions if energy rises.
 SCF Done:  E(RB3LYP) =  -512.132220620     A.U. after   10 cycles
            NFock= 10  Conv=0.70D-08     -V/T= 2.0092
 Calling FoFJK, ICntrl=      2127 FMM=F ISym2X=0 I1Cent= 0 IOpClX= 0 NMat=1 NMatS=1 NMatT=0.
 ***** Axes restored to original set *****
 -------------------------------------------------------------------
 Center     Atomic                   Forces (Hartrees/Bohr)
 Number     Number              X              Y              Z
 -------------------------------------------------------------------
      1        7          -0.000103518    0.000032268   -0.000004734
      2        6           0.000085098    0.000172521    0.000003334
      3        6           0.000108939   -0.000028596    0.000000125
      4        6           0.000002783   -0.000101715    0.000001521
      5        6          -0.000275375   -0.000459654   -0.000006374
      6        6          -0.000053180    0.000174550   -0.000017060
      7        6           0.000127144    0.000427709    0.000070382
      8        8          -0.000379690   -0.000453192   -0.000032269
      9        8           0.000081462   -0.000021015   -0.000020589
     10        8           0.000172429   -0.000010612   -0.000004448
     11        1          -0.000014012   -0.000032086    0.000000058
     12        1          -0.000008074   -0.000038221   -0.000000325
     13        1           0.000009461    0.000007880    0.000000132
     14        1          -0.000040710   -0.000008298   -0.000000076
     15        1           0.000287244    0.000338461    0.000010323
 -------------------------------------------------------------------
 Cartesian Forces:  Max     0.000459654 RMS     0.000162371

 GradGradGradGradGradGradGradGradGradGradGradGradGradGradGradGradGradGrad
 Berny optimization.
 Using GEDIIS/GDIIS optimizer.
 FormGI is forming the generalized inverse of G from B-inverse, IUseBI=4.
 Internal  Forces:  Max     0.000703770 RMS     0.000146296
 Search for a local minimum.
 Step number   4 out of a maximum of   74
 All quantities printed in internal units (Hartrees-Bohrs-Radians)
 Mixed Optimization -- En-DIIS/RFO-DIIS
 Swapping is turned off.
 Update second derivatives using D2CorX and points    1    2    3    4
 DE= -1.22D-05 DEPred=-1.46D-05 R= 8.35D-01
 TightC=F SS=  1.41D+00  RLast= 9.13D-03 DXNew= 5.0454D-01 2.7386D-02
 Trust test= 8.35D-01 RLast= 9.13D-03 DXMaxT set to 3.00D-01
 ITU=  1  1  0  0
     Eigenvalues ---    0.01098   0.01595   0.01739   0.01974   0.02095
     Eigenvalues ---    0.02130   0.02170   0.02199   0.02264   0.02472
     Eigenvalues ---    0.02543   0.02599   0.15705   0.15991   0.16000
     Eigenvalues ---    0.16004   0.20679   0.22023   0.22748   0.24378
     Eigenvalues ---    0.24911   0.25000   0.26420   0.33664   0.35011
     Eigenvalues ---    0.35235   0.35329   0.35945   0.43144   0.43435
     Eigenvalues ---    0.45475   0.47428   0.53162   0.54847   0.57526
     Eigenvalues ---    0.59248   0.60652   0.70983   0.87364
 En-DIIS/RFO-DIIS IScMMF=        0 using points:     4    3
 RFO step:  Lambda=-2.03318964D-06.
 DidBck=F Rises=F RFO-DIIS coefs:    0.86281    0.13719
 Iteration  1 RMS(Cart)=  0.00089118 RMS(Int)=  0.00000108
 Iteration  2 RMS(Cart)=  0.00000105 RMS(Int)=  0.00000010
 Iteration  3 RMS(Cart)=  0.00000000 RMS(Int)=  0.00000010
 Variable       Old X    -DE/DX   Delta X   Delta X   Delta X     New X
                                 (Linear)    (Quad)   (Total)
    R1        2.50681  -0.00016   0.00007  -0.00038  -0.00031   2.50651
    R2        2.54394  -0.00007   0.00009  -0.00031  -0.00021   2.54373
    R3        2.66157  -0.00015   0.00009  -0.00048  -0.00039   2.66118
    R4        2.05399   0.00003   0.00002   0.00005   0.00007   2.05406
    R5        2.61590  -0.00006   0.00011  -0.00033  -0.00021   2.61568
    R6        2.05186   0.00001   0.00000   0.00002   0.00003   2.05189
    R7        2.65637  -0.00002   0.00015  -0.00034  -0.00019   2.65617
    R8        2.05007   0.00000  -0.00000   0.00001   0.00001   2.05008
    R9        2.68096  -0.00025   0.00011  -0.00071  -0.00060   2.68036
   R10        2.53700   0.00050   0.00006   0.00057   0.00063   2.53763
   R11        2.79566  -0.00021   0.00004  -0.00060  -0.00056   2.79510
   R12        2.33444  -0.00059   0.00015  -0.00085  -0.00070   2.33374
   R13        2.52749   0.00004   0.00003  -0.00002   0.00001   2.52751
   R14        1.83768  -0.00004   0.00005  -0.00017  -0.00012   1.83756
   R15        1.86408   0.00023   0.00015   0.00009   0.00024   1.86432
    A1        2.07012  -0.00002   0.00008  -0.00025  -0.00018   2.06994
    A2        2.14272   0.00001  -0.00011   0.00024   0.00013   2.14284
    A3        2.03408  -0.00000   0.00011  -0.00023  -0.00012   2.03396
    A4        2.10639  -0.00000   0.00000  -0.00000  -0.00000   2.10638
    A5        2.08131  -0.00001   0.00004  -0.00009  -0.00006   2.08126
    A6        2.09608  -0.00003  -0.00002  -0.00015  -0.00017   2.09591
    A7        2.10580   0.00004  -0.00002   0.00024   0.00022   2.10602
    A8        2.07411   0.00000   0.00008  -0.00012  -0.00003   2.07408
    A9        2.13689   0.00001  -0.00006   0.00016   0.00010   2.13699
   A10        2.07218  -0.00001  -0.00002  -0.00004  -0.00006   2.07211
   A11        2.05447  -0.00006  -0.00015   0.00012  -0.00003   2.05444
   A12        2.06470   0.00002   0.00026  -0.00045  -0.00020   2.06451
   A13        2.16401   0.00004  -0.00011   0.00033   0.00023   2.16423
   A14        2.14363   0.00007   0.00007   0.00010   0.00017   2.14380
   A15        2.06720   0.00002   0.00029  -0.00052  -0.00023   2.06697
   A16        2.07235  -0.00009  -0.00036   0.00042   0.00006   2.07241
[...]
 ! R6    R(3,12)                 1.0858         -DE/DX =    0.0                 !
 ! R7    R(4,5)                  1.4056         -DE/DX =    0.0                 !
 ! R8    R(4,13)                 1.0849         -DE/DX =    0.0                 !
 ! R9    R(5,6)                  1.4183         -DE/DX =    0.0                 !
 ! R10   R(5,10)                 1.343          -DE/DX =    0.0                 !
 ! R11   R(6,7)                  1.4793         -DE/DX =    0.0                 !
 ! R12   R(7,8)                  1.2348         -DE/DX =    0.0                 !
 ! R13   R(7,9)                  1.3377         -DE/DX =    0.0                 !
 ! R14   R(9,14)                 0.9724         -DE/DX =    0.0                 !
 ! R15   R(10,15)                0.9864         -DE/DX =    0.0                 !
 ! A1    A(2,1,6)              118.606          -DE/DX =    0.0                 !
 ! A2    A(1,2,3)              122.7742         -DE/DX =    0.0                 !
 ! A3    A(1,2,11)             116.5422         -DE/DX =    0.0                 !
 ! A4    A(3,2,11)             120.6836         -DE/DX =    0.0                 !
 ! A5    A(2,3,4)              119.2454         -DE/DX =    0.0                 !
 ! A6    A(2,3,12)             120.0812         -DE/DX =    0.0                 !
 ! A7    A(4,3,12)             120.6734         -DE/DX =    0.0                 !
 ! A8    A(3,4,5)              118.8328         -DE/DX =    0.0                 !
 ! A9    A(3,4,13)             122.4452         -DE/DX =    0.0                 !
 ! A10   A(5,4,13)             118.722          -DE/DX =    0.0                 !
 ! A11   A(4,5,6)              117.7222         -DE/DX =    0.0                 !
 ! A12   A(4,5,10)             118.2803         -DE/DX =    0.0                 !
 ! A13   A(6,5,10)             123.9976         -DE/DX =    0.0                 !
 ! A14   A(1,6,5)              122.8193         -DE/DX =    0.0                 !
 ! A15   A(1,6,7)              118.4365         -DE/DX =    0.0                 !
 ! A16   A(5,6,7)              118.7441         -DE/DX =    0.0                 !
 ! A17   A(6,7,8)              122.8408         -DE/DX =    0.0                 !
 ! A18   A(6,7,9)              115.4874         -DE/DX =    0.0                 !
 ! A19   A(8,7,9)              121.6718         -DE/DX =    0.0                 !
 ! A20   A(7,9,14)             106.9304         -DE/DX =    0.0                 !
 ! A21   A(5,10,15)            107.7622         -DE/DX =    0.0                 !
 ! D1    D(6,1,2,3)              0.0001         -DE/DX =    0.0                 !
 ! D2    D(6,1,2,11)          -180.0            -DE/DX =    0.0                 !
 ! D3    D(2,1,6,5)             -0.0001         -DE/DX =    0.0                 !
 ! D4    D(2,1,6,7)            179.9998         -DE/DX =    0.0                 !
 ! D5    D(1,2,3,4)              0.0            -DE/DX =    0.0                 !
 ! D6    D(1,2,3,12)           180.0            -DE/DX =    0.0                 !
 ! D7    D(11,2,3,4)           180.0            -DE/DX =    0.0                 !
 ! D8    D(11,2,3,12)            0.0            -DE/DX =    0.0                 !
 ! D9    D(2,3,4,5)              0.0            -DE/DX =    0.0                 !
 ! D10   D(2,3,4,13)           180.0            -DE/DX =    0.0                 !
 ! D11   D(12,3,4,5)          -180.0            -DE/DX =    0.0                 !
 ! D12   D(12,3,4,13)            0.0            -DE/DX =    0.0                 !
 ! D13   D(3,4,5,6)             -0.0001         -DE/DX =    0.0                 !
 ! D14   D(3,4,5,10)          -180.0            -DE/DX =    0.0                 !
 ! D15   D(13,4,5,6)          -180.0            -DE/DX =    0.0                 !
 ! D16   D(13,4,5,10)            0.0            -DE/DX =    0.0                 !
 ! D17   D(4,5,6,1)              0.0001         -DE/DX =    0.0                 !
 ! D18   D(4,5,6,7)            180.0001         -DE/DX =    0.0                 !
 ! D19   D(10,5,6,1)           180.0001         -DE/DX =    0.0                 !
 ! D20   D(10,5,6,7)             0.0001         -DE/DX =    0.0                 !
 ! D21   D(4,5,10,15)          180.0001         -DE/DX =    0.0                 !
 ! D22   D(6,5,10,15)            0.0002         -DE/DX =    0.0                 !
 ! D23   D(1,6,7,8)           -180.0021         -DE/DX =    0.0                 !
 ! D24   D(1,6,7,9)              0.0018         -DE/DX =    0.0                 !
 ! D25   D(5,6,7,8)             -0.0022         -DE/DX =    0.0                 !
 ! D26   D(5,6,7,9)           -179.9983         -DE/DX =    0.0                 !
 ! D27   D(6,7,9,14)          -180.002          -DE/DX =    0.0                 !
 ! D28   D(8,7,9,14)             0.0019         -DE/DX =    0.0                 !
 --------------------------------------------------------------------------------
 GradGradGradGradGradGradGradGradGradGradGradGradGradGradGradGradGradGrad

 1\1\ WCSS.PL-BEM-JP\Freq\RB3LYP\6-31+G(d,p)\C6H5N1O3\C612\17-Dec-2024\
 0\\#N Geom=AllCheck Guess=TCheck SCRF=Check GenChk RB3LYP/6-31+G(d,p) 
 Freq\\[No Title]\\0,1\N,-0.4425847034,-1.4514133949,0.0000303122\C,-1.
 7686925882,-1.4798173592,0.0000345076\C,-2.5561969879,-0.3123491693,0.
 0000217072\C,-1.933094241,0.9236868027,0.0000043487\C,-0.5284010454,0.
 97469165,-0.0000002094\C,0.1764872963,-0.2560290449,0.0000146343\C,1.6
 554883928,-0.2287268167,0.0000135243\O,2.3058921822,0.8209528281,-0.00
 00392214\O,2.2532964184,-1.4253907549,-0.0000088104\O,0.0645574191,2.1
 797025513,-0.0000170016\H,-2.2334866135,-2.4624244056,0.0000477561\H,-
 3.6394681615,-0.3865801313,0.0000252362\H,-2.4886093279,1.8555176386,-
 0.0000062441\H,3.2120465903,-1.2629796309,-0.0000395554\H,1.0403213697
 ,2.034943237,-0.0000199842\\Version=ES64L-G09RevE.01\State=1-A\HF=-512
 .1322222\RMSD=4.900e-09\RMSF=1.273e-05\ZeroPoint=0.1085214\Thermal=0.1
 162107\Dipole=-0.5154426,-0.1637593,0.0000112\DipoleDeriv=0.0891756,-0
 .0550601,-0.0000016,0.4242869,-0.4078339,-0.0000004,-0.0000127,0.00000
 29,-0.2409022,-0.2972111,0.0954803,0.0000017,0.2725641,0.2750117,-0.00
 00052,-0.0000024,-0.0000028,-0.029605,0.164562,0.059945,-0.0000016,-0.
 3285558,0.0730636,0.0000008,0.0000036,-0.0000026,-0.0722589,0.0433368,
 -0.4004521,0.0000036,0.0150152,-0.0145719,-0.0000024,0.0000019,0.00000
 01,-0.1432806,0.2487731,0.6536957,-0.0000064,0.4232968,1.1212228,-0.00
 0012,-0.0000143,-0.0000153,0.1634115,-0.59746,0.2650368,0.0000026,-0.3
 954891,-0.1142344,0.0000049,0.0000044,0.0000016,0.0366812,2.1416231,-0
 .2681488,-0.0000144,-0.206385,1.641822,-0.000009,-0.0000319,-0.0000073
 ,0.3080916,-1.1596975,-0.2615586,0.000008,-0.2577764,-1.0145548,0.0000
 038,0.0000278,0.0000251,-0.3704874,-0.8420484,0.5705248,-0.0000008,0.6
 262454,-1.0195416,0.,0.0000142,-0.0000216,-0.3464616,-0.6400091,-0.482
 9607,0.0000073,-0.3427518,-1.2345003,0.0000099,0.0000078,0.0000095,-0.
 3442671,0.006324,-0.0599002,0.0000014,-0.0880352,-0.0583811,0.0000024,
 0.0000022,0.0000019,0.1173183,-0.0806115,-0.0156694,0.0000009,-0.01585
 19,0.0853631,0.0000007,0.0000002,0.0000002,0.1300339,0.0577078,0.03889
 52,-0.0000002,0.0517066,-0.0046082,0.0000017,0.,0.0000026,0.1424004,0.
 3247543,-0.0924191,0.0000017,-0.1303144,0.2847957,0.0000031,0.0000029,
 0.0000023,0.3442582,0.5407807,-0.0474086,-0.000002,-0.0479554,0.386947
 3,0.0000014,-0.0000036,0.0000034,0.3050676\Polar=119.7341624,3.2495335
 ,97.9987364,-0.0005929,-0.0006363,46.9149149\PG=C01 [X(C6H5N1O3)]\NIma
 g=0\\0.63329222,0.11031499,0.44303912,-0.00000260,-0.00000476,0.095933
 90,-0.37404489,0.00433604,0.00000082,0.69274924,-0.02079536,-0.1180892
 6,0.00000086,0.06038745,0.72983825,0.00000116,0.00000103,-0.06395423,-
 0.00000226,-0.00000728,0.14587084,-0.05386764,0.02302050,-0.00000023,-
 0.17444744,0.10694703,-0.00000098,0.74764963,0.08701511,0.04213523,-0.
 00000033,0.03819224,-0.25745376,0.00000210,0.03348566,0.67025745,-0.00
 000088,-0.00000012,0.02303298,-0.00000023,0.00000201,-0.06801242,-0.00
 000203,-0.00000688,0.13405717,-0.05220386,-0.03063119,0.00000040,0.067
 85215,-0.01421349,0.00000017,-0.18203023,-0.06840519,0.00000122,0.6755
 6189,-0.03374153,-0.01579513,0.00000015,0.02653330,-0.05543111,0.00000
 075,-0.12692644,-0.32927277,0.00000382,-0.01417436,0.77462917,0.000000
 55,0.00000016,-0.00592632,-0.00000047,0.00000087,0.00764039,0.00000196
 ,0.00000372,-0.05627506,-0.00000136,-0.00000839,0.12737581,0.07452277,
 0.02536785,-0.00000035,-0.05888099,0.02461517,-0.00000030,-0.01405968,
 -0.07850044,0.00000103,-0.31035922,0.04891841,0.00000020,0.70907327,-0
 .02497520,-0.06555326,0.00000073,0.03145310,-0.00616594,0.,-0.03964818
 ,0.02358183,-0.00000020,-0.01051839,-0.12283214,0.00000067,0.03197361,
 0.68320309,0.00000035,0.00000096,0.01404610,-0.00000044,0.,-0.00796304
 ,0.00000052,-0.00000029,-0.00235790,0.00000088,0.00000053,-0.06819891,
 -0.00000168,-0.00000705,0.16190240,-0.13914882,-0.07827251,0.00000092,
 -0.06761913,-0.03677668,0.00000042,0.00101194,-0.01853441,0.00000020,-
 0.01234608,0.02767070,-0.00000049,-0.19117013,0.08195185,-0.00000127,0
 .63956638,-0.07582618,-0.28148744,0.00000308,-0.08044795,0.00420194,-0
 .00000008,0.01520563,-0.05834970,0.00000046,0.05751047,0.03434799,-0.0
 0000037,0.03770165,-0.21728833,0.00000203,0.02039231,0.67363785,0.0000
 0053,0.00000280,-0.06106722,0.00000124,-0.00000012,0.00531118,-0.00000
 016,0.00000069,-0.00780662,-0.00000064,-0.00000014,0.00847783,-0.00000
 088,0.00000196,-0.06870518,-0.00000202,-0.00000684,0.14249953,-0.04304
 505,-0.03337142,0.00000043,0.02424017,-0.00831613,0.00000028,-0.000323
 50,0.01537051,-0.00000020,-0.00965016,-0.00169804,0.00000024,-0.005057
 68,0.04048256,-0.00000033,-0.19339272,0.01518653,-0.00000149,0.7150293
 1,-0.03537705,-0.00451479,-0.00000031,-0.00571159,-0.00643862,0.000000
 25,0.00011158,-0.00159348,0.00000006,0.00211631,-0.00657452,0.00000022
 ,0.03736424,0.02455708,-0.00000014,0.02645434,-0.09485371,-0.00000002,
 0.10734990,0.83354453,0.00000052,-0.00000022,-0.01254168,-0.00000016,0
 .00000030,0.01216456,0.00000013,-0.00000014,0.00049118,0.00000003,0.00
 000026,0.00664405,-0.00000043,-0.00000126,0.00048376,0.00000130,0.0000
 0062,-0.07585408,-0.00001778,-0.00001499,0.20531579,-0.00471097,0.0039
 1015,0.00000020,-0.00598280,0.00049295,-0.00000015,0.00000409,-0.00393
 987,0.00000007,0.00225908,-0.00011046,0.,-0.00080805,-0.00375314,0.000
 00007,-0.02541343,-0.04298917,0.00000236,-0.27751800,-0.23556725,0.000
 01252,0.29732891,0.00394697,0.00690462,0.00000011,-0.00726518,0.004067
 94,-0.00000017,0.00032529,-0.00663867,0.00000010,0.00616802,0.00392560
 ,-0.00000010,-0.01104610,-0.02915630,0.00000016,-0.03649655,-0.0063599
 7,0.00000146,-0.22306728,-0.46533611,0.00001750,0.26979122,0.57623053,
 0.00000032,0.00000002,0.00589446,0.00000019,-0.00000008,-0.00254130,-0
 .00000004,0.00000016,0.00005252,-0.00000007,-0.00000008,-0.00075672,0.
 00000018,0.00000086,0.00025489,0.00000063,0.00000122,0.01808595,0.0000
 1370,0.00001869,-0.07436881,-0.00001465,-0.00002140,0.03620939,-0.0005
 4331,0.00366063,-0.00000004,-0.00317319,0.00243922,-0.00000002,-0.0002
 3188,-0.00213370,0.00000003,0.00055955,0.00255125,-0.00000011,-0.00790
 036,-0.00959914,0.00000011,-0.03077676,0.04237757,0.00000094,-0.173300
 83,0.09856977,0.00000317,0.03679037,-0.01057449,-0.00000028,0.65035103
 ,-0.00559994,-0.00133530,0.00000021,0.00495140,-0.00080214,0.,-0.00041
 577,0.00235925,-0.00000004,-0.00071963,0.00056131,0.,-0.00289297,-0.00
 075919,0.00000005,0.01639147,-0.00390411,-0.00000063,0.06234039,-0.256
 13275,-0.00000123,0.00776208,-0.10560090,0.00000116,-0.02118413,0.4208
 3776,0.00000005,0.00000010,0.00178503,0.00000011,-0.00000007,-0.001263
 54,-0.00000001,0.00000007,-0.00014339,-0.00000003,-0.00000009,-0.00098
 543,0.00000015,0.00000026,0.00222253,0.00000007,-0.00000085,0.01017626
 ,0.00000344,-0.00000374,-0.06368785,-0.00000025,0.00000251,0.02694650,
 -0.00001846,-0.00000117,0.03950905,-0.01298496,-0.00310719,0.00000018,
 0.01057746,-0.00855456,0.00000009,-0.00585125,0.01642924,-0.00000019,-
 0.03950587,-0.06208763,0.00000084,-0.15100480,-0.10459595,0.00000175,0
 .02950432,0.00834598,-0.00000008,-0.03110257,-0.02192331,0.00000091,-0
 .01138942,0.04104484,-0.00000062,0.00345707,0.00779568,-0.00000006,0.6
 0505537,-0.00042448,-0.00608911,0.00000029,0.00380561,-0.00605124,0.00
 000004,0.00405277,0.00714330,-0.00000004,-0.02525822,-0.00766847,0.000
 00022,-0.06922870,-0.29782948,0.00000346,-0.00682217,-0.04443652,0.000
 00065,-0.02104514,-0.00693076,0.00000049,0.01572126,0.00816767,-0.0000
 0054,0.00344626,-0.00106610,-0.00000014,0.05134935,0.41665119,-0.00000
 006,0.00000028,0.00748232,-0.00000003,0.00000004,-0.00070942,-0.000000
 02,0.,0.00598351,0.00000039,0.00000030,0.00665645,0.00000130,0.0000037
 9,-0.04679092,0.00000030,0.00000040,0.00696092,0.00000032,0.00000017,-
 0.00006905,0.00000002,-0.00000030,0.00435349,-0.00000002,-0.00000014,-
 0.00089510,-0.00000336,-0.00000479,0.03937637,-0.02674568,-0.03195446,
 0.00000044,-0.09577344,-0.09872839,0.00000139,0.01109678,0.01718141,-0
 .00000024,-0.00217302,0.00299492,0.,-0.00106294,0.00025466,0.,-0.00377
 279,-0.00064850,0.,0.00077422,-0.00115057,0.,-0.00081911,-0.00021919,0
 .00000003,-0.00027221,0.00021138,0.,0.00034546,-0.00044903,0.,0.117583
 65,-0.00571664,0.00587920,-0.00000016,-0.09993549,-0.29350772,0.000003
 38,-0.01268972,-0.01712448,0.00000029,0.00394997,-0.00250752,0.0000000
 9,0.00102886,0.00011758,0.,0.00173413,0.00290785,0.00000010,0.00027786
 ,0.00017606,0.,-0.00013099,-0.00002589,0.,-0.00019024,0.00004471,0.,-0
 .00014670,0.00008512,-0.00000002,0.11203462,0.30460340,0.00000017,-0.0
 0000015,-0.00654241,0.00000136,0.00000337,-0.03766081,0.00000013,0.000
 00026,0.00448122,-0.00000005,0.00000010,0.00561906,0.,0.00000004,0.001
 03191,0.00000003,0.00000012,0.01069159,0.,0.,0.00087595,-0.00000003,0.
 ,-0.00048058,0.,0.,0.00002047,-0.00000002,-0.00000003,-0.00159881,-0.0
 0000161,-0.00000368,0.02605469,-0.00154049,0.00375589,-0.00000003,-0.0
 1129218,-0.00645521,0.00000013,-0.34125104,-0.01829823,0.00000097,-0.0
 0875140,0.00144735,0.00000002,0.00176293,-0.00163836,0.00000004,0.0014
 9562,0.00054966,-0.00000002,0.00001492,0.00005992,-0.00000001,-0.00018
 521,-0.00003240,0.00000001,-0.00014956,0.00005073,0.,-0.00091423,-0.00
 012785,0.,0.00035667,0.00047620,-0.00000001,0.35949259,0.00498424,-0.0
 0409517,0.00000013,0.02532777,0.00972829,-0.00000019,-0.01778859,-0.06
 163071,0.00000034,-0.02925184,0.00323592,0.00000010,-0.00110774,-0.004
 69758,0.00000018,-0.00119699,-0.00208259,0.00000003,0.00042757,-0.0001
 7301,-0.00000002,-0.00003276,0.00017934,0.,-0.00007023,0.00020641,0.,-
 0.00189046,0.00025870,0.,-0.00053733,0.00023133,-0.00000003,0.02069634
 ,0.05843643,-0.00000008,0.,0.00626328,-0.00000022,-0.00000007,0.002228
 26,0.00000095,0.00000034,-0.03876206,0.00000043,0.00000005,0.00421800,
 0.,0.00000019,0.00925263,0.00000004,0.00000008,-0.00013985,-0.00000005
 ,-0.00000004,-0.00209387,0.,0.,0.00034743,0.,0.,0.00030955,0.00000004,
 0.,0.00004776,0.,-0.00000003,-0.00253419,-0.00000109,-0.00000046,0.025
 88468,-0.00070122,-0.00091713,0.,-0.00086601,-0.00348881,0.00000008,0.
 01301331,-0.01383939,0.00000016,-0.13677318,0.12618774,-0.00000135,-0.
 01125086,0.02994883,-0.00000033,-0.00529065,-0.00203324,0.00000001,0.0
 0038445,0.00184114,-0.00000004,0.00006807,-0.00055284,0.00000002,-0.00
 078436,-0.00004626,0.00000002,0.00278123,-0.00038800,0.,0.00050308,-0.
 00075520,0.,0.00074065,0.00041981,-0.00000003,0.13849765,-0.00037631,0
 .00028083,-0.00000004,-0.00449483,-0.00261072,0.00000015,0.01601818,-0
 .01706621,0.00000023,0.12830050,-0.26736224,0.00000265,-0.00263111,0.0
 0353185,0.00000004,-0.00049664,0.00114248,0.00000006,-0.00064752,0.000
 00689,0.,0.00013130,0.00020981,-0.00000001,0.00002806,-0.00004437,0.,0
 .00029417,0.00081529,-0.00000006,0.00087609,-0.00084131,0.00000001,-0.
 00025141,0.00082575,-0.00000007,-0.13669330,0.28103411,-0.00000001,-0.
 00000007,-0.00313283,0.00000009,0.00000015,0.00879939,-0.00000023,0.00
 000032,0.00386067,-0.00000138,0.00000266,-0.03769433,0.00000007,-0.000
 00011,0.00630322,0.00000007,0.00000013,0.00597162,-0.00000003,-0.00000
 004,-0.00051525,0.,0.,0.00002312,0.00000001,0.,-0.00001015,-0.00000001
 ,-0.00000002,-0.00337899,-0.00000001,0.00000001,-0.00003068,0.,-0.0000
 0007,-0.00463348,0.00000146,-0.00000296,0.02490328,0.00041084,-0.00009
 750,0.,0.00059031,-0.00040958,0.,0.00008953,0.00039719,0.,-0.00020594,
 0.00040455,-0.00000003,-0.00096590,-0.00065854,0.00000005,0.00227555,0
 .00287713,0.00000029,-0.03391078,0.00519194,0.00000079,0.00331905,-0.0
 0886403,-0.00000008,-0.47187916,-0.05911390,0.00001480,0.00113522,-0.0
 0029023,-0.00000001,0.00000905,0.00002462,0.,0.00003252,0.00000334,0.,
 -0.00007221,-0.00002279,0.,0.50040771,-0.00148375,0.00015187,0.,-0.000
 05138,0.00043361,0.,-0.00020098,-0.00011168,0.,0.00013520,-0.00050862,
 0.00000002,0.00168765,0.00112250,0.,0.00092646,-0.00671118,0.00000002,
 0.05564574,0.00578307,-0.00000189,-0.00716702,0.00125330,0.00000029,-0
 .10934306,-0.06031128,0.00000307,-0.00137024,0.00012054,0.,-0.00004924
 ,-0.00003778,0.,-0.00004675,0.00002992,0.,0.00013579,0.00001653,0.,0.0
 5979376,0.05967129,-0.00000004,0.,-0.00033894,-0.00000002,0.00000003,0
 .00000417,-0.00000001,-0.00000001,0.00003668,0.,-0.00000003,-0.0004146
 5,0.00000005,0.00000004,0.00066566,-0.00000025,-0.00000005,0.00493062,
 0.00000186,-0.00000025,0.00386255,-0.00000034,0.00000011,-0.00591604,0
 .00001455,0.00000166,-0.01582569,-0.00000002,0.00000002,-0.00000843,0.
 ,0.,0.00001207,0.,0.,-0.00001368,0.,0.,0.00002582,-0.00001581,-0.00000
 150,0.01296391,0.00131104,0.00398535,-0.00000013,-0.00392925,0.0028564
 0,-0.00000001,-0.00080263,-0.00442012,0.00000007,0.00776630,0.00203024
 ,0.,-0.03283838,-0.02067771,0.00000029,-0.00492331,0.00179812,-0.00000
 008,0.02685821,0.02067063,-0.00000093,-0.01294258,-0.02315829,0.000000
 68,-0.00214641,-0.00953051,0.00000016,-0.40010301,0.04565857,0.0000011
 8,-0.00004972,0.00003871,0.,0.00018822,0.00001687,0.,-0.00024994,-0.00
 003440,-0.00000001,-0.00123580,0.00138781,0.00000002,0.42309725,-0.001
 94488,-0.00143141,0.00000005,0.00291952,-0.00171952,0.00000001,-0.0014
 9695,0.00376439,-0.00000003,-0.00500817,-0.00874746,0.00000014,-0.0432
 5039,0.00816828,0.00000008,0.00307468,-0.00076457,0.,-0.00893553,-0.02
 151987,0.00000056,-0.00411829,0.01217903,-0.00000028,0.00002222,0.0059
 4670,0.00000004,0.07841678,-0.06317014,0.00000030,0.00018364,-0.000000
 53,0.,-0.00018589,-0.00045302,0.00000001,0.00018088,0.00006129,0.,0.00
 076405,-0.00090209,-0.00000002,-0.02062166,0.06858893,0.00000002,-0.00
 000005,-0.00093444,0.,0.,0.00008596,0.00000002,0.00000001,0.00136153,0
 .,0.00000011,0.00361984,0.00000068,0.00000008,-0.00214714,0.00000006,0
 .00000006,0.00046746,-0.00000041,0.00000013,-0.00070725,0.00000017,0.,
 -0.00810428,0.00000011,0.00000013,0.00184177,0.00000057,0.00000039,-0.
 01741010,0.,0.,0.00006052,0.,0.,-0.00037446,0.,0.,-0.00049142,0.000000
 02,-0.00000002,0.00001597,-0.00000125,-0.00000084,0.02271605\\0.000003
 95,0.00000380,-0.00000070,-0.00002001,0.00002015,0.00000041,0.00001165
 ,-0.00001440,-0.00000002,0.00001009,-0.00000014,0.00000023,-0.00002338
 ,-0.00004522,-0.00000039,0.00000898,0.00002089,-0.00000260,-0.00002731
 ,0.00002025,0.00000960,0.00000087,-0.00002976,-0.00000378,0.00001286,0
 .00000662,-0.00000284,0.00001454,0.00001428,-0.00000013,-0.00000009,-0
 .00000234,0.00000003,0.00000046,-0.00000234,-0.00000007,0.00000045,0.0
 0000102,0.,0.00000265,-0.00000118,-0.00000005,0.00000429,0.00000836,0.
 00000030\\\@


 Boundary, n.  In political geography, an imaginary
 line between two nations, separating the imaginary
 rights of one from the imaginary rights of another.
                               -- Ambrose Bierce
 Job cpu time:       0 days  0 hours 10 minutes 15.3 seconds.
 File lengths (MBytes):  RWF=     79 Int=      0 D2E=      0 Chk=      5 Scr=      1
 Normal termination of Gaussian 09 at Tue Dec 17 14:44:50 2024.
