 Entering Gaussian System, Link 0=g09
 Input=b3lypD33HPA2.gjf
 Output=b3lypD33HPA2.log
 Initial command:
 /home/c612/g09E/g09/l1.exe "/mnt/ja_sm883/scratch/Gau-1459160.inp" -scrdir="/mnt/ja_sm883/scratch/"
 Default is to use a total of  18 processors:
                               18 via shared-memory
                                1 via Linda
 Entering Link 1 = /home/c612/g09E/g09/l1.exe PID=   1459162.
  
 Copyright (c) 1988,1990,1992,1993,1995,1998,2003,2009,2015,
            Gaussian, Inc.  All Rights Reserved.
  
 This is part of the Gaussian(R) 09 program.  It is based on
 the Gaussian(R) 03 system (copyright 2003, Gaussian, Inc.),
 the Gaussian(R) 98 system (copyright 1998, Gaussian, Inc.),
 the Gaussian(R) 94 system (copyright 1995, Gaussian, Inc.),
 the Gaussian 92(TM) system (copyright 1992, Gaussian, Inc.),
 the Gaussian 90(TM) system (copyright 1990, Gaussian, Inc.),
 the Gaussian 88(TM) system (copyright 1988, Gaussian, Inc.),
 the Gaussian 86(TM) system (copyright 1986, Carnegie Mellon
 University), and the Gaussian 82(TM) system (copyright 1983,
 Carnegie Mellon University). Gaussian is a federally registered
 trademark of Gaussian, Inc.
  
 This software contains proprietary and confidential information,
 including trade secrets, belonging to Gaussian, Inc.
  
 This software is provided under written license and may be
 used, copied, transmitted, or stored only in accord with that
 written license.
  
 The following legend is applicable only to US Government
 contracts under FAR:
  
                    RESTRICTED RIGHTS LEGEND
  
 Use, reproduction and disclosure by the US Government is
 subject to restrictions as set forth in subparagraphs (a)
 and (c) of the Commercial Computer Software - Restricted
 Rights clause in FAR 52.227-19.
  
 Gaussian, Inc.
 340 Quinnipiac St., Bldg. 40, Wallingford CT 06492
  
  
 ---------------------------------------------------------------
 Warning -- This program may not be used in any manner that
 competes with the business of Gaussian, Inc. or will provide
 assistance to any competitor of Gaussian, Inc.  The licensee
 of this program is prohibited from giving any competitor of
 Gaussian, Inc. access to this program.  By using this program,
 the user acknowledges that Gaussian, Inc. is engaged in the
 business of creating and licensing software in the field of
 computational chemistry and represents and warrants to the
 licensee that it is not a competitor of Gaussian, Inc. and that
 it will not use this program in any manner prohibited above.
 ---------------------------------------------------------------
  

 Cite this work as:
 Gaussian 09, Revision E.01,
 M. J. Frisch, G. W. Trucks, H. B. Schlegel, G. E. Scuseria, 
 M. A. Robb, J. R. Cheeseman, G. Scalmani, V. Barone, B. Mennucci, 
 G. A. Petersson, H. Nakatsuji, M. Caricato, X. Li, H. P. Hratchian, 
 A. F. Izmaylov, J. Bloino, G. Zheng, J. L. Sonnenberg, M. Hada, 
 M. Ehara, K. Toyota, R. Fukuda, J. Hasegawa, M. Ishida, T. Nakajima, 
 Y. Honda, O. Kitao, H. Nakai, T. Vreven, J. A. Montgomery, Jr., 
 J. E. Peralta, F. Ogliaro, M. Bearpark, J. J. Heyd, E. Brothers, 
 K. N. Kudin, V. N. Staroverov, T. Keith, R. Kobayashi, J. Normand, 
 K. Raghavachari, A. Rendell, J. C. Burant, S. S. Iyengar, J. Tomasi, 
 M. Cossi, N. Rega, J. M. Millam, M. Klene, J. E. Knox, J. B. Cross, 
 V. Bakken, C. Adamo, J. Jaramillo, R. Gomperts, R. E. Stratmann, 
 O. Yazyev, A. J. Austin, R. Cammi, C. Pomelli, J. W. Ochterski, 
 R. L. Martin, K. Morokuma, V. G. Zakrzewski, G. A. Voth, 
 P. Salvador, J. J. Dannenberg, S. Dapprich, A. D. Daniels, 
 O. Farkas, J. B. Foresman, J. V. Ortiz, J. Cioslowski, 
 and D. J. Fox, Gaussian, Inc., Wallingford CT, 2013.
 
 ******************************************
 Gaussian 09:  ES64L-G09RevE.01 30-Nov-2015
                17-Dec-2024 
 ******************************************
 %chk=b3lypD33HPA2.chk
 ----------------------------------------------------
 # opt freq b3lyp/6-31+g(d,p) EmpiricalDispersion=GD3
 ----------------------------------------------------
 1/14=-1,18=20,19=15,26=3,38=1/1,3;
 2/9=110,12=2,17=6,18=5,40=1/2;
 3/5=1,6=6,7=111,11=2,16=1,25=1,30=1,71=1,74=-5,124=31/1,2,3;
 4//1;
 5/5=2,38=5/2;
 6/7=2,8=2,9=2,10=2,28=1/1;
 7//1,2,3,16;
 1/14=-1,18=20,19=15,26=3/3(2);
 2/9=110/2;
 99//99;
 2/9=110/2;
 3/5=1,6=6,7=111,11=2,16=1,25=1,30=1,71=1,74=-5,124=31/1,2,3;
 4/5=5,16=3,69=1/1;
 5/5=2,38=5/2;
 7//1,2,3,16;
 1/14=-1,18=20,19=15,26=3/3(-5);
 2/9=110/2;
 6/7=2,8=2,9=2,10=2,19=2,28=1/1;
 99/9=1/99;
 ----------
 [No Title]
 ----------
 Symbolic Z-matrix:
 Charge =  1 Multiplicity = 1
 N                    -0.50626  -1.35033  -0.00004 
 C                    -1.83537  -1.42015  -0.00002 
 C                    -2.56483  -0.22804   0.00005 
 C                    -1.89785   0.98128   0.00009 
 C                    -0.48334   1.02407   0.00006 
 C                     0.20632  -0.19613  -0.00001 
 C                     1.67697  -0.42244  -0.00004 
 O                     2.15021  -1.53255  -0.00015 
 O                     2.36549   0.7265   -0.00002 
 O                     0.09018   2.21546   0.0001 
 H                     0.06858  -2.19871  -0.00009 
 H                    -2.28324  -2.40674  -0.00005 
 H                    -3.64836  -0.26734   0.00006 
 H                    -2.43581   1.92466   0.00014 
 H                     3.32208   0.54278  -0.00007 
 H                     1.06218   2.15085   0.00007 
 

 GradGradGradGradGradGradGradGradGradGradGradGradGradGradGradGradGradGrad
 Berny optimization.
 Initialization pass.
                           ----------------------------
                           !    Initial Parameters    !
                           ! (Angstroms and Degrees)  !
 --------------------------                            --------------------------
 ! Name  Definition              Value          Derivative Info.                !
 --------------------------------------------------------------------------------
 ! R1    R(1,2)                  1.3309         estimate D2E/DX2                !
 ! R2    R(1,6)                  1.3564         estimate D2E/DX2                !
 ! R3    R(1,11)                 1.0248         estimate D2E/DX2                !
 ! R4    R(2,3)                  1.3976         estimate D2E/DX2                !
 ! R5    R(2,12)                 1.0835         estimate D2E/DX2                !
 ! R6    R(3,4)                  1.3811         estimate D2E/DX2                !
 ! R7    R(3,13)                 1.0842         estimate D2E/DX2                !
 ! R8    R(4,5)                  1.4152         estimate D2E/DX2                !
 ! R9    R(4,14)                 1.086          estimate D2E/DX2                !
 ! R10   R(5,6)                  1.4016         estimate D2E/DX2                !
 ! R11   R(5,10)                 1.3223         estimate D2E/DX2                !
 ! R12   R(6,7)                  1.488          estimate D2E/DX2                !
 ! R13   R(7,8)                  1.2068         estimate D2E/DX2                !
 ! R14   R(7,9)                  1.3394         estimate D2E/DX2                !
 ! R15   R(9,15)                 0.9741         estimate D2E/DX2                !
 ! R16   R(10,16)                0.9742         estimate D2E/DX2                !
 ! A1    A(2,1,6)              124.6979         estimate D2E/DX2                !
 ! A2    A(2,1,11)             121.1133         estimate D2E/DX2                !
 ! A3    A(6,1,11)             114.1888         estimate D2E/DX2                !
 ! A4    A(1,2,3)              118.4556         estimate D2E/DX2                !
 ! A5    A(1,2,12)             117.4234         estimate D2E/DX2                !
 ! A6    A(3,2,12)             124.121          estimate D2E/DX2                !
 ! A7    A(2,3,4)              119.6591         estimate D2E/DX2                !
 ! A8    A(2,3,13)             119.3855         estimate D2E/DX2                !
 ! A9    A(4,3,13)             120.9554         estimate D2E/DX2                !
 ! A10   A(3,4,5)              120.6105         estimate D2E/DX2                !
 ! A11   A(3,4,14)             121.4279         estimate D2E/DX2                !
 ! A12   A(5,4,14)             117.9615         estimate D2E/DX2                !
 ! A13   A(4,5,6)              117.7429         estimate D2E/DX2                !
 ! A14   A(4,5,10)             117.4377         estimate D2E/DX2                !
 ! A15   A(6,5,10)             124.8194         estimate D2E/DX2                !
 ! A16   A(1,6,5)              118.834          estimate D2E/DX2                !
 ! A17   A(1,6,7)              112.9425         estimate D2E/DX2                !
 ! A18   A(5,6,7)              128.2235         estimate D2E/DX2                !
 ! A19   A(6,7,8)              121.8365         estimate D2E/DX2                !
 ! A20   A(6,7,9)              112.1846         estimate D2E/DX2                !
 ! A21   A(8,7,9)              125.9789         estimate D2E/DX2                !
 ! A22   A(7,9,15)             110.0612         estimate D2E/DX2                !
 ! A23   A(5,10,16)            111.902          estimate D2E/DX2                !
 ! D1    D(6,1,2,3)              0.0            estimate D2E/DX2                !
 ! D2    D(6,1,2,12)           180.0            estimate D2E/DX2                !
 ! D3    D(11,1,2,3)           179.9999         estimate D2E/DX2                !
 ! D4    D(11,1,2,12)           -0.0001         estimate D2E/DX2                !
 ! D5    D(2,1,6,5)              0.0            estimate D2E/DX2                !
 ! D6    D(2,1,6,7)            179.9998         estimate D2E/DX2                !
 ! D7    D(11,1,6,5)          -179.9998         estimate D2E/DX2                !
 ! D8    D(11,1,6,7)            -0.0001         estimate D2E/DX2                !
 ! D9    D(1,2,3,4)             -0.0001         estimate D2E/DX2                !
 ! D10   D(1,2,3,13)          -180.0            estimate D2E/DX2                !
 ! D11   D(12,2,3,4)           179.9999         estimate D2E/DX2                !
 ! D12   D(12,2,3,13)            0.0001         estimate D2E/DX2                !
 ! D13   D(2,3,4,5)              0.0001         estimate D2E/DX2                !
 ! D14   D(2,3,4,14)           179.9999         estimate D2E/DX2                !
 ! D15   D(13,3,4,5)           180.0            estimate D2E/DX2                !
 ! D16   D(13,3,4,14)           -0.0002         estimate D2E/DX2                !
 ! D17   D(3,4,5,6)             -0.0001         estimate D2E/DX2                !
 ! D18   D(3,4,5,10)           179.9997         estimate D2E/DX2                !
 ! D19   D(14,4,5,6)          -179.9999         estimate D2E/DX2                !
 ! D20   D(14,4,5,10)           -0.0001         estimate D2E/DX2                !
 ! D21   D(4,5,6,1)              0.0            estimate D2E/DX2                !
 ! D22   D(4,5,6,7)           -179.9997         estimate D2E/DX2                !
 ! D23   D(10,5,6,1)          -179.9998         estimate D2E/DX2                !
 ! D24   D(10,5,6,7)             0.0005         estimate D2E/DX2                !
 ! D25   D(4,5,10,16)         -179.9995         estimate D2E/DX2                !
 ! D26   D(6,5,10,16)            0.0003         estimate D2E/DX2                !
 ! D27   D(1,6,7,8)              0.0032         estimate D2E/DX2                !
 ! D28   D(1,6,7,9)            179.9992         estimate D2E/DX2                !
 ! D29   D(5,6,7,8)           -179.9971         estimate D2E/DX2                !
 ! D30   D(5,6,7,9)             -0.0011         estimate D2E/DX2                !
 ! D31   D(6,7,9,15)          -179.9979         estimate D2E/DX2                !
 ! D32   D(8,7,9,15)            -0.0021         estimate D2E/DX2                !
 --------------------------------------------------------------------------------
 Trust Radius=3.00D-01 FncErr=1.00D-07 GrdErr=1.00D-06
 Number of steps in this run=     81 maximum allowed number of steps=    100.
 GradGradGradGradGradGradGradGradGradGradGradGradGradGradGradGradGradGrad

                          Input orientation:                          
 ---------------------------------------------------------------------
 Center     Atomic      Atomic             Coordinates (Angstroms)
 Number     Number       Type             X           Y           Z
 ---------------------------------------------------------------------
      1          7           0       -0.506264   -1.350327   -0.000041
      2          6           0       -1.835367   -1.420151   -0.000019
      3          6           0       -2.564829   -0.228041    0.000045
      4          6           0       -1.897850    0.981282    0.000086
      5          6           0       -0.483339    1.024065    0.000061
      6          6           0        0.206322   -0.196131   -0.000005
      7          6           0        1.676970   -0.422436   -0.000037
      8          8           0        2.150208   -1.532553   -0.000146
      9          8           0        2.365485    0.726499   -0.000019
     10          8           0        0.090178    2.215464    0.000097
     11          1           0        0.068577   -2.198708   -0.000086
     12          1           0       -2.283240   -2.406742   -0.000053
     13          1           0       -3.648355   -0.267343    0.000064
     14          1           0       -2.435809    1.924655    0.000135
     15          1           0        3.322077    0.542782   -0.000074
     16          1           0        1.062184    2.150847    0.000068
 ---------------------------------------------------------------------
                    Distance matrix (angstroms):
                    1          2          3          4          5
     1  N    0.000000
     2  C    1.330936   0.000000
     3  C    2.344614   1.397584   0.000000
     4  C    2.715311   2.402246   1.381059   0.000000
     5  C    2.374503   2.793237   2.429068   1.415158   0.000000
     6  C    1.356447   2.380487   2.771335   2.411191   1.401610
     7  C    2.372234   3.651294   4.246251   3.840542   2.599865
     8  O    2.662715   3.987160   4.892170   4.765096   3.670404
     9  O    3.544030   4.717548   5.021866   4.270941   2.864323
    10  O    3.615330   4.114052   3.608293   2.339970   1.322253
    11  H    1.024789   2.056977   3.289127   3.738873   3.269691
    12  H    2.067282   1.083491   2.196823   3.409873   3.874284
    13  H    3.323491   2.148463   1.084239   2.150194   3.418342
    14  H    3.801138   3.398273   2.156559   1.085980   2.150163
    15  H    4.270838   5.518363   5.937157   5.238313   3.835730
    16  H    3.836437   4.598677   4.337549   3.182716   1.912663
                    6          7          8          9         10
     6  C    0.000000
     7  C    1.487958   0.000000
     8  O    2.358965   1.206778   0.000000
     9  O    2.348027   1.339442   2.269286   0.000000
    10  O    2.414390   3.078380   4.276839   2.719198   0.000000
    11  H    2.007309   2.396262   2.185624   3.719223   4.414225
    12  H    3.329372   4.429530   4.518813   5.606054   5.195950
    13  H    3.855335   5.327583   5.934989   6.095408   4.487868
    14  H    3.388007   4.735376   5.743156   4.948535   2.542672
    15  H    3.202175   1.907360   2.383336   0.974074   3.639098
    16  H    2.498160   2.645704   3.840733   1.930637   0.974151
                   11         12         13         14         15
    11  H    0.000000
    12  H    2.361000   0.000000
    13  H    4.188765   2.537827   0.000000
    14  H    4.824321   4.334083   2.505020   0.000000
    15  H    4.254530   6.333977   7.017352   5.921387   0.000000
    16  H    4.461601   5.653625   5.294981   3.505299   2.773624
                   16
    16  H    0.000000
 Stoichiometry    C6H6NO3(1+)
 Framework group  C1[X(C6H6NO3)]
 Deg. of freedom    42
 Full point group                 C1      NOp   1
 Largest Abelian subgroup         C1      NOp   1
 Largest concise Abelian subgroup C1      NOp   1
                         Standard orientation:                         
 ---------------------------------------------------------------------
 Center     Atomic      Atomic             Coordinates (Angstroms)
 Number     Number       Type             X           Y           Z
 ---------------------------------------------------------------------
      1          7           0       -0.506264   -1.350327   -0.000041
      2          6           0       -1.835367   -1.420151   -0.000019
      3          6           0       -2.564829   -0.228040    0.000045
      4          6           0       -1.897850    0.981283    0.000086
      5          6           0       -0.483339    1.024065    0.000061
      6          6           0        0.206322   -0.196131   -0.000005
      7          6           0        1.676970   -0.422437   -0.000037
      8          8           0        2.150208   -1.532554   -0.000146
      9          8           0        2.365485    0.726498   -0.000019
     10          8           0        0.090179    2.215464    0.000097
     11          1           0        0.068576   -2.198708   -0.000086
     12          1           0       -2.283241   -2.406741   -0.000053
     13          1           0       -3.648355   -0.267342    0.000064
     14          1           0       -2.435808    1.924656    0.000135
     15          1           0        3.322077    0.542781   -0.000074
     16          1           0        1.062185    2.150847    0.000068
 ---------------------------------------------------------------------
 Rotational constants (GHZ):      2.2876459      1.2515636      0.8089757
 Standard basis: 6-31+G(d,p) (6D, 7F)
 There are   220 symmetry adapted cartesian basis functions of A   symmetry.
 There are   220 symmetry adapted basis functions of A   symmetry.
   220 basis functions,   362 primitive gaussians,   220 cartesian basis functions
    36 alpha electrons       36 beta electrons
       nuclear repulsion energy       521.6884515608 Hartrees.
 NAtoms=   16 NActive=   16 NUniq=   16 SFac= 1.00D+00 NAtFMM=   60 NAOKFM=F Big=F
 Integral buffers will be    131072 words long.
 Raffenetti 2 integral format.
 Two-electron integral symmetry is turned on.
 Nuclear repulsion after empirical dispersion term =      521.6771573709 Hartrees.
 One-electron integrals computed using PRISM.
 NBasis=   220 RedAO= T EigKep=  4.76D-06  NBF=   220
 NBsUse=   220 1.00D-06 EigRej= -1.00D+00 NBFU=   220
 ExpMin= 4.38D-02 ExpMax= 5.48D+03 ExpMxC= 8.25D+02 IAcc=2 IRadAn=         4 AccDes= 0.00D+00
 Harris functional with IExCor=  402 and IRadAn=       4 diagonalized for initial guess.
 HarFok:  IExCor=  402 AccDes= 0.00D+00 IRadAn=         4 IDoV= 1 UseB2=F ITyADJ=14
 ICtDFT=  3500011 ScaDFX=  1.000000  1.000000  1.000000  1.000000
 FoFCou: FMM=F IPFlag=           0 FMFlag=      100000 FMFlg1=           0
         NFxFlg=           0 DoJE=T BraDBF=F KetDBF=T FulRan=T
         wScrn=  0.000000 ICntrl=     500 IOpCl=  0 I1Cent=   200000004 NGrid=           0
         NMat0=    1 NMatS0=      1 NMatT0=    0 NMatD0=    1 NMtDS0=    0 NMtDT0=    0
 Petite list used in FoFCou.
 Keep R1 ints in memory in canonical form, NReq=301066375.
 Requested convergence on RMS density matrix=1.00D-08 within 128 cycles.
 Requested convergence on MAX density matrix=1.00D-06.
 Requested convergence on             energy=1.00D-06.
 No special actions if energy rises.
 EnCoef did     4 forward-backward iterations
 SCF Done:  E(RB3LYP) =  -512.493116651     A.U. after   14 cycles
            NFock= 14  Conv=0.85D-08     -V/T= 2.0091

 **********************************************************************

            Population analysis using the SCF density.

 **********************************************************************

 Orbital symmetries:
       Occupied  (A) (A) (A) (A) (A) (A) (A) (A) (A) (A) (A) (A)
                 (A) (A) (A) (A) (A) (A) (A) (A) (A) (A) (A) (A)
                 (A) (A) (A) (A) (A) (A) (A) (A) (A) (A) (A) (A)
       Virtual   (A) (A) (A) (A) (A) (A) (A) (A) (A) (A) (A) (A)
                 (A) (A) (A) (A) (A) (A) (A) (A) (A) (A) (A) (A)
                 (A) (A) (A) (A) (A) (A) (A) (A) (A) (A) (A) (A)
                 (A) (A) (A) (A) (A) (A) (A) (A) (A) (A) (A) (A)
                 (A) (A) (A) (A) (A) (A) (A) (A) (A) (A) (A) (A)
                 (A) (A) (A) (A) (A) (A) (A) (A) (A) (A) (A) (A)
                 (A) (A) (A) (A) (A) (A) (A) (A) (A) (A) (A) (A)
                 (A) (A) (A) (A) (A) (A) (A) (A) (A) (A) (A) (A)
                 (A) (A) (A) (A) (A) (A) (A) (A) (A) (A) (A) (A)
                 (A) (A) (A) (A) (A) (A) (A) (A) (A) (A) (A) (A)
                 (A) (A) (A) (A) (A) (A) (A) (A) (A) (A) (A) (A)
                 (A) (A) (A) (A) (A) (A) (A) (A) (A) (A) (A) (A)
                 (A) (A) (A) (A) (A) (A) (A) (A) (A) (A) (A) (A)
                 (A) (A) (A) (A) (A) (A) (A) (A) (A) (A) (A) (A)
                 (A) (A) (A) (A) (A) (A) (A) (A) (A) (A) (A) (A)
                 (A) (A) (A) (A)
 The electronic state is 1-A.
 Alpha  occ. eigenvalues --  -19.40197 -19.38036 -19.34037 -14.63582 -10.52680
 Alpha  occ. eigenvalues --  -10.48217 -10.45978 -10.45667 -10.41507 -10.41315
 Alpha  occ. eigenvalues --   -1.31140  -1.27322  -1.23069  -1.20921  -1.02614
 Alpha  occ. eigenvalues --   -1.00382  -0.89846  -0.86735  -0.84083  -0.78702
 Alpha  occ. eigenvalues --   -0.75695  -0.72106  -0.70164  -0.67800  -0.67315
 Alpha  occ. eigenvalues --   -0.67241  -0.62706  -0.61403  -0.60502  -0.59785
 Alpha  occ. eigenvalues --   -0.59329  -0.55092  -0.52047  -0.49803  -0.48432
 Alpha  occ. eigenvalues --   -0.44917
 Alpha virt. eigenvalues --   -0.27738  -0.22602  -0.15222  -0.15108  -0.13630
 Alpha virt. eigenvalues --   -0.11448  -0.11031  -0.09553  -0.09036  -0.08495
 Alpha virt. eigenvalues --   -0.06210  -0.05456  -0.05262  -0.04686  -0.04315
 Alpha virt. eigenvalues --   -0.03495  -0.02052  -0.01668  -0.00975  -0.00459
 Alpha virt. eigenvalues --   -0.00238   0.00545   0.01988   0.02132   0.02643
 Alpha virt. eigenvalues --    0.03287   0.04245   0.04656   0.05221   0.06179
 Alpha virt. eigenvalues --    0.07480   0.08176   0.08256   0.08691   0.09307
 Alpha virt. eigenvalues --    0.09667   0.10830   0.11347   0.11749   0.12963
 Alpha virt. eigenvalues --    0.13383   0.13942   0.14335   0.14570   0.15800
 Alpha virt. eigenvalues --    0.16756   0.17291   0.18320   0.19044   0.19312
 Alpha virt. eigenvalues --    0.21780   0.22935   0.24126   0.24705   0.25477
 Alpha virt. eigenvalues --    0.29551   0.32716   0.34862   0.40342   0.43292
 Alpha virt. eigenvalues --    0.46664   0.47100   0.50990   0.51591   0.53074
 Alpha virt. eigenvalues --    0.54293   0.55840   0.57139   0.57776   0.62323
 Alpha virt. eigenvalues --    0.63057   0.65478   0.69563   0.70432   0.73419
 Alpha virt. eigenvalues --    0.77010   0.77647   0.80730   0.83231   0.85702
 Alpha virt. eigenvalues --    0.86464   0.89980   0.91849   0.93821   0.94985
 Alpha virt. eigenvalues --    0.96227   0.97603   1.00158   1.00352   1.01877
 Alpha virt. eigenvalues --    1.02268   1.05282   1.05573   1.08288   1.10917
 Alpha virt. eigenvalues --    1.11115   1.12867   1.13995   1.16929   1.16999
 Alpha virt. eigenvalues --    1.18069   1.19375   1.19754   1.21396   1.21482
 Alpha virt. eigenvalues --    1.23429   1.27795   1.34266   1.37428   1.38881
 Alpha virt. eigenvalues --    1.42209   1.42440   1.53373   1.54916   1.56567
 Alpha virt. eigenvalues --    1.56860   1.59070   1.61898   1.65217   1.69156
 Alpha virt. eigenvalues --    1.72333   1.73334   1.74321   1.76919   1.79494
 Alpha virt. eigenvalues --    1.79930   1.83867   1.87717   1.88029   1.89613
 Alpha virt. eigenvalues --    1.91778   1.94093   2.04266   2.05882   2.08949
 Alpha virt. eigenvalues --    2.11028   2.15449   2.17549   2.18249   2.19337
 Alpha virt. eigenvalues --    2.20697   2.21722   2.27480   2.30407   2.33731
 Alpha virt. eigenvalues --    2.33799   2.35295   2.35437   2.38986   2.39881
 Alpha virt. eigenvalues --    2.40845   2.46422   2.47889   2.50799   2.55860
 Alpha virt. eigenvalues --    2.56436   2.57736   2.60269   2.63611   2.69927
 Alpha virt. eigenvalues --    2.78201   2.86783   2.91291   2.93596   3.00096
 Alpha virt. eigenvalues --    3.04930   3.07880   3.08744   3.18307   3.23259
 Alpha virt. eigenvalues --    3.28966   3.34228   3.42081   3.69367   4.00220
 Alpha virt. eigenvalues --    4.08231   4.13285   4.17181   4.21554   4.28263
 Alpha virt. eigenvalues --    4.35720   4.48476   4.71137   4.75112
          Condensed to atoms (all electrons):
               1          2          3          4          5          6
     1  N    6.671104   0.145647  -0.017734  -0.061400  -0.236264   0.394669
     2  C    0.145647   5.772994   0.096615   0.265296  -0.235510  -0.431159
     3  C   -0.017734   0.096615   5.193035  -0.360580   1.090721  -0.299361
     4  C   -0.061400   0.265296  -0.360580   7.631337  -2.770814   1.014185
     5  C   -0.236264  -0.235510   1.090721  -2.770814  13.124736  -4.209773
     6  C    0.394669  -0.431159  -0.299361   1.014185  -4.209773   9.460200
     7  C    0.018858   0.155668  -0.215490   0.276271  -1.588420   0.408782
     8  O    0.015342   0.043199  -0.010345   0.030248   0.020129  -0.345533
     9  O    0.018298   0.005151  -0.002948   0.026698  -0.054604  -0.023145
    10  O    0.014416  -0.000477   0.024793  -0.351845   0.269753   0.043909
    11  H    0.298437  -0.049882   0.036589  -0.024531   0.101765  -0.030559
    12  H   -0.062869   0.370222  -0.023763   0.036306  -0.042163   0.036041
    13  H    0.001981   0.030139   0.292502   0.027018  -0.030831   0.011202
    14  H    0.003896  -0.014167   0.053934   0.195154   0.141072  -0.044891
    15  H   -0.001162  -0.001230   0.000687  -0.000712   0.009843   0.027660
    16  H   -0.000316  -0.001220  -0.005345   0.062172   0.025255  -0.095332
               7          8          9         10         11         12
     1  N    0.018858   0.015342   0.018298   0.014416   0.298437  -0.062869
     2  C    0.155668   0.043199   0.005151  -0.000477  -0.049882   0.370222
     3  C   -0.215490  -0.010345  -0.002948   0.024793   0.036589  -0.023763
     4  C    0.276271   0.030248   0.026698  -0.351845  -0.024531   0.036306
     5  C   -1.588420   0.020129  -0.054604   0.269753   0.101765  -0.042163
     6  C    0.408782  -0.345533  -0.023145   0.043909  -0.030559   0.036041
     7  C    6.047444   0.535426   0.056614  -0.017570  -0.073632   0.013646
     8  O    0.535426   8.262736  -0.148150  -0.002407   0.028994   0.000022
     9  O    0.056614  -0.148150   8.444902   0.000129   0.002677   0.000022
    10  O   -0.017570  -0.002407   0.000129   8.325975  -0.000338   0.000135
    11  H   -0.073632   0.028994   0.002677  -0.000338   0.342735  -0.003966
    12  H    0.013646   0.000022   0.000022   0.000135  -0.003966   0.467782
    13  H    0.002452   0.000006  -0.000000  -0.000466  -0.000125  -0.002883
    14  H   -0.002119  -0.000001   0.000172  -0.010152   0.000014  -0.000097
    15  H   -0.013438   0.005732   0.217819   0.001205  -0.000053  -0.000000
    16  H    0.021102   0.001387   0.027945   0.206277  -0.000022  -0.000000
              13         14         15         16
     1  N    0.001981   0.003896  -0.001162  -0.000316
     2  C    0.030139  -0.014167  -0.001230  -0.001220
     3  C    0.292502   0.053934   0.000687  -0.005345
     4  C    0.027018   0.195154  -0.000712   0.062172
     5  C   -0.030831   0.141072   0.009843   0.025255
     6  C    0.011202  -0.044891   0.027660  -0.095332
     7  C    0.002452  -0.002119  -0.013438   0.021102
     8  O    0.000006  -0.000001   0.005732   0.001387
     9  O   -0.000000   0.000172   0.217819   0.027945
    10  O   -0.000466  -0.010152   0.001205   0.206277
    11  H   -0.000125   0.000014  -0.000053  -0.000022
    12  H   -0.002883  -0.000097  -0.000000  -0.000000
    13  H    0.468443  -0.004432   0.000000   0.000003
    14  H   -0.004432   0.475237  -0.000000  -0.000002
    15  H    0.000000  -0.000000   0.307837   0.000701
    16  H    0.000003  -0.000002   0.000701   0.325954
 Mulliken charges:
               1
     1  N   -0.202903
     2  C   -0.151288
     3  C    0.146692
     4  C    0.005196
     5  C    0.385103
     6  C    0.083106
     7  C    0.374405
     8  O   -0.436784
     9  O   -0.571579
    10  O   -0.503338
    11  H    0.371897
    12  H    0.211565
    13  H    0.204992
    14  H    0.206382
    15  H    0.445110
    16  H    0.431442
 Sum of Mulliken charges =   1.00000
 Mulliken charges with hydrogens summed into heavy atoms:
               1
     1  N    0.168995
     2  C    0.060278
     3  C    0.351684
     4  C    0.211578
     5  C    0.385103
     6  C    0.083106
     7  C    0.374405
     8  O   -0.436784
     9  O   -0.126468
    10  O   -0.071896
 Electronic spatial extent (au):  <R**2>=           1309.1641
 Charge=              1.0000 electrons
 Dipole moment (field-independent basis, Debye):
    X=             -2.5993    Y=             -1.1212    Z=              0.0001  Tot=              2.8308
 Quadrupole moment (field-independent basis, Debye-Ang):
   XX=            -25.6616   YY=            -44.9578   ZZ=            -56.1574
   XY=              9.7103   XZ=             -0.0002   YZ=              0.0001
 Traceless Quadrupole moment (field-independent basis, Debye-Ang):
   XX=             16.5973   YY=             -2.6988   ZZ=            -13.8985
   XY=              9.7103   XZ=             -0.0002   YZ=              0.0001
 Octapole moment (field-independent basis, Debye-Ang**2):
  XXX=             10.4507  YYY=            -15.3621  ZZZ=             -0.0006  XYY=            -13.6622
  XXY=             17.1350  XXZ=              0.0005  XZZ=              8.5331  YZZ=              0.5856
  YYZ=             -0.0003  XYZ=             -0.0017
 Hexadecapole moment (field-independent basis, Debye-Ang**3):
 XXXX=           -656.6922 YYYY=           -495.2797 ZZZZ=            -53.7294 XXXY=             69.7943
 XXXZ=              0.0048 YYYX=             48.4326 YYYZ=             -0.0101 ZZZX=              0.0117
 ZZZY=             -0.0119 XXYY=           -225.7343 XXZZ=           -184.8642 YYZZ=           -104.7151
 XXYZ=             -0.0045 YYXZ=              0.0052 ZZXY=             -0.6879
 N-N= 5.216771573709D+02 E-N=-2.225793151457D+03  KE= 5.078960288465D+02
 Calling FoFJK, ICntrl=      2127 FMM=F ISym2X=0 I1Cent= 0 IOpClX= 0 NMat=1 NMatS=1 NMatT=0.
 ***** Axes restored to original set *****
 -------------------------------------------------------------------
 Center     Atomic                   Forces (Hartrees/Bohr)
 Number     Number              X              Y              Z
 -------------------------------------------------------------------
      1        7           0.001164412   -0.003443889    0.000000303
      2        6          -0.002640782   -0.002629698   -0.000000275
      3        6          -0.002914841    0.000031578    0.000000352
      4        6          -0.001462554    0.002417034   -0.000000269
      5        6          -0.001457275   -0.002546336   -0.000000390
      6        6           0.001145246    0.001251083    0.000003227
      7        6          -0.002897091   -0.000122434   -0.000009426
      8        8           0.002767407   -0.003652143    0.000003553
      9        8           0.002023880    0.003603049    0.000002757
     10        8           0.001337789    0.004076647    0.000000262
     11        1          -0.000640755   -0.000680596   -0.000000336
     12        1          -0.000020011    0.000310535   -0.000000024
     13        1           0.000281930    0.000003123   -0.000000060
     14        1           0.000312434   -0.000237787    0.000000101
     15        1           0.001853527    0.000370786    0.000000028
     16        1           0.001146684    0.001249047    0.000000196
 -------------------------------------------------------------------
 Cartesian Forces:  Max     0.004076647 RMS     0.001630516

 GradGradGradGradGradGradGradGradGradGradGradGradGradGradGradGradGradGrad
 Berny optimization.
 FormGI is forming the generalized inverse of G from B-inverse, IUseBI=4.
 Internal  Forces:  Max     0.005876382 RMS     0.001676444
 Search for a local minimum.
 Step number   1 out of a maximum of   81
 All quantities printed in internal units (Hartrees-Bohrs-Radians)
 Mixed Optimization -- RFO/linear search
 Second derivative matrix not updated -- first step.
 ITU=  0
     Eigenvalues ---    0.00925   0.01482   0.01758   0.02012   0.02117
     Eigenvalues ---    0.02156   0.02205   0.02233   0.02339   0.02391
     Eigenvalues ---    0.02469   0.02493   0.02720   0.16000   0.16000
     Eigenvalues ---    0.16000   0.16000   0.16000   0.16000   0.22000
     Eigenvalues ---    0.22479   0.24466   0.25000   0.25000   0.25000
     Eigenvalues ---    0.25000   0.33674   0.35281   0.35487   0.35576
     Eigenvalues ---    0.41216   0.42750   0.43583   0.45716   0.47268
     Eigenvalues ---    0.52352   0.52538   0.52553   0.57330   0.57614
     Eigenvalues ---    0.61373   1.01490
 RFO step:  Lambda=-4.31358417D-04 EMin= 9.25237861D-03
 Linear search not attempted -- first point.
 Iteration  1 RMS(Cart)=  0.01060096 RMS(Int)=  0.00004331
 Iteration  2 RMS(Cart)=  0.00004486 RMS(Int)=  0.00000085
 Iteration  3 RMS(Cart)=  0.00000000 RMS(Int)=  0.00000085
 Variable       Old X    -DE/DX   Delta X   Delta X   Delta X     New X
                                 (Linear)    (Quad)   (Total)
    R1        2.51510   0.00396   0.00000   0.00692   0.00692   2.52203
    R2        2.56331   0.00560   0.00000   0.01078   0.01078   2.57409
    R3        1.93657   0.00020   0.00000   0.00047   0.00047   1.93704
    R4        2.64105   0.00236   0.00000   0.00502   0.00502   2.64607
    R5        2.04750  -0.00027   0.00000  -0.00077  -0.00077   2.04673
    R6        2.60982   0.00235   0.00000   0.00441   0.00441   2.61424
    R7        2.04891  -0.00028   0.00000  -0.00079  -0.00079   2.04812
    R8        2.67426   0.00249   0.00000   0.00542   0.00542   2.67968
    R9        2.05220  -0.00036   0.00000  -0.00102  -0.00102   2.05118
   R10        2.64866   0.00335   0.00000   0.00749   0.00749   2.65615
   R11        2.49870   0.00588   0.00000   0.00957   0.00957   2.50826
   R12        2.81183   0.00367   0.00000   0.01090   0.01090   2.82273
   R13        2.28048   0.00445   0.00000   0.00438   0.00438   2.28486
   R14        2.53118   0.00540   0.00000   0.00941   0.00941   2.54059
   R15        1.84073   0.00175   0.00000   0.00333   0.00333   1.84406
   R16        1.84088   0.00106   0.00000   0.00202   0.00202   1.84290
    A1        2.17639  -0.00034   0.00000  -0.00010  -0.00010   2.17629
    A2        2.11383  -0.00072   0.00000  -0.00546  -0.00546   2.10837
    A3        1.99297   0.00105   0.00000   0.00556   0.00556   1.99853
    A4        2.06744   0.00013   0.00000   0.00102   0.00102   2.06846
    A5        2.04943   0.00009   0.00000   0.00043   0.00043   2.04986
    A6        2.16632  -0.00022   0.00000  -0.00145  -0.00145   2.16487
    A7        2.08845   0.00011   0.00000  -0.00059  -0.00060   2.08785
    A8        2.08367  -0.00006   0.00000   0.00026   0.00026   2.08393
    A9        2.11107  -0.00005   0.00000   0.00033   0.00034   2.11141
   A10        2.10505   0.00064   0.00000   0.00134   0.00134   2.10639
   A11        2.11932  -0.00016   0.00000   0.00032   0.00032   2.11964
   A12        2.05882  -0.00048   0.00000  -0.00166  -0.00166   2.05716
   A13        2.05500   0.00044   0.00000   0.00133   0.00133   2.05633
   A14        2.04967  -0.00152   0.00000  -0.00587  -0.00587   2.04380
   A15        2.17851   0.00109   0.00000   0.00454   0.00454   2.18305
   A16        2.07404  -0.00098   0.00000  -0.00299  -0.00299   2.07106
   A17        1.97122   0.00186   0.00000   0.00697   0.00697   1.97819
   A18        2.23792  -0.00088   0.00000  -0.00398  -0.00399   2.23394
   A19        2.12645   0.00105   0.00000   0.00417   0.00417   2.13062
   A20        1.95799   0.00045   0.00000   0.00179   0.00179   1.95978
   A21        2.19875  -0.00149   0.00000  -0.00596  -0.00596   2.19279
   A22        1.92093   0.00131   0.00000   0.00818   0.00818   1.92911
   A23        1.95306   0.00243   0.00000   0.01517   0.01517   1.96823
    D1        0.00000  -0.00000   0.00000  -0.00000  -0.00000  -0.00000
    D2        3.14159  -0.00000   0.00000  -0.00000  -0.00000   3.14159
    D3        3.14159   0.00000   0.00000   0.00001   0.00001  -3.14159
    D4       -0.00000   0.00000   0.00000   0.00001   0.00001   0.00000
    D5        0.00000   0.00000   0.00000   0.00000   0.00000   0.00000
    D6        3.14159   0.00000   0.00000   0.00001   0.00001  -3.14159
    D7       -3.14159  -0.00000   0.00000  -0.00001  -0.00001   3.14159
    D8       -0.00000  -0.00000   0.00000  -0.00000  -0.00000  -0.00000
    D9       -0.00000   0.00000   0.00000   0.00000   0.00000   0.00000
   D10       -3.14159   0.00000   0.00000   0.00000   0.00000  -3.14159
   D11        3.14159   0.00000   0.00000   0.00000   0.00000  -3.14159
   D12        0.00000   0.00000   0.00000   0.00000   0.00000   0.00000
   D13        0.00000  -0.00000   0.00000  -0.00000  -0.00000  -0.00000
   D14        3.14159   0.00000   0.00000   0.00000   0.00000  -3.14159
   D15        3.14159   0.00000   0.00000   0.00000   0.00000   3.14159
   D16       -0.00000   0.00000   0.00000   0.00001   0.00001   0.00000
   D17       -0.00000   0.00000   0.00000   0.00000   0.00000   0.00000
   D18        3.14159   0.00000   0.00000   0.00001   0.00001  -3.14159
   D19       -3.14159  -0.00000   0.00000  -0.00000  -0.00000   3.14159
   D20       -0.00000   0.00000   0.00000   0.00000   0.00000   0.00000
   D21       -0.00000  -0.00000   0.00000  -0.00000  -0.00000  -0.00000
   D22       -3.14159  -0.00000   0.00000  -0.00001  -0.00001   3.14159
   D23       -3.14159  -0.00000   0.00000  -0.00001  -0.00001   3.14159
   D24        0.00001  -0.00000   0.00000  -0.00002  -0.00002  -0.00001
   D25       -3.14158  -0.00000   0.00000  -0.00001  -0.00001  -3.14159
   D26        0.00000  -0.00000   0.00000  -0.00000  -0.00000   0.00000
   D27        0.00006  -0.00000   0.00000  -0.00019  -0.00019  -0.00013
   D28        3.14158   0.00000   0.00000   0.00012   0.00012  -3.14149
   D29       -3.14154  -0.00000   0.00000  -0.00018  -0.00018   3.14147
   D30       -0.00002   0.00000   0.00000   0.00013   0.00013   0.00011
   D31       -3.14156  -0.00000   0.00000  -0.00016  -0.00016   3.14147
   D32       -0.00004   0.00000   0.00000   0.00016   0.00016   0.00012
         Item               Value     Threshold  Converged?
 Maximum Force            0.005876     0.000450     NO 
 RMS     Force            0.001676     0.000300     NO 
 Maximum Displacement     0.042200     0.001800     NO 
 RMS     Displacement     0.010612     0.001200     NO 
 Predicted change in Energy=-2.159300D-04
 GradGradGradGradGradGradGradGradGradGradGradGradGradGradGradGradGradGrad

                          Input orientation:                          
 ---------------------------------------------------------------------
 Center     Atomic      Atomic             Coordinates (Angstroms)
 Number     Number       Type             X           Y           Z
 ---------------------------------------------------------------------
      1          7           0       -0.511120   -1.359456   -0.000074
      2          6           0       -1.844132   -1.424515   -0.000015
      3          6           0       -2.571750   -0.228168    0.000075
      4          6           0       -1.899651    0.980989    0.000096
      5          6           0       -0.482192    1.021082    0.000031
      6          6           0        0.208651   -0.203001   -0.000057
      7          6           0        1.685752   -0.425226   -0.000143
      8          8           0        2.168261   -1.533872   -0.000084
      9          8           0        2.375016    0.729065    0.000007
     10          8           0        0.088837    2.219287    0.000060
     11          1           0        0.056048   -2.213283   -0.000145
     12          1           0       -2.295928   -2.408867   -0.000040
     13          1           0       -3.654968   -0.264247    0.000124
     14          1           0       -2.433928    1.925831    0.000166
     15          1           0        3.335086    0.554364    0.000063
     16          1           0        1.062966    2.173178    0.000011
 ---------------------------------------------------------------------
                    Distance matrix (angstroms):
                    1          2          3          4          5
     1  N    0.000000
     2  C    1.334600   0.000000
     3  C    2.350746   1.400240   0.000000
     4  C    2.721342   2.406145   1.383394   0.000000
     5  C    2.380714   2.799255   2.434518   1.418026   0.000000
     6  C    1.362152   2.388727   2.780514   2.418009   1.405576
     7  C    2.387264   3.668605   4.262060   3.851306   2.606106
     8  O    2.685051   4.013883   4.916560   4.782513   3.681398
     9  O    3.562541   4.736995   5.038530   4.282084   2.872092
    10  O    3.628684   4.124762   3.615074   2.342534   1.327316
    11  H    1.025036   2.057387   3.293327   3.745415   3.278844
    12  H    2.070460   1.083082   2.198072   3.412940   3.879973
    13  H    3.329154   2.150662   1.083819   2.152150   3.423241
    14  H    3.806613   3.401864   2.158404   1.085439   2.151243
    15  H    4.296045   5.544391   5.958445   5.252093   3.845704
    16  H    3.867460   4.625432   4.356332   3.193496   1.927392
                    6          7          8          9         10
     6  C    0.000000
     7  C    1.493725   0.000000
     8  O    2.368816   1.209095   0.000000
     9  O    2.358365   1.344423   2.272363   0.000000
    10  O    2.425249   3.089270   4.290712   2.728988   0.000000
    11  H    2.016065   2.419314   2.218792   3.746334   4.432691
    12  H    3.337478   4.448439   4.549131   5.627107   5.206430
    13  H    3.864104   5.343146   5.960029   6.111250   4.492662
    14  H    3.393398   4.743336   5.757577   4.955622   2.539775
    15  H    3.216862   1.918306   2.392115   0.975835   3.648301
    16  H    2.525091   2.671997   3.868320   1.951137   0.975220
                   11         12         13         14         15
    11  H    0.000000
    12  H    2.360094   0.000000
    13  H    4.191704   2.538973   0.000000
    14  H    4.830346   4.336894   2.507465   0.000000
    15  H    4.290916   6.363101   7.037825   5.929793   0.000000
    16  H    4.500547   5.681312   5.310362   3.505632   2.789818
                   16
    16  H    0.000000
 Stoichiometry    C6H6NO3(1+)
 Framework group  C1[X(C6H6NO3)]
 Deg. of freedom    42
 Full point group                 C1      NOp   1
 Largest Abelian subgroup         C1      NOp   1
 Largest concise Abelian subgroup C1      NOp   1
                         Standard orientation:                         
 ---------------------------------------------------------------------
 Center     Atomic      Atomic             Coordinates (Angstroms)
 Number     Number       Type             X           Y           Z
 ---------------------------------------------------------------------
      1          7           0       -0.514532   -1.357373   -0.000067
      2          6           0       -1.847623   -1.420809   -0.000007
      3          6           0       -2.573783   -0.223577    0.000082
      4          6           0       -1.900212    0.984761    0.000104
      5          6           0       -0.482706    1.023128    0.000039
      6          6           0        0.206646   -0.201795   -0.000049
      7          6           0        1.683476   -0.425819   -0.000135
      8          8           0        2.164634   -1.535052   -0.000077
      9          8           0        2.374145    0.727632    0.000015
     10          8           0        0.089782    2.220637    0.000068
     11          1           0        0.051596   -2.211889   -0.000137
     12          1           0       -2.300617   -2.404609   -0.000033
     13          1           0       -3.657044   -0.258336    0.000132
     14          1           0       -2.433339    1.930253    0.000173
     15          1           0        3.334001    0.551763    0.000070
     16          1           0        1.063855    2.173342    0.000019
 ---------------------------------------------------------------------
 Rotational constants (GHZ):      2.2766036      1.2409820      0.8031714
 Standard basis: 6-31+G(d,p) (6D, 7F)
 There are   220 symmetry adapted cartesian basis functions of A   symmetry.
 There are   220 symmetry adapted basis functions of A   symmetry.
   220 basis functions,   362 primitive gaussians,   220 cartesian basis functions
    36 alpha electrons       36 beta electrons
       nuclear repulsion energy       520.0057671525 Hartrees.
 NAtoms=   16 NActive=   16 NUniq=   16 SFac= 1.00D+00 NAtFMM=   60 NAOKFM=F Big=F
 Integral buffers will be    131072 words long.
 Raffenetti 2 integral format.
 Two-electron integral symmetry is turned on.
 Nuclear repulsion after empirical dispersion term =      519.9944138278 Hartrees.
 One-electron integrals computed using PRISM.
 NBasis=   220 RedAO= T EigKep=  4.89D-06  NBF=   220
 NBsUse=   220 1.00D-06 EigRej= -1.00D+00 NBFU=   220
 Initial guess from the checkpoint file:  "b3lypD33HPA2.chk"
 B after Tr=    -0.000000   -0.000000    0.000000
         Rot=    1.000000    0.000003    0.000000    0.000383 Ang=   0.04 deg.
 ExpMin= 4.38D-02 ExpMax= 5.48D+03 ExpMxC= 8.25D+02 IAcc=2 IRadAn=         4 AccDes= 0.00D+00
 Harris functional with IExCor=  402 and IRadAn=       4 diagonalized for initial guess.
 HarFok:  IExCor=  402 AccDes= 0.00D+00 IRadAn=         4 IDoV= 1 UseB2=F ITyADJ=14
 ICtDFT=  3500011 ScaDFX=  1.000000  1.000000  1.000000  1.000000
 FoFCou: FMM=F IPFlag=           0 FMFlag=      100000 FMFlg1=           0
         NFxFlg=           0 DoJE=T BraDBF=F KetDBF=T FulRan=T
         wScrn=  0.000000 ICntrl=     500 IOpCl=  0 I1Cent=   200000004 NGrid=           0
         NMat0=    1 NMatS0=      1 NMatT0=    0 NMatD0=    1 NMtDS0=    0 NMtDT0=    0
 Petite list used in FoFCou.
 Keep R1 ints in memory in canonical form, NReq=301066375.
 Requested convergence on RMS density matrix=1.00D-08 within 128 cycles.
 Requested convergence on MAX density matrix=1.00D-06.
 Requested convergence on             energy=1.00D-06.
 No special actions if energy rises.
 SCF Done:  E(RB3LYP) =  -512.493293326     A.U. after   11 cycles
            NFock= 11  Conv=0.48D-08     -V/T= 2.0093
 Calling FoFJK, ICntrl=      2127 FMM=F ISym2X=0 I1Cent= 0 IOpClX= 0 NMat=1 NMatS=1 NMatT=0.
 ***** Axes restored to original set *****
 -------------------------------------------------------------------
 Center     Atomic                   Forces (Hartrees/Bohr)
 Number     Number              X              Y              Z
 -------------------------------------------------------------------
      1        7           0.001129888   -0.000157796   -0.000001657
      2        6          -0.000276592    0.000394773    0.000000334
      3        6           0.000243222   -0.000064415   -0.000000185
      4        6           0.000150155    0.000218045    0.000000899
      5        6           0.000530451   -0.001478203   -0.000000328
      6        6           0.000406682    0.001148502   -0.000009048
      7        6          -0.000002302   -0.001364109    0.000031806
      8        8          -0.000671615    0.000308843   -0.000012515
      9        8          -0.000414955    0.001594231   -0.000009266
     10        8          -0.000232986    0.000604893   -0.000000644
     11        1          -0.000390829    0.000117507    0.000000643
     12        1           0.000083264   -0.000034407    0.000000297
     13        1           0.000024059   -0.000017424   -0.000000060
     14        1           0.000082029    0.000039024   -0.000000147
     15        1          -0.000395877   -0.000543498   -0.000000640
     16        1          -0.000264592   -0.000765965    0.000000511
 -------------------------------------------------------------------
 Cartesian Forces:  Max     0.001594231 RMS     0.000509357

 GradGradGradGradGradGradGradGradGradGradGradGradGradGradGradGradGradGrad
 Berny optimization.
 Using GEDIIS/GDIIS optimizer.
 FormGI is forming the generalized inverse of G from B-inverse, IUseBI=4.
 Internal  Forces:  Max     0.001466987 RMS     0.000410003
 Search for a local minimum.
 Step number   2 out of a maximum of   81
 All quantities printed in internal units (Hartrees-Bohrs-Radians)
 Mixed Optimization -- En-DIIS/RFO-DIIS
 Update second derivatives using D2CorX and points    1    2
 DE= -1.77D-04 DEPred=-2.16D-04 R= 8.18D-01
 TightC=F SS=  1.41D+00  RLast= 3.44D-02 DXNew= 5.0454D-01 1.0318D-01
 Trust test= 8.18D-01 RLast= 3.44D-02 DXMaxT set to 3.00D-01
 ITU=  1  0
 Use linear search instead of GDIIS.
     Eigenvalues ---    0.00925   0.01477   0.01757   0.02012   0.02117
     Eigenvalues ---    0.02157   0.02205   0.02233   0.02339   0.02391
     Eigenvalues ---    0.02469   0.02493   0.02720   0.15676   0.16000
     Eigenvalues ---    0.16000   0.16000   0.16000   0.17419   0.21948
     Eigenvalues ---    0.22468   0.24159   0.24616   0.25000   0.25000
     Eigenvalues ---    0.26148   0.35241   0.35406   0.35500   0.35590
     Eigenvalues ---    0.41631   0.42794   0.43564   0.47084   0.47228
     Eigenvalues ---    0.52225   0.52544   0.53592   0.55436   0.57592
     Eigenvalues ---    0.61789   1.01993
 RFO step:  Lambda=-2.45006142D-05 EMin= 9.25237927D-03
 Quartic linear search produced a step of -0.15051.
 Iteration  1 RMS(Cart)=  0.00347352 RMS(Int)=  0.00000761
 Iteration  2 RMS(Cart)=  0.00000796 RMS(Int)=  0.00000017
 Iteration  3 RMS(Cart)=  0.00000000 RMS(Int)=  0.00000017
 Variable       Old X    -DE/DX   Delta X   Delta X   Delta X     New X
                                 (Linear)    (Quad)   (Total)
    R1        2.52203   0.00015  -0.00104   0.00168   0.00064   2.52266
    R2        2.57409  -0.00044  -0.00162   0.00149  -0.00013   2.57396
    R3        1.93704  -0.00031  -0.00007  -0.00052  -0.00059   1.93645
    R4        2.64607  -0.00015  -0.00076   0.00083   0.00008   2.64615
    R5        2.04673  -0.00000   0.00012  -0.00017  -0.00005   2.04668
    R6        2.61424  -0.00018  -0.00066   0.00062  -0.00004   2.61420
    R7        2.04812  -0.00002   0.00012  -0.00022  -0.00010   2.04802
    R8        2.67968  -0.00048  -0.00082   0.00013  -0.00069   2.67899
    R9        2.05118  -0.00001   0.00015  -0.00022  -0.00007   2.05111
   R10        2.65615  -0.00138  -0.00113  -0.00113  -0.00226   2.65389
   R11        2.50826  -0.00036  -0.00144   0.00147   0.00003   2.50830
   R12        2.82273  -0.00147  -0.00164  -0.00147  -0.00311   2.81962
   R13        2.28486  -0.00055  -0.00066   0.00044  -0.00022   2.28464
   R14        2.54059   0.00048  -0.00142   0.00265   0.00124   2.54183
   R15        1.84406  -0.00029  -0.00050   0.00021  -0.00029   1.84377
   R16        1.84290  -0.00023  -0.00030   0.00005  -0.00026   1.84264
    A1        2.17629  -0.00038   0.00002  -0.00142  -0.00141   2.17488
    A2        2.10837  -0.00006   0.00082  -0.00175  -0.00092   2.10744
    A3        1.99853   0.00045  -0.00084   0.00317   0.00233   2.00086
    A4        2.06846   0.00008  -0.00015   0.00085   0.00069   2.06915
    A5        2.04986  -0.00013  -0.00007  -0.00071  -0.00078   2.04908
    A6        2.16487   0.00005   0.00022  -0.00013   0.00008   2.16496
    A7        2.08785  -0.00008   0.00009  -0.00014  -0.00005   2.08780
    A8        2.08393   0.00002  -0.00004  -0.00003  -0.00006   2.08386
    A9        2.11141   0.00006  -0.00005   0.00017   0.00012   2.11152
   A10        2.10639  -0.00032  -0.00020  -0.00094  -0.00114   2.10525
   A11        2.11964   0.00025  -0.00005   0.00117   0.00112   2.12076
   A12        2.05716   0.00006   0.00025  -0.00023   0.00002   2.05718
   A13        2.05633   0.00049  -0.00020   0.00171   0.00151   2.05785
   A14        2.04380  -0.00000   0.00088  -0.00109  -0.00021   2.04360
   A15        2.18305  -0.00049  -0.00068  -0.00062  -0.00131   2.18174
   A16        2.07106   0.00021   0.00045  -0.00006   0.00039   2.07145
   A17        1.97819   0.00001  -0.00105   0.00154   0.00049   1.97868
   A18        2.23394  -0.00022   0.00060  -0.00148  -0.00088   2.23306
   A19        2.13062  -0.00008  -0.00063   0.00057  -0.00006   2.13056
   A20        1.95978  -0.00096  -0.00027  -0.00291  -0.00318   1.95660
   A21        2.19279   0.00105   0.00090   0.00234   0.00324   2.19602
   A22        1.92911  -0.00112  -0.00123  -0.00430  -0.00553   1.92358
   A23        1.96823  -0.00143  -0.00228  -0.00455  -0.00683   1.96139
    D1       -0.00000   0.00000   0.00000   0.00001   0.00001   0.00001
    D2        3.14159   0.00000   0.00000   0.00001   0.00001  -3.14158
    D3       -3.14159  -0.00000  -0.00000  -0.00001  -0.00001   3.14159
    D4        0.00000  -0.00000  -0.00000  -0.00001  -0.00001  -0.00000
    D5        0.00000  -0.00000  -0.00000  -0.00001  -0.00001  -0.00001
    D6       -3.14159  -0.00000  -0.00000  -0.00001  -0.00001   3.14158
    D7        3.14159   0.00000   0.00000   0.00001   0.00001  -3.14159
    D8       -0.00000   0.00000   0.00000   0.00001   0.00001   0.00000
    D9        0.00000  -0.00000  -0.00000  -0.00001  -0.00001  -0.00000
   D10       -3.14159  -0.00000  -0.00000  -0.00000  -0.00000   3.14159
   D11       -3.14159  -0.00000  -0.00000  -0.00001  -0.00001   3.14159
   D12        0.00000  -0.00000  -0.00000  -0.00001  -0.00001  -0.00000
   D13       -0.00000   0.00000   0.00000   0.00000   0.00000   0.00000
   D14       -3.14159  -0.00000  -0.00000  -0.00000  -0.00000  -3.14159
   D15        3.14159  -0.00000  -0.00000  -0.00000  -0.00000   3.14159
   D16        0.00000  -0.00000  -0.00000  -0.00000  -0.00000  -0.00000
   D17        0.00000  -0.00000  -0.00000  -0.00000  -0.00000  -0.00000
   D18       -3.14159   0.00000  -0.00000   0.00000   0.00000  -3.14159
   D19        3.14159   0.00000   0.00000   0.00000   0.00000   3.14159
   D20        0.00000   0.00000  -0.00000   0.00001   0.00001   0.00001
   D21       -0.00000   0.00000   0.00000   0.00000   0.00000   0.00000
   D22        3.14159   0.00000   0.00000   0.00001   0.00001  -3.14159
   D23        3.14159   0.00000   0.00000  -0.00000  -0.00000   3.14159
   D24       -0.00001   0.00000   0.00000   0.00000   0.00001  -0.00000
   D25       -3.14159  -0.00000   0.00000  -0.00002  -0.00002   3.14158
   D26        0.00000  -0.00000   0.00000  -0.00001  -0.00001  -0.00001
   D27       -0.00013   0.00001   0.00003   0.00044   0.00047   0.00034
   D28       -3.14149  -0.00001  -0.00002  -0.00041  -0.00043   3.14127
   D29        3.14147   0.00001   0.00003   0.00044   0.00046  -3.14126
   D30        0.00011  -0.00001  -0.00002  -0.00042  -0.00044  -0.00033
   D31        3.14147   0.00001   0.00002   0.00046   0.00049  -3.14123
   D32        0.00012  -0.00001  -0.00002  -0.00043  -0.00045  -0.00033
         Item               Value     Threshold  Converged?
 Maximum Force            0.001467     0.000450     NO 
 RMS     Force            0.000410     0.000300     NO 
 Maximum Displacement     0.018865     0.001800     NO 
 RMS     Displacement     0.003473     0.001200     NO 
 Predicted change in Energy=-1.780470D-05
 GradGradGradGradGradGradGradGradGradGradGradGradGradGradGradGradGradGrad

                          Input orientation:                          
 ---------------------------------------------------------------------
 Center     Atomic      Atomic             Coordinates (Angstroms)
 Number     Number       Type             X           Y           Z
 ---------------------------------------------------------------------
      1          7           0       -0.510108   -1.360111    0.000029
      2          6           0       -1.843516   -1.423957   -0.000033
      3          6           0       -2.570883   -0.227410   -0.000023
      4          6           0       -1.898456    0.981541    0.000055
      5          6           0       -0.481306    1.019610    0.000123
      6          6           0        0.209063   -0.203367    0.000110
      7          6           0        1.684753   -0.423912    0.000178
      8          8           0        2.168233   -1.532011   -0.000186
      9          8           0        2.369549    0.733797   -0.000147
     10          8           0        0.091185    2.217136    0.000201
     11          1           0        0.055311   -2.214724    0.000030
     12          1           0       -2.295441   -2.408220   -0.000087
     13          1           0       -3.654055   -0.263310   -0.000075
     14          1           0       -2.431389    1.927099    0.000066
     15          1           0        3.329229    0.557807   -0.000422
     16          1           0        1.064778    2.163195    0.000258
 ---------------------------------------------------------------------
                    Distance matrix (angstroms):
                    1          2          3          4          5
     1  N    0.000000
     2  C    1.334936   0.000000
     3  C    2.351554   1.400281   0.000000
     4  C    2.722287   2.406125   1.383373   0.000000
     5  C    2.379895   2.797613   2.433391   1.417661   0.000000
     6  C    1.362081   2.388079   2.780050   2.417777   1.404380
     7  C    2.386186   3.667257   4.260171   3.848985   2.602992
     8  O    2.683851   4.013203   4.915404   4.780784   3.678427
     9  O    3.560459   4.733478   5.033069   4.275189   2.865146
    10  O    3.627430   4.123182   3.614196   2.342086   1.327334
    11  H    1.024725   2.056904   3.293374   3.746107   3.278548
    12  H    2.070253   1.083055   2.198135   3.412928   3.878286
    13  H    3.329771   2.150617   1.083766   2.152158   3.422312
    14  H    3.807502   3.402231   2.159020   1.085402   2.150897
    15  H    4.291726   5.539375   5.952133   5.244829   3.838416
    16  H    3.859268   4.617990   4.351209   3.190150   1.923060
                    6          7          8          9         10
     6  C    0.000000
     7  C    1.492079   0.000000
     8  O    2.367200   1.208981   0.000000
     9  O    2.354989   1.345078   2.274733   0.000000
    10  O    2.423372   3.084573   4.286050   2.718683   0.000000
    11  H    2.017225   2.421176   2.220481   3.748263   4.432005
    12  H    3.336752   4.447406   4.548860   5.624446   5.204796
    13  H    3.863583   5.341223   5.958912   6.105573   4.492153
    14  H    3.392768   4.740240   5.755168   4.947016   2.539193
    15  H    3.211669   1.915221   2.390659   0.975683   3.638447
    16  H    2.516518   2.660356   3.856444   1.935357   0.975085
                   11         12         13         14         15
    11  H    0.000000
    12  H    2.358702   0.000000
    13  H    4.191349   2.538990   0.000000
    14  H    4.830981   4.337450   2.508546   0.000000
    15  H    4.290159   6.358791   7.031392   5.921121   0.000000
    16  H    4.492794   5.673526   5.306157   3.504129   2.775790
                   16
    16  H    0.000000
 Stoichiometry    C6H6NO3(1+)
 Framework group  C1[X(C6H6NO3)]
 Deg. of freedom    42
 Full point group                 C1      NOp   1
 Largest Abelian subgroup         C1      NOp   1
 Largest concise Abelian subgroup C1      NOp   1
                         Standard orientation:                         
 ---------------------------------------------------------------------
 Center     Atomic      Atomic             Coordinates (Angstroms)
 Number     Number       Type             X           Y           Z
 ---------------------------------------------------------------------
      1          7           0       -0.515164   -1.357866    0.000010
      2          6           0       -1.848724   -1.418461   -0.000052
      3          6           0       -2.573172   -0.220145   -0.000042
      4          6           0       -1.897800    0.987163    0.000036
      5          6           0       -0.480561    1.021778    0.000104
      6          6           0        0.206825   -0.202878    0.000091
      7          6           0        1.681973   -0.427020    0.000159
      8          8           0        2.162750   -1.536294   -0.000205
      9          8           0        2.369588    0.729016   -0.000166
     10          8           0        0.094848    2.217905    0.000182
     11          1           0        0.048170   -2.213855    0.000011
     12          1           0       -2.303046   -2.401619   -0.000106
     13          1           0       -3.656428   -0.253405   -0.000093
     14          1           0       -2.428426    1.934018    0.000047
     15          1           0        3.328836    0.550688   -0.000441
     16          1           0        1.068305    2.161591    0.000240
 ---------------------------------------------------------------------
 Rotational constants (GHZ):      2.2784952      1.2430553      0.8042751
 Standard basis: 6-31+G(d,p) (6D, 7F)
 There are   220 symmetry adapted cartesian basis functions of A   symmetry.
 There are   220 symmetry adapted basis functions of A   symmetry.
   220 basis functions,   362 primitive gaussians,   220 cartesian basis functions
    36 alpha electrons       36 beta electrons
       nuclear repulsion energy       520.2631529345 Hartrees.
 NAtoms=   16 NActive=   16 NUniq=   16 SFac= 1.00D+00 NAtFMM=   60 NAOKFM=F Big=F
 Integral buffers will be    131072 words long.
 Raffenetti 2 integral format.
 Two-electron integral symmetry is turned on.
 Nuclear repulsion after empirical dispersion term =      520.2518036935 Hartrees.
 One-electron integrals computed using PRISM.
 NBasis=   220 RedAO= T EigKep=  4.88D-06  NBF=   220
 NBsUse=   220 1.00D-06 EigRej= -1.00D+00 NBFU=   220
 Initial guess from the checkpoint file:  "b3lypD33HPA2.chk"
 B after Tr=     0.000000   -0.000000   -0.000000
         Rot=    1.000000   -0.000005    0.000000    0.000472 Ang=  -0.05 deg.
 Keep R1 ints in memory in canonical form, NReq=301066375.
 Requested convergence on RMS density matrix=1.00D-08 within 128 cycles.
 Requested convergence on MAX density matrix=1.00D-06.
 Requested convergence on             energy=1.00D-06.
 No special actions if energy rises.
 SCF Done:  E(RB3LYP) =  -512.493309899     A.U. after   10 cycles
            NFock= 10  Conv=0.60D-08     -V/T= 2.0093
 Calling FoFJK, ICntrl=      2127 FMM=F ISym2X=0 I1Cent= 0 IOpClX= 0 NMat=1 NMatS=1 NMatT=0.
 ***** Axes restored to original set *****
 -------------------------------------------------------------------
 Center     Atomic                   Forces (Hartrees/Bohr)
 Number     Number              X              Y              Z
 -------------------------------------------------------------------
      1        7           0.000164966    0.000054644    0.000004206
      2        6           0.000022456    0.000225711   -0.000000846
      3        6           0.000208353   -0.000012397    0.000000281
      4        6          -0.000040916   -0.000100935   -0.000002482
      5        6          -0.000044682   -0.000408752    0.000002040
      6        6           0.000098149    0.000154271    0.000024633
      7        6          -0.000623627   -0.001075416   -0.000088560
      8        8          -0.000031459    0.000664798    0.000034595
      9        8           0.000508293    0.000216088    0.000026360
     10        8          -0.000229849    0.000255147    0.000001828
     11        1          -0.000159405    0.000086668   -0.000001316
     12        1           0.000009997   -0.000029905   -0.000000796
     13        1          -0.000015615   -0.000039701    0.000000186
     14        1           0.000020489    0.000018037    0.000000301
     15        1           0.000038297    0.000017285    0.000001702
     16        1           0.000074555   -0.000025545   -0.000002133
 -------------------------------------------------------------------
 Cartesian Forces:  Max     0.001075416 RMS     0.000241773

 GradGradGradGradGradGradGradGradGradGradGradGradGradGradGradGradGradGrad
 Berny optimization.
 Using GEDIIS/GDIIS optimizer.
 FormGI is forming the generalized inverse of G from B-inverse, IUseBI=4.
 Internal  Forces:  Max     0.000620939 RMS     0.000160197
 Search for a local minimum.
 Step number   3 out of a maximum of   81
 All quantities printed in internal units (Hartrees-Bohrs-Radians)
 Mixed Optimization -- En-DIIS/RFO-DIIS
 Swapping is turned off.
 Update second derivatives using D2CorX and points    1    2    3
 DE= -1.66D-05 DEPred=-1.78D-05 R= 9.31D-01
 TightC=F SS=  1.41D+00  RLast= 1.16D-02 DXNew= 5.0454D-01 3.4734D-02
 Trust test= 9.31D-01 RLast= 1.16D-02 DXMaxT set to 3.00D-01
 ITU=  1  1  0
     Eigenvalues ---    0.00925   0.01484   0.01758   0.02012   0.02117
     Eigenvalues ---    0.02156   0.02205   0.02233   0.02339   0.02391
     Eigenvalues ---    0.02468   0.02493   0.02720   0.14237   0.16000
     Eigenvalues ---    0.16000   0.16000   0.16010   0.16519   0.21847
     Eigenvalues ---    0.22306   0.24031   0.24771   0.25000   0.25136
     Eigenvalues ---    0.31219   0.35277   0.35484   0.35574   0.36328
     Eigenvalues ---    0.41633   0.43132   0.44930   0.45991   0.47271
     Eigenvalues ---    0.52266   0.52547   0.53207   0.55383   0.58196
     Eigenvalues ---    0.62265   1.02527
 En-DIIS/RFO-DIIS IScMMF=        0 using points:     3    2
 RFO step:  Lambda=-2.75666514D-06.
 DidBck=F Rises=F RFO-DIIS coefs:    0.93452    0.06548
 Iteration  1 RMS(Cart)=  0.00164258 RMS(Int)=  0.00000132
 Iteration  2 RMS(Cart)=  0.00000171 RMS(Int)=  0.00000030
 Iteration  3 RMS(Cart)=  0.00000000 RMS(Int)=  0.00000030
 Variable       Old X    -DE/DX   Delta X   Delta X   Delta X     New X
                                 (Linear)    (Quad)   (Total)
    R1        2.52266  -0.00014  -0.00004  -0.00005  -0.00009   2.52257
    R2        2.57396  -0.00017   0.00001  -0.00024  -0.00023   2.57372
    R3        1.93645  -0.00016   0.00004  -0.00046  -0.00043   1.93602
    R4        2.64615  -0.00026  -0.00001  -0.00049  -0.00049   2.64565
    R5        2.04668   0.00002   0.00000   0.00004   0.00005   2.04672
    R6        2.61420  -0.00020   0.00000  -0.00035  -0.00035   2.61385
    R7        2.04802   0.00002   0.00001   0.00002   0.00002   2.04805
    R8        2.67899  -0.00006   0.00005  -0.00022  -0.00017   2.67882
    R9        2.05111   0.00001   0.00000  -0.00001  -0.00000   2.05111
   R10        2.65389   0.00000   0.00015  -0.00041  -0.00026   2.65363
   R11        2.50830   0.00014  -0.00000   0.00029   0.00028   2.50858
   R12        2.81962  -0.00008   0.00020  -0.00082  -0.00061   2.81901
   R13        2.28464  -0.00062   0.00001  -0.00058  -0.00057   2.28408
   R14        2.54183   0.00048  -0.00008   0.00110   0.00102   2.54285
   R15        1.84377   0.00004   0.00002   0.00002   0.00004   1.84382
   R16        1.84264   0.00008   0.00002   0.00009   0.00011   1.84276
    A1        2.17488   0.00008   0.00009  -0.00001   0.00008   2.17496
    A2        2.10744  -0.00012   0.00006  -0.00087  -0.00081   2.10663
    A3        2.00086   0.00004  -0.00015   0.00088   0.00073   2.00159
    A4        2.06915   0.00005  -0.00005   0.00029   0.00024   2.06939
    A5        2.04908  -0.00005   0.00005  -0.00035  -0.00030   2.04878
    A6        2.16496  -0.00001  -0.00001   0.00006   0.00005   2.16501
    A7        2.08780  -0.00003   0.00000  -0.00017  -0.00017   2.08763
    A8        2.08386  -0.00003   0.00000  -0.00015  -0.00015   2.08372
    A9        2.11152   0.00005  -0.00001   0.00033   0.00032   2.11184
   A10        2.10525   0.00001   0.00007  -0.00017  -0.00009   2.10515
   A11        2.12076   0.00002  -0.00007   0.00038   0.00031   2.12106
   A12        2.05718  -0.00003  -0.00000  -0.00021  -0.00021   2.05697
   A13        2.05785   0.00003  -0.00010   0.00051   0.00041   2.05825
   A14        2.04360  -0.00029   0.00001  -0.00119  -0.00118   2.04242
   A15        2.18174   0.00026   0.00009   0.00068   0.00077   2.18251
   A16        2.07145  -0.00014  -0.00003  -0.00044  -0.00046   2.07098
   A17        1.97868  -0.00037  -0.00003  -0.00122  -0.00125   1.97743
   A18        2.23306   0.00051   0.00006   0.00165   0.00171   2.23477
   A19        2.13056   0.00007   0.00000   0.00029   0.00029   2.13085
   A20        1.95660   0.00039   0.00021   0.00078   0.00099   1.95758
   A21        2.19602  -0.00047  -0.00021  -0.00106  -0.00128   2.19475
   A22        1.92358   0.00004   0.00036  -0.00090  -0.00054   1.92304
   A23        1.96139  -0.00004   0.00045  -0.00160  -0.00116   1.96024
    D1        0.00001  -0.00000  -0.00000  -0.00002  -0.00002  -0.00002
    D2       -3.14158  -0.00000  -0.00000  -0.00003  -0.00003   3.14157
    D3        3.14159   0.00000   0.00000   0.00002   0.00003  -3.14157
    D4       -0.00000   0.00000   0.00000   0.00002   0.00002   0.00001
    D5       -0.00001   0.00000   0.00000   0.00003   0.00003   0.00002
    D6        3.14158   0.00000   0.00000   0.00003   0.00003  -3.14157
    D7       -3.14159  -0.00000  -0.00000  -0.00002  -0.00002   3.14158
    D8        0.00000  -0.00000  -0.00000  -0.00002  -0.00002  -0.00001
    D9       -0.00000   0.00000   0.00000   0.00001   0.00001   0.00001
   D10        3.14159   0.00000   0.00000   0.00001   0.00001  -3.14159
   D11        3.14159   0.00000   0.00000   0.00002   0.00002  -3.14158
   D12       -0.00000   0.00000   0.00000   0.00001   0.00001   0.00001
   D13        0.00000  -0.00000  -0.00000  -0.00001  -0.00001  -0.00001
   D14       -3.14159  -0.00000   0.00000  -0.00000  -0.00000   3.14159
   D15        3.14159   0.00000   0.00000   0.00000   0.00000  -3.14159
   D16       -0.00000   0.00000   0.00000   0.00000   0.00001   0.00000
   D17       -0.00000   0.00000   0.00000   0.00001   0.00001   0.00001
   D18       -3.14159  -0.00000  -0.00000  -0.00002  -0.00002   3.14157
   D19        3.14159   0.00000  -0.00000   0.00001   0.00001  -3.14159
   D20        0.00001  -0.00000  -0.00000  -0.00003  -0.00003  -0.00002
   D21        0.00000  -0.00000  -0.00000  -0.00002  -0.00002  -0.00001
   D22       -3.14159  -0.00000  -0.00000  -0.00002  -0.00002   3.14158
   D23        3.14159   0.00000   0.00000   0.00002   0.00002  -3.14158
   D24       -0.00000   0.00000  -0.00000   0.00001   0.00001   0.00001
   D25        3.14158   0.00000   0.00000   0.00008   0.00008  -3.14153
   D26       -0.00001   0.00000   0.00000   0.00004   0.00004   0.00003
   D27        0.00034  -0.00002  -0.00003  -0.00129  -0.00132  -0.00098
   D28        3.14127   0.00002   0.00003   0.00127   0.00130  -3.14062
   D29       -3.14126  -0.00002  -0.00003  -0.00128  -0.00131   3.14061
   D30       -0.00033   0.00002   0.00003   0.00128   0.00131   0.00098
   D31       -3.14123  -0.00002  -0.00003  -0.00139  -0.00142   3.14053
   D32       -0.00033   0.00002   0.00003   0.00129   0.00132   0.00098
         Item               Value     Threshold  Converged?
 Maximum Force            0.000621     0.000450     NO 
 RMS     Force            0.000160     0.000300     YES
 Maximum Displacement     0.006985     0.001800     NO 
 RMS     Displacement     0.001643     0.001200     NO 
 Predicted change in Energy=-2.316826D-06
 GradGradGradGradGradGradGradGradGradGradGradGradGradGradGradGradGradGrad

                          Input orientation:                          
 ---------------------------------------------------------------------
 Center     Atomic      Atomic             Coordinates (Angstroms)
 Number     Number       Type             X           Y           Z
 ---------------------------------------------------------------------
      1          7           0       -0.509479   -1.359165   -0.000276
      2          6           0       -1.842815   -1.423464    0.000024
      3          6           0       -2.570742   -0.227563    0.000268
      4          6           0       -1.898901    0.981502    0.000182
      5          6           0       -0.481856    1.020016   -0.000145
      6          6           0        0.209328   -0.202341   -0.000385
      7          6           0        1.684478   -0.424297   -0.000763
      8          8           0        2.167061   -1.532460    0.000057
      9          8           0        2.371835    0.732520    0.000354
     10          8           0        0.088912    2.218530   -0.000231
     11          1           0        0.055414   -2.213855   -0.000478
     12          1           0       -2.294124   -2.408035    0.000057
     13          1           0       -3.653900   -0.264254    0.000517
     14          1           0       -2.431933    1.927003    0.000363
     15          1           0        3.331090    0.554111    0.001046
     16          1           0        1.062581    2.164914   -0.000513
 ---------------------------------------------------------------------
                    Distance matrix (angstroms):
                    1          2          3          4          5
     1  N    0.000000
     2  C    1.334886   0.000000
     3  C    2.351453   1.400020   0.000000
     4  C    2.721988   2.405619   1.383188   0.000000
     5  C    2.379341   2.796927   2.433084   1.417569   0.000000
     6  C    1.361957   2.387977   2.780185   2.417874   1.404240
     7  C    2.384833   3.666079   4.259766   3.849270   2.603660
     8  O    2.682144   4.011357   4.914217   4.780382   3.678572
     9  O    3.560494   4.734083   5.034961   4.277988   2.868136
    10  O    3.627393   4.122583   3.613466   2.341291   1.327484
    11  H    1.024500   2.056209   3.292728   3.745619   3.278198
    12  H    2.070045   1.083079   2.197948   3.412501   3.877609
    13  H    3.329597   2.150301   1.083779   2.152191   3.422165
    14  H    3.807195   3.401866   2.159033   1.085401   2.150681
    15  H    4.290757   5.538962   5.953372   5.247426   3.841305
    16  H    3.858822   4.617118   4.350286   3.189176   1.922519
                    6          7          8          9         10
     6  C    0.000000
     7  C    1.491755   0.000000
     8  O    2.366841   1.208681   0.000000
     9  O    2.355929   1.345618   2.274218   0.000000
    10  O    2.423864   3.087129   4.288196   2.723961   0.000000
    11  H    2.017395   2.419994   2.218863   3.747924   4.432512
    12  H    3.336519   4.445727   4.546295   5.624434   5.204226
    13  H    3.863724   5.340777   5.957510   6.107621   4.491421
    14  H    3.392693   4.740618   5.754879   4.950048   2.537646
    15  H    3.212105   1.915363   2.389297   0.975706   3.644450
    16  H    2.516334   2.662850   3.858814   1.940592   0.975144
                   11         12         13         14         15
    11  H    0.000000
    12  H    2.357548   0.000000
    13  H    4.190460   2.538659   0.000000
    14  H    4.830487   4.337229   2.508947   0.000000
    15  H    4.288554   6.357463   7.032767   5.924295   0.000000
    16  H    4.493107   5.672683   5.305285   3.502603   2.782234
                   16
    16  H    0.000000
 Stoichiometry    C6H6NO3(1+)
 Framework group  C1[X(C6H6NO3)]
 Deg. of freedom    42
 Full point group                 C1      NOp   1
 Largest Abelian subgroup         C1      NOp   1
 Largest concise Abelian subgroup C1      NOp   1
                         Standard orientation:                         
 ---------------------------------------------------------------------
 Center     Atomic      Atomic             Coordinates (Angstroms)
 Number     Number       Type             X           Y           Z
 ---------------------------------------------------------------------
      1          7           0       -0.513298   -1.357501   -0.000216
      2          6           0       -1.846734   -1.419693    0.000085
      3          6           0       -2.572771   -0.222644    0.000329
      4          6           0       -1.899021    0.985358    0.000242
      5          6           0       -0.481916    1.021633   -0.000085
      6          6           0        0.207336   -0.201813   -0.000325
      7          6           0        1.682133   -0.426100   -0.000702
      8          8           0        2.162965   -1.535023    0.000117
      9          8           0        2.371317    0.729631    0.000414
     10          8           0        0.090744    2.219245   -0.000170
     11          1           0        0.050245   -2.213082   -0.000417
     12          1           0       -2.299597   -2.403551    0.000117
     13          1           0       -3.655985   -0.257624    0.000578
     14          1           0       -2.430558    1.931700    0.000423
     15          1           0        3.330289    0.549706    0.001106
     16          1           0        1.064327    2.164091   -0.000453
 ---------------------------------------------------------------------
 Rotational constants (GHZ):      2.2781216      1.2428508      0.8041430
 Standard basis: 6-31+G(d,p) (6D, 7F)
 There are   220 symmetry adapted cartesian basis functions of A   symmetry.
 There are   220 symmetry adapted basis functions of A   symmetry.
   220 basis functions,   362 primitive gaussians,   220 cartesian basis functions
    36 alpha electrons       36 beta electrons
       nuclear repulsion energy       520.2453407690 Hartrees.
 NAtoms=   16 NActive=   16 NUniq=   16 SFac= 1.00D+00 NAtFMM=   60 NAOKFM=F Big=F
 Integral buffers will be    131072 words long.
 Raffenetti 2 integral format.
 Two-electron integral symmetry is turned on.
 Nuclear repulsion after empirical dispersion term =      520.2339935850 Hartrees.
 One-electron integrals computed using PRISM.
 NBasis=   220 RedAO= T EigKep=  4.86D-06  NBF=   220
 NBsUse=   220 1.00D-06 EigRej= -1.00D+00 NBFU=   220
 Initial guess from the checkpoint file:  "b3lypD33HPA2.chk"
 B after Tr=    -0.000000    0.000000   -0.000000
         Rot=    1.000000    0.000013   -0.000001   -0.000415 Ang=   0.05 deg.
 Keep R1 ints in memory in canonical form, NReq=301066375.
 Requested convergence on RMS density matrix=1.00D-08 within 128 cycles.
 Requested convergence on MAX density matrix=1.00D-06.
 Requested convergence on             energy=1.00D-06.
 No special actions if energy rises.
 SCF Done:  E(RB3LYP) =  -512.493311430     A.U. after    9 cycles
            NFock=  9  Conv=0.76D-08     -V/T= 2.0093
 Calling FoFJK, ICntrl=      2127 FMM=F ISym2X=0 I1Cent= 0 IOpClX= 0 NMat=1 NMatS=1 NMatT=0.
 ***** Axes restored to original set *****
 -------------------------------------------------------------------
 Center     Atomic                   Forces (Hartrees/Bohr)
 Number     Number              X              Y              Z
 -------------------------------------------------------------------
      1        7          -0.000191776    0.000022820   -0.000012276
      2        6           0.000073833   -0.000000042    0.000002510
      3        6          -0.000004618    0.000019205   -0.000000676
      4        6          -0.000047782   -0.000088378    0.000007377
      5        6          -0.000119638   -0.000119580   -0.000006820
      6        6           0.000050352    0.000078775   -0.000072047
      7        6          -0.000030877   -0.000182076    0.000261045
      8        8           0.000022882    0.000110673   -0.000101534
      9        8          -0.000031244    0.000058419   -0.000078385
     10        8           0.000186302   -0.000030777   -0.000005395
     11        1           0.000025042   -0.000002179    0.000003694
     12        1          -0.000003344   -0.000011040    0.000002344
     13        1          -0.000010987   -0.000013969   -0.000000599
     14        1           0.000011526    0.000011075   -0.000000831
     15        1          -0.000004910    0.000035824   -0.000005096
     16        1           0.000075237    0.000111249    0.000006688
[...]
 ! D3    D(11,1,2,3)          -179.9998         -DE/DX =    0.0                 !
 ! D4    D(11,1,2,12)            0.0001         -DE/DX =    0.0                 !
 ! D5    D(2,1,6,5)              0.0002         -DE/DX =    0.0                 !
 ! D6    D(2,1,6,7)           -179.9998         -DE/DX =    0.0                 !
 ! D7    D(11,1,6,5)           179.9999         -DE/DX =    0.0                 !
 ! D8    D(11,1,6,7)            -0.0001         -DE/DX =    0.0                 !
 ! D9    D(1,2,3,4)              0.0001         -DE/DX =    0.0                 !
 ! D10   D(1,2,3,13)           180.0            -DE/DX =    0.0                 !
 ! D11   D(12,2,3,4)          -179.9998         -DE/DX =    0.0                 !
 ! D12   D(12,2,3,13)            0.0001         -DE/DX =    0.0                 !
 ! D13   D(2,3,4,5)              0.0            -DE/DX =    0.0                 !
 ! D14   D(2,3,4,14)          -180.0            -DE/DX =    0.0                 !
 ! D15   D(13,3,4,5)          -180.0            -DE/DX =    0.0                 !
 ! D16   D(13,3,4,14)            0.0            -DE/DX =    0.0                 !
 ! D17   D(3,4,5,6)              0.0001         -DE/DX =    0.0                 !
 ! D18   D(3,4,5,10)           179.9998         -DE/DX =    0.0                 !
 ! D19   D(14,4,5,6)           180.0001         -DE/DX =    0.0                 !
 ! D20   D(14,4,5,10)           -0.0002         -DE/DX =    0.0                 !
 ! D21   D(4,5,6,1)             -0.0002         -DE/DX =    0.0                 !
 ! D22   D(4,5,6,7)            179.9998         -DE/DX =    0.0                 !
 ! D23   D(10,5,6,1)          -179.9998         -DE/DX =    0.0                 !
 ! D24   D(10,5,6,7)             0.0001         -DE/DX =    0.0                 !
 ! D25   D(4,5,10,16)         -179.9993         -DE/DX =    0.0                 !
 ! D26   D(6,5,10,16)            0.0004         -DE/DX =    0.0                 !
 ! D27   D(1,6,7,8)             -0.0104         -DE/DX =    0.0                 !
 ! D28   D(1,6,7,9)           -179.9896         -DE/DX =    0.0                 !
 ! D29   D(5,6,7,8)           -180.0104         -DE/DX =    0.0                 !
 ! D30   D(5,6,7,9)              0.0104         -DE/DX =    0.0                 !
 ! D31   D(6,7,9,15)           179.9887         -DE/DX =    0.0                 !
 ! D32   D(8,7,9,15)             0.0104         -DE/DX =    0.0                 !
 --------------------------------------------------------------------------------
 GradGradGradGradGradGradGradGradGradGradGradGradGradGradGradGradGradGrad

 1\1\ WCSS.PL-BEM-JP\Freq\RB3LYP\6-31+G(d,p)\C6H6N1O3(1+)\C612\17-Dec-2
 024\0\\#N Geom=AllCheck Guess=TCheck SCRF=Check GenChk RB3LYP/6-31+G(d
 ,p) Freq\\[No Title]\\1,1\N,-0.5098506885,-1.3594658971,-0.0000900065\
 C,-1.843135995,-1.4234844117,-0.000010956\C,-2.5708457267,-0.227508989
 5,0.0000902741\C,-1.898688641,0.9813307818,0.0001040183\C,-0.481595229
 9,1.0194588355,0.0000175833\C,0.2093007378,-0.2028248243,-0.0000834248
 \C,1.6843318293,-0.4244246942,-0.0001894153\O,2.1680231859,-1.53195279
 48,-0.0000857862\O,2.3708232303,0.7332017426,0.0000450219\O,0.08987793
 9,2.2178644445,0.0000327694\H,0.0546810142,-2.2143406051,-0.0001682364
 \H,-2.2945848735,-2.4080163973,-0.0000308558\H,-3.6540252147,-0.264119
 5049,0.0001557807\H,-2.4312660585,1.9270949231,0.0001811069\H,3.330251
 475,0.5557637234,0.0001490374\H,1.0636510164,2.1645856681,-0.000040911
 \\Version=ES64L-G09RevE.01\State=1-A\HF=-512.4933119\RMSD=2.410e-09\RM
 SF=4.242e-05\ZeroPoint=0.1219822\Thermal=0.1299434\Dipole=-1.0550754,-
 0.4511702,-0.0000316\DipoleDeriv=0.1344818,0.1634058,-0.000002,0.56902
 88,-0.3010678,-0.0000328,0.0000338,-0.0000293,-0.1069785,-0.2572963,-0
 .159871,-0.0000006,0.1342703,0.2450444,0.0000032,0.0000284,0.0000173,0
 .073139,0.2029209,0.0423626,-0.0000133,-0.3248761,-0.1159575,0.0000053
 ,-0.0000268,-0.0000075,-0.051078,0.1568865,-0.3399375,-0.0000174,0.016
 3001,0.1070345,0.0000102,-0.0000232,0.0000313,-0.0292703,0.0687909,0.6
 905756,0.000023,0.5995911,1.3394968,-0.0000001,0.0000649,-0.0000006,0.
 2026642,-0.5758878,0.2804613,0.0000245,-0.4937501,-0.1944852,0.0000163
 ,0.0000557,-0.0000393,0.0870841,2.0547466,-0.0925261,-0.0000262,0.0375
 664,1.6046693,0.0001428,0.000006,0.0001166,0.3574998,-0.8997714,0.2861
 415,0.0000426,0.2500652,-0.9766911,-0.0000946,-0.0000324,0.0000472,-0.
 3206941,-1.0167324,-0.4316067,-0.0000367,-0.4296572,-0.9001226,-0.0000
 443,-0.0001163,-0.0001311,-0.3492712,-0.5163911,-0.6103085,-0.0000132,
 -0.4003135,-1.1649193,0.0000026,-0.0000138,0.000017,-0.3211932,0.34449
 25,-0.0287322,-0.0000012,-0.0895091,0.3632405,0.0000121,-0.000008,0.00
 00112,0.2796422,0.1198765,0.0401358,0.0000037,0.0329394,0.1166511,-0.0
 000032,-0.000001,-0.0000013,0.1630752,0.1106674,-0.005199,0.0000023,-0
 .0094163,0.1099938,-0.0000014,0.0000031,-0.000001,0.1501563,0.1161417,
 -0.0119761,0.0000008,-0.0140073,0.1080015,-0.0000008,-0.0000015,-0.000
 004,0.1450431,0.4849331,0.0842548,0.0000097,0.0993483,0.2781448,-0.000
 0021,0.00002,-0.0000027,0.3795835,0.4721411,0.0928197,0.0000041,0.0224
 2,0.3809668,-0.0000131,0.0000111,-0.0000239,0.3405978\Polar=110.990253
 1,1.4003334,94.4832883,-0.0019983,0.0020034,41.2162406\PG=C01 [X(C6H6N
 1O3)]\NImag=0\\0.84788728,-0.05700095,0.78845003,-0.00005034,0.0000355
 2,0.12555457,-0.38294083,0.01586551,0.00002210,0.71347898,-0.04466112,
 -0.15264455,-0.00000221,0.04626484,0.78712241,0.00001808,-0.00000605,-
 0.05946851,-0.00003338,0.00002771,0.13854175,-0.04774283,0.03369137,0.
 00000522,-0.18033554,0.11035390,0.00001217,0.77473989,0.08030706,0.025
 60209,-0.00000359,0.05463720,-0.27957159,-0.00001346,0.02092488,0.6803
 1968,0.00000688,-0.00000160,0.00769325,0.00001013,-0.00001690,-0.06416
 592,-0.00003880,0.00002421,0.13338612,-0.04675637,-0.02440198,0.000001
 47,0.06212550,-0.01079610,-0.00000434,-0.19378787,-0.08151887,0.000004
 68,0.66280189,-0.02898691,-0.01258159,0.00000123,0.01879602,-0.0546481
 6,-0.00000376,-0.13202308,-0.32550825,-0.00000411,-0.00284173,0.782835
 58,0.00000159,0.00000131,-0.00204932,-0.00000290,-0.00000217,0.0042873
 9,0.00000244,-0.00000753,-0.05611787,-0.00003285,0.00003023,0.13457952
 ,0.06324416,0.02107815,-0.00000292,-0.04502583,0.01321671,0.00000352,-
 0.01397397,-0.06001963,-0.00000186,-0.29287087,0.04508979,0.00001507,0
 .68810976,-0.01142514,-0.06304737,-0.00000122,0.02390659,0.00020719,-0
 .00000166,-0.03831999,0.01780953,0.00000320,-0.00438216,-0.11931161,-0
 .00000178,0.03402582,0.74020217,-0.00000560,-0.00000472,-0.00234394,0.
 00000450,-0.00000113,-0.00290677,-0.00000095,0.00000555,-0.00210476,0.
 00001378,-0.00000498,-0.06637691,-0.00003359,0.00002452,0.15512622,-0.
 17441214,-0.09525521,0.00000488,-0.05888191,-0.02485605,0.00000340,0.0
 0336332,-0.02409912,-0.00000151,-0.00830683,0.03415283,0.00000284,-0.1
 9925340,0.08815779,0.00001521,0.64785142,-0.05069048,-0.27441933,-0.00
 000757,-0.07562265,0.01127112,0.00000547,0.01290346,-0.04504585,-0.000
 00262,0.05163743,0.02960400,-0.00000229,0.05939022,-0.25052192,-0.0000
 1365,-0.01470404,0.72330340,0.00000843,-0.00000416,-0.05335577,0.00000
 011,0.00000272,0.00651704,-0.00000001,-0.00000074,-0.00318692,0.000002
 86,-0.00000224,0.00374647,0.00001443,-0.00001486,-0.05757846,-0.000027
 86,0.00003019,0.12219865,-0.05214350,-0.02425749,0.00000123,0.02223507
 ,-0.00596748,-0.00000203,-0.00251855,0.01489412,0.00000082,-0.00970230
 ,-0.00548077,0.00000014,0.01164141,0.03469312,0.00000007,-0.17966519,0
 .00912222,0.00001609,0.65055676,-0.02797359,0.00478009,0.00000361,-0.0
 0658538,-0.00851002,0.00000028,0.00200381,-0.00239983,-0.00000028,0.00
 163215,-0.00554697,-0.00000093,0.03300913,0.01651808,-0.00000164,0.008
 88409,-0.09061340,-0.00000433,-0.12956837,0.95129079,0.00000075,0.0000
 0069,-0.00275372,-0.00000178,0.00000025,0.00584997,-0.00000020,-0.0000
 0108,-0.00056868,0.00000146,-0.00000080,0.00753793,0.00000195,0.000002
 44,0.00136726,0.00000510,-0.00000469,-0.06965526,0.00004315,-0.0000098
 1,0.19108973,-0.00168909,0.00699204,0.00000013,-0.00311817,0.00336803,
 0.00000036,-0.00025900,-0.00261636,-0.00000010,0.00109461,0.00326795,0
 .00000054,-0.00976878,-0.01182067,-0.00000022,-0.03355727,0.04712956,-
 0.00000308,-0.22224273,0.24141946,-0.00002360,0.22945832,-0.01519224,-
 0.00357776,-0.00000033,0.00757663,0.00113111,-0.00000084,-0.00188251,0
 .00362436,0.00000033,-0.00106920,-0.00153890,-0.00000030,0.00024860,0.
 00208015,0.00000017,0.03860613,-0.02264549,0.00000267,0.23681578,-0.62
 513660,0.00004260,-0.27797644,0.73932263,0.00000061,0.00000012,0.00134
 882,-0.00000006,-0.00000026,-0.00056789,0.00000019,0.00000008,-0.00014
 436,-0.00000032,0.00000051,-0.00166950,-0.00000039,-0.00000093,0.00240
 199,0.00000081,0.00000249,0.01964042,-0.00002647,0.00004754,-0.0727321
 2,0.00002464,-0.00004111,0.03278009,-0.00612984,0.00579649,0.00000046,
 -0.00308158,-0.00108612,0.00000047,0.00038832,-0.00310646,-0.00000025,
 0.00264917,0.00082965,-0.00000014,-0.00447175,-0.00389985,0.00000007,-
 0.03428193,-0.03943791,-0.00000806,-0.18879163,-0.10258146,-0.00002467
 ,0.03554416,-0.00181041,0.00000084,0.67527137,0.00133893,0.00506097,-0
 .00000014,-0.00165182,0.00229718,0.00000022,-0.00003215,-0.00292081,-0
 .00000013,0.00332272,0.00208070,0.00000006,-0.00781177,-0.01542971,0.0
 0000029,-0.01754991,0.00132492,-0.00000309,-0.05651040,-0.23585492,-0.
 00002274,-0.02440762,-0.09588322,-0.00001025,0.02180144,0.40065794,-0.
 00000083,0.00000060,0.00158521,0.00000016,0.00000007,0.00004510,0.0000
 0001,-0.00000027,0.00022638,0.00000011,0.00000033,-0.00062125,-0.00000
 140,-0.00000195,0.00072638,-0.00000100,-0.00000210,0.00721959,-0.00002
 258,-0.00003592,-0.05848253,-0.00000023,-0.00000368,0.02608820,0.00007
 609,0.00003492,0.03879524,-0.01278069,-0.00359644,0.00000078,0.0093099
 2,-0.00626685,-0.00000102,-0.00656509,0.01496784,0.00000128,-0.0403928
 8,-0.06238954,0.00000057,-0.16267644,-0.12414474,0.00000228,0.02835915
 ,0.00927684,-0.00000112,-0.01993239,-0.01207238,-0.00000144,0.00481561
 ,0.00393591,0.,-0.00539205,0.01592312,0.00000134,0.67164558,-0.0011822
 9,-0.00344086,-0.00000086,0.00535311,-0.00825791,-0.00000062,0.0041889
 1,0.01041608,0.00000008,-0.02872514,-0.01155164,0.00000112,-0.08434674
 ,-0.32462680,-0.00000716,-0.00532983,-0.05252352,-0.00000206,-0.018821
 34,-0.00500593,-0.00000073,0.00453871,0.00011604,0.00000011,0.01088477
 ,0.00683259,0.00000148,0.10195658,0.43662337,0.00000157,-0.00000028,0.
 00830587,-0.00000040,0.00000009,-0.00144970,0.00000097,-0.00000064,0.0
 0458366,0.00000159,0.00000353,0.00586236,0.00000457,-0.00000521,-0.044
 99235,-0.00000256,-0.00000230,0.00688222,0.00000010,0.00000023,-0.0022
 1247,0.00000001,0.00000014,-0.00013782,0.00000033,0.00000003,0.0015854
 2,-0.00004033,0.00001083,0.03579965,-0.16670079,0.15288899,0.00001690,
 -0.01559995,0.02865602,0.00000249,-0.00491998,-0.00371342,0.00000067,-
 0.00011634,-0.00048241,-0.00000009,-0.00229752,-0.00300669,0.00000052,
 0.01723206,-0.01364713,-0.00000211,0.00352557,-0.01426603,-0.00000062,
 0.00053667,0.00850112,-0.00000022,0.00042340,0.00562044,0.00000084,-0.
 00058057,-0.00218734,-0.00000006,0.16754266,0.15299141,-0.31440836,-0.
 00002384,-0.00148119,0.01102606,0.00000067,-0.00263066,0.00254964,-0.0
 0000007,-0.00069514,-0.00018680,0.00000008,-0.00493427,-0.00240233,0.0
 0000006,0.01309451,-0.02622736,-0.00000244,-0.00167959,-0.00206077,0.0
 0000031,0.00273890,0.00015333,0.00000001,0.00107291,-0.00016738,0.0000
 0008,0.00143570,0.00002620,-0.00000016,-0.15848204,0.33002785,0.000017
 34,-0.00002361,-0.03078753,0.00000043,-0.00000138,-0.00003863,0.000000
 77,-0.00000025,0.00758005,0.00000015,0.00000015,-0.00127772,-0.0000000
 2,0.00000008,0.00546163,-0.00000087,-0.00000061,-0.00003693,0.00000067
 ,0.00000048,-0.00179879,-0.00000005,0.00000009,-0.00266892,-0.00000024
 ,-0.00000017,0.00037355,0.00000018,0.00000010,0.00060218,-0.00001793,0
 .00002495,0.02667433,-0.01912188,-0.03548813,-0.00000036,-0.10648899,-
 0.10299430,-0.00000087,0.01339276,0.01549536,0.00000022,-0.00267472,0.
 00344781,0.00000067,-0.00021413,-0.00039869,-0.00000001,-0.00326852,0.
 00426675,0.00000099,-0.00000937,-0.00148054,0.00000014,0.00003980,0.00
 018126,-0.00000005,-0.00056185,0.00009562,-0.00000007,0.00040831,0.000
 20535,-0.00000005,0.00032698,-0.00095325,-0.00000032,0.11722993,0.0022
 1749,0.00587557,0.00000010,-0.11320334,-0.31183634,-0.00000611,-0.0111
 7431,-0.01207762,-0.00000011,0.00285291,-0.00240204,-0.00000057,0.0011
 8001,-0.00085592,-0.00000012,0.00202176,0.00266506,-0.00000041,-0.0005
 8407,0.00040722,-0.00000011,0.00017705,-0.00025924,0.00000002,0.000307
 03,0.00008747,0.00000005,0.00001392,0.00055412,0.00000005,-0.00016021,
 0.00104936,0.00000029,0.11711948,0.31690874,0.00000117,0.00000259,0.00
 039292,-0.00000131,-0.00000688,-0.03706341,-0.00000101,-0.00000184,0.0
 0538638,0.00000075,-0.00000062,0.00579155,0.00000006,-0.00000020,-0.00
 029335,0.00000076,-0.00000040,0.00763224,0.,0.00000011,0.00178560,-0.0
 0000004,0.,-0.00008368,0.00000019,0.,-0.00035623,0.00000003,0.00000013
 ,-0.00064251,-0.00000030,0.00000029,-0.00407902,0.,0.00000667,0.025270
 51,0.00067944,0.00240393,0.00000048,-0.00925472,-0.00269109,0.00000054
 ,-0.35450416,-0.00833732,0.00001902,-0.00744453,0.00061504,0.00000078,
 0.00083830,-0.00132847,0.00000044,0.00077270,-0.00014844,-0.00000009,-
 0.00040265,0.00006414,-0.00000003,0.00008390,-0.00011330,0.,0.00010413
 ,0.00004518,0.,-0.00035965,0.00015777,0.00000002,-0.00013415,-0.000336
 50,0.00000002,0.00044757,0.00006348,-0.00000020,0.36847880,0.00390563,
 -0.00561248,-0.00000084,0.02729364,0.00653601,-0.00000141,-0.00957000,
 -0.05981074,-0.00000029,-0.02884855,0.00384345,0.00000171,-0.00113631,
 -0.00474548,-0.00000058,-0.00089445,-0.00117555,0.00000004,0.00037759,
 -0.00029165,0.00000001,0.00005588,0.00036760,-0.00000001,-0.00000604,0
 .00012566,0.00000003,-0.00169300,0.00023998,0.00000015,0.00101798,0.00
 051400,-0.00000008,-0.00020407,0.00043026,0.00000016,0.00962344,0.0591
 9489,0.00000073,-0.00000055,0.00672031,0.00000172,0.00000051,0.0015087
 3,0.00001900,-0.00000042,-0.04000359,-0.00000074,-0.00000023,0.0046800
 1,0.00000062,-0.00000058,0.00906959,-0.00000018,-0.00000006,-0.0006669
 6,0.00000009,0.,-0.00093522,0.,0.00000006,0.00011740,0.,0.,-0.00003607
 ,-0.00000013,0.,-0.00027785,0.00000005,0.00000002,0.00053631,-0.000000
 20,0.00000015,-0.00288760,-0.00002063,0.00000088,0.02723155,-0.0008941
 2,-0.00141854,-0.00000006,-0.00126010,-0.00390993,0.00000040,0.0133010
 3,-0.01559409,-0.00000118,-0.13173720,0.12542387,0.00001130,-0.0112537
 8,0.02857911,0.00000239,-0.00532708,-0.00100848,0.00000085,0.00067636,
 0.00141416,0.00000008,-0.00068837,0.00024874,-0.00000008,0.00002466,-0
 .00032541,-0.00000005,0.00222481,0.00004329,-0.00000033,-0.00008351,0.
 00008688,-0.00000003,0.00066209,-0.00071020,-0.00000011,0.00069809,0.0
 0012929,-0.00000030,0.13364428,-0.00079278,0.00080454,0.00000014,-0.00
 287014,-0.00301242,-0.00000038,0.01312272,-0.01550707,-0.00000179,0.12
 664807,-0.27828629,-0.00001879,-0.00276423,0.00626788,0.00000010,-0.00
 106908,-0.00029173,-0.00000015,0.00009908,0.00028284,0.00000015,-0.000
 25879,0.00014554,-0.00000006,-0.00016137,-0.00003699,-0.00000003,-0.00
 015157,-0.00007519,0.00000013,0.00009279,-0.00008071,0.00000003,0.0007
 4738,-0.00049881,-0.00000005,0.00008994,0.00073419,0.00000026,-0.13283
 424,0.28946176,0.00000010,0.00000020,-0.00096410,0.00000026,-0.0000001
 7,0.00896488,0.00000016,-0.00000024,0.00584810,0.00001150,-0.00001875,
 -0.04269121,0.00000100,-0.00000148,0.00734832,0.00000055,-0.00000045,0
 .00555861,0.00000013,0.00000010,-0.00131785,-0.00000008,0.00000004,0.0
 0019155,-0.00000004,0.,0.00004494,-0.00000032,-0.00000004,-0.00271687,
 -0.00000006,0.00000004,-0.00080631,-0.00000005,0.00000005,-0.00060628,
 -0.00000032,0.00000024,-0.00462955,-0.00001283,0.00002044,0.02615164,-
 0.00074355,-0.00015641,-0.00000013,0.00085618,-0.00060210,-0.00000004,
 -0.00001787,0.00069122,0.00000001,-0.00048832,-0.00015384,0.00000014,0
 .00057819,-0.00001431,0.00000019,0.00146715,-0.00244760,-0.00000192,-0
 .03028487,-0.00426956,-0.00000210,0.00334579,0.00695839,0.00000070,-0.
 46197017,0.06689057,-0.00005086,0.00151078,-0.00027352,-0.00000026,-0.
 00047323,-0.00013828,-0.00000006,-0.00006531,-0.00002830,0.00000005,-0
 .00002441,0.00000807,-0.00000002,-0.00000489,0.00005602,-0.00000002,0.
 48829899,-0.00143736,0.00015927,0.00000003,-0.00000203,-0.00044772,0.0
 0000008,0.00007661,-0.00003432,0.,0.00019124,0.00018511,-0.00000002,-0
 .00074955,-0.00144507,0.00000008,-0.00223559,-0.00492935,-0.00000121,-
 0.04820266,0.01290205,-0.00000533,0.00655794,-0.00124569,0.00000173,0.
 11304827,-0.06841488,0.00000622,0.00279823,-0.00080268,-0.00000008,-0.
 00049016,0.00010169,-0.00000006,-0.00011545,0.00001212,0.00000004,-0.0
 0000102,0.00001075,-0.00000001,-0.00002830,0.00002273,0.,-0.06819931,0
 .06055908,-0.00000034,0.00000007,0.00090343,0.00000030,-0.00000022,-0.
 00025749,0.00000002,0.00000022,0.00010355,-0.00000015,0.,-0.00026859,0
 .00000004,-0.00000029,-0.00063247,0.00000070,-0.00000109,0.00477975,-0
 .00001225,0.00000071,0.00293702,0.00000195,0.00000043,-0.00512979,-0.0
 0004435,0.00000118,-0.01487241,0.00000043,0.00000004,0.00047066,-0.000
 00007,-0.00000002,0.00028124,-0.00000004,0.00000001,-0.00018781,0.,0.,
 0.00006629,-0.00000001,0.,0.00004264,0.00005418,-0.00000146,0.01203753
 ,0.00024474,0.00285866,0.00000015,-0.00201803,0.00197164,0.00000026,-0
 .00056047,-0.00291238,0.,0.00560708,0.00073533,-0.00000011,-0.02260535
 ,-0.01062173,0.00000091,-0.00209154,0.00398026,0.00000050,0.01705800,0
 .01037035,0.00000181,-0.00359547,-0.00502847,-0.00000020,-0.00972442,-
 0.00674893,-0.00000156,-0.46959439,0.01353772,0.00003483,0.00131870,-0
 .00008939,-0.00000005,-0.00010268,-0.00009270,-0.00000004,0.00002135,-
 0.00005912,-0.00000002,0.00001774,0.00004620,0.00000001,-0.00198445,-0
 .00121088,-0.00000041,0.48800918,-0.00141767,-0.00100024,0.,0.00172300
 ,-0.00066236,-0.00000015,-0.00163294,0.00255469,0.00000010,-0.00300565
 ,-0.00698659,-0.00000013,-0.04547592,-0.00069877,0.00000320,0.00107617
 ,0.00022500,0.00000008,-0.00492976,-0.01076097,-0.00000116,0.00083435,
 0.00334615,-0.00000002,-0.00165094,0.00024048,0.00000017,0.06000637,-0
 .04852385,-0.00000651,-0.00034190,0.00008557,0.,0.00007542,-0.00005995
 ,0.00000002,-0.00010678,-0.00036090,-0.00000001,-0.00009615,0.00006973
 ,0.00000003,0.00167897,0.00336689,0.00000039,-0.00673658,0.05916514,-0
 .00000014,-0.00000011,-0.00078150,0.00000010,-0.00000004,0.00020347,0.
 00000002,0.00000001,0.00148461,0.00000003,-0.00000048,0.00458715,-0.00
 000109,-0.00000008,-0.00427238,-0.00000026,-0.00000033,0.00030533,0.00
 000085,-0.00000015,-0.00011088,-0.00000026,-0.00000027,0.00056561,-0.0
 0000071,-0.00000016,-0.00232153,0.00003749,-0.00000242,-0.01166246,0.,
 0.00000001,-0.00001545,0.,0.,-0.00005930,-0.00000004,0.00000002,-0.000
 49335,-0.00000006,0.00000001,-0.00041851,0.00000014,0.,-0.00027354,-0.
 00003606,0.00000399,0.01326273\\0.00006894,0.00000747,0.00000226,-0.00
 004012,0.00006423,-0.00000047,0.00003882,-0.00002425,0.00000012,0.0000
 0058,-0.00001132,-0.00000137,-0.00003540,-0.00018914,0.00000130,0.0000
 0553,0.00007176,0.00001334,-0.00007937,-0.00009124,-0.00004839,0.00000
 244,0.00005216,0.00001881,-0.00000611,0.00003957,0.00001453,0.00003693
 ,0.00006951,0.00000101,-0.00003745,0.00002257,-0.00000067,0.00000395,-
 0.00000462,-0.00000043,-0.00000256,-0.00000520,0.00000011,0.00000556,0
 .00000172,0.00000015,0.00001010,-0.00001282,0.00000095,0.00002817,0.00
 000961,-0.00000126\\\@


 A great many people think they are thinking when they
 are merely rearranging their prejudices.
                               -- William James
 Job cpu time:       0 days  0 hours  9 minutes 26.8 seconds.
 File lengths (MBytes):  RWF=     85 Int=      0 D2E=      0 Chk=      5 Scr=      1
 Normal termination of Gaussian 09 at Tue Dec 17 14:55:17 2024.
