 Entering Gaussian System, Link 0=g09
 Input=B3PW91D33HPA.gjf
 Output=B3PW91D33HPA.log
 Initial command:
 /home/phzd/g09E/g09/l1.exe "/home/phzd/g09E/scratch/Gau-1454405.inp" -scrdir="/home/phzd/g09E/scratch/"
 Default is to use a total of  18 processors:
                               18 via shared-memory
                                1 via Linda
 Entering Link 1 = /home/phzd/g09E/g09/l1.exe PID=   1454407.
  
 Copyright (c) 1988,1990,1992,1993,1995,1998,2003,2009,2015,
            Gaussian, Inc.  All Rights Reserved.
  
 This is part of the Gaussian(R) 09 program.  It is based on
 the Gaussian(R) 03 system (copyright 2003, Gaussian, Inc.),
 the Gaussian(R) 98 system (copyright 1998, Gaussian, Inc.),
 the Gaussian(R) 94 system (copyright 1995, Gaussian, Inc.),
 the Gaussian 92(TM) system (copyright 1992, Gaussian, Inc.),
 the Gaussian 90(TM) system (copyright 1990, Gaussian, Inc.),
 the Gaussian 88(TM) system (copyright 1988, Gaussian, Inc.),
 the Gaussian 86(TM) system (copyright 1986, Carnegie Mellon
 University), and the Gaussian 82(TM) system (copyright 1983,
 Carnegie Mellon University). Gaussian is a federally registered
 trademark of Gaussian, Inc.
  
 This software contains proprietary and confidential information,
 including trade secrets, belonging to Gaussian, Inc.
  
 This software is provided under written license and may be
 used, copied, transmitted, or stored only in accord with that
 written license.
  
 The following legend is applicable only to US Government
 contracts under FAR:
  
                    RESTRICTED RIGHTS LEGEND
  
 Use, reproduction and disclosure by the US Government is
 subject to restrictions as set forth in subparagraphs (a)
 and (c) of the Commercial Computer Software - Restricted
 Rights clause in FAR 52.227-19.
  
 Gaussian, Inc.
 340 Quinnipiac St., Bldg. 40, Wallingford CT 06492
  
  
 ---------------------------------------------------------------
 Warning -- This program may not be used in any manner that
 competes with the business of Gaussian, Inc. or will provide
 assistance to any competitor of Gaussian, Inc.  The licensee
 of this program is prohibited from giving any competitor of
 Gaussian, Inc. access to this program.  By using this program,
 the user acknowledges that Gaussian, Inc. is engaged in the
 business of creating and licensing software in the field of
 computational chemistry and represents and warrants to the
 licensee that it is not a competitor of Gaussian, Inc. and that
 it will not use this program in any manner prohibited above.
 ---------------------------------------------------------------
  

 Cite this work as:
 Gaussian 09, Revision E.01,
 M. J. Frisch, G. W. Trucks, H. B. Schlegel, G. E. Scuseria, 
 M. A. Robb, J. R. Cheeseman, G. Scalmani, V. Barone, B. Mennucci, 
 G. A. Petersson, H. Nakatsuji, M. Caricato, X. Li, H. P. Hratchian, 
 A. F. Izmaylov, J. Bloino, G. Zheng, J. L. Sonnenberg, M. Hada, 
 M. Ehara, K. Toyota, R. Fukuda, J. Hasegawa, M. Ishida, T. Nakajima, 
 Y. Honda, O. Kitao, H. Nakai, T. Vreven, J. A. Montgomery, Jr., 
 J. E. Peralta, F. Ogliaro, M. Bearpark, J. J. Heyd, E. Brothers, 
 K. N. Kudin, V. N. Staroverov, T. Keith, R. Kobayashi, J. Normand, 
 K. Raghavachari, A. Rendell, J. C. Burant, S. S. Iyengar, J. Tomasi, 
 M. Cossi, N. Rega, J. M. Millam, M. Klene, J. E. Knox, J. B. Cross, 
 V. Bakken, C. Adamo, J. Jaramillo, R. Gomperts, R. E. Stratmann, 
 O. Yazyev, A. J. Austin, R. Cammi, C. Pomelli, J. W. Ochterski, 
 R. L. Martin, K. Morokuma, V. G. Zakrzewski, G. A. Voth, 
 P. Salvador, J. J. Dannenberg, S. Dapprich, A. D. Daniels, 
 O. Farkas, J. B. Foresman, J. V. Ortiz, J. Cioslowski, 
 and D. J. Fox, Gaussian, Inc., Wallingford CT, 2013.
 
 ******************************************
 Gaussian 09:  ES64L-G09RevE.01 30-Nov-2015
                18-Dec-2024 
 ******************************************
 %chk=B3PW91D33HPA.chk
 -----------------------------------------------------
 # opt freq b3pw91/6-31+g(d,p) EmpiricalDispersion=GD3
 -----------------------------------------------------
 1/14=-1,18=20,19=15,26=3,38=1/1,3;
 2/9=110,12=2,17=6,18=5,40=1/2;
 3/5=1,6=6,7=111,11=2,16=1,25=1,30=1,71=1,74=-6,124=31/1,2,3;
 4//1;
 5/5=2,38=5/2;
 6/7=2,8=2,9=2,10=2,28=1/1;
 7//1,2,3,16;
 1/14=-1,18=20,19=15,26=3/3(2);
 2/9=110/2;
 99//99;
 2/9=110/2;
 3/5=1,6=6,7=111,11=2,16=1,25=1,30=1,71=1,74=-6,124=31/1,2,3;
 4/5=5,16=3,69=1/1;
 5/5=2,38=5/2;
 7//1,2,3,16;
 1/14=-1,18=20,19=15,26=3/3(-5);
 2/9=110/2;
 6/7=2,8=2,9=2,10=2,19=2,28=1/1;
 99/9=1/99;
 ----------
 [No Title]
 ----------
 Symbolic Z-matrix:
 Charge =  0 Multiplicity = 1
 N                    -0.44313  -1.44944   0.00003 
 C                    -1.76628  -1.47649   0.00004 
 C                    -2.55143  -0.3107    0.00002 
 C                    -1.92965   0.92339   0. 
 C                    -0.52654   0.97374  0. 
 C                     0.17294  -0.25694   0.00001 
 C                     1.64752  -0.22649  -0.00001 
 O                     2.29205   0.82512  -0.00007 
 O                     2.24875  -1.41439   0. 
 O                     0.07468   2.16645  -0.00001 
 H                    -2.23201  -2.45928   0.00005 
 H                    -3.63517  -0.384     0.00003 
 H                    -2.48725   1.85457  -0.00001 
 H                     3.20385  -1.24105  -0.00003 
 H                     1.0492    1.99928   0.00001 
 

 GradGradGradGradGradGradGradGradGradGradGradGradGradGradGradGradGradGrad
 Berny optimization.
 Initialization pass.
                           ----------------------------
                           !    Initial Parameters    !
                           ! (Angstroms and Degrees)  !
 --------------------------                            --------------------------
 ! Name  Definition              Value          Derivative Info.                !
 --------------------------------------------------------------------------------
 ! R1    R(1,2)                  1.3234         estimate D2E/DX2                !
 ! R2    R(1,6)                  1.3422         estimate D2E/DX2                !
 ! R3    R(2,3)                  1.4055         estimate D2E/DX2                !
 ! R4    R(2,11)                 1.0876         estimate D2E/DX2                !
 ! R5    R(3,4)                  1.3819         estimate D2E/DX2                !
 ! R6    R(3,12)                 1.0862         estimate D2E/DX2                !
 ! R7    R(4,5)                  1.404          estimate D2E/DX2                !
 ! R8    R(4,13)                 1.0854         estimate D2E/DX2                !
 ! R9    R(5,6)                  1.4156         estimate D2E/DX2                !
 ! R10   R(5,10)                 1.3357         estimate D2E/DX2                !
 ! R11   R(6,7)                  1.4749         estimate D2E/DX2                !
 ! R12   R(7,8)                  1.2334         estimate D2E/DX2                !
 ! R13   R(7,9)                  1.3314         estimate D2E/DX2                !
 ! R14   R(9,14)                 0.9707         estimate D2E/DX2                !
 ! R15   R(10,15)                0.9888         estimate D2E/DX2                !
 ! A1    A(2,1,6)              118.4932         estimate D2E/DX2                !
 ! A2    A(1,2,3)              122.7888         estimate D2E/DX2                !
 ! A3    A(1,2,11)             116.5266         estimate D2E/DX2                !
 ! A4    A(3,2,11)             120.6846         estimate D2E/DX2                !
 ! A5    A(2,3,4)              119.2992         estimate D2E/DX2                !
 ! A6    A(2,3,12)             120.0908         estimate D2E/DX2                !
 ! A7    A(4,3,12)             120.61           estimate D2E/DX2                !
 ! A8    A(3,4,5)              118.7961         estimate D2E/DX2                !
 ! A9    A(3,4,13)             122.3456         estimate D2E/DX2                !
 ! A10   A(5,4,13)             118.8583         estimate D2E/DX2                !
 ! A11   A(4,5,6)              117.5572         estimate D2E/DX2                !
 ! A12   A(4,5,10)             118.8068         estimate D2E/DX2                !
 ! A13   A(6,5,10)             123.6359         estimate D2E/DX2                !
 ! A14   A(1,6,5)              123.0655         estimate D2E/DX2                !
 ! A15   A(1,6,7)              118.5047         estimate D2E/DX2                !
 ! A16   A(5,6,7)              118.4298         estimate D2E/DX2                !
 ! A17   A(6,7,8)              122.6868         estimate D2E/DX2                !
 ! A18   A(6,7,9)              115.6624         estimate D2E/DX2                !
 ! A19   A(8,7,9)              121.6508         estimate D2E/DX2                !
 ! A20   A(7,9,14)             106.5583         estimate D2E/DX2                !
 ! A21   A(5,10,15)            107.0177         estimate D2E/DX2                !
 ! D1    D(6,1,2,3)              0.0002         estimate D2E/DX2                !
 ! D2    D(6,1,2,11)          -180.0            estimate D2E/DX2                !
 ! D3    D(2,1,6,5)              0.0            estimate D2E/DX2                !
 ! D4    D(2,1,6,7)           -179.9995         estimate D2E/DX2                !
 ! D5    D(1,2,3,4)             -0.0001         estimate D2E/DX2                !
 ! D6    D(1,2,3,12)           179.9999         estimate D2E/DX2                !
 ! D7    D(11,2,3,4)          -180.0            estimate D2E/DX2                !
 ! D8    D(11,2,3,12)            0.0001         estimate D2E/DX2                !
 ! D9    D(2,3,4,5)              0.0            estimate D2E/DX2                !
 ! D10   D(2,3,4,13)          -179.9998         estimate D2E/DX2                !
 ! D11   D(12,3,4,5)           179.9999         estimate D2E/DX2                !
 ! D12   D(12,3,4,13)            0.0002         estimate D2E/DX2                !
 ! D13   D(3,4,5,6)              0.0002         estimate D2E/DX2                !
 ! D14   D(3,4,5,10)          -179.9995         estimate D2E/DX2                !
 ! D15   D(13,4,5,6)           179.9999         estimate D2E/DX2                !
 ! D16   D(13,4,5,10)            0.0002         estimate D2E/DX2                !
 ! D17   D(4,5,6,1)             -0.0002         estimate D2E/DX2                !
 ! D18   D(4,5,6,7)            179.9994         estimate D2E/DX2                !
 ! D19   D(10,5,6,1)           179.9995         estimate D2E/DX2                !
 ! D20   D(10,5,6,7)            -0.0009         estimate D2E/DX2                !
 ! D21   D(4,5,10,15)          179.9989         estimate D2E/DX2                !
 ! D22   D(6,5,10,15)           -0.0008         estimate D2E/DX2                !
 ! D23   D(1,6,7,8)            179.9978         estimate D2E/DX2                !
 ! D24   D(1,6,7,9)             -0.0003         estimate D2E/DX2                !
 ! D25   D(5,6,7,8)             -0.0018         estimate D2E/DX2                !
 ! D26   D(5,6,7,9)           -179.9999         estimate D2E/DX2                !
 ! D27   D(6,7,9,14)           179.9991         estimate D2E/DX2                !
 ! D28   D(8,7,9,14)             0.0009         estimate D2E/DX2                !
 --------------------------------------------------------------------------------
 Trust Radius=3.00D-01 FncErr=1.00D-07 GrdErr=1.00D-06
 Number of steps in this run=     74 maximum allowed number of steps=    100.
 GradGradGradGradGradGradGradGradGradGradGradGradGradGradGradGradGradGrad

                          Input orientation:                          
 ---------------------------------------------------------------------
 Center     Atomic      Atomic             Coordinates (Angstroms)
 Number     Number       Type             X           Y           Z
 ---------------------------------------------------------------------
      1          7           0       -0.443132   -1.449437    0.000028
      2          6           0       -1.766278   -1.476489    0.000035
      3          6           0       -2.551429   -0.310702    0.000021
      4          6           0       -1.929646    0.923389    0.000002
      5          6           0       -0.526538    0.973743   -0.000002
      6          6           0        0.172942   -0.256936    0.000010
      7          6           0        1.647524   -0.226491   -0.000008
      8          8           0        2.292053    0.825120   -0.000065
      9          8           0        2.248751   -1.414390    0.000002
     10          8           0        0.074676    2.166451   -0.000011
     11          1           0       -2.232005   -2.459282    0.000050
     12          1           0       -3.635166   -0.383999    0.000026
     13          1           0       -2.487249    1.854572   -0.000006
     14          1           0        3.203854   -1.241045   -0.000027
     15          1           0        1.049199    1.999280    0.000006
 ---------------------------------------------------------------------
                    Distance matrix (angstroms):
                    1          2          3          4          5
     1  N    0.000000
     2  C    1.323423   0.000000
     3  C    2.396171   1.405532   0.000000
     4  C    2.800005   2.405432   1.381881   0.000000
     5  C    2.424615   2.746014   2.397912   1.404011   0.000000
     6  C    1.342239   2.290826   2.724901   2.411233   1.415572
     7  C    2.422073   3.635456   4.199797   3.757442   2.483366
     8  O    3.557365   4.665560   4.974878   4.222843   2.822507
     9  O    2.692111   4.015509   4.925429   4.787924   3.661340
    10  O    3.652776   4.081681   3.610085   2.358497   1.335669
    11  H    2.054228   1.087559   2.172194   3.396157   3.833312
    12  H    3.365151   2.164781   1.086213   2.148968   3.392202
    13  H    3.885214   3.408191   2.166225   1.085368   2.149476
    14  H    3.652935   4.975706   5.829993   5.571140   4.338330
    15  H    3.757752   4.473017   4.277913   3.167185   1.880073
                    6          7          8          9         10
     6  C    0.000000
     7  C    1.474896   0.000000
     8  O    2.379386   1.233411   0.000000
     9  O    2.376696   1.331382   2.239929   0.000000
    10  O    2.425378   2.863568   2.591511   4.189156   0.000000
    11  H    3.260996   4.476170   5.590563   4.600975   5.168963
    12  H    3.810227   5.285038   6.049289   5.973457   4.501969
    13  H    3.396334   4.628949   4.888916   5.754634   2.580839
    14  H    3.186675   1.857817   2.258411   0.970706   4.626314
    15  H    2.420400   2.304788   1.709777   3.618296   0.988757
                   11         12         13         14         15
    11  H    0.000000
    12  H    2.505127   0.000000
    13  H    4.321399   2.515733   0.000000
    14  H    5.570697   6.892512   6.478541   0.000000
    15  H    5.535799   5.255787   3.539407   3.891304   0.000000
 Stoichiometry    C6H5NO3
 Framework group  C1[X(C6H5NO3)]
 Deg. of freedom    39
 Full point group                 C1      NOp   1
 Largest Abelian subgroup         C1      NOp   1
 Largest concise Abelian subgroup C1      NOp   1
                         Standard orientation:                         
 ---------------------------------------------------------------------
 Center     Atomic      Atomic             Coordinates (Angstroms)
 Number     Number       Type             X           Y           Z
 ---------------------------------------------------------------------
      1          7           0       -0.443132   -1.449437    0.000028
      2          6           0       -1.766278   -1.476489    0.000035
      3          6           0       -2.551429   -0.310702    0.000021
      4          6           0       -1.929646    0.923389    0.000002
      5          6           0       -0.526538    0.973743   -0.000002
      6          6           0        0.172942   -0.256936    0.000010
      7          6           0        1.647524   -0.226491   -0.000008
      8          8           0        2.292053    0.825120   -0.000065
      9          8           0        2.248751   -1.414390    0.000002
     10          8           0        0.074676    2.166451   -0.000011
     11          1           0       -2.232005   -2.459282    0.000050
     12          1           0       -3.635166   -0.383999    0.000026
     13          1           0       -2.487249    1.854572   -0.000006
     14          1           0        3.203854   -1.241045   -0.000027
     15          1           0        1.049199    1.999280    0.000006
 ---------------------------------------------------------------------
 Rotational constants (GHZ):      2.3726204      1.2629476      0.8242165
 Standard basis: 6-31+G(d,p) (6D, 7F)
 There are   215 symmetry adapted cartesian basis functions of A   symmetry.
 There are   215 symmetry adapted basis functions of A   symmetry.
   215 basis functions,   355 primitive gaussians,   215 cartesian basis functions
    36 alpha electrons       36 beta electrons
       nuclear repulsion energy       507.9639111222 Hartrees.
 NAtoms=   15 NActive=   15 NUniq=   15 SFac= 1.00D+00 NAtFMM=   60 NAOKFM=F Big=F
 Integral buffers will be    131072 words long.
 Raffenetti 2 integral format.
 Two-electron integral symmetry is turned on.
 Nuclear repulsion after empirical dispersion term =      507.9527916716 Hartrees.
 One-electron integrals computed using PRISM.
 NBasis=   215 RedAO= T EigKep=  5.81D-06  NBF=   215
 NBsUse=   215 1.00D-06 EigRej= -1.00D+00 NBFU=   215
 ExpMin= 4.38D-02 ExpMax= 5.48D+03 ExpMxC= 8.25D+02 IAcc=2 IRadAn=         4 AccDes= 0.00D+00
 Harris functional with IExCor=  408 and IRadAn=       4 diagonalized for initial guess.
 HarFok:  IExCor=  408 AccDes= 0.00D+00 IRadAn=         4 IDoV= 1 UseB2=F ITyADJ=14
 ICtDFT=  3500011 ScaDFX=  1.000000  1.000000  1.000000  1.000000
 FoFCou: FMM=F IPFlag=           0 FMFlag=      100000 FMFlg1=           0
         NFxFlg=           0 DoJE=T BraDBF=F KetDBF=T FulRan=T
         wScrn=  0.000000 ICntrl=     500 IOpCl=  0 I1Cent=   200000004 NGrid=           0
         NMat0=    1 NMatS0=      1 NMatT0=    0 NMatD0=    1 NMtDS0=    0 NMtDT0=    0
 Petite list used in FoFCou.
 Keep R1 ints in memory in canonical form, NReq=274797245.
 Requested convergence on RMS density matrix=1.00D-08 within 128 cycles.
 Requested convergence on MAX density matrix=1.00D-06.
 Requested convergence on             energy=1.00D-06.
 No special actions if energy rises.
 SCF Done:  E(RB3PW91) =  -511.932724168     A.U. after   14 cycles
            NFock= 14  Conv=0.90D-08     -V/T= 2.0090

 **********************************************************************

            Population analysis using the SCF density.

 **********************************************************************

 Orbital symmetries:
       Occupied  (A) (A) (A) (A) (A) (A) (A) (A) (A) (A) (A) (A)
                 (A) (A) (A) (A) (A) (A) (A) (A) (A) (A) (A) (A)
                 (A) (A) (A) (A) (A) (A) (A) (A) (A) (A) (A) (A)
       Virtual   (A) (A) (A) (A) (A) (A) (A) (A) (A) (A) (A) (A)
                 (A) (A) (A) (A) (A) (A) (A) (A) (A) (A) (A) (A)
                 (A) (A) (A) (A) (A) (A) (A) (A) (A) (A) (A) (A)
                 (A) (A) (A) (A) (A) (A) (A) (A) (A) (A) (A) (A)
                 (A) (A) (A) (A) (A) (A) (A) (A) (A) (A) (A) (A)
                 (A) (A) (A) (A) (A) (A) (A) (A) (A) (A) (A) (A)
                 (A) (A) (A) (A) (A) (A) (A) (A) (A) (A) (A) (A)
                 (A) (A) (A) (A) (A) (A) (A) (A) (A) (A) (A) (A)
                 (A) (A) (A) (A) (A) (A) (A) (A) (A) (A) (A) (A)
                 (A) (A) (A) (A) (A) (A) (A) (A) (A) (A) (A) (A)
                 (A) (A) (A) (A) (A) (A) (A) (A) (A) (A) (A) (A)
                 (A) (A) (A) (A) (A) (A) (A) (A) (A) (A) (A) (A)
                 (A) (A) (A) (A) (A) (A) (A) (A) (A) (A) (A) (A)
                 (A) (A) (A) (A) (A) (A) (A) (A) (A) (A) (A) (A)
                 (A) (A) (A) (A) (A) (A) (A) (A) (A) (A) (A)
 The electronic state is 1-A.
 Alpha  occ. eigenvalues --  -19.21572 -19.18764 -19.16666 -14.35040 -10.33779
 Alpha  occ. eigenvalues --  -10.27563 -10.24026 -10.22555 -10.21513 -10.21225
 Alpha  occ. eigenvalues --   -1.14587  -1.09383  -1.04729  -0.97237  -0.82859
 Alpha  occ. eigenvalues --   -0.79658  -0.70601  -0.65453  -0.64333  -0.56955
 Alpha  occ. eigenvalues --   -0.55908  -0.52463  -0.50666  -0.48774  -0.48607
 Alpha  occ. eigenvalues --   -0.43885  -0.43663  -0.42536  -0.41146  -0.40485
 Alpha  occ. eigenvalues --   -0.38785  -0.35049  -0.31983  -0.30766  -0.27610
 Alpha  occ. eigenvalues --   -0.25938
 Alpha virt. eigenvalues --   -0.08178  -0.03214   0.00565   0.01466   0.02296
 Alpha virt. eigenvalues --    0.03531   0.03968   0.05807   0.05947   0.06383
 Alpha virt. eigenvalues --    0.08634   0.08843   0.09446   0.10086   0.11140
 Alpha virt. eigenvalues --    0.12359   0.13275   0.14270   0.14509   0.14712
 Alpha virt. eigenvalues --    0.15266   0.16241   0.17256   0.17338   0.18082
 Alpha virt. eigenvalues --    0.18394   0.19838   0.20402   0.21797   0.22373
 Alpha virt. eigenvalues --    0.22727   0.24050   0.24158   0.25125   0.25641
 Alpha virt. eigenvalues --    0.25776   0.26592   0.27697   0.27984   0.28733
 Alpha virt. eigenvalues --    0.29610   0.29808   0.30403   0.31396   0.32318
 Alpha virt. eigenvalues --    0.32577   0.33794   0.34822   0.35411   0.36517
 Alpha virt. eigenvalues --    0.38110   0.39128   0.40334   0.42490   0.44523
 Alpha virt. eigenvalues --    0.46705   0.50661   0.58597   0.61401   0.64977
 Alpha virt. eigenvalues --    0.65340   0.68717   0.70453   0.71697   0.71849
 Alpha virt. eigenvalues --    0.72165   0.74021   0.75684   0.80266   0.82189
 Alpha virt. eigenvalues --    0.85598   0.88424   0.89231   0.93654   0.95332
 Alpha virt. eigenvalues --    0.97446   1.01245   1.02156   1.04526   1.07817
 Alpha virt. eigenvalues --    1.08481   1.10223   1.11606   1.13424   1.14018
 Alpha virt. eigenvalues --    1.17373   1.18864   1.19214   1.20304   1.21034
 Alpha virt. eigenvalues --    1.23801   1.24034   1.27947   1.28907   1.30084
 Alpha virt. eigenvalues --    1.31266   1.31964   1.32202   1.35609   1.36928
 Alpha virt. eigenvalues --    1.38405   1.39488   1.40674   1.42734   1.44743
 Alpha virt. eigenvalues --    1.47597   1.55280   1.56268   1.57263   1.62125
 Alpha virt. eigenvalues --    1.64409   1.73053   1.74198   1.75661   1.77874
 Alpha virt. eigenvalues --    1.81591   1.81735   1.85278   1.86821   1.88626
 Alpha virt. eigenvalues --    1.90065   1.93674   1.97233   1.97569   1.98385
 Alpha virt. eigenvalues --    2.01814   2.04403   2.08142   2.13389   2.17894
 Alpha virt. eigenvalues --    2.25835   2.26174   2.27823   2.33010   2.33814
 Alpha virt. eigenvalues --    2.33937   2.36587   2.40702   2.43660   2.47621
 Alpha virt. eigenvalues --    2.47781   2.49277   2.51554   2.52619   2.53060
 Alpha virt. eigenvalues --    2.56796   2.60256   2.63414   2.65124   2.66166
 Alpha virt. eigenvalues --    2.70077   2.73413   2.74683   2.77056   2.83536
 Alpha virt. eigenvalues --    2.88147   2.94322   3.03546   3.06897   3.09029
 Alpha virt. eigenvalues --    3.18123   3.18665   3.25778   3.31467   3.37630
 Alpha virt. eigenvalues --    3.41122   3.52247   3.58912   3.80740   4.16229
 Alpha virt. eigenvalues --    4.26864   4.32154   4.33880   4.37186   4.47829
 Alpha virt. eigenvalues --    4.58263   4.70321   4.83576   4.86092
          Condensed to atoms (all electrons):
               1          2          3          4          5          6
     1  N    6.947816  -0.206610   0.300757  -0.171104   0.246040   0.318107
     2  C   -0.206610   6.638169  -0.705430   0.629427  -0.879676   0.054933
     3  C    0.300757  -0.705430   6.307882  -1.296460   2.165238  -0.886689
     4  C   -0.171104   0.629427  -1.296460  11.270373  -5.568765   1.280517
     5  C    0.246040  -0.879676   2.165238  -5.568765  14.851318  -4.459734
     6  C    0.318107   0.054933  -0.886689   1.280517  -4.459734  10.043357
     7  C   -0.260663   0.266326  -0.228489   0.005154  -0.982582   0.038852
     8  O    0.016095  -0.018103   0.017912   0.004980   0.110690  -0.267921
     9  O    0.052816  -0.025336   0.015871  -0.000651   0.162647  -0.278423
    10  O    0.004849  -0.017004   0.024963  -0.561222   0.320987   0.221488
    11  H   -0.115001   0.464093  -0.113402   0.035491  -0.044484   0.037294
    12  H    0.001580   0.054579   0.232008   0.056810  -0.025412   0.001740
    13  H    0.001744  -0.029534   0.076483   0.120238   0.167778  -0.014567
    14  H    0.002192   0.004604  -0.002516   0.008856  -0.032661   0.024483
    15  H   -0.000095   0.004400  -0.011445   0.172286  -0.037003  -0.108758
               7          8          9         10         11         12
     1  N   -0.260663   0.016095   0.052816   0.004849  -0.115001   0.001580
     2  C    0.266326  -0.018103  -0.025336  -0.017004   0.464093   0.054579
     3  C   -0.228489   0.017912   0.015871   0.024963  -0.113402   0.232008
     4  C    0.005154   0.004980  -0.000651  -0.561222   0.035491   0.056810
     5  C   -0.982582   0.110690   0.162647   0.320987  -0.044484  -0.025412
     6  C    0.038852  -0.267921  -0.278423   0.221488   0.037294   0.001740
     7  C    6.097239   0.385040   0.209174  -0.048321   0.023343   0.001429
     8  O    0.385040   8.436070  -0.160095  -0.035634   0.000011   0.000003
     9  O    0.209174  -0.160095   8.260970  -0.004253  -0.000588  -0.000006
    10  O   -0.048321  -0.035634  -0.004253   8.459950   0.000186  -0.000621
    11  H    0.023343   0.000011  -0.000588   0.000186   0.564143  -0.001699
    12  H    0.001429   0.000003  -0.000006  -0.000621  -0.001699   0.517416
    13  H    0.004468   0.000073   0.000022  -0.008525  -0.000114  -0.004344
    14  H    0.036036   0.002331   0.179461   0.000173  -0.000001   0.000000
    15  H   -0.001901   0.055993   0.003794   0.173498  -0.000000   0.000003
              13         14         15
     1  N    0.001744   0.002192  -0.000095
     2  C   -0.029534   0.004604   0.004400
     3  C    0.076483  -0.002516  -0.011445
     4  C    0.120238   0.008856   0.172286
     5  C    0.167778  -0.032661  -0.037003
     6  C   -0.014567   0.024483  -0.108758
     7  C    0.004468   0.036036  -0.001901
     8  O    0.000073   0.002331   0.055993
     9  O    0.000022   0.179461   0.003794
    10  O   -0.008525   0.000173   0.173498
    11  H   -0.000114  -0.000001  -0.000000
    12  H   -0.004344   0.000000   0.000003
    13  H    0.510120  -0.000000   0.000015
    14  H   -0.000000   0.389816   0.000019
    15  H    0.000015   0.000019   0.336277
 Mulliken charges:
               1
     1  N   -0.138525
     2  C   -0.234840
     3  C    0.103317
     4  C    0.014070
     5  C    0.005620
     6  C   -0.004681
     7  C    0.454895
     8  O   -0.547445
     9  O   -0.415404
    10  O   -0.530513
    11  H    0.150729
    12  H    0.166512
    13  H    0.176143
    14  H    0.387206
    15  H    0.412916
 Sum of Mulliken charges =  -0.00000
 Mulliken charges with hydrogens summed into heavy atoms:
               1
     1  N   -0.138525
     2  C   -0.084111
     3  C    0.269829
     4  C    0.190213
     5  C    0.005620
     6  C   -0.004681
     7  C    0.454895
     8  O   -0.547445
     9  O   -0.028198
    10  O   -0.117597
 Electronic spatial extent (au):  <R**2>=           1306.7397
 Charge=             -0.0000 electrons
 Dipole moment (field-independent basis, Debye):
    X=             -1.2163    Y=             -0.4394    Z=              0.0001  Tot=              1.2932
 Quadrupole moment (field-independent basis, Debye-Ang):
   XX=            -43.0921   YY=            -62.1211   ZZ=            -58.0067
   XY=             -2.4194   XZ=              0.0001   YZ=              0.0003
 Traceless Quadrupole moment (field-independent basis, Debye-Ang):
   XX=             11.3145   YY=             -7.7144   ZZ=             -3.6001
   XY=             -2.4194   XZ=              0.0001   YZ=              0.0003
 Octapole moment (field-independent basis, Debye-Ang**2):
  XXX=             17.5560  YYY=              2.5053  ZZZ=             -0.0004  XYY=             -1.0784
  XXY=            -18.1421  XXZ=              0.0003  XZZ=             10.5132  YZZ=              1.7083
  YYZ=              0.0000  XYZ=              0.0008
 Hexadecapole moment (field-independent basis, Debye-Ang**3):
 XXXX=           -848.1949 YYYY=           -589.7139 ZZZZ=            -58.5374 XXXY=            -74.8961
 XXXZ=              0.0043 YYYX=             16.3135 YYYZ=              0.0036 ZZZX=              0.0054
 ZZZY=              0.0034 XXYY=           -231.9311 XXZZ=           -193.5392 YYZZ=           -108.3660
 XXYZ=              0.0022 YYXZ=              0.0014 ZZXY=             -2.5421
 N-N= 5.079527916716D+02 E-N=-2.211600146557D+03  KE= 5.073788848925D+02
 Calling FoFJK, ICntrl=      2127 FMM=F ISym2X=0 I1Cent= 0 IOpClX= 0 NMat=1 NMatS=1 NMatT=0.
 ***** Axes restored to original set *****
 -------------------------------------------------------------------
 Center     Atomic                   Forces (Hartrees/Bohr)
 Number     Number              X              Y              Z
 -------------------------------------------------------------------
      1        7           0.000237495   -0.000334651    0.000000429
      2        6           0.000233775   -0.000218225   -0.000000322
      3        6          -0.000283707    0.000184598   -0.000000039
      4        6          -0.000107372    0.000303935    0.000000058
      5        6          -0.000023837    0.000271673    0.000000668
      6        6          -0.000310833   -0.000685233    0.000000727
      7        6          -0.000025240   -0.000217912   -0.000004312
      8        8           0.000397410    0.000428783    0.000002702
      9        8           0.000154042   -0.000171213    0.000001136
     10        8          -0.000398728    0.000347641    0.000000828
     11        1           0.000065578    0.000057734    0.000000023
     12        1           0.000058223    0.000014476    0.000000012
     13        1           0.000225957   -0.000018683   -0.000000074
     14        1          -0.000041187   -0.000325265   -0.000000020
     15        1          -0.000181575    0.000362341   -0.000001815
 -------------------------------------------------------------------
 Cartesian Forces:  Max     0.000685233 RMS     0.000220449

 GradGradGradGradGradGradGradGradGradGradGradGradGradGradGradGradGradGrad
 Berny optimization.
 FormGI is forming the generalized inverse of G from B-inverse, IUseBI=4.
 Internal  Forces:  Max     0.001451844 RMS     0.000401856
 Search for a local minimum.
 Step number   1 out of a maximum of   74
 All quantities printed in internal units (Hartrees-Bohrs-Radians)
 Mixed Optimization -- En-DIIS/RFO-DIIS
 Second derivative matrix not updated -- first step.
 ITU=  0
     Eigenvalues ---    0.01098   0.01591   0.01741   0.01974   0.02095
     Eigenvalues ---    0.02130   0.02170   0.02199   0.02264   0.02472
     Eigenvalues ---    0.02543   0.02599   0.16000   0.16000   0.16000
     Eigenvalues ---    0.16000   0.16000   0.22081   0.23319   0.24912
     Eigenvalues ---    0.25000   0.25000   0.25000   0.25000   0.35096
     Eigenvalues ---    0.35161   0.35254   0.35354   0.40644   0.43532
     Eigenvalues ---    0.44176   0.47447   0.49721   0.53233   0.55194
     Eigenvalues ---    0.58187   0.59180   0.59430   0.89680
 RFO step:  Lambda=-3.77277043D-05 EMin= 1.09802181D-02
 Linear search not attempted -- first point.
 Iteration  1 RMS(Cart)=  0.00726511 RMS(Int)=  0.00001973
 Iteration  2 RMS(Cart)=  0.00002374 RMS(Int)=  0.00000003
 Iteration  3 RMS(Cart)=  0.00000000 RMS(Int)=  0.00000003
 Variable       Old X    -DE/DX   Delta X   Delta X   Delta X     New X
                                 (Linear)    (Quad)   (Total)
    R1        2.50091  -0.00007   0.00000  -0.00013  -0.00013   2.50078
    R2        2.53646   0.00007   0.00000   0.00016   0.00016   2.53662
    R3        2.65607   0.00034   0.00000   0.00069   0.00069   2.65676
    R4        2.05519  -0.00008   0.00000  -0.00023  -0.00023   2.05496
    R5        2.61138   0.00004   0.00000   0.00004   0.00004   2.61142
    R6        2.05264  -0.00006   0.00000  -0.00017  -0.00017   2.05248
    R7        2.65320  -0.00013   0.00000  -0.00027  -0.00027   2.65293
    R8        2.05105  -0.00013   0.00000  -0.00037  -0.00037   2.05068
    R9        2.67504   0.00130   0.00000   0.00308   0.00308   2.67812
   R10        2.52405   0.00037   0.00000   0.00064   0.00064   2.52469
   R11        2.78715   0.00048   0.00000   0.00135   0.00135   2.78850
   R12        2.33081   0.00057   0.00000   0.00064   0.00064   2.33145
   R13        2.51595   0.00050   0.00000   0.00085   0.00085   2.51679
   R14        1.83437  -0.00010   0.00000  -0.00019  -0.00019   1.83418
   R15        1.86848  -0.00024   0.00000  -0.00048  -0.00048   1.86801
    A1        2.06810  -0.00003   0.00000  -0.00008  -0.00008   2.06801
    A2        2.14307   0.00012   0.00000   0.00037   0.00037   2.14344
    A3        2.03377  -0.00009   0.00000  -0.00038  -0.00038   2.03340
    A4        2.10634  -0.00003   0.00000   0.00000   0.00000   2.10635
    A5        2.08216   0.00003   0.00000  -0.00009  -0.00009   2.08208
    A6        2.09598  -0.00000   0.00000   0.00015   0.00015   2.09613
    A7        2.10504  -0.00003   0.00000  -0.00006  -0.00006   2.10498
    A8        2.07338   0.00014   0.00000   0.00057   0.00057   2.07396
    A9        2.13533   0.00012   0.00000   0.00092   0.00092   2.13626
   A10        2.07447  -0.00026   0.00000  -0.00150  -0.00150   2.07297
   A11        2.05176  -0.00020   0.00000  -0.00067  -0.00067   2.05109
   A12        2.07357  -0.00125   0.00000  -0.00507  -0.00507   2.06850
   A13        2.15785   0.00145   0.00000   0.00574   0.00574   2.16359
   A14        2.14790  -0.00007   0.00000  -0.00011  -0.00011   2.14779
   A15        2.06830  -0.00100   0.00000  -0.00408  -0.00408   2.06422
   A16        2.06699   0.00107   0.00000   0.00418   0.00418   2.07117
   A17        2.14129   0.00049   0.00000   0.00196   0.00196   2.14324
   A18        2.01869  -0.00070   0.00000  -0.00281  -0.00281   2.01588
   A19        2.12321   0.00021   0.00000   0.00085   0.00085   2.12406
   A20        1.85979   0.00058   0.00000   0.00365   0.00365   1.86344
   A21        1.86781   0.00061   0.00000   0.00379   0.00379   1.87160
    D1        0.00000  -0.00000   0.00000  -0.00001  -0.00001  -0.00001
    D2       -3.14159  -0.00000   0.00000  -0.00000  -0.00000   3.14159
    D3       -0.00000  -0.00000   0.00000  -0.00000  -0.00000  -0.00000
    D4       -3.14158  -0.00000   0.00000  -0.00003  -0.00003   3.14157
    D5       -0.00000   0.00000   0.00000   0.00001   0.00001   0.00001
    D6        3.14159   0.00000   0.00000   0.00000   0.00000  -3.14159
    D7       -3.14159   0.00000   0.00000   0.00000   0.00000  -3.14159
    D8        0.00000  -0.00000   0.00000  -0.00000  -0.00000  -0.00000
    D9       -0.00000   0.00000   0.00000   0.00000   0.00000   0.00000
   D10       -3.14159  -0.00000   0.00000  -0.00001  -0.00001   3.14158
   D11        3.14159   0.00000   0.00000   0.00001   0.00001  -3.14159
   D12        0.00000  -0.00000   0.00000  -0.00001  -0.00001  -0.00000
   D13        0.00000  -0.00000   0.00000  -0.00001  -0.00001  -0.00001
   D14       -3.14158  -0.00000   0.00000  -0.00003  -0.00003   3.14157
   D15        3.14159   0.00000   0.00000   0.00000   0.00000  -3.14159
   D16        0.00000  -0.00000   0.00000  -0.00002  -0.00002  -0.00001
   D17       -0.00000   0.00000   0.00000   0.00001   0.00001   0.00001
   D18        3.14158   0.00000   0.00000   0.00004   0.00004  -3.14156
   D19        3.14158   0.00000   0.00000   0.00003   0.00003  -3.14157
   D20       -0.00002   0.00000   0.00000   0.00006   0.00006   0.00004
   D21        3.14157   0.00000   0.00000   0.00007   0.00007  -3.14154
   D22       -0.00001   0.00000   0.00000   0.00005   0.00005   0.00004
   D23        3.14155   0.00000   0.00000   0.00016   0.00016  -3.14147
   D24       -0.00001  -0.00000   0.00000  -0.00001  -0.00001  -0.00001
   D25       -0.00003   0.00000   0.00000   0.00013   0.00013   0.00010
   D26       -3.14159  -0.00000   0.00000  -0.00003  -0.00003   3.14156
   D27        3.14158   0.00000   0.00000   0.00008   0.00008  -3.14153
   D28        0.00002  -0.00000   0.00000  -0.00008  -0.00008  -0.00007
         Item               Value     Threshold  Converged?
 Maximum Force            0.001452     0.000450     NO 
 RMS     Force            0.000402     0.000300     NO 
 Maximum Displacement     0.033758     0.001800     NO 
 RMS     Displacement     0.007269     0.001200     NO 
 Predicted change in Energy=-1.886385D-05
 GradGradGradGradGradGradGradGradGradGradGradGradGradGradGradGradGradGrad

                          Input orientation:                          
 ---------------------------------------------------------------------
 Center     Atomic      Atomic             Coordinates (Angstroms)
 Number     Number       Type             X           Y           Z
 ---------------------------------------------------------------------
      1          7           0       -0.440091   -1.447990   -0.000017
      2          6           0       -1.763137   -1.476504    0.000014
      3          6           0       -2.550214   -0.311578    0.000044
      4          6           0       -1.930139    0.923398    0.000033
      5          6           0       -0.527275    0.976505   -0.000009
      6          6           0        0.174604   -0.254683   -0.000028
      7          6           0        1.649983   -0.228484   -0.000036
      8          8           0        2.299776    0.820279    0.000079
      9          8           0        2.244633   -1.420190   -0.000018
     10          8           0        0.065686    2.173717   -0.000048
     11          1           0       -2.227355   -2.459875    0.000022
     12          1           0       -3.633764   -0.386313    0.000071
     13          1           0       -2.488079    1.854152    0.000046
     14          1           0        3.201215   -1.255793    0.000034
     15          1           0        1.041712    2.017144   -0.000126
 ---------------------------------------------------------------------
                    Distance matrix (angstroms):
                    1          2          3          4          5
     1  N    0.000000
     2  C    1.323353   0.000000
     3  C    2.396675   1.405896   0.000000
     4  C    2.800665   2.405706   1.381904   0.000000
     5  C    2.426062   2.746745   2.398216   1.403869   0.000000
     6  C    1.342323   2.290783   2.725412   2.412016   1.417201
     7  C    2.419836   3.634136   4.201019   3.760866   2.488464
     8  O    3.556953   4.667170   4.980311   4.231172   2.831365
     9  O    2.684868   4.008166   4.921339   4.787602   3.664372
    10  O    3.656852   4.082732   3.608271   2.355125   1.336008
    11  H    2.053832   1.087436   2.172422   3.396303   3.833925
    12  H    3.365518   2.165125   1.086125   2.148878   3.392277
    13  H    3.885665   3.408637   2.166621   1.085172   2.148258
    14  H    3.646374   4.969255   5.828419   5.574914   4.345664
    15  H    3.768673   4.480263   4.280757   3.166731   1.882725
                    6          7          8          9         10
     6  C    0.000000
     7  C    1.475612   0.000000
     8  O    2.381574   1.233748   0.000000
     9  O    2.375590   1.331830   2.241147   0.000000
    10  O    2.430841   2.877597   2.612078   4.202853   0.000000
    11  H    3.260718   4.473573   5.590557   4.591255   5.169933
    12  H    3.810642   5.286104   6.054978   5.968623   4.498853
    13  H    3.396625   4.632594   4.898208   5.754987   2.573681
    14  H    3.187882   1.860560   2.263331   0.970605   4.646836
    15  H    2.431681   2.326551   1.736436   3.641742   0.988506
                   11         12         13         14         15
    11  H    0.000000
    12  H    2.505524   0.000000
    13  H    4.321898   2.516401   0.000000
    14  H    5.560502   6.890060   6.483812   0.000000
    15  H    5.543510   5.257060   3.533552   3.921169   0.000000
 Stoichiometry    C6H5NO3
 Framework group  C1[X(C6H5NO3)]
 Deg. of freedom    39
 Full point group                 C1      NOp   1
 Largest Abelian subgroup         C1      NOp   1
 Largest concise Abelian subgroup C1      NOp   1
                         Standard orientation:                         
 ---------------------------------------------------------------------
 Center     Atomic      Atomic             Coordinates (Angstroms)
 Number     Number       Type             X           Y           Z
 ---------------------------------------------------------------------
      1          7           0       -0.434978   -1.449546   -0.000019
      2          6           0       -1.757910   -1.482942    0.000012
      3          6           0       -2.549280   -0.320929    0.000042
      4          6           0       -1.933767    0.916327    0.000031
      5          6           0       -0.531109    0.974611   -0.000011
      6          6           0        0.175310   -0.253979   -0.000030
      7          6           0        1.650582   -0.222335   -0.000038
      8          8           0        2.296500    0.828818    0.000077
      9          8           0        2.249625   -1.411839   -0.000020
     10          8           0        0.057430    2.174002   -0.000050
     11          1           0       -2.218495   -2.468020    0.000020
     12          1           0       -3.632547   -0.399661    0.000070
     13          1           0       -2.495137    1.845015    0.000044
     14          1           0        3.205594   -1.243914    0.000033
     15          1           0        1.034028    2.021033   -0.000128
 ---------------------------------------------------------------------
 Rotational constants (GHZ):      2.3642180      1.2626756      0.8230846
 Standard basis: 6-31+G(d,p) (6D, 7F)
 There are   215 symmetry adapted cartesian basis functions of A   symmetry.
 There are   215 symmetry adapted basis functions of A   symmetry.
   215 basis functions,   355 primitive gaussians,   215 cartesian basis functions
    36 alpha electrons       36 beta electrons
       nuclear repulsion energy       507.6132852838 Hartrees.
 NAtoms=   15 NActive=   15 NUniq=   15 SFac= 1.00D+00 NAtFMM=   60 NAOKFM=F Big=F
 Integral buffers will be    131072 words long.
 Raffenetti 2 integral format.
 Two-electron integral symmetry is turned on.
 Nuclear repulsion after empirical dispersion term =      507.6021285945 Hartrees.
 One-electron integrals computed using PRISM.
 NBasis=   215 RedAO= T EigKep=  5.81D-06  NBF=   215
 NBsUse=   215 1.00D-06 EigRej= -1.00D+00 NBFU=   215
 Initial guess from the checkpoint file:  "B3PW91D33HPA.chk"
 B after Tr=     0.000000   -0.000000    0.000000
         Rot=    0.999998   -0.000005    0.000003   -0.001745 Ang=  -0.20 deg.
 ExpMin= 4.38D-02 ExpMax= 5.48D+03 ExpMxC= 8.25D+02 IAcc=2 IRadAn=         4 AccDes= 0.00D+00
 Harris functional with IExCor=  408 and IRadAn=       4 diagonalized for initial guess.
 HarFok:  IExCor=  408 AccDes= 0.00D+00 IRadAn=         4 IDoV= 1 UseB2=F ITyADJ=14
 ICtDFT=  3500011 ScaDFX=  1.000000  1.000000  1.000000  1.000000
 FoFCou: FMM=F IPFlag=           0 FMFlag=      100000 FMFlg1=           0
         NFxFlg=           0 DoJE=T BraDBF=F KetDBF=T FulRan=T
         wScrn=  0.000000 ICntrl=     500 IOpCl=  0 I1Cent=   200000004 NGrid=           0
         NMat0=    1 NMatS0=      1 NMatT0=    0 NMatD0=    1 NMtDS0=    0 NMtDT0=    0
 Petite list used in FoFCou.
 Keep R1 ints in memory in canonical form, NReq=274797245.
 Requested convergence on RMS density matrix=1.00D-08 within 128 cycles.
 Requested convergence on MAX density matrix=1.00D-06.
 Requested convergence on             energy=1.00D-06.
 No special actions if energy rises.
 SCF Done:  E(RB3PW91) =  -511.932725859     A.U. after   11 cycles
            NFock= 11  Conv=0.49D-08     -V/T= 2.0090
 Calling FoFJK, ICntrl=      2127 FMM=F ISym2X=0 I1Cent= 0 IOpClX= 0 NMat=1 NMatS=1 NMatT=0.
 ***** Axes restored to original set *****
 -------------------------------------------------------------------
 Center     Atomic                   Forces (Hartrees/Bohr)
 Number     Number              X              Y              Z
 -------------------------------------------------------------------
      1        7          -0.000071253    0.000165072   -0.000001298
      2        6          -0.000167657    0.000066107    0.000000995
      3        6          -0.000079697   -0.000138459    0.000000025
      4        6           0.000083379   -0.000044081    0.000000225
      5        6           0.000032436   -0.001002631   -0.000002287
      6        6          -0.000295730    0.000249024   -0.000003704
      7        6           0.000794124    0.001046283    0.000017764
      8        8          -0.001022842   -0.000093497   -0.000009705
      9        8           0.000006558   -0.000271517   -0.000004983
     10        8           0.001855016   -0.000117951   -0.000002224
     11        1          -0.000018965   -0.000002817   -0.000000047
     12        1           0.000004768   -0.000016871   -0.000000003
     13        1           0.000051547    0.000045172    0.000000081
     14        1          -0.000141476    0.000065681    0.000000071
     15        1          -0.001030209    0.000050482    0.000005090
 -------------------------------------------------------------------
 Cartesian Forces:  Max     0.001855016 RMS     0.000438638

 GradGradGradGradGradGradGradGradGradGradGradGradGradGradGradGradGradGrad
 Berny optimization.
 Using GEDIIS/GDIIS optimizer.
 FormGI is forming the generalized inverse of G from B-inverse, IUseBI=4.
 Internal  Forces:  Max     0.001945248 RMS     0.000491513
 Search for a local minimum.
 Step number   2 out of a maximum of   74
 All quantities printed in internal units (Hartrees-Bohrs-Radians)
 Mixed Optimization -- En-DIIS/RFO-DIIS
 Swapping is turned off.
 Update second derivatives using D2CorX and points    1    2
 DE= -1.69D-06 DEPred=-1.89D-05 R= 8.96D-02
 Trust test= 8.96D-02 RLast= 1.23D-02 DXMaxT set to 1.50D-01
 ITU= -1  0
     Eigenvalues ---    0.01098   0.01591   0.01741   0.01974   0.02095
     Eigenvalues ---    0.02130   0.02170   0.02199   0.02264   0.02472
     Eigenvalues ---    0.02543   0.02599   0.14942   0.16000   0.16000
     Eigenvalues ---    0.16000   0.16029   0.22006   0.22654   0.23423
     Eigenvalues ---    0.24914   0.25000   0.25000   0.34571   0.35092
     Eigenvalues ---    0.35249   0.35340   0.36510   0.42835   0.43848
     Eigenvalues ---    0.47075   0.47440   0.53185   0.55184   0.57591
     Eigenvalues ---    0.58903   0.59251   0.69208   0.92671
 En-DIIS/RFO-DIIS IScMMF=        0 using points:     2    1
 RFO step:  Lambda=-1.85980938D-05.
 DidBck=T Rises=F RFO-DIIS coefs:    0.51448    0.48552
 Iteration  1 RMS(Cart)=  0.00338972 RMS(Int)=  0.00000366
 Iteration  2 RMS(Cart)=  0.00000470 RMS(Int)=  0.00000005
 Iteration  3 RMS(Cart)=  0.00000000 RMS(Int)=  0.00000005
 Variable       Old X    -DE/DX   Delta X   Delta X   Delta X     New X
                                 (Linear)    (Quad)   (Total)
    R1        2.50078   0.00025   0.00006   0.00016   0.00022   2.50099
    R2        2.53662  -0.00006  -0.00008   0.00002  -0.00006   2.53657
    R3        2.65676   0.00004  -0.00033   0.00054   0.00020   2.65696
    R4        2.05496   0.00001   0.00011  -0.00013  -0.00002   2.05494
    R5        2.61142   0.00014  -0.00002   0.00020   0.00018   2.61160
    R6        2.05248  -0.00000   0.00008  -0.00011  -0.00003   2.05245
    R7        2.65293  -0.00012   0.00013  -0.00034  -0.00021   2.65272
    R8        2.05068   0.00001   0.00018  -0.00021  -0.00003   2.05064
    R9        2.67812  -0.00154  -0.00150   0.00003  -0.00147   2.67666
   R10        2.52469   0.00031  -0.00031   0.00067   0.00036   2.52505
   R11        2.78850  -0.00035  -0.00066   0.00033  -0.00032   2.78818
   R12        2.33145  -0.00062  -0.00031   0.00004  -0.00026   2.33118
   R13        2.51679   0.00013  -0.00041   0.00065   0.00023   2.51703
   R14        1.83418  -0.00013   0.00009  -0.00025  -0.00015   1.83402
   R15        1.86801  -0.00102   0.00023  -0.00136  -0.00113   1.86688
    A1        2.06801  -0.00028   0.00004  -0.00061  -0.00057   2.06744
    A2        2.14344  -0.00005  -0.00018   0.00032   0.00014   2.14358
    A3        2.03340   0.00004   0.00018  -0.00021  -0.00003   2.03337
    A4        2.10635   0.00000  -0.00000  -0.00011  -0.00011   2.10624
    A5        2.08208  -0.00014   0.00004  -0.00016  -0.00012   2.08196
    A6        2.09613   0.00006  -0.00007   0.00011   0.00004   2.09616
    A7        2.10498   0.00008   0.00003   0.00006   0.00009   2.10507
    A8        2.07396  -0.00019  -0.00028  -0.00007  -0.00035   2.07361
    A9        2.13626   0.00017  -0.00045   0.00103   0.00058   2.13684
   A10        2.07297   0.00002   0.00073  -0.00096  -0.00023   2.07274
   A11        2.05109   0.00032   0.00033   0.00008   0.00041   2.05150
   A12        2.06850   0.00092   0.00246  -0.00120   0.00126   2.06976
   A13        2.16359  -0.00125  -0.00279   0.00112  -0.00167   2.16193
   A14        2.14779   0.00033   0.00005   0.00045   0.00050   2.14829
   A15        2.06422   0.00162   0.00198   0.00084   0.00282   2.06705
   A16        2.07117  -0.00195  -0.00203  -0.00129  -0.00332   2.06785
   A17        2.14324  -0.00114  -0.00095  -0.00111  -0.00206   2.14119
   A18        2.01588   0.00037   0.00136  -0.00101   0.00036   2.01624
   A19        2.12406   0.00077  -0.00041   0.00212   0.00170   2.12576
   A20        1.86344  -0.00015  -0.00177   0.00180   0.00003   1.86347
   A21        1.87160  -0.00021  -0.00184   0.00169  -0.00015   1.87146
    D1       -0.00001   0.00000   0.00000   0.00001   0.00001   0.00001
    D2        3.14159   0.00000   0.00000   0.00000   0.00000  -3.14159
    D3       -0.00000   0.00000   0.00000  -0.00000   0.00000  -0.00000
    D4        3.14157   0.00000   0.00001   0.00002   0.00003  -3.14158
    D5        0.00001  -0.00000  -0.00000  -0.00001  -0.00001  -0.00001
    D6       -3.14159  -0.00000  -0.00000  -0.00000  -0.00001   3.14159
    D7       -3.14159  -0.00000  -0.00000  -0.00000  -0.00000   3.14159
    D8       -0.00000   0.00000   0.00000   0.00000   0.00001   0.00000
    D9        0.00000  -0.00000  -0.00000  -0.00000  -0.00000  -0.00000
   D10        3.14158   0.00000   0.00001   0.00001   0.00002  -3.14159
   D11       -3.14159  -0.00000  -0.00000  -0.00000  -0.00001   3.14159
   D12       -0.00000   0.00000   0.00000   0.00000   0.00001   0.00000
   D13       -0.00001   0.00000   0.00001   0.00001   0.00001   0.00000
   D14        3.14157   0.00000   0.00002   0.00003   0.00004  -3.14157
   D15       -3.14159  -0.00000  -0.00000  -0.00000  -0.00000   3.14159
   D16       -0.00001   0.00000   0.00001   0.00002   0.00003   0.00001
   D17        0.00001  -0.00000  -0.00001  -0.00001  -0.00001  -0.00000
   D18       -3.14156  -0.00000  -0.00002  -0.00003  -0.00005   3.14158
   D19       -3.14157  -0.00000  -0.00002  -0.00003  -0.00005   3.14157
   D20        0.00004  -0.00000  -0.00003  -0.00005  -0.00008  -0.00003
   D21       -3.14154  -0.00001  -0.00004  -0.00006  -0.00010   3.14155
   D22        0.00004  -0.00000  -0.00003  -0.00004  -0.00006  -0.00003
   D23       -3.14147  -0.00001  -0.00008  -0.00017  -0.00025   3.14147
   D24       -0.00001   0.00000   0.00000   0.00005   0.00005   0.00004
   D25        0.00010  -0.00001  -0.00006  -0.00015  -0.00022  -0.00012
   D26        3.14156   0.00000   0.00002   0.00007   0.00008  -3.14154
   D27       -3.14153  -0.00000  -0.00004  -0.00011  -0.00015   3.14151
   D28       -0.00007   0.00000   0.00004   0.00011   0.00015   0.00008
         Item               Value     Threshold  Converged?
 Maximum Force            0.001945     0.000450     NO 
 RMS     Force            0.000492     0.000300     NO 
 Maximum Displacement     0.011622     0.001800     NO 
 RMS     Displacement     0.003390     0.001200     NO 
 Predicted change in Energy=-1.134597D-05
 GradGradGradGradGradGradGradGradGradGradGradGradGradGradGradGradGradGrad

                          Input orientation:                          
 ---------------------------------------------------------------------
 Center     Atomic      Atomic             Coordinates (Angstroms)
 Number     Number       Type             X           Y           Z
 ---------------------------------------------------------------------
      1          7           0       -0.441529   -1.449788    0.000057
      2          6           0       -1.764720   -1.476899    0.000047
      3          6           0       -2.550779   -0.311155    0.000008
      4          6           0       -1.929366    0.923256   -0.000014
      5          6           0       -0.526540    0.974399    0.000003
      6          6           0        0.173737   -0.256809    0.000036
      7          6           0        1.648880   -0.227170    0.000032
      8          8           0        2.293987    0.824317   -0.000119
      9          8           0        2.246788   -1.417384   -0.000001
     10          8           0        0.069683    2.170203    0.000005
     11          1           0       -2.229951   -2.459780    0.000065
     12          1           0       -3.634385   -0.384847   -0.000001
     13          1           0       -2.485777    1.854904   -0.000037
     14          1           0        3.202848   -1.250457   -0.000077
     15          1           0        1.044680    2.010994    0.000057
 ---------------------------------------------------------------------
                    Distance matrix (angstroms):
                    1          2          3          4          5
     1  N    0.000000
     2  C    1.323469   0.000000
     3  C    2.396960   1.406004   0.000000
     4  C    2.800893   2.405796   1.382000   0.000000
     5  C    2.425677   2.746261   2.397956   1.403759   0.000000
     6  C    1.342294   2.290467   2.725058   2.411555   1.416425
     7  C    2.421695   3.635174   4.200499   3.758634   2.485200
     8  O    3.557331   4.665694   4.976047   4.224512   2.824517
     9  O    2.688512   4.011950   4.923453   4.787365   3.662236
    10  O    3.655910   4.082449   3.608872   2.356072   1.336200
    11  H    2.053908   1.087426   2.172446   3.396364   3.833431
    12  H    3.365773   2.165230   1.086109   2.149005   3.392086
    13  H    3.885864   3.408934   2.167034   1.085155   2.147999
    14  H    3.649825   4.972727   5.829795   5.573568   4.342617
    15  H    3.766408   4.478630   4.280151   3.166721   1.882355
                    6          7          8          9         10
     6  C    0.000000
     7  C    1.475441   0.000000
     8  O    2.379977   1.233608   0.000000
     9  O    2.375810   1.331954   2.242198   0.000000
    10  O    2.429242   2.870760   2.599796   4.196495   0.000000
    11  H    3.260491   4.475475   5.590287   4.596497   5.169629
    12  H    3.810274   5.285618   6.050427   5.971125   4.499822
    13  H    3.395931   4.629301   4.889606   5.753698   2.574838
    14  H    3.187923   1.860627   2.265108   0.970524   4.638711
    15  H    2.429294   2.318283   1.723070   3.633021   0.987910
                   11         12         13         14         15
    11  H    0.000000
    12  H    2.505550   0.000000
    13  H    4.322262   2.517099   0.000000
    14  H    5.565768   6.891810   6.481028   0.000000
    15  H    5.541753   5.256776   3.533905   3.910851   0.000000
 Stoichiometry    C6H5NO3
 Framework group  C1[X(C6H5NO3)]
 Deg. of freedom    39
 Full point group                 C1      NOp   1
 Largest Abelian subgroup         C1      NOp   1
 Largest concise Abelian subgroup C1      NOp   1
                         Standard orientation:                         
 ---------------------------------------------------------------------
 Center     Atomic      Atomic             Coordinates (Angstroms)
 Number     Number       Type             X           Y           Z
 ---------------------------------------------------------------------
      1          7           0       -0.439107   -1.450418    0.000054
      2          6           0       -1.762252   -1.479710    0.000044
      3          6           0       -2.550230   -0.315263    0.000006
      4          6           0       -1.930853    0.920171   -0.000016
      5          6           0       -0.528112    0.973625    0.000001
      6          6           0        0.174193   -0.256426    0.000034
      7          6           0        1.649285   -0.224357    0.000030
      8          8           0        2.292658    0.828192   -0.000121
      9          8           0        2.249153   -1.413584   -0.000003
     10          8           0        0.066139    2.170411    0.000003
     11          1           0       -2.225862   -2.463356    0.000063
     12          1           0       -3.633713   -0.390740   -0.000003
     13          1           0       -2.488798    1.850901   -0.000039
     14          1           0        3.204937   -1.245081   -0.000079
     15          1           0        1.041397    2.012809    0.000055
 ---------------------------------------------------------------------
 Rotational constants (GHZ):      2.3671118      1.2633542      0.8237236
 Standard basis: 6-31+G(d,p) (6D, 7F)
 There are   215 symmetry adapted cartesian basis functions of A   symmetry.
 There are   215 symmetry adapted basis functions of A   symmetry.
   215 basis functions,   355 primitive gaussians,   215 cartesian basis functions
    36 alpha electrons       36 beta electrons
       nuclear repulsion energy       507.7748989058 Hartrees.
 NAtoms=   15 NActive=   15 NUniq=   15 SFac= 1.00D+00 NAtFMM=   60 NAOKFM=F Big=F
 Integral buffers will be    131072 words long.
 Raffenetti 2 integral format.
 Two-electron integral symmetry is turned on.
 Nuclear repulsion after empirical dispersion term =      507.7637549477 Hartrees.
 One-electron integrals computed using PRISM.
 NBasis=   215 RedAO= T EigKep=  5.81D-06  NBF=   215
 NBsUse=   215 1.00D-06 EigRej= -1.00D+00 NBFU=   215
 Initial guess from the checkpoint file:  "B3PW91D33HPA.chk"
 B after Tr=     0.000000    0.000000   -0.000000
         Rot=    1.000000    0.000007   -0.000004    0.000893 Ang=   0.10 deg.
 Keep R1 ints in memory in canonical form, NReq=274797245.
 Requested convergence on RMS density matrix=1.00D-08 within 128 cycles.
 Requested convergence on MAX density matrix=1.00D-06.
 Requested convergence on             energy=1.00D-06.
 No special actions if energy rises.
 SCF Done:  E(RB3PW91) =  -511.932736132     A.U. after   10 cycles
            NFock= 10  Conv=0.52D-08     -V/T= 2.0090
 Calling FoFJK, ICntrl=      2127 FMM=F ISym2X=0 I1Cent= 0 IOpClX= 0 NMat=1 NMatS=1 NMatT=0.
 ***** Axes restored to original set *****
 -------------------------------------------------------------------
 Center     Atomic                   Forces (Hartrees/Bohr)
 Number     Number              X              Y              Z
 -------------------------------------------------------------------
      1        7          -0.000025700    0.000095704    0.000001603
      2        6          -0.000061579    0.000064864   -0.000001129
      3        6           0.000025098   -0.000030898   -0.000000045
      4        6          -0.000060156   -0.000057892   -0.000000463
      5        6           0.000108374   -0.000163407    0.000002265
      6        6          -0.000037376    0.000038261    0.000005559
      7        6           0.000177958    0.000353282   -0.000023203
      8        8           0.000023979   -0.000391683    0.000011228
      9        8           0.000027796    0.000110680    0.000006656
     10        8           0.000101355    0.000075232    0.000001787
     11        1          -0.000015463   -0.000008917   -0.000000009
     12        1          -0.000001434   -0.000022006    0.000000085
     13        1          -0.000004846    0.000023753   -0.000000052
     14        1          -0.000019657    0.000020608   -0.000000028
     15        1          -0.000238347   -0.000107582   -0.000004253
 -------------------------------------------------------------------
 Cartesian Forces:  Max     0.000391683 RMS     0.000103114

 GradGradGradGradGradGradGradGradGradGradGradGradGradGradGradGradGradGrad
 Berny optimization.
 Using GEDIIS/GDIIS optimizer.
 FormGI is forming the generalized inverse of G from B-inverse, IUseBI=4.
 Internal  Forces:  Max     0.000324178 RMS     0.000091696
 Search for a local minimum.
 Step number   3 out of a maximum of   74
 All quantities printed in internal units (Hartrees-Bohrs-Radians)
 Mixed Optimization -- En-DIIS/RFO-DIIS
 Swapping is turned off.
 Update second derivatives using D2CorX and points    1    2    3
 DE= -1.03D-05 DEPred=-1.13D-05 R= 9.05D-01
 TightC=F SS=  1.41D+00  RLast= 6.01D-03 DXNew= 2.5227D-01 1.8036D-02
 Trust test= 9.05D-01 RLast= 6.01D-03 DXMaxT set to 1.50D-01
 ITU=  1 -1  0
     Eigenvalues ---    0.01098   0.01593   0.01741   0.01974   0.02095
     Eigenvalues ---    0.02130   0.02170   0.02199   0.02264   0.02472
     Eigenvalues ---    0.02543   0.02599   0.15101   0.16000   0.16000
     Eigenvalues ---    0.16012   0.16814   0.21799   0.22848   0.23569
     Eigenvalues ---    0.24945   0.25000   0.26786   0.34173   0.35096
     Eigenvalues ---    0.35248   0.35350   0.37696   0.43646   0.44241
     Eigenvalues ---    0.45934   0.47524   0.53182   0.55184   0.57725
     Eigenvalues ---    0.59071   0.59571   0.72154   0.90643
 En-DIIS/RFO-DIIS IScMMF=        0 using points:     3    2    1
 RFO step:  Lambda=-8.33645135D-07.
 DidBck=F Rises=F RFO-DIIS coefs:    0.73563    0.12112    0.14324
 Iteration  1 RMS(Cart)=  0.00048709 RMS(Int)=  0.00000022
 Iteration  2 RMS(Cart)=  0.00000021 RMS(Int)=  0.00000003
 Variable       Old X    -DE/DX   Delta X   Delta X   Delta X     New X
                                 (Linear)    (Quad)   (Total)
    R1        2.50099   0.00005  -0.00004   0.00012   0.00008   2.50108
    R2        2.53657  -0.00001  -0.00001  -0.00001  -0.00002   2.53655
    R3        2.65696  -0.00010  -0.00015   0.00000  -0.00015   2.65681
    R4        2.05494   0.00001   0.00004  -0.00001   0.00003   2.05496
    R5        2.61160  -0.00005  -0.00005  -0.00000  -0.00006   2.61154
    R6        2.05245   0.00000   0.00003  -0.00003   0.00000   2.05245
    R7        2.65272   0.00007   0.00009   0.00000   0.00010   2.65281
    R8        2.05064   0.00002   0.00006  -0.00002   0.00005   2.05069
    R9        2.67666  -0.00010  -0.00005  -0.00022  -0.00028   2.67638
   R10        2.52505  -0.00009  -0.00019   0.00011  -0.00008   2.52497
   R11        2.78818   0.00021  -0.00011   0.00055   0.00044   2.78862
   R12        2.33118  -0.00032  -0.00002  -0.00027  -0.00029   2.33089
   R13        2.51703  -0.00011  -0.00018   0.00008  -0.00011   2.51692
   R14        1.83402  -0.00002   0.00007  -0.00011  -0.00004   1.83398
   R15        1.86688  -0.00021   0.00037  -0.00080  -0.00044   1.86644
    A1        2.06744   0.00010   0.00016   0.00008   0.00025   2.06769
    A2        2.14358   0.00001  -0.00009   0.00013   0.00004   2.14362
    A3        2.03337   0.00001   0.00006  -0.00001   0.00005   2.03342
    A4        2.10624  -0.00002   0.00003  -0.00012  -0.00010   2.10614
    A5        2.08196  -0.00005   0.00004  -0.00023  -0.00018   2.08177
    A6        2.09616   0.00001  -0.00003   0.00004   0.00001   2.09617
    A7        2.10507   0.00004  -0.00001   0.00019   0.00017   2.10524
    A8        2.07361   0.00001   0.00001  -0.00000   0.00001   2.07362
    A9        2.13684   0.00001  -0.00029   0.00039   0.00011   2.13695
   A10        2.07274  -0.00002   0.00028  -0.00039  -0.00012   2.07262
   A11        2.05150   0.00008  -0.00001   0.00030   0.00029   2.05178
   A12        2.06976  -0.00003   0.00039  -0.00044  -0.00004   2.06972
   A13        2.16193  -0.00005  -0.00038   0.00014  -0.00024   2.16168
   A14        2.14829  -0.00015  -0.00012  -0.00028  -0.00040   2.14789
   A15        2.06705  -0.00000  -0.00016   0.00036   0.00020   2.06725
   A16        2.06785   0.00015   0.00028  -0.00008   0.00020   2.06805
   A17        2.14119   0.00030   0.00026   0.00047   0.00074   2.14192
   A18        2.01624  -0.00006   0.00031  -0.00048  -0.00018   2.01606
   A19        2.12576  -0.00024  -0.00057   0.00001  -0.00056   2.12520
   A20        1.86347  -0.00003  -0.00053   0.00041  -0.00012   1.86335
   A21        1.87146  -0.00027  -0.00050  -0.00077  -0.00127   1.87018
    D1        0.00001  -0.00000  -0.00000  -0.00002  -0.00002  -0.00001
    D2       -3.14159  -0.00000  -0.00000  -0.00000  -0.00000   3.14159
    D3       -0.00000   0.00000   0.00000   0.00000   0.00000   0.00000
    D4       -3.14158  -0.00000  -0.00000  -0.00003  -0.00003   3.14157
    D5       -0.00001   0.00000   0.00000   0.00002   0.00002   0.00001
    D6        3.14159   0.00000   0.00000   0.00001   0.00001  -3.14159
    D7        3.14159   0.00000   0.00000   0.00000   0.00000  -3.14159
    D8        0.00000  -0.00000  -0.00000  -0.00001  -0.00001  -0.00000
    D9       -0.00000  -0.00000   0.00000   0.00000   0.00000   0.00000
   D10       -3.14159  -0.00000  -0.00000  -0.00002  -0.00002   3.14158
   D11        3.14159   0.00000   0.00000   0.00001   0.00001  -3.14159
   D12        0.00000  -0.00000  -0.00000  -0.00001  -0.00001  -0.00001
   D13        0.00000  -0.00000  -0.00000  -0.00001  -0.00001  -0.00001
   D14       -3.14157  -0.00000  -0.00001  -0.00005  -0.00006   3.14155
   D15        3.14159   0.00000   0.00000   0.00000   0.00000  -3.14159
   D16        0.00001  -0.00000  -0.00000  -0.00003  -0.00004  -0.00003
   D17       -0.00000   0.00000   0.00000   0.00001   0.00001   0.00001
   D18        3.14158   0.00000   0.00001   0.00004   0.00005  -3.14156
   D19        3.14157   0.00000   0.00001   0.00005   0.00006  -3.14155
   D20       -0.00003   0.00000   0.00001   0.00009   0.00010   0.00006
   D21        3.14155   0.00000   0.00002   0.00011   0.00013  -3.14151
   D22       -0.00003   0.00000   0.00001   0.00007   0.00008   0.00006
   D23        3.14147   0.00001   0.00004   0.00037   0.00042  -3.14130
   D24        0.00004  -0.00000  -0.00001  -0.00014  -0.00015  -0.00011
   D25       -0.00012   0.00001   0.00004   0.00034   0.00038   0.00026
   D26       -3.14154  -0.00000  -0.00002  -0.00017  -0.00019   3.14146
   D27        3.14151   0.00001   0.00003   0.00025   0.00028  -3.14139
   D28        0.00008  -0.00001  -0.00003  -0.00025  -0.00028  -0.00020
         Item               Value     Threshold  Converged?
 Maximum Force            0.000324     0.000450     YES
 RMS     Force            0.000092     0.000300     YES
 Maximum Displacement     0.002474     0.001800     NO 
 RMS     Displacement     0.000487     0.001200     YES
 Predicted change in Energy=-6.870503D-07
 GradGradGradGradGradGradGradGradGradGradGradGradGradGradGradGradGradGrad

                          Input orientation:                          
 ---------------------------------------------------------------------
 Center     Atomic      Atomic             Coordinates (Angstroms)
 Number     Number       Type             X           Y           Z
 ---------------------------------------------------------------------
      1          7           0       -0.441599   -1.449459   -0.000069
      2          6           0       -1.764832   -1.476690   -0.000006
      3          6           0       -2.550998   -0.311116    0.000066
      4          6           0       -1.929539    0.923237    0.000059
      5          6           0       -0.526660    0.974324   -0.000021
      6          6           0        0.173848   -0.256584   -0.000079
      7          6           0        1.649221   -0.226874   -0.000120
      8          8           0        2.294972    0.824036    0.000167
      9          8           0        2.246949   -1.417115   -0.000008
     10          8           0        0.069541    2.170094   -0.000074
     11          1           0       -2.230032   -2.459600   -0.000003
     12          1           0       -3.634597   -0.384941    0.000122
     13          1           0       -2.485816    1.854992    0.000101
     14          1           0        3.202989   -1.250204    0.000134
     15          1           0        1.044107    2.009685   -0.000209
 ---------------------------------------------------------------------
                    Distance matrix (angstroms):
                    1          2          3          4          5
     1  N    0.000000
     2  C    1.323513   0.000000
     3  C    2.396955   1.405924   0.000000
     4  C    2.800652   2.405572   1.381969   0.000000
     5  C    2.425275   2.746004   2.397979   1.403809   0.000000
     6  C    1.342284   2.290663   2.725392   2.411683   1.416278
     7  C    2.422033   3.635629   4.201065   3.759026   2.485425
     8  O    3.557752   4.666406   4.977148   4.225676   2.825632
     9  O    2.688742   4.012223   4.923772   4.787515   3.662224
    10  O    3.655465   4.082151   3.608827   2.356051   1.336159
    11  H    2.053991   1.087439   2.172327   3.396157   3.833186
    12  H    3.365774   2.165165   1.086110   2.149082   3.392178
    13  H    3.885643   3.408801   2.167089   1.085178   2.147992
    14  H    3.650031   4.972981   5.830116   5.573750   4.342673
    15  H    3.764704   4.477158   4.279124   3.165903   1.881298
                    6          7          8          9         10
     6  C    0.000000
     7  C    1.475672   0.000000
     8  O    2.380526   1.233453   0.000000
     9  O    2.375833   1.331898   2.241665   0.000000
    10  O    2.428918   2.870687   2.600849   4.196328   0.000000
    11  H    3.260663   4.475899   5.590879   4.596753   5.169343
    12  H    3.810607   5.286182   6.051563   5.971429   4.499871
    13  H    3.395963   4.629546   4.890685   5.753759   2.574711
    14  H    3.187942   1.860483   2.264280   0.970501   4.638635
    15  H    2.427617   2.316972   1.723493   3.631774   0.987679
                   11         12         13         14         15
    11  H    0.000000
    12  H    2.505397   0.000000
    13  H    4.322168   2.517340   0.000000
    14  H    5.566001   6.892116   6.481106   0.000000
    15  H    5.540262   5.255902   3.533311   3.909942   0.000000
 Stoichiometry    C6H5NO3
 Framework group  C1[X(C6H5NO3)]
 Deg. of freedom    39
 Full point group                 C1      NOp   1
 Largest Abelian subgroup         C1      NOp   1
 Largest concise Abelian subgroup C1      NOp   1
                         Standard orientation:                         
 ---------------------------------------------------------------------
 Center     Atomic      Atomic             Coordinates (Angstroms)
 Number     Number       Type             X           Y           Z
 ---------------------------------------------------------------------
      1          7           0       -0.439252   -1.450153   -0.000065
      2          6           0       -1.762438   -1.479570   -0.000003
      3          6           0       -2.550529   -0.315295    0.000070
      4          6           0       -1.931108    0.920082    0.000062
      5          6           0       -0.528316    0.973486   -0.000018
      6          6           0        0.174224   -0.256263   -0.000075
      7          6           0        1.649546   -0.224117   -0.000116
      8          8           0        2.293561    0.827857    0.000171
      9          8           0        2.249239   -1.413369   -0.000004
     10          8           0        0.065910    2.170239   -0.000070
     11          1           0       -2.226015   -2.463246    0.000000
     12          1           0       -3.634004   -0.390909    0.000126
     13          1           0       -2.488923    1.850918    0.000104
     14          1           0        3.205002   -1.244880    0.000137
     15          1           0        1.040740    2.011439   -0.000205
 ---------------------------------------------------------------------
 Rotational constants (GHZ):      2.3677763      1.2629526      0.8236333
 Standard basis: 6-31+G(d,p) (6D, 7F)
 There are   215 symmetry adapted cartesian basis functions of A   symmetry.
 There are   215 symmetry adapted basis functions of A   symmetry.
   215 basis functions,   355 primitive gaussians,   215 cartesian basis functions
    36 alpha electrons       36 beta electrons
       nuclear repulsion energy       507.7702446276 Hartrees.
 NAtoms=   15 NActive=   15 NUniq=   15 SFac= 1.00D+00 NAtFMM=   60 NAOKFM=F Big=F
 Integral buffers will be    131072 words long.
 Raffenetti 2 integral format.
 Two-electron integral symmetry is turned on.
 Nuclear repulsion after empirical dispersion term =      507.7591017493 Hartrees.
 One-electron integrals computed using PRISM.
 NBasis=   215 RedAO= T EigKep=  5.81D-06  NBF=   215
 NBsUse=   215 1.00D-06 EigRej= -1.00D+00 NBFU=   215
 Initial guess from the checkpoint file:  "B3PW91D33HPA.chk"
 B after Tr=    -0.000000   -0.000000   -0.000000
         Rot=    1.000000   -0.000011    0.000006    0.000002 Ang=  -0.00 deg.
 Keep R1 ints in memory in canonical form, NReq=274797245.
 Requested convergence on RMS density matrix=1.00D-08 within 128 cycles.
 Requested convergence on MAX density matrix=1.00D-06.
 Requested convergence on             energy=1.00D-06.
 No special actions if energy rises.
 SCF Done:  E(RB3PW91) =  -511.932736651     A.U. after    9 cycles
            NFock=  9  Conv=0.48D-08     -V/T= 2.0090
 Calling FoFJK, ICntrl=      2127 FMM=F ISym2X=0 I1Cent= 0 IOpClX= 0 NMat=1 NMatS=1 NMatT=0.
 ***** Axes restored to original set *****
 -------------------------------------------------------------------
 Center     Atomic                   Forces (Hartrees/Bohr)
 Number     Number              X              Y              Z
 -------------------------------------------------------------------
      1        7          -0.000002334    0.000023455   -0.000003910
      2        6           0.000017640    0.000016031    0.000002677
      3        6           0.000011568    0.000005020    0.000000088
      4        6          -0.000028874   -0.000030692    0.000001117
      5        6          -0.000051864   -0.000103095   -0.000004761
      6        6          -0.000032359    0.000003397   -0.000013477
      7        6           0.000105560    0.000107058    0.000055174
      8        8          -0.000094184   -0.000099910   -0.000025978
      9        8          -0.000018695   -0.000018423   -0.000015988
     10        8           0.000053948    0.000023115   -0.000003899
     11        1           0.000005287   -0.000008646    0.000000057
     12        1           0.000000116   -0.000012638   -0.000000254
     13        1           0.000000131    0.000007262    0.000000105
     14        1           0.000000157    0.000017208    0.000000041
     15        1           0.000033903    0.000070857    0.000009007
 -------------------------------------------------------------------
 Cartesian Forces:  Max     0.000107058 RMS     0.000040581

 GradGradGradGradGradGradGradGradGradGradGradGradGradGradGradGradGradGrad
 Berny optimization.
 Using GEDIIS/GDIIS optimizer.
 FormGI is forming the generalized inverse of G from B-inverse, IUseBI=4.
 Internal  Forces:  Max     0.000137716 RMS     0.000031086
 Search for a local minimum.
 Step number   4 out of a maximum of   74
 All quantities printed in internal units (Hartrees-Bohrs-Radians)
 Mixed Optimization -- En-DIIS/RFO-DIIS
 Swapping is turned off.
 Update second derivatives using D2CorX and points    1    2    3    4
 DE= -5.19D-07 DEPred=-6.87D-07 R= 7.56D-01
 Trust test= 7.56D-01 RLast= 2.06D-03 DXMaxT set to 1.50D-01
 ITU=  0  1 -1  0
     Eigenvalues ---    0.01100   0.01646   0.01742   0.01978   0.02095
     Eigenvalues ---    0.02130   0.02170   0.02199   0.02264   0.02472
     Eigenvalues ---    0.02549   0.02599   0.14778   0.15893   0.16000
     Eigenvalues ---    0.16003   0.19172   0.21373   0.22571   0.23460
     Eigenvalues ---    0.24924   0.24991   0.29282   0.34613   0.35090
     Eigenvalues ---    0.35247   0.35338   0.37292   0.42927   0.44037
     Eigenvalues ---    0.45585   0.47409   0.53180   0.55199   0.58854
     Eigenvalues ---    0.59016   0.63613   0.72459   0.85448
 En-DIIS/RFO-DIIS IScMMF=        0 using points:     4    3    2    1
 RFO step:  Lambda=-9.63709264D-08.
 DidBck=F Rises=F RFO-DIIS coefs:    0.84120    0.14951    0.00555    0.00375
 Iteration  1 RMS(Cart)=  0.00035562 RMS(Int)=  0.00000016
 Iteration  2 RMS(Cart)=  0.00000018 RMS(Int)=  0.00000007
 Variable       Old X    -DE/DX   Delta X   Delta X   Delta X     New X
                                 (Linear)    (Quad)   (Total)
    R1        2.50108  -0.00002  -0.00001  -0.00000  -0.00001   2.50106
    R2        2.53655  -0.00003   0.00000  -0.00006  -0.00005   2.53650
    R3        2.65681  -0.00001   0.00002  -0.00007  -0.00005   2.65676
    R4        2.05496   0.00000  -0.00000   0.00002   0.00001   2.05498
    R5        2.61154  -0.00001   0.00001  -0.00004  -0.00003   2.61151
    R6        2.05245   0.00000   0.00000   0.00000   0.00000   2.05245
    R7        2.65281   0.00002  -0.00001   0.00007   0.00006   2.65287
    R8        2.05069   0.00001  -0.00001   0.00003   0.00002   2.05071
    R9        2.67638  -0.00003   0.00005  -0.00015  -0.00011   2.67627
   R10        2.52497   0.00012   0.00001   0.00017   0.00018   2.52515
   R11        2.78862  -0.00001  -0.00007   0.00015   0.00007   2.78869
   R12        2.33089  -0.00014   0.00005  -0.00024  -0.00019   2.33070
   R13        2.51692  -0.00000   0.00001  -0.00002  -0.00001   2.51691
   R14        1.83398   0.00000   0.00001  -0.00002  -0.00001   1.83397
   R15        1.86644   0.00003   0.00008  -0.00015  -0.00007   1.86637
    A1        2.06769   0.00001  -0.00003   0.00008   0.00005   2.06774
    A2        2.14362   0.00000  -0.00001   0.00003   0.00002   2.14364
    A3        2.03342  -0.00001  -0.00001  -0.00001  -0.00002   2.03341
    A4        2.10614   0.00000   0.00002  -0.00002  -0.00001   2.10614
    A5        2.08177  -0.00001   0.00003  -0.00009  -0.00006   2.08172
    A6        2.09617  -0.00000  -0.00000  -0.00003  -0.00003   2.09614
    A7        2.10524   0.00001  -0.00003   0.00011   0.00009   2.10533
    A8        2.07362  -0.00000  -0.00000   0.00001   0.00001   2.07363
    A9        2.13695   0.00001  -0.00003   0.00011   0.00008   2.13703
   A10        2.07262  -0.00001   0.00003  -0.00012  -0.00009   2.07253
   A11        2.05178  -0.00001  -0.00005   0.00008   0.00003   2.05182
   A12        2.06972  -0.00001   0.00001  -0.00008  -0.00006   2.06966
   A13        2.16168   0.00002   0.00003  -0.00000   0.00003   2.16171
   A14        2.14789   0.00001   0.00006  -0.00011  -0.00005   2.14784
   A15        2.06725  -0.00001  -0.00004   0.00006   0.00002   2.06726
   A16        2.06805   0.00000  -0.00002   0.00005   0.00004   2.06809
   A17        2.14192  -0.00002  -0.00010   0.00016   0.00006   2.14198
   A18        2.01606  -0.00001   0.00004  -0.00012  -0.00009   2.01597
   A19        2.12520   0.00003   0.00007  -0.00004   0.00003   2.12523
   A20        1.86335  -0.00002   0.00000  -0.00011  -0.00011   1.86324
   A21        1.87018   0.00014   0.00019   0.00030   0.00049   1.87068
    D1       -0.00001   0.00000   0.00000   0.00005   0.00005   0.00004
    D2        3.14159   0.00000   0.00000   0.00001   0.00001  -3.14158
    D3        0.00000  -0.00000  -0.00000  -0.00001  -0.00001  -0.00001
    D4        3.14157   0.00000   0.00001   0.00007   0.00007  -3.14154
    D5        0.00001  -0.00000  -0.00000  -0.00004  -0.00004  -0.00003
[...]
 ! R12   R(7,8)                  1.2335         -DE/DX =   -0.0001              !
 ! R13   R(7,9)                  1.3319         -DE/DX =    0.0                 !
 ! R14   R(9,14)                 0.9705         -DE/DX =    0.0                 !
 ! R15   R(10,15)                0.9877         -DE/DX =    0.0                 !
 ! A1    A(2,1,6)              118.4698         -DE/DX =    0.0                 !
 ! A2    A(1,2,3)              122.8203         -DE/DX =    0.0                 !
 ! A3    A(1,2,11)             116.5066         -DE/DX =    0.0                 !
 ! A4    A(3,2,11)             120.6731         -DE/DX =    0.0                 !
 ! A5    A(2,3,4)              119.2769         -DE/DX =    0.0                 !
 ! A6    A(2,3,12)             120.1017         -DE/DX =    0.0                 !
 ! A7    A(4,3,12)             120.6214         -DE/DX =    0.0                 !
 ! A8    A(3,4,5)              118.8094         -DE/DX =    0.0                 !
 ! A9    A(3,4,13)             122.4381         -DE/DX =    0.0                 !
 ! A10   A(5,4,13)             118.7525         -DE/DX =    0.0                 !
 ! A11   A(4,5,6)              117.5586         -DE/DX =    0.0                 !
 ! A12   A(4,5,10)             118.586          -DE/DX =    0.0                 !
 ! A13   A(6,5,10)             123.8554         -DE/DX =    0.0                 !
 ! A14   A(1,6,5)              123.065          -DE/DX =    0.0                 !
 ! A15   A(1,6,7)              118.4444         -DE/DX =    0.0                 !
 ! A16   A(5,6,7)              118.4905         -DE/DX =    0.0                 !
 ! A17   A(6,7,8)              122.723          -DE/DX =    0.0                 !
 ! A18   A(6,7,9)              115.5118         -DE/DX =    0.0                 !
 ! A19   A(8,7,9)              121.7652         -DE/DX =    0.0                 !
 ! A20   A(7,9,14)             106.7622         -DE/DX =    0.0                 !
 ! A21   A(5,10,15)            107.1537         -DE/DX =    0.0001              !
 ! D1    D(6,1,2,3)             -0.0008         -DE/DX =    0.0                 !
 ! D2    D(6,1,2,11)          -180.0002         -DE/DX =    0.0                 !
 ! D3    D(2,1,6,5)              0.0002         -DE/DX =    0.0                 !
 ! D4    D(2,1,6,7)            179.9987         -DE/DX =    0.0                 !
 ! D5    D(1,2,3,4)              0.0007         -DE/DX =    0.0                 !
 ! D6    D(1,2,3,12)           180.0004         -DE/DX =    0.0                 !
 ! D7    D(11,2,3,4)           180.0001         -DE/DX =    0.0                 !
 ! D8    D(11,2,3,12)           -0.0002         -DE/DX =    0.0                 !
 ! D9    D(2,3,4,5)              0.0            -DE/DX =    0.0                 !
 ! D10   D(2,3,4,13)           179.9993         -DE/DX =    0.0                 !
 ! D11   D(12,3,4,5)          -179.9997         -DE/DX =    0.0                 !
 ! D12   D(12,3,4,13)           -0.0004         -DE/DX =    0.0                 !
 ! D13   D(3,4,5,6)             -0.0006         -DE/DX =    0.0                 !
 ! D14   D(3,4,5,10)          -180.0022         -DE/DX =    0.0                 !
 ! D15   D(13,4,5,6)          -179.9998         -DE/DX =    0.0                 !
 ! D16   D(13,4,5,10)           -0.0015         -DE/DX =    0.0                 !
 ! D17   D(4,5,6,1)              0.0005         -DE/DX =    0.0                 !
 ! D18   D(4,5,6,7)            180.0019         -DE/DX =    0.0                 !
 ! D19   D(10,5,6,1)           180.0022         -DE/DX =    0.0                 !
 ! D20   D(10,5,6,7)             0.0037         -DE/DX =    0.0                 !
 ! D21   D(4,5,10,15)         -179.995          -DE/DX =    0.0                 !
 ! D22   D(6,5,10,15)            0.0032         -DE/DX =    0.0                 !
 ! D23   D(1,6,7,8)           -179.9835         -DE/DX =    0.0                 !
 ! D24   D(1,6,7,9)             -0.0065         -DE/DX =    0.0                 !
 ! D25   D(5,6,7,8)              0.0151         -DE/DX =    0.0                 !
 ! D26   D(5,6,7,9)           -180.0078         -DE/DX =    0.0                 !
 ! D27   D(6,7,9,14)          -179.9887         -DE/DX =    0.0                 !
 ! D28   D(8,7,9,14)            -0.0114         -DE/DX =    0.0                 !
 --------------------------------------------------------------------------------
 GradGradGradGradGradGradGradGradGradGradGradGradGradGradGradGradGradGrad

 1\1\ WCSS.PL-BEM-QINLAB\Freq\RB3PW91\6-31+G(d,p)\C6H5N1O3\PHZD\18-Dec-
 2024\0\\#N Geom=AllCheck Guess=TCheck SCRF=Check GenChk RB3PW91/6-31+G
 (d,p) Freq\\[No Title]\\0,1\N,-0.4415986181,-1.4494590296,-0.000068522
 3\C,-1.7648315334,-1.4766902925,-0.0000061783\C,-2.5509984,-0.31111605
 05,0.0000661763\C,-1.9295389402,0.9232365599,0.0000589871\C,-0.5266599
 692,0.9743238191,-0.0000214859\C,0.1738480762,-0.2565836706,-0.0000786
 224\C,1.6492214258,-0.2268739452,-0.0001196365\O,2.2949722228,0.824035
 7677,0.0001673591\O,2.2469491551,-1.4171146934,-0.000007945\O,0.069541
 1599,2.1700936967,-0.0000735297\H,-2.2300322774,-2.4596002626,-0.00000
 30467\H,-3.6345968692,-0.3849411429,0.0001220031\H,-2.4858156291,1.854
 992142,0.0001007321\H,3.2029891432,-1.2502037162,0.0001335966\H,1.0441
 070536,2.0096848179,-0.0002088875\\Version=ES64L-G09RevE.01\State=1-A\
 HF=-511.9327367\RMSD=1.765e-09\RMSF=4.059e-05\ZeroPoint=0.1090331\Ther
 mal=0.1167078\Dipole=-0.4795961,-0.1701672,-0.0001135\DipoleDeriv=0.09
 76759,-0.0564201,-0.0000109,0.4254692,-0.4030366,-0.0000146,0.0000386,
 -0.0000087,-0.2393302,-0.3090791,0.0966163,-0.0000009,0.2757291,0.2691
 666,-0.0000003,0.0000162,-0.0000039,-0.0341794,0.1589567,0.0606028,-0.
 0000114,-0.3345271,0.0698082,0.0000052,-0.0000188,0.0000002,-0.0775561
 ,0.0387718,-0.4024435,-0.0000022,0.018018,-0.0194693,0.0000078,-0.0000
 241,0.0000322,-0.1503702,0.2496233,0.6553279,-0.0000265,0.4308469,1.11
 63013,-0.0000587,0.0000326,-0.0000558,0.1630144,-0.6086471,0.2721164,-
 0.0000002,-0.4008679,-0.1177345,0.0000148,0.0000272,-0.0000187,0.03299
 95,2.1455365,-0.2740775,0.0000173,-0.213139,1.6342519,0.000068,0.00011
 42,0.0000561,0.3035942,-1.1603849,-0.2539702,-0.00002,-0.2491189,-1.01
 29007,0.0000003,-0.0001576,-0.0001137,-0.3674675,-0.8494047,0.5706444,
 0.0000234,0.6311135,-1.0142999,-0.0000264,-0.000067,0.000108,-0.340579
 3,-0.6552757,-0.4747758,0.0000081,-0.3406158,-1.2291952,0.0000597,0.00
 00039,0.0000651,-0.3383096,0.0100548,-0.0591433,0.000002,-0.08753,-0.0
 563445,0.0000003,-0.0000017,0.0000044,0.1201299,-0.0751427,-0.0155695,
 0.0000103,-0.0150971,0.0893769,-0.0000003,0.0000152,-0.0000023,0.13399
 97,0.0613619,0.0371837,0.0000048,0.0511175,-0.0012169,-0.0000047,0.000
 0023,-0.000002,0.1462226,0.3337566,-0.0923157,-0.0000091,-0.1307055,0.
 285327,-0.0000132,-0.0000172,-0.0000097,0.3453574,0.5621968,-0.0637758
 ,0.0000153,-0.0606929,0.3899656,-0.0000379,0.0000362,-0.0000514,0.3024
 744\Polar=118.0262566,3.2826623,96.6255286,-0.0008393,0.0007879,45.737
 8819\PG=C01 [X(C6H5N1O3)]\NImag=0\\0.64883096,0.11767324,0.45371410,-0
 .00002548,0.00000196,0.09620126,-0.38806036,0.00403931,0.00001630,0.70
 988878,-0.02105265,-0.11664835,-0.00000093,0.05711596,0.73626729,0.000
 01509,-0.00000298,-0.06411223,-0.00002736,0.00001028,0.14592075,-0.054
 04391,0.02266087,0.00000513,-0.17643831,0.11214773,0.00000819,0.753311
 79,0.08707939,0.04215287,-0.00000413,0.04296296,-0.26362272,-0.0000067
 6,0.03340434,0.68348434,0.00000534,-0.00000201,0.02343379,0.00000775,-
 0.00001088,-0.06811698,-0.00003246,0.00001119,0.13381491,-0.05234902,-
 0.03074808,0.00000175,0.06767602,-0.01434625,-0.00000375,-0.18315361,-
 0.07312726,0.00000446,0.68609981,-0.03433391,-0.01573451,0.00000167,0.
 02661853,-0.05498809,-0.00000277,-0.13222206,-0.33760418,0.00000076,-0
 .01026886,0.78289649,0.00000183,0.00000150,-0.00624512,-0.00000272,-0.
 00000048,0.00775497,0.00000347,-0.00000186,-0.05578599,-0.00003149,0.0
 0001083,0.12619656,0.07480268,0.02509961,-0.00000296,-0.05905784,0.024
 83657,0.00000359,-0.01317895,-0.07804608,-0.00000058,-0.31930380,0.048
 76059,0.00001537,0.72352441,-0.02524648,-0.06495550,0.00000203,0.03181
 713,-0.00602003,-0.00000196,-0.03951342,0.02370582,0.00000250,-0.01104
 713,-0.12217443,-0.00000076,0.03693162,0.70344633,-0.00000493,-0.00000
 295,0.01420165,0.00000402,-0.00000191,-0.00849927,0.00000022,0.0000052
 7,-0.00261234,0.00001497,-0.00000355,-0.06761460,-0.00003981,-0.000000
 58,0.16200703,-0.14115264,-0.08472724,0.00000450,-0.06876999,-0.036740
 32,0.00000440,0.00134783,-0.01919567,-0.00000065,-0.01167929,0.0277220
 4,0.00000204,-0.19272691,0.08604810,0.00001069,0.65175893,-0.08274119,
 -0.29411603,-0.00000051,-0.08028264,0.00369949,0.00000491,0.01557025,-
 0.05849696,-0.00000094,0.05695795,0.03457016,-0.00000283,0.04167039,-0
 .22409230,-0.00000450,0.02366971,0.69430790,0.00000616,0.00000059,-0.0
 6109417,0.00000129,0.00000307,0.00558269,-0.00000018,-0.00000027,-0.00
 814936,0.00000224,-0.00000203,0.00845739,0.00000922,-0.00000809,-0.068
 05647,-0.00001402,0.00000905,0.14162815,-0.04314034,-0.03371672,0.0000
 0021,0.02474933,-0.00843663,-0.00000246,-0.00035515,0.01589302,0.00000
 029,-0.01014096,-0.00184350,-0.00000034,-0.00399691,0.04108360,-0.0000
 0118,-0.20195460,0.01483792,0.00001297,0.73064366,-0.03557082,-0.00463
 655,0.00000291,-0.00587476,-0.00660465,-0.00000015,0.00014824,-0.00159
 350,-0.00000028,0.00215149,-0.00672685,-0.00000080,0.03772119,0.025218
 42,-0.00000266,0.02645665,-0.09464731,0.00000163,0.10531610,0.86070801
 ,0.00000107,0.00000224,-0.01283503,0.00000110,-0.00000031,0.01248792,-
 0.00000068,0.00000050,0.00044006,0.00000034,-0.00000105,0.00669268,0.0
 0000241,0.00000537,0.00050702,-0.00000637,-0.00000182,-0.07618758,0.00
 008985,0.00007926,0.20709553,-0.00486377,0.00390507,-0.00000114,-0.006
 03131,0.00042162,0.00000130,0.00000293,-0.00393153,-0.00000014,0.00224
 078,-0.00021711,-0.00000030,-0.00040865,-0.00321593,-0.00000075,-0.024
 56364,-0.04307122,-0.00001226,-0.28074049,-0.24145156,-0.00006902,0.30
 075093,0.00411860,0.00710084,-0.00000080,-0.00756003,0.00417950,0.0000
 0130,0.00035090,-0.00692998,-0.00000019,0.00651188,0.00412115,-0.00000
 008,-0.01177816,-0.03025666,0.00000254,-0.03676537,-0.00668132,-0.0000
 0798,-0.22699671,-0.47730878,-0.00009615,0.27448290,0.58828064,-0.0000
 0253,-0.00000056,0.00601133,-0.00000024,-0.00000020,-0.00262836,0.0000
 0021,0.00000005,0.00006215,-0.00000077,-0.00000027,-0.00075460,0.00000
 044,-0.00000178,0.00022309,0.00000031,-0.00000603,0.01819550,-0.000079
 34,-0.00010597,-0.07489216,0.00008013,0.00012089,0.03681602,-0.0000099
 3,0.00386574,0.00000033,-0.00329657,0.00243508,0.00000003,-0.00018227,
 -0.00225073,-0.00000012,0.00060064,0.00266285,0.00000039,-0.00816094,-
 0.00982392,0.00000063,-0.03123068,0.04264909,-0.00000453,-0.17772234,0
 .10611464,-0.00001605,0.03729257,-0.01092246,0.00000208,0.66143096,-0.
 00566524,-0.00134073,-0.00000101,0.00502850,-0.00081469,-0.00000030,-0
 .00042367,0.00242400,0.00000014,-0.00072333,0.00057939,-0.00000002,-0.
 00295697,-0.00092599,-0.00000005,0.01638988,-0.00386006,0.00000300,0.0
 6905443,-0.27065849,0.00000764,0.00907833,-0.10563192,-0.00000520,-0.0
 2563523,0.43557483,-0.00000009,-0.00000072,0.00176891,-0.00000088,0.00
 000027,-0.00132235,0.00000012,-0.00000051,-0.00012319,0.00000022,0.000
 00050,-0.00102982,-0.00000067,-0.00000115,0.00216816,0.00000096,0.0000
 0348,0.01044969,-0.00001666,0.00002121,-0.06467287,0.00000157,-0.00001
 552,0.02719170,0.00008624,0.00000555,0.04021083,-0.01319782,-0.0031908
 7,0.00000016,0.01087294,-0.00873427,-0.00000086,-0.00601413,0.01678671
 ,0.00000101,-0.03982539,-0.06238133,0.00000366,-0.15530931,-0.11240962
 ,0.00001001,0.03016466,0.00809165,-0.00000092,-0.03299366,-0.02340183,
 -0.00000514,-0.01333904,0.04454451,-0.00000155,0.00368024,0.00840966,0
 .00000063,0.60456483,-0.00015806,-0.00610337,-0.00000103,0.00375621,-0
 .00595061,-0.00000014,0.00416207,0.00705255,0.00000019,-0.02494705,-0.
 00698076,0.00000310,-0.07805630,-0.31305031,0.00000314,-0.00718409,-0.
 04499371,0.00000121,-0.02123955,-0.00680993,-0.00000227,0.01636407,0.0
 0799667,0.00000309,0.00346790,-0.00115829,0.00000070,0.05429970,0.4335
 5054,0.00000176,0.00000015,0.00765178,-0.00000118,0.00000052,-0.000722
 73,0.00000113,-0.00000142,0.00615298,0.00000355,0.00000538,0.00663892,
 0.00001113,0.00000907,-0.04780074,-0.00000268,0.00000024,0.00705995,0.
 00000279,0.00000107,0.00001245,-0.00000172,-0.00000137,0.00462231,-0.0
 0000060,0.00000072,-0.00090637,-0.00006763,-0.00000167,0.04082595,-0.0
 2630537,-0.03180108,0.00000031,-0.09606532,-0.09983604,0.00000069,0.01
 091866,0.01704540,0.00000009,-0.00214410,0.00306505,0.00000044,-0.0011
 0476,0.00028003,0.00000012,-0.00395010,-0.00083112,0.00000094,0.000817
 22,-0.00116977,0.00000020,-0.00084063,-0.00023401,-0.00000023,-0.00027
 911,0.00021993,-0.00000005,0.00035854,-0.00044796,-0.00000007,0.117807
 50,-0.00544234,0.00579687,0.00000069,-0.10118154,-0.29519307,-0.000000
 32,-0.01281519,-0.01679656,0.00000028,0.00395424,-0.00257425,-0.000000
 42,0.00103925,0.00013971,-0.00000007,0.00174466,0.00283525,-0.00000033
 ,0.00026286,0.00018521,-0.00000003,-0.00013401,-0.00002076,0.,-0.00020
 040,0.00004765,-0.00000003,-0.00014653,0.00007705,0.00000007,0.1131396
 9,0.30622976,0.00000047,0.00000232,-0.00664148,0.00000091,-0.00000017,
 -0.03760102,-0.00000061,-0.00000183,0.00446438,0.00000082,-0.00000028,
 0.00562466,0.00000008,-0.00000034,0.00100844,0.00000047,-0.00000017,0.
 01082656,0.00000009,0.00000014,0.00088308,0.00000021,-0.00000003,-0.00
 049404,0.,0.,0.00002684,0.00000007,0.00000017,-0.00164138,-0.00000223,
 0.00000012,0.02600362,-0.00158745,0.00376636,0.00000051,-0.01106448,-0
 .00683372,0.00000050,-0.34427081,-0.01846527,0.00001567,-0.00856078,0.
 00185466,0.00000069,0.00175203,-0.00165566,0.00000037,0.00155005,0.000
 59240,-0.00000004,-0.00001015,0.00005570,-0.00000005,-0.00018611,-0.00
 002354,-0.00000006,-0.00014462,0.00005030,0.,-0.00094332,-0.00012375,0
 .00000011,0.00033249,0.00046820,-0.00000014,0.36217253,0.00519307,-0.0
 0412937,-0.00000057,0.02499882,0.00978869,-0.00000105,-0.01789404,-0.0
 6102626,0.00000033,-0.02900782,0.00321533,0.00000134,-0.00116057,-0.00
 475806,-0.00000021,-0.00125661,-0.00213906,0.,0.00044966,-0.00018286,0
 .,-0.00003883,0.00018596,0.00000003,-0.00008124,0.00021377,-0.00000001
 ,-0.00192555,0.00027365,0.00000021,-0.00046122,0.00017127,0.00000011,0
 .02080034,0.05804927,0.00000075,0.00000007,0.00628537,0.00000105,0.000
 00056,0.00224589,0.00001569,0.00000029,-0.03871564,-0.00000010,-0.0000
 0007,0.00424273,0.00000057,-0.00000013,0.00939308,-0.00000035,-0.00000
 039,-0.00021797,0.00000018,0.00000012,-0.00215001,0.,-0.00000007,0.000
 36049,0.00000004,0.,0.00032495,-0.00000019,-0.00000014,0.00003148,-0.0
 0000015,0.00000003,-0.00252198,-0.00001722,-0.00000026,0.02578445,-0.0
 0073997,-0.00095753,-0.00000011,-0.00080018,-0.00356798,0.00000037,0.0
 1277789,-0.01383031,-0.00000066,-0.13739176,0.12795959,0.00000699,-0.0
 1081060,0.02992952,0.00000132,-0.00539642,-0.00197991,0.00000078,0.000
 37727,0.00188618,0.00000018,0.00009756,-0.00056812,-0.00000001,-0.0008
 1468,-0.00004881,-0.00000010,0.00281076,-0.00052925,-0.00000046,0.0005
 0797,-0.00076075,-0.00000007,0.00072872,0.00035307,-0.00000024,0.13899
 889,-0.00038074,0.00030548,0.00000009,-0.00451665,-0.00269011,0.000000
 08,0.01613377,-0.01662826,-0.00000114,0.12993884,-0.26912974,-0.000010
 03,-0.00298592,0.00353086,0.00000016,-0.00047759,0.00113635,-0.0000000
 1,-0.00064432,0.00001683,-0.00000005,0.00013674,0.00019955,0.00000006,
 0.00002490,-0.00004819,0.,0.00044931,0.00077032,-0.00000002,0.00088639
 ,-0.00085586,-0.00000010,-0.00023887,0.00076873,0.00000008,-0.13824110
 ,0.28256588,0.00000018,0.00000051,-0.00327445,0.00000011,0.00000004,0.
 00893384,-0.00000024,-0.00000006,0.00378011,0.00000747,-0.00000945,-0.
 03746952,0.00000027,-0.00000144,0.00629915,0.00000052,-0.00000043,0.00
 605294,0.00000024,0.00000008,-0.00057222,-0.00000007,-0.00000004,0.000
 01976,0.00000002,-0.00000002,-0.00000173,-0.00000037,-0.00000018,-0.00
 339065,-0.00000002,0.00000002,-0.00002542,-0.00000030,0.00000008,-0.00
 466636,-0.00000786,0.00001086,0.02474984,0.00045160,-0.00011834,-0.000
 00005,0.00061800,-0.00042594,0.00000004,0.00008802,0.00042718,0.,-0.00
 023116,0.00040476,0.00000016,-0.00096150,-0.00066435,-0.00000011,0.002
 11065,0.00303665,-0.00000176,-0.03460725,0.00534907,-0.00000347,0.0032
 3695,-0.00902827,0.00000040,-0.47882946,-0.06232342,-0.00006939,0.0012
 1176,-0.00031490,0.00000005,0.00001050,0.00002664,0.,0.00003313,0.0000
 0376,-0.00000001,-0.00007555,-0.00002394,0.,0.50829568,-0.00146353,0.0
 0014496,0.00000010,-0.00005797,0.00043065,-0.00000002,-0.00020940,-0.0
 0011327,0.00000003,0.00013516,-0.00052855,-0.00000008,0.00172044,0.001
 17971,-0.00000017,0.00096953,-0.00676336,0.00000004,0.05585954,0.00593
 805,0.00000901,-0.00749572,0.00135768,-0.00000177,-0.11237945,-0.06076
 885,-0.00001435,-0.00149927,0.00014734,0.00000003,-0.00005070,-0.00004
 021,0.,-0.00004691,0.00003051,0.,0.00014115,0.00001753,0.,0.06284181,0
 .05995905,0.00000024,-0.00000003,-0.00034714,0.00000007,-0.00000019,-0
 .00001464,0.00000008,0.00000005,0.00002821,-0.00000004,0.00000016,-0.0
 0041854,-0.00000027,-0.00000014,0.00065366,0.00000150,0.00000035,0.005
 03632,-0.00000992,0.00000142,0.00404630,0.00000167,-0.00000028,-0.0060
 5339,-0.00006777,-0.00000812,-0.01607905,0.00000003,-0.00000002,-0.000
 01210,-0.00000001,0.,0.00001119,0.,0.,-0.00000977,-0.00000002,-0.00000
 001,0.00003208,0.00007442,0.00000682,0.01312589,0.00136534,0.00424964,
 0.00000055,-0.00422072,0.00301686,0.00000023,-0.00080997,-0.00475214,0
 .,0.00816263,0.00221869,-0.00000019,-0.03505894,-0.02251349,0.00000443
 ,-0.00550784,0.00183008,0.00000010,0.02907438,0.02226949,0.00000563,-0
 .01264807,-0.02613213,0.00000117,-0.00233382,-0.01045435,-0.00000191,-
 0.39204105,0.05095096,0.00005381,-0.00006349,0.00004521,-0.00000007,0.
 00019877,0.00002717,-0.00000002,-0.00026990,-0.00006084,0.00000005,-0.
 00135138,0.00153532,0.00000002,0.41550407,-0.00200935,-0.00155069,-0.0
 0000046,0.00313617,-0.00183331,-0.00000013,-0.00150038,0.00399211,0.00
 000002,-0.00543379,-0.00894115,0.00000059,-0.04279565,0.00901243,0.000
 00553,0.00334631,-0.00075904,0.00000009,-0.00987970,-0.02289759,-0.000
 00233,-0.00483280,0.01340743,-0.00000233,0.00007322,0.00636758,0.00000
 058,0.08110773,-0.06482115,-0.00001298,0.00019542,-0.00000207,0.000000
 07,-0.00020022,-0.00046157,-0.00000009,0.00021425,0.00004063,0.0000000
 3,0.00080928,-0.00099128,-0.00000001,-0.02223047,0.06943767,0.00000014
 ,-0.00000008,-0.00100447,-0.00000024,0.00000032,0.00009153,-0.00000008
 ,-0.00000051,0.00132691,0.00000032,0.00000016,0.00371029,0.00000121,-0
 .00000259,-0.00187787,-0.00000132,-0.00000041,0.00041638,0.00000327,0.
 00000203,-0.00085517,0.00000052,-0.00000223,-0.00867981,-0.00000068,-0
 .00000233,0.00199429,0.00006111,-0.00000615,-0.01852184,-0.00000004,-0
 .00000001,0.00007655,-0.00000004,0.00000002,-0.00038672,-0.00000009,0.
 00000002,-0.00046737,-0.00000028,0.00000035,0.00000096,-0.00006382,0.0
 0001143,0.02417633\\0.00000234,-0.00002348,0.00000391,-0.00001765,-0.0
 0001604,-0.00000268,-0.00001157,-0.00000499,-0.00000009,0.00002888,0.0
 0003068,-0.00000112,0.00005184,0.00010311,0.00000476,0.00003234,-0.000
 00334,0.00001348,-0.00010554,-0.00010710,-0.00005517,0.00009420,0.0000
 9994,0.00002598,0.00001870,0.00001842,0.00001599,-0.00005395,-0.000023
 14,0.00000390,-0.00000528,0.00000864,-0.00000006,-0.00000011,0.0000126
 4,0.00000025,-0.00000013,-0.00000727,-0.00000010,-0.00000016,-0.000017
 21,-0.00000004,-0.00003390,-0.00007086,-0.00000901\\\@


 THERE'S A SUCKER BORN EVERY MINUTE

              -- PHINEAS TAYLOR (P.T.) BARNUM
 Job cpu time:       0 days  0 hours 18 minutes 10.7 seconds.
 File lengths (MBytes):  RWF=     79 Int=      0 D2E=      0 Chk=      5 Scr=      1
 Normal termination of Gaussian 09 at Wed Dec 18 00:22:28 2024.
