 Entering Gaussian System, Link 0=g09
 Input=B3PW91D33HPA2.gjf
 Output=B3PW91D33HPA2.log
 Initial command:
 /home/phzd/g09E/g09/l1.exe "/home/phzd/g09E/scratch/Gau-1455640.inp" -scrdir="/home/phzd/g09E/scratch/"
 Default is to use a total of  18 processors:
                               18 via shared-memory
                                1 via Linda
 Entering Link 1 = /home/phzd/g09E/g09/l1.exe PID=   1455642.
  
 Copyright (c) 1988,1990,1992,1993,1995,1998,2003,2009,2015,
            Gaussian, Inc.  All Rights Reserved.
  
 This is part of the Gaussian(R) 09 program.  It is based on
 the Gaussian(R) 03 system (copyright 2003, Gaussian, Inc.),
 the Gaussian(R) 98 system (copyright 1998, Gaussian, Inc.),
 the Gaussian(R) 94 system (copyright 1995, Gaussian, Inc.),
 the Gaussian 92(TM) system (copyright 1992, Gaussian, Inc.),
 the Gaussian 90(TM) system (copyright 1990, Gaussian, Inc.),
 the Gaussian 88(TM) system (copyright 1988, Gaussian, Inc.),
 the Gaussian 86(TM) system (copyright 1986, Carnegie Mellon
 University), and the Gaussian 82(TM) system (copyright 1983,
 Carnegie Mellon University). Gaussian is a federally registered
 trademark of Gaussian, Inc.
  
 This software contains proprietary and confidential information,
 including trade secrets, belonging to Gaussian, Inc.
  
 This software is provided under written license and may be
 used, copied, transmitted, or stored only in accord with that
 written license.
  
 The following legend is applicable only to US Government
 contracts under FAR:
  
                    RESTRICTED RIGHTS LEGEND
  
 Use, reproduction and disclosure by the US Government is
 subject to restrictions as set forth in subparagraphs (a)
 and (c) of the Commercial Computer Software - Restricted
 Rights clause in FAR 52.227-19.
  
 Gaussian, Inc.
 340 Quinnipiac St., Bldg. 40, Wallingford CT 06492
  
  
 ---------------------------------------------------------------
 Warning -- This program may not be used in any manner that
 competes with the business of Gaussian, Inc. or will provide
 assistance to any competitor of Gaussian, Inc.  The licensee
 of this program is prohibited from giving any competitor of
 Gaussian, Inc. access to this program.  By using this program,
 the user acknowledges that Gaussian, Inc. is engaged in the
 business of creating and licensing software in the field of
 computational chemistry and represents and warrants to the
 licensee that it is not a competitor of Gaussian, Inc. and that
 it will not use this program in any manner prohibited above.
 ---------------------------------------------------------------
  

 Cite this work as:
 Gaussian 09, Revision E.01,
 M. J. Frisch, G. W. Trucks, H. B. Schlegel, G. E. Scuseria, 
 M. A. Robb, J. R. Cheeseman, G. Scalmani, V. Barone, B. Mennucci, 
 G. A. Petersson, H. Nakatsuji, M. Caricato, X. Li, H. P. Hratchian, 
 A. F. Izmaylov, J. Bloino, G. Zheng, J. L. Sonnenberg, M. Hada, 
 M. Ehara, K. Toyota, R. Fukuda, J. Hasegawa, M. Ishida, T. Nakajima, 
 Y. Honda, O. Kitao, H. Nakai, T. Vreven, J. A. Montgomery, Jr., 
 J. E. Peralta, F. Ogliaro, M. Bearpark, J. J. Heyd, E. Brothers, 
 K. N. Kudin, V. N. Staroverov, T. Keith, R. Kobayashi, J. Normand, 
 K. Raghavachari, A. Rendell, J. C. Burant, S. S. Iyengar, J. Tomasi, 
 M. Cossi, N. Rega, J. M. Millam, M. Klene, J. E. Knox, J. B. Cross, 
 V. Bakken, C. Adamo, J. Jaramillo, R. Gomperts, R. E. Stratmann, 
 O. Yazyev, A. J. Austin, R. Cammi, C. Pomelli, J. W. Ochterski, 
 R. L. Martin, K. Morokuma, V. G. Zakrzewski, G. A. Voth, 
 P. Salvador, J. J. Dannenberg, S. Dapprich, A. D. Daniels, 
 O. Farkas, J. B. Foresman, J. V. Ortiz, J. Cioslowski, 
 and D. J. Fox, Gaussian, Inc., Wallingford CT, 2013.
 
 ******************************************
 Gaussian 09:  ES64L-G09RevE.01 30-Nov-2015
                18-Dec-2024 
 ******************************************
 %chk=B3PW91D33HPA2.chk
 -----------------------------------------------------
 # opt freq b3pw91/6-31+g(d,p) EmpiricalDispersion=GD3
 -----------------------------------------------------
 1/14=-1,18=20,19=15,26=3,38=1/1,3;
 2/9=110,12=2,17=6,18=5,40=1/2;
 3/5=1,6=6,7=111,11=2,16=1,25=1,30=1,71=1,74=-6,124=31/1,2,3;
 4//1;
 5/5=2,38=5/2;
 6/7=2,8=2,9=2,10=2,28=1/1;
 7//1,2,3,16;
 1/14=-1,18=20,19=15,26=3/3(2);
 2/9=110/2;
 99//99;
 2/9=110/2;
 3/5=1,6=6,7=111,11=2,16=1,25=1,30=1,71=1,74=-6,124=31/1,2,3;
 4/5=5,16=3,69=1/1;
 5/5=2,38=5/2;
 7//1,2,3,16;
 1/14=-1,18=20,19=15,26=3/3(-5);
 2/9=110/2;
 6/7=2,8=2,9=2,10=2,19=2,28=1/1;
 99/9=1/99;
 ----------
 [No Title]
 ----------
 Symbolic Z-matrix:
 Charge =  1 Multiplicity = 1
 N                    -0.50626  -1.35033  -0.00004 
 C                    -1.83537  -1.42015  -0.00002 
 C                    -2.56483  -0.22804   0.00005 
 C                    -1.89785   0.98128   0.00009 
 C                    -0.48334   1.02407   0.00006 
 C                     0.20632  -0.19613  -0.00001 
 C                     1.67697  -0.42244  -0.00004 
 O                     2.15021  -1.53255  -0.00015 
 O                     2.36549   0.7265   -0.00002 
 O                     0.09018   2.21546   0.0001 
 H                     0.06858  -2.19871  -0.00009 
 H                    -2.28324  -2.40674  -0.00005 
 H                    -3.64836  -0.26734   0.00006 
 H                    -2.43581   1.92466   0.00014 
 H                     3.32208   0.54278  -0.00007 
 H                     1.06218   2.15085   0.00007 
 

 GradGradGradGradGradGradGradGradGradGradGradGradGradGradGradGradGradGrad
 Berny optimization.
 Initialization pass.
                           ----------------------------
                           !    Initial Parameters    !
                           ! (Angstroms and Degrees)  !
 --------------------------                            --------------------------
 ! Name  Definition              Value          Derivative Info.                !
 --------------------------------------------------------------------------------
 ! R1    R(1,2)                  1.3309         estimate D2E/DX2                !
 ! R2    R(1,6)                  1.3564         estimate D2E/DX2                !
 ! R3    R(1,11)                 1.0248         estimate D2E/DX2                !
 ! R4    R(2,3)                  1.3976         estimate D2E/DX2                !
 ! R5    R(2,12)                 1.0835         estimate D2E/DX2                !
 ! R6    R(3,4)                  1.3811         estimate D2E/DX2                !
 ! R7    R(3,13)                 1.0842         estimate D2E/DX2                !
 ! R8    R(4,5)                  1.4152         estimate D2E/DX2                !
 ! R9    R(4,14)                 1.086          estimate D2E/DX2                !
 ! R10   R(5,6)                  1.4016         estimate D2E/DX2                !
 ! R11   R(5,10)                 1.3223         estimate D2E/DX2                !
 ! R12   R(6,7)                  1.488          estimate D2E/DX2                !
 ! R13   R(7,8)                  1.2068         estimate D2E/DX2                !
 ! R14   R(7,9)                  1.3394         estimate D2E/DX2                !
 ! R15   R(9,15)                 0.9741         estimate D2E/DX2                !
 ! R16   R(10,16)                0.9742         estimate D2E/DX2                !
 ! A1    A(2,1,6)              124.6979         estimate D2E/DX2                !
 ! A2    A(2,1,11)             121.1133         estimate D2E/DX2                !
 ! A3    A(6,1,11)             114.1888         estimate D2E/DX2                !
 ! A4    A(1,2,3)              118.4556         estimate D2E/DX2                !
 ! A5    A(1,2,12)             117.4234         estimate D2E/DX2                !
 ! A6    A(3,2,12)             124.121          estimate D2E/DX2                !
 ! A7    A(2,3,4)              119.6591         estimate D2E/DX2                !
 ! A8    A(2,3,13)             119.3855         estimate D2E/DX2                !
 ! A9    A(4,3,13)             120.9554         estimate D2E/DX2                !
 ! A10   A(3,4,5)              120.6105         estimate D2E/DX2                !
 ! A11   A(3,4,14)             121.4279         estimate D2E/DX2                !
 ! A12   A(5,4,14)             117.9615         estimate D2E/DX2                !
 ! A13   A(4,5,6)              117.7429         estimate D2E/DX2                !
 ! A14   A(4,5,10)             117.4377         estimate D2E/DX2                !
 ! A15   A(6,5,10)             124.8194         estimate D2E/DX2                !
 ! A16   A(1,6,5)              118.834          estimate D2E/DX2                !
 ! A17   A(1,6,7)              112.9425         estimate D2E/DX2                !
 ! A18   A(5,6,7)              128.2235         estimate D2E/DX2                !
 ! A19   A(6,7,8)              121.8365         estimate D2E/DX2                !
 ! A20   A(6,7,9)              112.1846         estimate D2E/DX2                !
 ! A21   A(8,7,9)              125.9789         estimate D2E/DX2                !
 ! A22   A(7,9,15)             110.0612         estimate D2E/DX2                !
 ! A23   A(5,10,16)            111.902          estimate D2E/DX2                !
 ! D1    D(6,1,2,3)              0.0            estimate D2E/DX2                !
 ! D2    D(6,1,2,12)           180.0            estimate D2E/DX2                !
 ! D3    D(11,1,2,3)           179.9999         estimate D2E/DX2                !
 ! D4    D(11,1,2,12)           -0.0001         estimate D2E/DX2                !
 ! D5    D(2,1,6,5)              0.0            estimate D2E/DX2                !
 ! D6    D(2,1,6,7)            179.9998         estimate D2E/DX2                !
 ! D7    D(11,1,6,5)          -179.9998         estimate D2E/DX2                !
 ! D8    D(11,1,6,7)            -0.0001         estimate D2E/DX2                !
 ! D9    D(1,2,3,4)             -0.0001         estimate D2E/DX2                !
 ! D10   D(1,2,3,13)          -180.0            estimate D2E/DX2                !
 ! D11   D(12,2,3,4)           179.9999         estimate D2E/DX2                !
 ! D12   D(12,2,3,13)            0.0001         estimate D2E/DX2                !
 ! D13   D(2,3,4,5)              0.0001         estimate D2E/DX2                !
 ! D14   D(2,3,4,14)           179.9999         estimate D2E/DX2                !
 ! D15   D(13,3,4,5)           180.0            estimate D2E/DX2                !
 ! D16   D(13,3,4,14)           -0.0002         estimate D2E/DX2                !
 ! D17   D(3,4,5,6)             -0.0001         estimate D2E/DX2                !
 ! D18   D(3,4,5,10)           179.9997         estimate D2E/DX2                !
 ! D19   D(14,4,5,6)          -179.9999         estimate D2E/DX2                !
 ! D20   D(14,4,5,10)           -0.0001         estimate D2E/DX2                !
 ! D21   D(4,5,6,1)              0.0            estimate D2E/DX2                !
 ! D22   D(4,5,6,7)           -179.9997         estimate D2E/DX2                !
 ! D23   D(10,5,6,1)          -179.9998         estimate D2E/DX2                !
 ! D24   D(10,5,6,7)             0.0005         estimate D2E/DX2                !
 ! D25   D(4,5,10,16)         -179.9995         estimate D2E/DX2                !
 ! D26   D(6,5,10,16)            0.0003         estimate D2E/DX2                !
 ! D27   D(1,6,7,8)              0.0032         estimate D2E/DX2                !
 ! D28   D(1,6,7,9)            179.9992         estimate D2E/DX2                !
 ! D29   D(5,6,7,8)           -179.9971         estimate D2E/DX2                !
 ! D30   D(5,6,7,9)             -0.0011         estimate D2E/DX2                !
 ! D31   D(6,7,9,15)          -179.9979         estimate D2E/DX2                !
 ! D32   D(8,7,9,15)            -0.0021         estimate D2E/DX2                !
 --------------------------------------------------------------------------------
 Trust Radius=3.00D-01 FncErr=1.00D-07 GrdErr=1.00D-06
 Number of steps in this run=     81 maximum allowed number of steps=    100.
 GradGradGradGradGradGradGradGradGradGradGradGradGradGradGradGradGradGrad

                          Input orientation:                          
 ---------------------------------------------------------------------
 Center     Atomic      Atomic             Coordinates (Angstroms)
 Number     Number       Type             X           Y           Z
 ---------------------------------------------------------------------
      1          7           0       -0.506264   -1.350327   -0.000041
      2          6           0       -1.835367   -1.420151   -0.000019
      3          6           0       -2.564829   -0.228041    0.000045
      4          6           0       -1.897850    0.981282    0.000086
      5          6           0       -0.483339    1.024065    0.000061
      6          6           0        0.206322   -0.196131   -0.000005
      7          6           0        1.676970   -0.422436   -0.000037
      8          8           0        2.150208   -1.532553   -0.000146
      9          8           0        2.365485    0.726499   -0.000019
     10          8           0        0.090178    2.215464    0.000097
     11          1           0        0.068577   -2.198708   -0.000086
     12          1           0       -2.283240   -2.406742   -0.000053
     13          1           0       -3.648355   -0.267343    0.000064
     14          1           0       -2.435809    1.924655    0.000135
     15          1           0        3.322077    0.542782   -0.000074
     16          1           0        1.062184    2.150847    0.000068
 ---------------------------------------------------------------------
                    Distance matrix (angstroms):
                    1          2          3          4          5
     1  N    0.000000
     2  C    1.330936   0.000000
     3  C    2.344614   1.397584   0.000000
     4  C    2.715311   2.402246   1.381059   0.000000
     5  C    2.374503   2.793237   2.429068   1.415158   0.000000
     6  C    1.356447   2.380487   2.771335   2.411191   1.401610
     7  C    2.372234   3.651294   4.246251   3.840542   2.599865
     8  O    2.662715   3.987160   4.892170   4.765096   3.670404
     9  O    3.544030   4.717548   5.021866   4.270941   2.864323
    10  O    3.615330   4.114052   3.608293   2.339970   1.322253
    11  H    1.024789   2.056977   3.289127   3.738873   3.269691
    12  H    2.067282   1.083491   2.196823   3.409873   3.874284
    13  H    3.323491   2.148463   1.084239   2.150194   3.418342
    14  H    3.801138   3.398273   2.156559   1.085980   2.150163
    15  H    4.270838   5.518363   5.937157   5.238313   3.835730
    16  H    3.836437   4.598677   4.337549   3.182716   1.912663
                    6          7          8          9         10
     6  C    0.000000
     7  C    1.487958   0.000000
     8  O    2.358965   1.206778   0.000000
     9  O    2.348027   1.339442   2.269286   0.000000
    10  O    2.414390   3.078380   4.276839   2.719198   0.000000
    11  H    2.007309   2.396262   2.185624   3.719223   4.414225
    12  H    3.329372   4.429530   4.518813   5.606054   5.195950
    13  H    3.855335   5.327583   5.934989   6.095408   4.487868
    14  H    3.388007   4.735376   5.743156   4.948535   2.542672
    15  H    3.202175   1.907360   2.383336   0.974074   3.639098
    16  H    2.498160   2.645704   3.840733   1.930637   0.974151
                   11         12         13         14         15
    11  H    0.000000
    12  H    2.361000   0.000000
    13  H    4.188765   2.537827   0.000000
    14  H    4.824321   4.334083   2.505020   0.000000
    15  H    4.254530   6.333977   7.017352   5.921387   0.000000
    16  H    4.461601   5.653625   5.294981   3.505299   2.773624
                   16
    16  H    0.000000
 Stoichiometry    C6H6NO3(1+)
 Framework group  C1[X(C6H6NO3)]
 Deg. of freedom    42
 Full point group                 C1      NOp   1
 Largest Abelian subgroup         C1      NOp   1
 Largest concise Abelian subgroup C1      NOp   1
                         Standard orientation:                         
 ---------------------------------------------------------------------
 Center     Atomic      Atomic             Coordinates (Angstroms)
 Number     Number       Type             X           Y           Z
 ---------------------------------------------------------------------
      1          7           0       -0.506264   -1.350327   -0.000041
      2          6           0       -1.835367   -1.420151   -0.000019
      3          6           0       -2.564829   -0.228040    0.000045
      4          6           0       -1.897850    0.981283    0.000086
      5          6           0       -0.483339    1.024065    0.000061
      6          6           0        0.206322   -0.196131   -0.000005
      7          6           0        1.676970   -0.422437   -0.000037
      8          8           0        2.150208   -1.532554   -0.000146
      9          8           0        2.365485    0.726498   -0.000019
     10          8           0        0.090179    2.215464    0.000097
     11          1           0        0.068576   -2.198708   -0.000086
     12          1           0       -2.283241   -2.406741   -0.000053
     13          1           0       -3.648355   -0.267342    0.000064
     14          1           0       -2.435808    1.924656    0.000135
     15          1           0        3.322077    0.542781   -0.000074
     16          1           0        1.062185    2.150847    0.000068
 ---------------------------------------------------------------------
 Rotational constants (GHZ):      2.2876459      1.2515636      0.8089757
 Standard basis: 6-31+G(d,p) (6D, 7F)
 There are   220 symmetry adapted cartesian basis functions of A   symmetry.
 There are   220 symmetry adapted basis functions of A   symmetry.
   220 basis functions,   362 primitive gaussians,   220 cartesian basis functions
    36 alpha electrons       36 beta electrons
       nuclear repulsion energy       521.6884515608 Hartrees.
 NAtoms=   16 NActive=   16 NUniq=   16 SFac= 1.00D+00 NAtFMM=   60 NAOKFM=F Big=F
 Integral buffers will be    131072 words long.
 Raffenetti 2 integral format.
 Two-electron integral symmetry is turned on.
 Nuclear repulsion after empirical dispersion term =      521.6757286001 Hartrees.
 One-electron integrals computed using PRISM.
 NBasis=   220 RedAO= T EigKep=  4.76D-06  NBF=   220
 NBsUse=   220 1.00D-06 EigRej= -1.00D+00 NBFU=   220
 ExpMin= 4.38D-02 ExpMax= 5.48D+03 ExpMxC= 8.25D+02 IAcc=2 IRadAn=         4 AccDes= 0.00D+00
 Harris functional with IExCor=  408 and IRadAn=       4 diagonalized for initial guess.
 HarFok:  IExCor=  408 AccDes= 0.00D+00 IRadAn=         4 IDoV= 1 UseB2=F ITyADJ=14
 ICtDFT=  3500011 ScaDFX=  1.000000  1.000000  1.000000  1.000000
 FoFCou: FMM=F IPFlag=           0 FMFlag=      100000 FMFlg1=           0
         NFxFlg=           0 DoJE=T BraDBF=F KetDBF=T FulRan=T
         wScrn=  0.000000 ICntrl=     500 IOpCl=  0 I1Cent=   200000004 NGrid=           0
         NMat0=    1 NMatS0=      1 NMatT0=    0 NMatD0=    1 NMtDS0=    0 NMtDT0=    0
 Petite list used in FoFCou.
 Keep R1 ints in memory in canonical form, NReq=301066375.
 Requested convergence on RMS density matrix=1.00D-08 within 128 cycles.
 Requested convergence on MAX density matrix=1.00D-06.
 Requested convergence on             energy=1.00D-06.
 No special actions if energy rises.
 SCF Done:  E(RB3PW91) =  -512.295792764     A.U. after   14 cycles
            NFock= 14  Conv=0.64D-08     -V/T= 2.0090

 **********************************************************************

            Population analysis using the SCF density.

 **********************************************************************

 Orbital symmetries:
       Occupied  (A) (A) (A) (A) (A) (A) (A) (A) (A) (A) (A) (A)
                 (A) (A) (A) (A) (A) (A) (A) (A) (A) (A) (A) (A)
                 (A) (A) (A) (A) (A) (A) (A) (A) (A) (A) (A) (A)
       Virtual   (A) (A) (A) (A) (A) (A) (A) (A) (A) (A) (A) (A)
                 (A) (A) (A) (A) (A) (A) (A) (A) (A) (A) (A) (A)
                 (A) (A) (A) (A) (A) (A) (A) (A) (A) (A) (A) (A)
                 (A) (A) (A) (A) (A) (A) (A) (A) (A) (A) (A) (A)
                 (A) (A) (A) (A) (A) (A) (A) (A) (A) (A) (A) (A)
                 (A) (A) (A) (A) (A) (A) (A) (A) (A) (A) (A) (A)
                 (A) (A) (A) (A) (A) (A) (A) (A) (A) (A) (A) (A)
                 (A) (A) (A) (A) (A) (A) (A) (A) (A) (A) (A) (A)
                 (A) (A) (A) (A) (A) (A) (A) (A) (A) (A) (A) (A)
                 (A) (A) (A) (A) (A) (A) (A) (A) (A) (A) (A) (A)
                 (A) (A) (A) (A) (A) (A) (A) (A) (A) (A) (A) (A)
                 (A) (A) (A) (A) (A) (A) (A) (A) (A) (A) (A) (A)
                 (A) (A) (A) (A) (A) (A) (A) (A) (A) (A) (A) (A)
                 (A) (A) (A) (A) (A) (A) (A) (A) (A) (A) (A) (A)
                 (A) (A) (A) (A) (A) (A) (A) (A) (A) (A) (A) (A)
                 (A) (A) (A) (A)
 The electronic state is 1-A.
 Alpha  occ. eigenvalues --  -19.39166 -19.37052 -19.32943 -14.62712 -10.51188
 Alpha  occ. eigenvalues --  -10.46936 -10.44742 -10.44342 -10.40254 -10.40061
 Alpha  occ. eigenvalues --   -1.31514  -1.27724  -1.23429  -1.21289  -1.02971
 Alpha  occ. eigenvalues --   -1.00721  -0.90112  -0.86994  -0.84328  -0.78916
 Alpha  occ. eigenvalues --   -0.75849  -0.72239  -0.70262  -0.67944  -0.67465
 Alpha  occ. eigenvalues --   -0.67421  -0.62904  -0.61424  -0.60569  -0.59772
 Alpha  occ. eigenvalues --   -0.59515  -0.55094  -0.52154  -0.50026  -0.48455
 Alpha  occ. eigenvalues --   -0.45076
 Alpha virt. eigenvalues --   -0.27837  -0.22693  -0.15124  -0.14031  -0.12516
 Alpha virt. eigenvalues --   -0.10226  -0.09910  -0.08634  -0.07798  -0.07323
 Alpha virt. eigenvalues --   -0.05118  -0.05055  -0.04222  -0.03554  -0.03149
 Alpha virt. eigenvalues --   -0.02689  -0.01136  -0.00838   0.00207   0.00248
 Alpha virt. eigenvalues --    0.00446   0.01743   0.02427   0.02820   0.03675
 Alpha virt. eigenvalues --    0.03962   0.04863   0.05176   0.06141   0.06680
 Alpha virt. eigenvalues --    0.08088   0.08788   0.09349   0.09628   0.10346
 Alpha virt. eigenvalues --    0.10706   0.11564   0.11956   0.12620   0.13499
 Alpha virt. eigenvalues --    0.13930   0.14737   0.15143   0.15565   0.16469
 Alpha virt. eigenvalues --    0.17996   0.18284   0.18767   0.19733   0.20504
 Alpha virt. eigenvalues --    0.22622   0.23618   0.25004   0.25437   0.26223
 Alpha virt. eigenvalues --    0.30522   0.33244   0.35646   0.40827   0.43653
 Alpha virt. eigenvalues --    0.47156   0.47833   0.51912   0.52109   0.53847
 Alpha virt. eigenvalues --    0.55106   0.56348   0.57940   0.58356   0.63214
 Alpha virt. eigenvalues --    0.63606   0.66051   0.70417   0.71238   0.74339
 Alpha virt. eigenvalues --    0.77583   0.78431   0.81287   0.83705   0.86287
 Alpha virt. eigenvalues --    0.87122   0.90421   0.92361   0.94032   0.95609
 Alpha virt. eigenvalues --    0.96588   0.98118   0.99501   1.00735   1.02143
 Alpha virt. eigenvalues --    1.02347   1.05591   1.05685   1.08646   1.10926
 Alpha virt. eigenvalues --    1.11360   1.12613   1.14576   1.16240   1.17414
 Alpha virt. eigenvalues --    1.17609   1.19163   1.19863   1.20699   1.21874
 Alpha virt. eigenvalues --    1.23878   1.28207   1.34524   1.36808   1.38980
 Alpha virt. eigenvalues --    1.41575   1.42400   1.52781   1.54860   1.56399
 Alpha virt. eigenvalues --    1.56736   1.58828   1.61767   1.64622   1.68838
 Alpha virt. eigenvalues --    1.72201   1.73053   1.73781   1.76758   1.79318
 Alpha virt. eigenvalues --    1.79453   1.83560   1.87466   1.87475   1.89447
 Alpha virt. eigenvalues --    1.91453   1.94093   2.03580   2.05622   2.08263
 Alpha virt. eigenvalues --    2.10791   2.14788   2.16898   2.18018   2.19070
 Alpha virt. eigenvalues --    2.20046   2.21391   2.27351   2.30227   2.33066
 Alpha virt. eigenvalues --    2.33713   2.34760   2.35070   2.38319   2.39688
 Alpha virt. eigenvalues --    2.40216   2.46359   2.47669   2.50212   2.55213
 Alpha virt. eigenvalues --    2.56350   2.57086   2.60035   2.63416   2.69680
 Alpha virt. eigenvalues --    2.78071   2.86694   2.90967   2.93336   2.99898
 Alpha virt. eigenvalues --    3.04861   3.07762   3.08897   3.18316   3.23112
 Alpha virt. eigenvalues --    3.29199   3.34473   3.42377   3.69412   4.00622
 Alpha virt. eigenvalues --    4.09040   4.14190   4.17948   4.21957   4.28959
 Alpha virt. eigenvalues --    4.36337   4.48985   4.71716   4.75772
          Condensed to atoms (all electrons):
               1          2          3          4          5          6
     1  N    6.650762   0.131529  -0.018671  -0.081993  -0.209318   0.392685
     2  C    0.131529   5.930244  -0.064533   0.467435  -0.511152  -0.269276
     3  C   -0.018671  -0.064533   5.469440  -0.715991   1.427831  -0.401109
     4  C   -0.081993   0.467435  -0.715991   8.249865  -3.279476   1.127945
     5  C   -0.209318  -0.511152   1.427831  -3.279476  13.520689  -4.173983
     6  C    0.392685  -0.269276  -0.401109   1.127945  -4.173983   9.479192
     7  C   -0.009054   0.149440  -0.221007   0.247085  -1.652621   0.245784
     8  O    0.022458   0.044085  -0.010406   0.031203   0.029206  -0.354905
     9  O    0.020049   0.006101  -0.001706   0.029654  -0.041647  -0.032672
    10  O    0.014679   0.003768   0.024003  -0.366507   0.330565   0.024351
    11  H    0.297128  -0.043870   0.034389  -0.022365   0.094877  -0.021793
    12  H   -0.069179   0.361851  -0.001869   0.028970  -0.035491   0.029903
    13  H    0.000683   0.043322   0.260498   0.051540  -0.038255   0.016542
    14  H    0.003561  -0.022128   0.091797   0.140154   0.169392  -0.045567
    15  H   -0.001452  -0.001574   0.000795  -0.000855   0.014480   0.019291
    16  H   -0.000783  -0.002028  -0.006507   0.072622   0.008224  -0.087801
               7          8          9         10         11         12
     1  N   -0.009054   0.022458   0.020049   0.014679   0.297128  -0.069179
     2  C    0.149440   0.044085   0.006101   0.003768  -0.043870   0.361851
     3  C   -0.221007  -0.010406  -0.001706   0.024003   0.034389  -0.001869
     4  C    0.247085   0.031203   0.029654  -0.366507  -0.022365   0.028970
     5  C   -1.652621   0.029206  -0.041647   0.330565   0.094877  -0.035491
     6  C    0.245784  -0.354905  -0.032672   0.024351  -0.021793   0.029903
     7  C    6.385712   0.553412   0.054775  -0.024338  -0.075939   0.017866
     8  O    0.553412   8.215877  -0.145446  -0.002615   0.029229  -0.000134
     9  O    0.054775  -0.145446   8.421122   0.001709   0.002598   0.000029
    10  O   -0.024338  -0.002615   0.001709   8.276344  -0.000296   0.000126
    11  H   -0.075939   0.029229   0.002598  -0.000296   0.324652  -0.003218
    12  H    0.017866  -0.000134   0.000029   0.000126  -0.003218   0.440633
    13  H    0.003543   0.000007   0.000002  -0.000435  -0.000111  -0.002400
    14  H    0.001210   0.000002   0.000160  -0.010567   0.000013  -0.000084
    15  H   -0.009208   0.006122   0.219919   0.000847  -0.000051  -0.000000
    16  H    0.022181   0.001377   0.029372   0.208344  -0.000022  -0.000000
              13         14         15         16
     1  N    0.000683   0.003561  -0.001452  -0.000783
     2  C    0.043322  -0.022128  -0.001574  -0.002028
     3  C    0.260498   0.091797   0.000795  -0.006507
     4  C    0.051540   0.140154  -0.000855   0.072622
     5  C   -0.038255   0.169392   0.014480   0.008224
     6  C    0.016542  -0.045567   0.019291  -0.087801
     7  C    0.003543   0.001210  -0.009208   0.022181
     8  O    0.000007   0.000002   0.006122   0.001377
     9  O    0.000002   0.000160   0.219919   0.029372
    10  O   -0.000435  -0.010567   0.000847   0.208344
    11  H   -0.000111   0.000013  -0.000051  -0.000022
    12  H   -0.002400  -0.000084  -0.000000  -0.000000
    13  H    0.436089  -0.003800   0.000000   0.000003
    14  H   -0.003800   0.444007  -0.000000  -0.000018
    15  H    0.000000  -0.000000   0.300190   0.000836
    16  H    0.000003  -0.000018   0.000836   0.320514
 Mulliken charges:
               1
     1  N   -0.143083
     2  C   -0.223215
     3  C    0.133044
     4  C    0.020711
     5  C    0.346677
     6  C    0.051413
     7  C    0.311159
     8  O   -0.419472
     9  O   -0.564017
    10  O   -0.479980
    11  H    0.384777
    12  H    0.232997
    13  H    0.232773
    14  H    0.231869
    15  H    0.450660
    16  H    0.433687
 Sum of Mulliken charges =   1.00000
 Mulliken charges with hydrogens summed into heavy atoms:
               1
     1  N    0.241694
     2  C    0.009782
     3  C    0.365817
     4  C    0.252579
     5  C    0.346677
     6  C    0.051413
     7  C    0.311159
     8  O   -0.419472
     9  O   -0.113357
    10  O   -0.046293
 Electronic spatial extent (au):  <R**2>=           1307.7809
 Charge=              1.0000 electrons
 Dipole moment (field-independent basis, Debye):
    X=             -2.5506    Y=             -1.1133    Z=              0.0000  Tot=              2.7829
 Quadrupole moment (field-independent basis, Debye-Ang):
   XX=            -24.8556   YY=            -44.1225   ZZ=            -55.9383
   XY=              9.6929   XZ=             -0.0003   YZ=              0.0001
 Traceless Quadrupole moment (field-independent basis, Debye-Ang):
   XX=             16.7832   YY=             -2.4837   ZZ=            -14.2995
   XY=              9.6929   XZ=             -0.0003   YZ=              0.0001
 Octapole moment (field-independent basis, Debye-Ang**2):
  XXX=             10.1737  YYY=            -15.3303  ZZZ=             -0.0006  XYY=            -13.7565
  XXY=             16.9967  XXZ=              0.0005  XZZ=              8.6016  YZZ=              0.5923
  YYZ=             -0.0003  XYZ=             -0.0017
 Hexadecapole moment (field-independent basis, Debye-Ang**3):
 XXXX=           -640.4076 YYYY=           -486.1198 ZZZZ=            -52.2478 XXXY=             69.7440
 XXXZ=              0.0045 YYYX=             48.2865 YYYZ=             -0.0099 ZZZX=              0.0117
 ZZZY=             -0.0118 XXYY=           -221.4665 XXZZ=           -183.3273 YYZZ=           -103.5347
 XXYZ=             -0.0044 YYXZ=              0.0051 ZZXY=             -0.6904
 N-N= 5.216757286001D+02 E-N=-2.225707359264D+03  KE= 5.077161706887D+02
 Calling FoFJK, ICntrl=      2127 FMM=F ISym2X=0 I1Cent= 0 IOpClX= 0 NMat=1 NMatS=1 NMatT=0.
 ***** Axes restored to original set *****
 -------------------------------------------------------------------
 Center     Atomic                   Forces (Hartrees/Bohr)
 Number     Number              X              Y              Z
 -------------------------------------------------------------------
      1        7           0.000102180   -0.000155140    0.000000463
      2        6           0.000091545   -0.000191289   -0.000000224
      3        6          -0.000160827    0.000062260    0.000000304
      4        6          -0.000012353    0.000230664   -0.000000394
      5        6           0.000212555    0.000210011   -0.000000327
      6        6          -0.000279454   -0.000460908    0.000003170
      7        6          -0.000043886    0.000067073   -0.000009724
      8        8           0.000504439   -0.000194229    0.000003926
      9        8           0.000402920    0.000022722    0.000002668
     10        8          -0.000025721   -0.000112955    0.000000112
     11        1          -0.000539967   -0.000106692   -0.000000312
     12        1          -0.000032749    0.000053941   -0.000000035
     13        1           0.000073841   -0.000002840   -0.000000054
     14        1           0.000173727   -0.000037773    0.000000113
     15        1          -0.000231759    0.000233064    0.000000116
     16        1          -0.000234491    0.000382091    0.000000198
 -------------------------------------------------------------------
 Cartesian Forces:  Max     0.000539967 RMS     0.000186549

 GradGradGradGradGradGradGradGradGradGradGradGradGradGradGradGradGradGrad
 Berny optimization.
 FormGI is forming the generalized inverse of G from B-inverse, IUseBI=4.
 Internal  Forces:  Max     0.000996418 RMS     0.000295880
 Search for a local minimum.
 Step number   1 out of a maximum of   81
 All quantities printed in internal units (Hartrees-Bohrs-Radians)
 Mixed Optimization -- En-DIIS/RFO-DIIS
 Second derivative matrix not updated -- first step.
 ITU=  0
     Eigenvalues ---    0.00925   0.01482   0.01758   0.02012   0.02117
     Eigenvalues ---    0.02156   0.02205   0.02233   0.02339   0.02391
     Eigenvalues ---    0.02469   0.02493   0.02720   0.16000   0.16000
     Eigenvalues ---    0.16000   0.16000   0.16000   0.16000   0.22000
     Eigenvalues ---    0.22479   0.24466   0.25000   0.25000   0.25000
     Eigenvalues ---    0.25000   0.33674   0.35281   0.35487   0.35576
     Eigenvalues ---    0.41216   0.42750   0.43583   0.45716   0.47268
     Eigenvalues ---    0.52352   0.52538   0.52553   0.57330   0.57614
     Eigenvalues ---    0.61373   1.01490
 RFO step:  Lambda=-2.45295488D-05 EMin= 9.25237861D-03
 Linear search not attempted -- first point.
 Iteration  1 RMS(Cart)=  0.00400069 RMS(Int)=  0.00000766
 Iteration  2 RMS(Cart)=  0.00000928 RMS(Int)=  0.00000005
 Iteration  3 RMS(Cart)=  0.00000000 RMS(Int)=  0.00000005
 Variable       Old X    -DE/DX   Delta X   Delta X   Delta X     New X
                                 (Linear)    (Quad)   (Total)
    R1        2.51510   0.00005   0.00000   0.00012   0.00012   2.51522
    R2        2.56331   0.00056   0.00000   0.00111   0.00111   2.56443
    R3        1.93657  -0.00022   0.00000  -0.00049  -0.00049   1.93608
    R4        2.64105   0.00009   0.00000   0.00014   0.00014   2.64119
    R5        2.04750  -0.00004   0.00000  -0.00010  -0.00010   2.04740
    R6        2.60982  -0.00003   0.00000  -0.00014  -0.00014   2.60969
    R7        2.04891  -0.00007   0.00000  -0.00021  -0.00021   2.04871
    R8        2.67426  -0.00019   0.00000  -0.00047  -0.00047   2.67379
    R9        2.05220  -0.00012   0.00000  -0.00034  -0.00034   2.05187
   R10        2.64866   0.00054   0.00000   0.00124   0.00124   2.64990
   R11        2.49870   0.00013   0.00000   0.00021   0.00021   2.49891
   R12        2.81183   0.00061   0.00000   0.00180   0.00180   2.81363
   R13        2.28048   0.00038   0.00000   0.00037   0.00037   2.28085
   R14        2.53118   0.00030   0.00000   0.00053   0.00053   2.53171
   R15        1.84073  -0.00027   0.00000  -0.00052  -0.00052   1.84022
   R16        1.84088  -0.00026   0.00000  -0.00049  -0.00049   1.84039
    A1        2.17639  -0.00009   0.00000  -0.00022  -0.00022   2.17617
    A2        2.11383  -0.00045   0.00000  -0.00296  -0.00296   2.11086
    A3        1.99297   0.00054   0.00000   0.00319   0.00319   1.99616
    A4        2.06744   0.00011   0.00000   0.00047   0.00047   2.06791
    A5        2.04943  -0.00000   0.00000   0.00011   0.00011   2.04954
    A6        2.16632  -0.00011   0.00000  -0.00058  -0.00058   2.16574
    A7        2.08845   0.00002   0.00000  -0.00017  -0.00017   2.08828
    A8        2.08367  -0.00001   0.00000   0.00006   0.00006   2.08373
    A9        2.11107  -0.00001   0.00000   0.00010   0.00010   2.11117
   A10        2.10505   0.00010   0.00000   0.00025   0.00025   2.10531
   A11        2.11932   0.00009   0.00000   0.00073   0.00073   2.12005
   A12        2.05882  -0.00019   0.00000  -0.00099  -0.00099   2.05783
   A13        2.05500   0.00007   0.00000   0.00031   0.00031   2.05531
   A14        2.04967  -0.00081   0.00000  -0.00324  -0.00324   2.04644
   A15        2.17851   0.00074   0.00000   0.00293   0.00293   2.18144
   A16        2.07404  -0.00021   0.00000  -0.00064  -0.00064   2.07340
   A17        1.97122   0.00100   0.00000   0.00388   0.00388   1.97510
   A18        2.23792  -0.00078   0.00000  -0.00323  -0.00323   2.23469
   A19        2.12645   0.00068   0.00000   0.00274   0.00274   2.12918
   A20        1.95799  -0.00049   0.00000  -0.00195  -0.00195   1.95604
   A21        2.19875  -0.00020   0.00000  -0.00079  -0.00079   2.19796
   A22        1.92093   0.00034   0.00000   0.00210   0.00210   1.92303
   A23        1.95306   0.00067   0.00000   0.00420   0.00420   1.95726
    D1        0.00000  -0.00000   0.00000  -0.00000  -0.00000  -0.00000
    D2        3.14159  -0.00000   0.00000  -0.00000  -0.00000   3.14159
    D3        3.14159   0.00000   0.00000   0.00001   0.00001  -3.14159
    D4       -0.00000   0.00000   0.00000   0.00001   0.00001   0.00000
    D5        0.00000   0.00000   0.00000   0.00000   0.00000   0.00000
    D6        3.14159   0.00000   0.00000   0.00001   0.00001  -3.14159
    D7       -3.14159  -0.00000   0.00000  -0.00001  -0.00001   3.14159
    D8       -0.00000  -0.00000   0.00000   0.00000   0.00000  -0.00000
    D9       -0.00000   0.00000   0.00000   0.00000   0.00000   0.00000
   D10       -3.14159   0.00000   0.00000   0.00000   0.00000  -3.14159
   D11        3.14159   0.00000   0.00000   0.00000   0.00000  -3.14159
   D12        0.00000   0.00000   0.00000   0.00000   0.00000   0.00000
   D13        0.00000  -0.00000   0.00000  -0.00000  -0.00000  -0.00000
   D14        3.14159   0.00000   0.00000   0.00000   0.00000  -3.14159
   D15        3.14159   0.00000   0.00000   0.00000   0.00000   3.14159
   D16       -0.00000   0.00000   0.00000   0.00001   0.00001   0.00000
   D17       -0.00000   0.00000   0.00000   0.00000   0.00000   0.00000
   D18        3.14159   0.00000   0.00000   0.00001   0.00001  -3.14159
   D19       -3.14159  -0.00000   0.00000  -0.00000  -0.00000   3.14159
   D20       -0.00000   0.00000   0.00000   0.00000   0.00000   0.00000
   D21       -0.00000  -0.00000   0.00000  -0.00000  -0.00000  -0.00000
   D22       -3.14159  -0.00000   0.00000  -0.00001  -0.00001   3.14159
   D23       -3.14159  -0.00000   0.00000  -0.00001  -0.00001   3.14159
   D24        0.00001  -0.00000   0.00000  -0.00002  -0.00002  -0.00001
   D25       -3.14158  -0.00000   0.00000  -0.00001  -0.00001  -3.14159
   D26        0.00000  -0.00000   0.00000  -0.00000  -0.00000   0.00000
   D27        0.00006  -0.00000   0.00000  -0.00019  -0.00019  -0.00014
   D28        3.14158   0.00000   0.00000   0.00012   0.00012  -3.14149
   D29       -3.14154  -0.00000   0.00000  -0.00018  -0.00018   3.14146
   D30       -0.00002   0.00000   0.00000   0.00013   0.00013   0.00011
   D31       -3.14156  -0.00000   0.00000  -0.00017  -0.00017   3.14146
   D32       -0.00004   0.00000   0.00000   0.00016   0.00016   0.00012
         Item               Value     Threshold  Converged?
 Maximum Force            0.000996     0.000450     NO 
 RMS     Force            0.000296     0.000300     YES
 Maximum Displacement     0.014683     0.001800     NO 
 RMS     Displacement     0.004000     0.001200     NO 
 Predicted change in Energy=-1.226475D-05
 GradGradGradGradGradGradGradGradGradGradGradGradGradGradGradGradGradGrad

                          Input orientation:                          
 ---------------------------------------------------------------------
 Center     Atomic      Atomic             Coordinates (Angstroms)
 Number     Number       Type             X           Y           Z
 ---------------------------------------------------------------------
      1          7           0       -0.508003   -1.353531   -0.000075
      2          6           0       -1.837307   -1.420645   -0.000015
      3          6           0       -2.564929   -0.227323    0.000075
      4          6           0       -1.895881    0.980774    0.000097
      5          6           0       -0.481555    1.021447    0.000031
      6          6           0        0.206993   -0.200133   -0.000057
      7          6           0        1.679045   -0.423553   -0.000144
      8          8           0        2.157677   -1.531570   -0.000082
      9          8           0        2.363095    0.728372    0.000007
     10          8           0        0.089924    2.213949    0.000059
     11          1           0        0.062438   -2.204562   -0.000146
     12          1           0       -2.287283   -2.406219   -0.000041
     13          1           0       -3.648409   -0.264847    0.000125
     14          1           0       -2.431418    1.925320    0.000166
     15          1           0        3.320523    0.550552    0.000065
     16          1           0        1.062038    2.155131    0.000010
 ---------------------------------------------------------------------
                    Distance matrix (angstroms):
                    1          2          3          4          5
     1  N    0.000000
     2  C    1.330997   0.000000
     3  C    2.345056   1.397659   0.000000
     4  C    2.715728   2.402132   1.380986   0.000000
     5  C    2.375125   2.793184   2.428966   1.414911   0.000000
     6  C    1.357036   2.380927   2.772056   2.411767   1.402268
     7  C    2.376560   3.654986   4.248508   3.840863   2.599273
     8  O    2.671619   3.996524   4.899395   4.768983   3.671981
     9  O    3.546480   4.718225   5.019838   4.266449   2.859708
    10  O    3.617240   4.113939   3.606668   2.337550   1.322365
    11  H    1.024528   2.055130   3.288241   3.739168   3.271553
    12  H    2.067363   1.083437   2.196515   3.409533   3.874216
    13  H    3.323760   2.148478   1.084129   2.150098   3.418115
    14  H    3.801366   3.398300   2.156780   1.085803   2.149174
    15  H    4.275880   5.521669   5.936636   5.234116   3.831128
    16  H    3.843921   4.603517   4.339467   3.182514   1.915181
                    6          7          8          9         10
     6  C    0.000000
     7  C    1.488910   0.000000
     8  O    2.361756   1.206975   0.000000
     9  O    2.347529   1.339723   2.269258   0.000000
    10  O    2.416919   3.079241   4.278378   2.715557   0.000000
    11  H    2.009635   2.405287   2.200669   3.727616   4.418596
    12  H    3.329900   4.434266   4.530196   5.608179   5.195870
    13  H    3.855945   5.329817   5.942660   6.093001   4.485483
    14  H    3.388032   4.734248   5.745422   4.941663   2.537808
    15  H    3.202748   1.908752   2.384836   0.973801   3.633685
    16  H    2.505667   2.651473   3.846061   1.930904   0.973892
                   11         12         13         14         15
    11  H    0.000000
    12  H    2.358358   0.000000
    13  H    4.187228   2.537349   0.000000
    14  H    4.824442   4.333937   2.505574   0.000000
    15  H    4.266822   6.339557   7.016473   5.913951   0.000000
    16  H    4.472820   5.658963   5.295715   3.501006   2.770457
                   16
    16  H    0.000000
 Stoichiometry    C6H6NO3(1+)
 Framework group  C1[X(C6H6NO3)]
 Deg. of freedom    42
 Full point group                 C1      NOp   1
 Largest Abelian subgroup         C1      NOp   1
 Largest concise Abelian subgroup C1      NOp   1
                         Standard orientation:                         
 ---------------------------------------------------------------------
 Center     Atomic      Atomic             Coordinates (Angstroms)
 Number     Number       Type             X           Y           Z
 ---------------------------------------------------------------------
      1          7           0       -0.509203   -1.352630   -0.000067
      2          6           0       -1.838535   -1.419180   -0.000007
      3          6           0       -2.565650   -0.225550    0.000082
      4          6           0       -1.896089    0.982263    0.000104
      5          6           0       -0.481746    1.022336    0.000038
      6          6           0        0.206284   -0.199536   -0.000050
      7          6           0        1.678240   -0.423582   -0.000137
      8          8           0        2.156401   -1.531802   -0.000074
      9          8           0        2.362779    0.728052    0.000014
     10          8           0        0.090239    2.214595    0.000067
     11          1           0        0.060877   -2.203904   -0.000138
     12          1           0       -2.288929   -2.404564   -0.000033
     13          1           0       -3.649145   -0.262613    0.000133
     14          1           0       -2.431224    1.927037    0.000174
     15          1           0        3.320132    0.549826    0.000072
     16          1           0        1.062328    2.155364    0.000017
 ---------------------------------------------------------------------
 Rotational constants (GHZ):      2.2873212      1.2503134      0.8084126
 Standard basis: 6-31+G(d,p) (6D, 7F)
 There are   220 symmetry adapted cartesian basis functions of A   symmetry.
 There are   220 symmetry adapted basis functions of A   symmetry.
   220 basis functions,   362 primitive gaussians,   220 cartesian basis functions
    36 alpha electrons       36 beta electrons
       nuclear repulsion energy       521.5443199341 Hartrees.
 NAtoms=   16 NActive=   16 NUniq=   16 SFac= 1.00D+00 NAtFMM=   60 NAOKFM=F Big=F
 Integral buffers will be    131072 words long.
 Raffenetti 2 integral format.
 Two-electron integral symmetry is turned on.
 Nuclear repulsion after empirical dispersion term =      521.5315726657 Hartrees.
 One-electron integrals computed using PRISM.
 NBasis=   220 RedAO= T EigKep=  4.79D-06  NBF=   220
 NBsUse=   220 1.00D-06 EigRej= -1.00D+00 NBFU=   220
 Initial guess from the checkpoint file:  "B3PW91D33HPA2.chk"
 B after Tr=    -0.000000   -0.000000   -0.000000
         Rot=    1.000000    0.000003    0.000000    0.000062 Ang=   0.01 deg.
 Keep R1 ints in memory in canonical form, NReq=301066375.
 Requested convergence on RMS density matrix=1.00D-08 within 128 cycles.
 Requested convergence on MAX density matrix=1.00D-06.
 Requested convergence on             energy=1.00D-06.
 No special actions if energy rises.
 SCF Done:  E(RB3PW91) =  -512.295804358     A.U. after   10 cycles
            NFock= 10  Conv=0.72D-08     -V/T= 2.0090
 Calling FoFJK, ICntrl=      2127 FMM=F ISym2X=0 I1Cent= 0 IOpClX= 0 NMat=1 NMatS=1 NMatT=0.
 ***** Axes restored to original set *****
 -------------------------------------------------------------------
 Center     Atomic                   Forces (Hartrees/Bohr)
 Number     Number              X              Y              Z
 -------------------------------------------------------------------
      1        7           0.000502394    0.000156168   -0.000001666
      2        6          -0.000052818    0.000008724    0.000000344
      3        6          -0.000057752   -0.000006068   -0.000000189
      4        6          -0.000137767   -0.000043480    0.000000948
      5        6           0.000417080    0.000132248   -0.000000233
      6        6           0.000026936   -0.000124523   -0.000009511
      7        6          -0.000038991   -0.000435155    0.000032941
      8        8          -0.000195608    0.000259147   -0.000012950
      9        8           0.000153382    0.000266788   -0.000009715
     10        8          -0.000211317   -0.000054544   -0.000000707
     11        1          -0.000232087    0.000034226    0.000000668
     12        1          -0.000007953   -0.000002032    0.000000312
     13        1          -0.000000950   -0.000021279   -0.000000059
     14        1           0.000040262    0.000028082   -0.000000154
     15        1          -0.000093004   -0.000058682   -0.000000568
     16        1          -0.000111805   -0.000139620    0.000000539
 -------------------------------------------------------------------
 Cartesian Forces:  Max     0.000502394 RMS     0.000148162

 GradGradGradGradGradGradGradGradGradGradGradGradGradGradGradGradGradGrad
 Berny optimization.
 Using GEDIIS/GDIIS optimizer.
 FormGI is forming the generalized inverse of G from B-inverse, IUseBI=4.
 Internal  Forces:  Max     0.000314486 RMS     0.000093845
 Search for a local minimum.
 Step number   2 out of a maximum of   81
 All quantities printed in internal units (Hartrees-Bohrs-Radians)
 Mixed Optimization -- En-DIIS/RFO-DIIS
 Swapping is turned off.
 Update second derivatives using D2CorX and points    1    2
 DE= -1.16D-05 DEPred=-1.23D-05 R= 9.45D-01
 TightC=F SS=  1.41D+00  RLast= 1.04D-02 DXNew= 5.0454D-01 3.1176D-02
 Trust test= 9.45D-01 RLast= 1.04D-02 DXMaxT set to 3.00D-01
 ITU=  1  0
     Eigenvalues ---    0.00925   0.01481   0.01758   0.02012   0.02117
     Eigenvalues ---    0.02157   0.02205   0.02233   0.02339   0.02391
     Eigenvalues ---    0.02469   0.02493   0.02720   0.14140   0.16000
     Eigenvalues ---    0.16000   0.16000   0.16000   0.17273   0.21760
     Eigenvalues ---    0.22463   0.23536   0.24539   0.25000   0.25000
     Eigenvalues ---    0.27151   0.34693   0.35295   0.35490   0.35579
     Eigenvalues ---    0.41309   0.42798   0.43678   0.45822   0.47261
     Eigenvalues ---    0.52204   0.52546   0.53129   0.57167   0.57817
     Eigenvalues ---    0.62551   1.02997
 En-DIIS/RFO-DIIS IScMMF=        0 using points:     2    1
 RFO step:  Lambda=-1.00538586D-06.
 DidBck=F Rises=F RFO-DIIS coefs:    0.95360    0.04640
 Iteration  1 RMS(Cart)=  0.00051571 RMS(Int)=  0.00000025
 Iteration  2 RMS(Cart)=  0.00000028 RMS(Int)=  0.00000004
 Variable       Old X    -DE/DX   Delta X   Delta X   Delta X     New X
                                 (Linear)    (Quad)   (Total)
    R1        2.51522   0.00011  -0.00001   0.00018   0.00018   2.51540
    R2        2.56443  -0.00020  -0.00005  -0.00023  -0.00028   2.56415
    R3        1.93608  -0.00016   0.00002  -0.00041  -0.00038   1.93569
    R4        2.64119  -0.00004  -0.00001  -0.00006  -0.00006   2.64113
    R5        2.04740   0.00000   0.00000   0.00000   0.00000   2.04740
    R6        2.60969  -0.00003   0.00001  -0.00007  -0.00006   2.60963
    R7        2.04871   0.00000   0.00001  -0.00002  -0.00001   2.04870
    R8        2.67379   0.00011   0.00002   0.00020   0.00022   2.67401
    R9        2.05187   0.00001   0.00002  -0.00003  -0.00001   2.05186
   R10        2.64990  -0.00002  -0.00006   0.00010   0.00005   2.64995
   R11        2.49891  -0.00031  -0.00001  -0.00046  -0.00047   2.49843
   R12        2.81363  -0.00018  -0.00008  -0.00029  -0.00037   2.81326
   R13        2.28085  -0.00031  -0.00002  -0.00025  -0.00027   2.28058
   R14        2.53171   0.00021  -0.00002   0.00041   0.00038   2.53209
   R15        1.84022  -0.00008   0.00002  -0.00021  -0.00018   1.84004
   R16        1.84039  -0.00010   0.00002  -0.00024  -0.00022   1.84017
    A1        2.17617   0.00003   0.00001   0.00005   0.00006   2.17623
    A2        2.11086  -0.00018   0.00014  -0.00140  -0.00126   2.10960
    A3        1.99616   0.00016  -0.00015   0.00135   0.00121   1.99736
    A4        2.06791   0.00005  -0.00002   0.00028   0.00026   2.06817
    A5        2.04954  -0.00002  -0.00001  -0.00005  -0.00005   2.04949
    A6        2.16574  -0.00004   0.00003  -0.00023  -0.00021   2.16553
    A7        2.08828  -0.00008   0.00001  -0.00033  -0.00032   2.08796
    A8        2.08373   0.00002  -0.00000   0.00005   0.00005   2.08378
    A9        2.11117   0.00006  -0.00000   0.00028   0.00028   2.11145
   A10        2.10531   0.00001  -0.00001   0.00010   0.00009   2.10539
   A11        2.12005   0.00005  -0.00003   0.00036   0.00033   2.12038
   A12        2.05783  -0.00006   0.00005  -0.00046  -0.00042   2.05741
   A13        2.05531   0.00003  -0.00001   0.00014   0.00013   2.05544
   A14        2.04644  -0.00013   0.00015  -0.00089  -0.00074   2.04569
   A15        2.18144   0.00011  -0.00014   0.00075   0.00062   2.18205
   A16        2.07340  -0.00003   0.00003  -0.00024  -0.00021   2.07319
   A17        1.97510  -0.00008  -0.00018   0.00017  -0.00001   1.97508
   A18        2.23469   0.00012   0.00015   0.00008   0.00023   2.23491
   A19        2.12918  -0.00012  -0.00013  -0.00015  -0.00027   2.12891
   A20        1.95604   0.00007   0.00009   0.00003   0.00012   1.95616
   A21        2.19796   0.00006   0.00004   0.00012   0.00015   2.19811
   A22        1.92303  -0.00014  -0.00010  -0.00060  -0.00069   1.92234
   A23        1.95726  -0.00027  -0.00019  -0.00111  -0.00131   1.95595
    D1       -0.00000   0.00000   0.00000   0.00001   0.00001   0.00001
    D2        3.14159   0.00000   0.00000   0.00001   0.00001  -3.14158
    D3       -3.14159  -0.00000  -0.00000  -0.00001  -0.00001   3.14158
    D4        0.00000  -0.00000  -0.00000  -0.00001  -0.00001  -0.00001
    D5        0.00000  -0.00000  -0.00000  -0.00001  -0.00001  -0.00001
    D6       -3.14159  -0.00000  -0.00000  -0.00002  -0.00002   3.14158
    D7        3.14159   0.00000   0.00000   0.00001   0.00001  -3.14159
    D8       -0.00000   0.00000  -0.00000   0.00001   0.00001   0.00000
    D9        0.00000  -0.00000  -0.00000  -0.00001  -0.00001  -0.00000
   D10       -3.14159  -0.00000  -0.00000  -0.00000  -0.00000   3.14159
   D11       -3.14159  -0.00000  -0.00000  -0.00001  -0.00001   3.14159
   D12        0.00000  -0.00000  -0.00000  -0.00001  -0.00001  -0.00000
   D13       -0.00000   0.00000   0.00000   0.00000   0.00000   0.00000
   D14       -3.14159  -0.00000  -0.00000  -0.00000  -0.00000  -3.14159
   D15        3.14159  -0.00000  -0.00000  -0.00000  -0.00000   3.14159
   D16        0.00000  -0.00000  -0.00000  -0.00000  -0.00000  -0.00000
   D17        0.00000  -0.00000  -0.00000  -0.00000  -0.00000  -0.00000
   D18       -3.14159   0.00000  -0.00000   0.00000   0.00000  -3.14159
   D19        3.14159   0.00000   0.00000   0.00000   0.00000   3.14159
   D20        0.00000   0.00000  -0.00000   0.00001   0.00001   0.00001
   D21       -0.00000   0.00000   0.00000   0.00001   0.00001   0.00000
   D22        3.14159   0.00000   0.00000   0.00001   0.00001  -3.14158
   D23        3.14159   0.00000   0.00000  -0.00000  -0.00000   3.14159
   D24       -0.00001   0.00000   0.00000   0.00001   0.00001   0.00000
   D25       -3.14159  -0.00000   0.00000  -0.00002  -0.00002   3.14157
   D26        0.00000  -0.00000   0.00000  -0.00001  -0.00001  -0.00001
   D27       -0.00014   0.00001   0.00001   0.00053   0.00053   0.00040
   D28       -3.14149  -0.00001  -0.00001  -0.00048  -0.00049   3.14121
   D29        3.14146   0.00001   0.00001   0.00052   0.00053  -3.14120
   D30        0.00011  -0.00001  -0.00001  -0.00049  -0.00049  -0.00038
   D31        3.14146   0.00001   0.00001   0.00054   0.00055  -3.14117
   D32        0.00012  -0.00001  -0.00001  -0.00051  -0.00052  -0.00039
         Item               Value     Threshold  Converged?
 Maximum Force            0.000314     0.000450     YES
 RMS     Force            0.000094     0.000300     YES
 Maximum Displacement     0.001955     0.001800     NO 
 RMS     Displacement     0.000516     0.001200     YES
 Predicted change in Energy=-9.166397D-07
 GradGradGradGradGradGradGradGradGradGradGradGradGradGradGradGradGradGrad

                          Input orientation:                          
 ---------------------------------------------------------------------
 Center     Atomic      Atomic             Coordinates (Angstroms)
 Number     Number       Type             X           Y           Z
 ---------------------------------------------------------------------
      1          7           0       -0.507600   -1.353259    0.000042
      2          6           0       -1.836996   -1.420397   -0.000035
      3          6           0       -2.564929   -0.227304   -0.000035
      4          6           0       -1.895839    0.980733    0.000050
      5          6           0       -0.481399    1.021467    0.000134
      6          6           0        0.207368   -0.200017    0.000131
      7          6           0        1.679214   -0.423491    0.000218
      8          8           0        2.157425   -1.531535   -0.000200
      9          8           0        2.363569    0.728488   -0.000166
     10          8           0        0.089036    2.214191    0.000218
     11          1           0        0.061667   -2.204833    0.000052
     12          1           0       -2.286906   -2.406005   -0.000092
     13          1           0       -3.648395   -0.265077   -0.000099
     14          1           0       -2.431017    1.925476    0.000053
     15          1           0        3.320748    0.549854   -0.000484
     16          1           0        1.061003    2.154871    0.000290
 ---------------------------------------------------------------------
                    Distance matrix (angstroms):
                    1          2          3          4          5
     1  N    0.000000
     2  C    1.331091   0.000000
     3  C    2.345289   1.397626   0.000000
     4  C    2.715645   2.401851   1.380954   0.000000
     5  C    2.374871   2.792910   2.429101   1.415027   0.000000
     6  C    1.356889   2.380915   2.772432   2.411981   1.402292
     7  C    2.376262   3.654799   4.248676   3.840944   2.599260
     8  O    2.670980   3.995967   4.899147   4.768694   3.671677
     9  O    3.546446   4.718311   5.020322   4.266871   2.860014
    10  O    3.616998   4.113373   3.606166   2.336910   1.322115
    11  H    1.024325   2.054327   3.287800   3.738938   3.271686
    12  H    2.067415   1.083439   2.196368   3.409241   3.873941
    13  H    3.323963   2.148471   1.084123   2.150231   3.418341
    14  H    3.801268   3.398195   2.156941   1.085797   2.149010
    15  H    4.275287   5.521251   5.936764   5.234352   3.831284
    16  H    3.842849   4.602276   4.338449   3.181433   1.914055
                    6          7          8          9         10
     6  C    0.000000
     7  C    1.488714   0.000000
     8  O    2.361284   1.206833   0.000000
     9  O    2.347620   1.339925   2.269405   0.000000
    10  O    2.417106   3.079941   4.278867   2.716766   0.000000
    11  H    2.010104   2.406166   2.201256   3.728689   4.419109
    12  H    3.329833   4.434013   4.529544   5.608205   5.195316
    13  H    3.856312   5.329963   5.942344   6.093511   4.484993
    14  H    3.388038   4.734094   5.744974   4.941744   2.536538
    15  H    3.202411   1.908411   2.384428   0.973705   3.635104
    16  H    2.504833   2.651441   3.846002   1.931644   0.973775
                   11         12         13         14         15
    11  H    0.000000
    12  H    2.357173   0.000000
    13  H    4.186551   2.537168   0.000000
    14  H    4.824202   4.333878   2.506099   0.000000
    15  H    4.267306   6.338997   7.016627   5.913978   0.000000
    16  H    4.472772   5.657745   5.294768   3.499546   2.771737
                   16
    16  H    0.000000
 Stoichiometry    C6H6NO3(1+)
 Framework group  C1[X(C6H6NO3)]
 Deg. of freedom    42
 Full point group                 C1      NOp   1
 Largest Abelian subgroup         C1      NOp   1
 Largest concise Abelian subgroup C1      NOp   1
                         Standard orientation:                         
 ---------------------------------------------------------------------
 Center     Atomic      Atomic             Coordinates (Angstroms)
 Number     Number       Type             X           Y           Z
 ---------------------------------------------------------------------
      1          7           0       -0.508583   -1.352545    0.000020
      2          6           0       -1.837995   -1.419372   -0.000057
      3          6           0       -2.565649   -0.226108   -0.000057
      4          6           0       -1.896276    0.981772    0.000028
      5          6           0       -0.481826    1.022175    0.000112
      6          6           0        0.206655   -0.199470    0.000109
      7          6           0        1.678449   -0.423290    0.000196
      8          8           0        2.156399   -1.531446   -0.000222
      9          8           0        2.363073    0.728529   -0.000188
     10          8           0        0.088888    2.214766    0.000196
     11          1           0        0.060484   -2.204252    0.000030
     12          1           0       -2.288136   -2.404874   -0.000114
     13          1           0       -3.649123   -0.263627   -0.000121
     14          1           0       -2.431232    1.926641    0.000031
     15          1           0        3.320210    0.549670   -0.000506
     16          1           0        1.060841    2.155217    0.000268
 ---------------------------------------------------------------------
 Rotational constants (GHZ):      2.2873787      1.2503177      0.8084216
 Standard basis: 6-31+G(d,p) (6D, 7F)
 There are   220 symmetry adapted cartesian basis functions of A   symmetry.
 There are   220 symmetry adapted basis functions of A   symmetry.
   220 basis functions,   362 primitive gaussians,   220 cartesian basis functions
    36 alpha electrons       36 beta electrons
       nuclear repulsion energy       521.5537028186 Hartrees.
 NAtoms=   16 NActive=   16 NUniq=   16 SFac= 1.00D+00 NAtFMM=   60 NAOKFM=F Big=F
 Integral buffers will be    131072 words long.
 Raffenetti 2 integral format.
 Two-electron integral symmetry is turned on.
 Nuclear repulsion after empirical dispersion term =      521.5409550391 Hartrees.
 One-electron integrals computed using PRISM.
 NBasis=   220 RedAO= T EigKep=  4.80D-06  NBF=   220
 NBsUse=   220 1.00D-06 EigRej= -1.00D+00 NBFU=   220
 Initial guess from the checkpoint file:  "B3PW91D33HPA2.chk"
 B after Tr=    -0.000000   -0.000000    0.000000
         Rot=    1.000000   -0.000006    0.000000   -0.000116 Ang=  -0.01 deg.
 Keep R1 ints in memory in canonical form, NReq=301066375.
 Requested convergence on RMS density matrix=1.00D-08 within 128 cycles.
 Requested convergence on MAX density matrix=1.00D-06.
 Requested convergence on             energy=1.00D-06.
 No special actions if energy rises.
 SCF Done:  E(RB3PW91) =  -512.295805257     A.U. after    9 cycles
            NFock=  9  Conv=0.27D-08     -V/T= 2.0090
 Calling FoFJK, ICntrl=      2127 FMM=F ISym2X=0 I1Cent= 0 IOpClX= 0 NMat=1 NMatS=1 NMatT=0.
 ***** Axes restored to original set *****
 -------------------------------------------------------------------
 Center     Atomic                   Forces (Hartrees/Bohr)
 Number     Number              X              Y              Z
 -------------------------------------------------------------------
      1        7           0.000091956    0.000069741    0.000005016
      2        6          -0.000024105   -0.000000887   -0.000001089
      3        6          -0.000018347    0.000012158    0.000000358
      4        6          -0.000080304   -0.000080121   -0.000002965
      5        6           0.000015495   -0.000031277    0.000002270
      6        6           0.000012233    0.000014777    0.000029303
      7        6          -0.000043708   -0.000175217   -0.000104910
      8        8          -0.000026002    0.000088886    0.000040882
      9        8          -0.000019572    0.000105215    0.000031485
     10        8           0.000035510   -0.000021616    0.000002155
     11        1          -0.000031552    0.000010500   -0.000001608
     12        1           0.000006012   -0.000007850   -0.000000946
     13        1          -0.000003035   -0.000010973    0.000000225
     14        1           0.000011940    0.000017993    0.000000359
     15        1           0.000019855   -0.000011596    0.000001947
     16        1           0.000053624    0.000020269   -0.000002481
 -------------------------------------------------------------------
 Cartesian Forces:  Max     0.000175217 RMS     0.000046415

 GradGradGradGradGradGradGradGradGradGradGradGradGradGradGradGradGradGrad
 Berny optimization.
 Using GEDIIS/GDIIS optimizer.
 FormGI is forming the generalized inverse of G from B-inverse, IUseBI=4.
 Internal  Forces:  Max     0.000090705 RMS     0.000033475
 Search for a local minimum.
 Step number   3 out of a maximum of   81
 All quantities printed in internal units (Hartrees-Bohrs-Radians)
 Mixed Optimization -- En-DIIS/RFO-DIIS
 Swapping is turned off.
 Update second derivatives using D2CorX and points    1    2    3
 DE= -8.99D-07 DEPred=-9.17D-07 R= 9.81D-01
 Trust test= 9.81D-01 RLast= 3.09D-03 DXMaxT set to 3.00D-01
 ITU=  0  1  0
     Eigenvalues ---    0.00925   0.01597   0.01758   0.02012   0.02117
     Eigenvalues ---    0.02157   0.02205   0.02233   0.02339   0.02391
     Eigenvalues ---    0.02469   0.02493   0.02720   0.11846   0.16000
     Eigenvalues ---    0.16000   0.16000   0.16075   0.17455   0.21559
     Eigenvalues ---    0.22433   0.24037   0.24738   0.25000   0.25484
     Eigenvalues ---    0.30959   0.34273   0.35297   0.35490   0.35578
     Eigenvalues ---    0.40972   0.42815   0.43612   0.46002   0.47250
     Eigenvalues ---    0.52392   0.52671   0.53423   0.55499   0.57603
     Eigenvalues ---    0.64239   1.00701
 En-DIIS/RFO-DIIS IScMMF=        0 using points:     3    2    1
 RFO step:  Lambda=-1.53464092D-07.
 DidBck=F Rises=F RFO-DIIS coefs:    0.95792    0.04646   -0.00437
 Iteration  1 RMS(Cart)=  0.00068582 RMS(Int)=  0.00000054
 Iteration  2 RMS(Cart)=  0.00000069 RMS(Int)=  0.00000031
 Variable       Old X    -DE/DX   Delta X   Delta X   Delta X     New X
                                 (Linear)    (Quad)   (Total)
    R1        2.51540   0.00003  -0.00001   0.00011   0.00010   2.51550
    R2        2.56415  -0.00007   0.00002  -0.00020  -0.00018   2.56396
    R3        1.93569  -0.00003   0.00001  -0.00018  -0.00017   1.93553
    R4        2.64113  -0.00000   0.00000  -0.00001  -0.00001   2.64112
    R5        2.04740   0.00000  -0.00000   0.00001   0.00001   2.04741
    R6        2.60963  -0.00001   0.00000  -0.00003  -0.00002   2.60960
    R7        2.04870   0.00000  -0.00000   0.00000   0.00000   2.04870
    R8        2.67401   0.00008  -0.00001   0.00023   0.00022   2.67424
    R9        2.05186   0.00001  -0.00000   0.00002   0.00002   2.05188
   R10        2.64995  -0.00008   0.00000  -0.00016  -0.00015   2.64980
   R11        2.49843   0.00004   0.00002  -0.00008  -0.00006   2.49837
   R12        2.81326  -0.00007   0.00002  -0.00029  -0.00026   2.81300
   R13        2.28058  -0.00009   0.00001  -0.00016  -0.00015   2.28044
   R14        2.53209   0.00008  -0.00001   0.00025   0.00023   2.53233
   R15        1.84004   0.00002   0.00001  -0.00002  -0.00001   1.84002
   R16        1.84017   0.00005   0.00001   0.00003   0.00003   1.84020
    A1        2.17623   0.00002  -0.00000   0.00007   0.00006   2.17629
    A2        2.10960  -0.00003   0.00004  -0.00056  -0.00052   2.10908
    A3        1.99736   0.00001  -0.00004   0.00050   0.00046   1.99782
    A4        2.06817   0.00000  -0.00001   0.00011   0.00010   2.06826
    A5        2.04949  -0.00001   0.00000  -0.00007  -0.00006   2.04942
    A6        2.16553   0.00001   0.00001  -0.00004  -0.00003   2.16550
    A7        2.08796  -0.00003   0.00001  -0.00021  -0.00019   2.08776
    A8        2.08378   0.00001  -0.00000   0.00002   0.00002   2.08379
    A9        2.11145   0.00003  -0.00001   0.00019   0.00018   2.11163
   A10        2.10539   0.00000  -0.00000   0.00007   0.00007   2.10546
   A11        2.12038   0.00002  -0.00001   0.00022   0.00021   2.12059
   A12        2.05741  -0.00002   0.00001  -0.00029  -0.00027   2.05714
   A13        2.05544  -0.00000  -0.00000   0.00003   0.00003   2.05547
   A14        2.04569   0.00009   0.00002   0.00007   0.00009   2.04578
   A15        2.18205  -0.00008  -0.00001  -0.00010  -0.00011   2.18194
   A16        2.07319   0.00001   0.00001  -0.00006  -0.00006   2.07313
   A17        1.97508   0.00004   0.00002   0.00020   0.00021   1.97530
   A18        2.23491  -0.00005  -0.00002  -0.00013  -0.00015   2.23476
   A19        2.12891   0.00005   0.00002   0.00012   0.00014   2.12905
   A20        1.95616  -0.00007  -0.00001  -0.00025  -0.00026   1.95590
   A21        2.19811   0.00002  -0.00001   0.00013   0.00012   2.19823
   A22        1.92234  -0.00002   0.00004  -0.00030  -0.00026   1.92208
   A23        1.95595   0.00004   0.00007  -0.00010  -0.00003   1.95592
    D1        0.00001  -0.00000  -0.00000  -0.00003  -0.00003  -0.00002
    D2       -3.14158  -0.00000  -0.00000  -0.00004  -0.00004   3.14156
    D3        3.14158   0.00000   0.00000   0.00003   0.00003  -3.14157
    D4       -0.00001   0.00000   0.00000   0.00002   0.00002   0.00002
    D5       -0.00001   0.00000   0.00000   0.00003   0.00003   0.00002
    D6        3.14158   0.00000   0.00000   0.00004   0.00004  -3.14156
    D7       -3.14159  -0.00000  -0.00000  -0.00003  -0.00003   3.14157
    D8        0.00000  -0.00000  -0.00000  -0.00002  -0.00002  -0.00001
    D9       -0.00000   0.00000   0.00000   0.00002   0.00002   0.00001
   D10        3.14159   0.00000   0.00000   0.00001   0.00001  -3.14159
   D11        3.14159   0.00000   0.00000   0.00003   0.00003  -3.14157
   D12       -0.00000   0.00000   0.00000   0.00002   0.00002   0.00001
   D13        0.00000  -0.00000  -0.00000  -0.00001  -0.00001  -0.00001
   D14       -3.14159  -0.00000   0.00000  -0.00000  -0.00000   3.14159
   D15        3.14159   0.00000   0.00000   0.00000   0.00000  -3.14159
   D16       -0.00000   0.00000   0.00000   0.00001   0.00001   0.00000
   D17       -0.00000   0.00000   0.00000   0.00001   0.00001   0.00001
   D18       -3.14159  -0.00000  -0.00000  -0.00003  -0.00003   3.14157
   D19        3.14159   0.00000  -0.00000   0.00001   0.00001  -3.14159
   D20        0.00001  -0.00000  -0.00000  -0.00003  -0.00003  -0.00003
   D21        0.00000  -0.00000  -0.00000  -0.00002  -0.00002  -0.00002
   D22       -3.14158  -0.00000  -0.00000  -0.00003  -0.00003   3.14157
   D23        3.14159   0.00000  -0.00000   0.00002   0.00002  -3.14157
   D24        0.00000   0.00000  -0.00000   0.00001   0.00001   0.00001
   D25        3.14157   0.00000   0.00000   0.00009   0.00009  -3.14152
   D26       -0.00001   0.00000   0.00000   0.00005   0.00005   0.00004
   D27        0.00040  -0.00003  -0.00002  -0.00153  -0.00155  -0.00116
   D28        3.14121   0.00003   0.00002   0.00150   0.00152  -3.14045
   D29       -3.14120  -0.00003  -0.00002  -0.00152  -0.00155   3.14044
   D30       -0.00038   0.00003   0.00002   0.00151   0.00153   0.00115
   D31       -3.14117  -0.00003  -0.00002  -0.00165  -0.00167   3.14034
   D32       -0.00039   0.00003   0.00002   0.00153   0.00155   0.00116
         Item               Value     Threshold  Converged?
 Maximum Force            0.000091     0.000450     YES
 RMS     Force            0.000033     0.000300     YES
 Maximum Displacement     0.003246     0.001800     NO 
 RMS     Displacement     0.000686     0.001200     YES
 Predicted change in Energy=-2.285139D-07
 GradGradGradGradGradGradGradGradGradGradGradGradGradGradGradGradGradGrad

                          Input orientation:                          
 ---------------------------------------------------------------------
 Center     Atomic      Atomic             Coordinates (Angstroms)
 Number     Number       Type             X           Y           Z
 ---------------------------------------------------------------------
      1          7           0       -0.507580   -1.353247   -0.000316
      2          6           0       -1.837031   -1.420340    0.000030
      3          6           0       -2.565035   -0.227297    0.000305
      4          6           0       -1.895791    0.980640    0.000199
      5          6           0       -0.481230    1.021284   -0.000178
      6          6           0        0.207449   -0.200157   -0.000447
      7          6           0        1.679184   -0.423441   -0.000883
      8          8           0        2.157652   -1.531287    0.000092
      9          8           0        2.363164    0.728905    0.000415
     10          8           0        0.089372    2.213893   -0.000286
     11          1           0        0.061162   -2.205066   -0.000545
     12          1           0       -2.286917   -2.405965    0.000072
     13          1           0       -3.648500   -0.265119    0.000593
     14          1           0       -2.430654    1.925574    0.000403
     15          1           0        3.320356    0.550386    0.001234
     16          1           0        1.061346    2.154398   -0.000612
 ---------------------------------------------------------------------
                    Distance matrix (angstroms):
                    1          2          3          4          5
     1  N    0.000000
     2  C    1.331143   0.000000
     3  C    2.345396   1.397620   0.000000
     4  C    2.715539   2.401698   1.380941   0.000000
     5  C    2.374677   2.792799   2.429238   1.415145   0.000000
     6  C    1.356792   2.380913   2.772618   2.412032   1.402211
     7  C    2.376231   3.654802   4.248749   3.840818   2.598964
     8  O    2.671172   3.996223   4.899404   4.768666   3.671419
     9  O    3.546340   4.718145   5.020106   4.266388   2.859381
    10  O    3.616744   4.113232   3.606284   2.337046   1.322082
    11  H    1.024238   2.054004   3.287626   3.738768   3.271624
    12  H    2.067427   1.083445   2.196348   3.409115   3.873827
    13  H    3.324064   2.148477   1.084125   2.150327   3.418543
    14  H    3.801168   3.398165   2.157061   1.085808   2.148952
    15  H    4.275151   5.521088   5.936550   5.233862   3.830640
    16  H    3.842538   4.602102   4.338561   3.181567   1.914024
                    6          7          8          9         10
     6  C    0.000000
     7  C    1.488576   0.000000
     8  O    2.361186   1.206755   0.000000
     9  O    2.347395   1.340049   2.269516   0.000000
    10  O    2.416935   3.079452   4.278335   2.715754   0.000000
    11  H    2.010239   2.406696   2.202101   3.729263   4.419049
    12  H    3.329782   4.434000   4.529818   5.608088   5.195174
    13  H    3.856497   5.330036   5.942607   6.093291   4.485219
    14  H    3.387967   4.733776   5.744774   4.940921   2.536466
    15  H    3.202110   1.908348   2.384376   0.973698   3.634077
    16  H    2.504609   2.650844   3.845278   1.930482   0.973793
                   11         12         13         14         15
    11  H    0.000000
    12  H    2.356657   0.000000
    13  H    4.186286   2.537150   0.000000
    14  H    4.824037   4.333923   2.506449   0.000000
    15  H    4.267888   6.338890   7.016410   5.913143   0.000000
    16  H    4.472728   5.657541   5.294971   3.499489   2.770557
                   16
    16  H    0.000000
 Stoichiometry    C6H6NO3(1+)
 Framework group  C1[X(C6H6NO3)]
 Deg. of freedom    42
 Full point group                 C1      NOp   1
 Largest Abelian subgroup         C1      NOp   1
 Largest concise Abelian subgroup C1      NOp   1
                         Standard orientation:                         
 ---------------------------------------------------------------------
 Center     Atomic      Atomic             Coordinates (Angstroms)
 Number     Number       Type             X           Y           Z
 ---------------------------------------------------------------------
      1          7           0       -0.508845   -1.352452   -0.000245
      2          6           0       -1.838324   -1.418982    0.000100
      3          6           0       -2.565823   -0.225631    0.000376
      4          6           0       -1.896067    0.982022    0.000269
      5          6           0       -0.481489    1.022067   -0.000108
      6          6           0        0.206673   -0.199665   -0.000377
      7          6           0        1.678312   -0.423572   -0.000813
      8          8           0        2.156311   -1.531621    0.000162
      9          8           0        2.362781    0.728484    0.000485
     10          8           0        0.089618    2.214434   -0.000215
     11          1           0        0.059536   -2.204512   -0.000475
     12          1           0       -2.288627   -2.404416    0.000142
     13          1           0       -3.649304   -0.262995    0.000663
     14          1           0       -2.430530    1.927183    0.000473
     15          1           0        3.319897    0.549560    0.001305
     16          1           0        1.061567    2.154528   -0.000542
 ---------------------------------------------------------------------
 Rotational constants (GHZ):      2.2876960      1.2503686      0.8084825
 Standard basis: 6-31+G(d,p) (6D, 7F)
 There are   220 symmetry adapted cartesian basis functions of A   symmetry.
 There are   220 symmetry adapted basis functions of A   symmetry.
   220 basis functions,   362 primitive gaussians,   220 cartesian basis functions
    36 alpha electrons       36 beta electrons
       nuclear repulsion energy       521.5696506666 Hartrees.
 NAtoms=   16 NActive=   16 NUniq=   16 SFac= 1.00D+00 NAtFMM=   60 NAOKFM=F Big=F
 Integral buffers will be    131072 words long.
 Raffenetti 2 integral format.
 Two-electron integral symmetry is turned on.
 Nuclear repulsion after empirical dispersion term =      521.5569024225 Hartrees.
 One-electron integrals computed using PRISM.
 NBasis=   220 RedAO= T EigKep=  4.80D-06  NBF=   220
 NBsUse=   220 1.00D-06 EigRej= -1.00D+00 NBFU=   220
 Initial guess from the checkpoint file:  "B3PW91D33HPA2.chk"
 B after Tr=     0.000000    0.000000   -0.000000
         Rot=    1.000000    0.000016   -0.000002    0.000081 Ang=   0.01 deg.
 Keep R1 ints in memory in canonical form, NReq=301066375.
 Requested convergence on RMS density matrix=1.00D-08 within 128 cycles.
 Requested convergence on MAX density matrix=1.00D-06.
 Requested convergence on             energy=1.00D-06.
 No special actions if energy rises.
 SCF Done:  E(RB3PW91) =  -512.295805054     A.U. after    8 cycles
            NFock=  8  Conv=0.96D-08     -V/T= 2.0090
 Calling FoFJK, ICntrl=      2127 FMM=F ISym2X=0 I1Cent= 0 IOpClX= 0 NMat=1 NMatS=1 NMatT=0.
 ***** Axes restored to original set *****
 -------------------------------------------------------------------
 Center     Atomic                   Forces (Hartrees/Bohr)
 Number     Number              X              Y              Z
 -------------------------------------------------------------------
      1        7          -0.000066654   -0.000008807   -0.000014580
      2        6          -0.000002091   -0.000007661    0.000003257
      3        6           0.000019308    0.000011721   -0.000000950
      4        6           0.000001774   -0.000018964    0.000008832
      5        6          -0.000083578    0.000000890   -0.000007739
      6        6           0.000002012    0.000019959   -0.000086086
      7        6          -0.000050471   -0.000043988    0.000309761
      8        8           0.000035666    0.000014070   -0.000120428
      9        8           0.000016800    0.000000664   -0.000093288
     10        8           0.000000509    0.000011936   -0.000006332
     11        1           0.000040020   -0.000006705    0.000004465
     12        1           0.000008848   -0.000005068    0.000002781
     13        1          -0.000000166   -0.000000856   -0.000000705
     14        1          -0.000004954    0.000002225   -0.000000992
     15        1           0.000038082    0.000011343   -0.000005825
     16        1           0.000044896    0.000019241    0.000007830
 -------------------------------------------------------------------
 Cartesian Forces:  Max     0.000309761 RMS     0.000056285

 GradGradGradGradGradGradGradGradGradGradGradGradGradGradGradGradGradGrad
 Berny optimization.
 Using GEDIIS/GDIIS optimizer.
 FormGI is forming the generalized inverse of G from B-inverse, IUseBI=4.
 Internal  Forces:  Max     0.000085618 RMS     0.000028904
 Search for a local minimum.
 Step number   4 out of a maximum of   81
 All quantities printed in internal units (Hartrees-Bohrs-Radians)
 Mixed Optimization -- En-DIIS/RFO-DIIS
 Swapping is turned off.
 Update second derivatives using D2CorX and points    1    2    3    4
 DE=  2.03D-07 DEPred=-2.29D-07 R=-8.89D-01
 Trust test=-8.89D-01 RLast= 3.99D-03 DXMaxT set to 1.50D-01
 ITU= -1  0  1  0
     Eigenvalues ---    0.00925   0.01758   0.02012   0.02117   0.02156
[...]
 ! D2    D(6,1,2,12)           180.0002         -DE/DX =    0.0                 !
 ! D3    D(11,1,2,3)          -180.0001         -DE/DX =    0.0                 !
 ! D4    D(11,1,2,12)           -0.0001         -DE/DX =    0.0                 !
 ! D5    D(2,1,6,5)             -0.0002         -DE/DX =    0.0                 !
 ! D6    D(2,1,6,7)           -180.0002         -DE/DX =    0.0                 !
 ! D7    D(11,1,6,5)           180.0001         -DE/DX =    0.0                 !
 ! D8    D(11,1,6,7)             0.0001         -DE/DX =    0.0                 !
 ! D9    D(1,2,3,4)             -0.0001         -DE/DX =    0.0                 !
 ! D10   D(1,2,3,13)           180.0            -DE/DX =    0.0                 !
 ! D11   D(12,2,3,4)          -180.0001         -DE/DX =    0.0                 !
 ! D12   D(12,2,3,13)           -0.0001         -DE/DX =    0.0                 !
 ! D13   D(2,3,4,5)              0.0001         -DE/DX =    0.0                 !
 ! D14   D(2,3,4,14)          -179.9999         -DE/DX =    0.0                 !
 ! D15   D(13,3,4,5)          -180.0            -DE/DX =    0.0                 !
 ! D16   D(13,3,4,14)            0.0            -DE/DX =    0.0                 !
 ! D17   D(3,4,5,6)             -0.0001         -DE/DX =    0.0                 !
 ! D18   D(3,4,5,10)           180.0002         -DE/DX =    0.0                 !
 ! D19   D(14,4,5,6)           179.9999         -DE/DX =    0.0                 !
 ! D20   D(14,4,5,10)            0.0002         -DE/DX =    0.0                 !
 ! D21   D(4,5,6,1)              0.0001         -DE/DX =    0.0                 !
 ! D22   D(4,5,6,7)            180.0001         -DE/DX =    0.0                 !
 ! D23   D(10,5,6,1)          -180.0002         -DE/DX =    0.0                 !
 ! D24   D(10,5,6,7)            -0.0002         -DE/DX =    0.0                 !
 ! D25   D(4,5,10,16)          179.9994         -DE/DX =    0.0                 !
 ! D26   D(6,5,10,16)           -0.0003         -DE/DX =    0.0                 !
 ! D27   D(1,6,7,8)              0.0078         -DE/DX =    0.0                 !
 ! D28   D(1,6,7,9)           -180.0079         -DE/DX =    0.0                 !
 ! D29   D(5,6,7,8)           -179.9922         -DE/DX =    0.0                 !
 ! D30   D(5,6,7,9)             -0.0079         -DE/DX =    0.0                 !
 ! D31   D(6,7,9,15)           180.0085         -DE/DX =    0.0                 !
 ! D32   D(8,7,9,15)            -0.0079         -DE/DX =    0.0                 !
 --------------------------------------------------------------------------------
 GradGradGradGradGradGradGradGradGradGradGradGradGradGradGradGradGradGrad

 1\1\ WCSS.PL-BEM-QINLAB\Freq\RB3PW91\6-31+G(d,p)\C6H6N1O3(1+)\PHZD\18-
 Dec-2024\0\\#N Geom=AllCheck Guess=TCheck SCRF=Check GenChk RB3PW91/6-
 31+G(d,p) Freq\\[No Title]\\1,1\N,-0.507615355,-1.3532419854,-0.000015
 6703\C,-1.8370650598,-1.4203539777,-0.0000249683\C,-2.5650673449,-0.22
 73066857,0.0000192637\C,-1.8958212047,0.9806261937,0.0000729987\C,-0.4
 812473695,1.0212794501,0.0000825456\C,0.2074183896,-0.2001599337,0.000
 0372326\C,1.6791560692,-0.4234545264,0.0000387326\O,2.1576964035,-1.53
 12639587,-0.0001422661\O,2.3631333467,0.7289165646,-0.0000799748\O,0.0
 894786362,2.2138539364,0.0001394671\H,0.0611740733,-2.2050385018,-0.00
 00455331\H,-2.2869212317,-2.4059933739,-0.0000662789\H,-3.6485336314,-
 0.265131541,0.0000116143\H,-2.4306721326,1.9255731194,0.0001091243\H,3
 .3203531155,0.5504509618,-0.0002117505\H,1.0614812956,2.1544062583,0.0
 001514631\\Version=ES64L-G09RevE.01\State=1-A\HF=-512.2958053\RMSD=4.4
 52e-09\RMSF=1.687e-05\ZeroPoint=0.122545\Thermal=0.130505\Dipole=-1.01
 12945,-0.4361634,0.0000304\DipoleDeriv=0.13794,0.1606435,0.0000042,0.5
 723982,-0.2957142,-0.0000136,0.0000078,0.0000014,-0.1077619,-0.2653714
 ,-0.1528605,0.0000019,0.1333849,0.2349481,0.000005,0.0000023,0.0000066
 ,0.0673867,0.1962542,0.0429912,0.0000029,-0.3246245,-0.1100325,0.00000
 48,-0.0000146,-0.0000005,-0.0570664,0.146137,-0.3435464,-0.0000208,0.0
 199306,0.0961516,0.0000019,0.0000107,0.0000009,-0.0386071,0.0738506,0.
 6921939,0.0000414,0.6034687,1.3387316,0.0000626,0.0000035,0.0000589,0.
 2015721,-0.5814094,0.2793572,0.0000305,-0.4939601,-0.1996371,-0.000013
 9,-0.0000535,-0.0000043,0.0861533,2.0546748,-0.0907763,-0.0000592,0.03
 84685,1.5982271,-0.000016,-0.0000721,0.0000107,0.3513984,-0.8997358,0.
 2816306,0.0000137,0.2490122,-0.9724409,0.0000116,0.0000674,-0.000097,-
 0.3170362,-1.0227394,-0.4290739,0.0000245,-0.43101,-0.9000579,0.000009
 9,0.0000858,0.0000746,-0.3456867,-0.5203407,-0.6090214,-0.0000284,-0.4
 052124,-1.1614643,-0.0000502,-0.0000125,-0.0000524,-0.3156151,0.351902
 2,-0.0249576,-0.0000041,-0.0915515,0.3654464,0.0000011,-0.0000034,-0.0
 000013,0.281608,0.1228011,0.0404788,0.0000021,0.0336946,0.1198755,-0.0
 000024,0.000005,-0.0000045,0.1668262,0.1158826,-0.0054028,-0.0000005,-
 0.0092771,0.1133935,-0.0000016,-0.0000016,-0.0000021,0.1550033,0.11926
 64,-0.0131521,-0.0000004,-0.0147237,0.1107788,-0.0000017,0.0000014,0.0
 000004,0.1499389,0.4931771,0.0834297,-0.000006,0.0986655,0.2790575,-0.
 0000099,-0.0000136,-0.0000091,0.3812898,0.4777105,0.0880665,-0.0000018
 ,0.0213362,0.3827369,0.0000125,-0.0000124,0.0000178,0.3405967\Polar=10
 9.5145203,1.4126948,93.4044714,-0.0012593,0.0024663,40.4125116\PG=C01 
 [X(C6H6N1O3)]\NImag=0\\0.86810893,-0.05001601,0.79950192,0.00000384,0.
 00002658,0.12711893,-0.39780735,0.01444018,-0.00000208,0.73071082,-0.0
 4616119,-0.15145722,-0.00000352,0.04415144,0.79438617,-0.00000383,-0.0
 0000308,-0.05995708,0.00000497,0.00002666,0.13867587,-0.04787388,0.033
 52168,0.00000093,-0.18218847,0.11554245,0.00000418,0.78009739,0.080245
 18,0.02568707,0.00000072,0.05971571,-0.28606858,-0.00000867,0.02089850
 ,0.69376194,0.00000323,0.00000120,0.00785614,0.00000138,-0.00000833,-0
 .06413354,0.00000455,0.00002294,0.13303934,-0.04694469,-0.02466242,-0.
 00000118,0.06205088,-0.01075547,0.00000004,-0.19474582,-0.08603834,-0.
 00000424,0.67360770,-0.02958645,-0.01265940,-0.00000053,0.01898328,-0.
 05405607,-0.00000237,-0.13711762,-0.33340804,-0.00001233,0.00113887,0.
 79010703,-0.00000153,-0.00000082,-0.00216598,0.00000116,-0.00000236,0.
 00430847,-0.00000642,-0.00001178,-0.05545952,0.00000299,0.00002700,0.1
 3312660,0.06372742,0.02105304,0.00000110,-0.04554818,0.01357502,0.0000
 0014,-0.01318665,-0.06004583,-0.00000266,-0.30222180,0.04483076,0.0000
 0126,0.70152817,-0.01153752,-0.06235102,-0.00000309,0.02433461,0.00027
 214,0.00000048,-0.03822098,0.01793659,0.00000076,-0.00546350,-0.118451
 15,-0.00000248,0.03834309,0.76063714,0.00000077,-0.00000193,-0.0025730
 4,0.00000016,0.00000062,-0.00313754,-0.00000176,-0.00000018,-0.0025033
 5,-0.00000149,-0.00000208,-0.06543948,0.00000647,0.00002580,0.15433408
 ,-0.17802985,-0.10299997,-0.00000623,-0.05944890,-0.02522963,-0.000001
 78,0.00366218,-0.02441122,-0.00000098,-0.00802899,0.03409280,0.0000010
 3,-0.20032075,0.09239622,0.00000119,0.66020430,-0.05832548,-0.28690373
 ,-0.00000957,-0.07603610,0.01092446,-0.00000064,0.01315599,-0.04542774
 ,-0.00000178,0.05133964,0.02997007,0.00000161,0.06310299,-0.25735772,-
 0.00000714,-0.01123026,0.74370906,-0.00000558,-0.00001024,-0.05372429,
 -0.00000312,-0.00000075,0.00666911,0.00000072,-0.00000162,-0.00333966,
 0.00000225,0.00000231,0.00345588,-0.00000033,-0.00000757,-0.05653787,-
 0.00000170,0.00002449,0.12144198,-0.05254870,-0.02437703,-0.00000068,0
 .02242886,-0.00593277,0.00000043,-0.00253268,0.01507466,0.00000060,-0.
 00981022,-0.00555598,0.00000019,0.01222939,0.03482987,0.00000224,-0.18
 669385,0.01020567,-0.00000718,0.66446206,-0.02766549,0.00478565,-0.000
 00105,-0.00682435,-0.00868246,-0.00000106,0.00205919,-0.00252102,-0.00
 000001,0.00179119,-0.00562344,-0.00000035,0.03288173,0.01676165,0.0000
 0100,0.01031738,-0.09039817,0.00000148,-0.12742510,0.98120140,-0.00000
 061,0.00000117,-0.00282924,0.00000019,-0.00000108,0.00610727,0.0000004
 0,0.00000007,-0.00065221,-0.00000028,-0.00000015,0.00765101,0.00000053
 ,-0.00000213,0.00124000,0.00000135,0.00000154,-0.06999634,-0.00006274,
 0.00007109,0.19312115,-0.00197226,0.00761089,0.00000059,-0.00304713,0.
 00342852,0.00000010,-0.00029423,-0.00259083,-0.00000012,0.00102651,0.0
 0333168,-0.00000028,-0.00988799,-0.01194036,-0.00000026,-0.03337810,0.
 04698062,0.00000812,-0.22392254,0.24633055,0.00004285,0.23056819,-0.01
 571381,-0.00352801,0.00000054,0.00762582,0.00121342,0.00000047,-0.0019
 2209,0.00366405,0.00000012,-0.00105143,-0.00159270,0.00000027,0.000327
 23,0.00209085,-0.00000013,0.03851104,-0.02296685,-0.00000691,0.2407925
 7,-0.64179737,-0.00008589,-0.28252124,0.75606018,-0.00000153,-0.000000
 83,0.00139352,0.00000071,0.00000021,-0.00059948,-0.00000030,0.00000033
 ,-0.00013535,0.00000006,-0.00000053,-0.00172137,0.00000086,0.00000116,
 0.00238330,0.00000454,-0.00000709,0.01990754,0.00004455,-0.00008996,-0
 .07359430,-0.00004837,0.00009820,0.03322040,-0.00618092,0.00594671,0.0
 0000039,-0.00317515,-0.00113290,-0.00000032,0.00039703,-0.00316177,-0.
 00000005,0.00269840,0.00083200,0.00000003,-0.00429245,-0.00402246,-0.0
 0000018,-0.03460268,-0.03964331,0.00000508,-0.19444089,-0.11052286,0.0
 0001708,0.03594256,-0.00154415,-0.00000110,0.68795691,0.00130420,0.005
 21737,0.00000032,-0.00170538,0.00233623,0.00000007,-0.00003642,-0.0029
 6185,-0.00000013,0.00335295,0.00211245,0.00000001,-0.00798363,-0.01561
 431,-0.00000111,-0.01773345,0.00126115,0.00000254,-0.06311306,-0.24900
 659,0.00000726,-0.02547012,-0.09572088,-0.00000025,0.02784436,0.413737
 19,0.00000108,-0.00000047,0.00157234,-0.00000011,0.00000017,0.00003762
 ,-0.00000003,0.00000010,0.00024069,0.00000003,-0.00000008,-0.00066635,
 0.00000068,0.00000039,0.00085112,0.00000123,0.00000276,0.00732260,0.00
 001914,0.00001947,-0.05933392,-0.00000207,-0.00000641,0.02647851,-0.00
 008460,-0.00000119,0.03915300,-0.01293702,-0.00355755,0.00000002,0.009
 46485,-0.00634074,-0.00000015,-0.00673664,0.01514138,0.00000064,-0.040
 22925,-0.06267539,-0.00000332,-0.16650788,-0.13176336,-0.00000689,0.02
 847013,0.00927968,0.00000068,-0.02043990,-0.01232385,0.00000094,0.0049
 4318,0.00404656,0.00000010,-0.00566380,0.01655699,0.00000053,0.6813065
 7,-0.00091358,-0.00343439,-0.00000020,0.00530995,-0.00819161,-0.000000
 26,0.00425082,0.01037538,0.00000019,-0.02850641,-0.01127032,-0.0000009
 7,-0.09155926,-0.33970688,-0.00001333,-0.00579937,-0.05282586,-0.00000
 280,-0.01900651,-0.00506344,0.00000110,0.00456283,0.00013832,-0.000000
 24,0.01099505,0.00690655,-0.00000115,0.10635079,0.45167303,-0.00000042
 ,-0.00000056,0.00852558,0.00000027,-0.00000034,-0.00150093,0.00000005,
 0.00000032,0.00473109,-0.00000149,-0.00000142,0.00572139,-0.00000553,-
 0.00001323,-0.04540890,0.00000064,-0.00000317,0.00680404,-0.00000080,0
 .00000010,-0.00216794,0.00000013,-0.00000025,-0.00014604,0.00000088,-0
 .00000028,0.00157399,0.00001289,0.00001908,0.03641093,-0.16806339,0.15
 463107,0.00000468,-0.01564623,0.02836587,0.00000096,-0.00496013,-0.003
 71356,-0.00000027,-0.00009812,-0.00048431,-0.00000001,-0.00236518,-0.0
 0294429,-0.00000031,0.01711655,-0.01337832,-0.00000014,0.00397990,-0.0
 1492422,-0.00000090,0.00108163,0.00926872,0.00000072,0.00043189,0.0059
 8959,-0.00000022,-0.00061691,-0.00225597,-0.00000008,0.16818363,0.1553
 8145,-0.31483728,-0.00001008,-0.00159602,0.01102471,0.00000040,-0.0026
 7907,0.00254117,-0.00000023,-0.00070595,-0.00018644,0.00000006,-0.0049
 2893,-0.00252348,-0.00000046,0.01315707,-0.02657278,-0.00000072,-0.001
 76016,-0.00209642,-0.00000018,0.00269352,0.00001526,0.00000008,0.00110
 866,-0.00022031,-0.00000014,0.00145665,0.00002031,0.00000002,-0.160634
 88,0.33116286,0.00000442,-0.00001021,-0.03131597,0.00000017,0.00000071
 ,0.00004205,-0.00000028,-0.00000004,0.00765895,-0.00000021,0.,-0.00134
 179,-0.00000003,-0.00000055,0.00557490,0.00000094,-0.00000099,0.000142
 88,-0.00000088,0.00000020,-0.00191962,0.00000008,-0.00000026,-0.002767
 49,0.00000027,-0.00000015,0.00039622,0.00000002,-0.00000003,0.00058822
 ,-0.00000451,0.00001102,0.02706618,-0.01858713,-0.03529569,-0.00000160
 ,-0.10636536,-0.10377509,-0.00000434,0.01322372,0.01542585,0.00000068,
 -0.00264174,0.00352066,0.00000011,-0.00025756,-0.00036913,-0.00000003,
 -0.00342994,0.00409867,0.00000002,0.00003274,-0.00150836,-0.00000015,0
 .00003253,0.00020051,0.00000005,-0.00058365,0.00009569,0.00000007,0.00
 042026,0.00021554,0.,0.00028204,-0.00101383,-0.00000002,0.11695108,0.0
 0260255,0.00567398,0.00000025,-0.11428310,-0.31406005,-0.00001169,-0.0
 1122549,-0.01177717,-0.00000078,0.00284876,-0.00244938,-0.00000031,0.0
 0120027,-0.00085893,0.,0.00203750,0.00269154,-0.00000015,-0.00060258,0
 .00041321,0.,0.00017044,-0.00026085,-0.00000003,0.00031049,0.00008953,
 -0.00000002,0.00001791,0.00056050,0.00000005,-0.00011528,0.00103022,0.
 00000018,0.11782466,0.31912505,0.00000012,-0.00000007,0.00027532,-0.00
 000479,-0.00001152,-0.03700919,-0.00000042,-0.00000056,0.00535038,0.,-
 0.00000030,0.00580999,0.00000004,0.00000014,-0.00033430,0.00000004,-0.
 00000027,0.00781089,0.00000002,-0.00000012,0.00178200,0.00000004,-0.00
 000002,-0.00008083,-0.00000011,0.00000003,-0.00036603,-0.00000007,-0.0
 0000002,-0.00066607,0.00000004,0.00000021,-0.00410089,0.00000513,0.000
 01238,0.02525580,0.00061138,0.00242313,0.00000007,-0.00904021,-0.00315
 498,-0.00000019,-0.35733845,-0.00871320,-0.00000208,-0.00719467,0.0009
 9592,-0.00000002,0.00081135,-0.00133787,-0.00000010,0.00081335,-0.0001
 3024,0.,-0.00042703,0.00006851,0.,0.00008418,-0.00012110,-0.00000001,0
 .00010837,0.00004693,0.,-0.00036410,0.00015900,0.,-0.00012467,-0.00033
 385,-0.00000002,0.00042747,0.00005365,0.00000002,0.37096318,0.00406044
 ,-0.00564768,-0.00000047,0.02697521,0.00660222,0.00000031,-0.00998377,
 -0.05925890,-0.00000087,-0.02859925,0.00378999,-0.00000016,-0.00118870
 ,-0.00478954,-0.00000057,-0.00091920,-0.00119768,-0.00000003,0.0003937
 9,-0.00030613,0.00000002,0.00005972,0.00038029,0.00000003,-0.00000687,
 0.00012800,0.,-0.00171632,0.00024193,0.,0.00100447,0.00052795,0.000000
 02,-0.00013886,0.00037825,0.00000014,0.01004912,0.05882126,0.,-0.00000
 063,0.00678443,0.00000120,0.00000010,0.00149474,-0.00000216,-0.0000008
 4,-0.03993311,-0.00000111,0.00000009,0.00464249,-0.00000023,-0.0000005
 6,0.00920193,0.,0.00000002,-0.00074462,-0.00000006,0.00000005,-0.00095
 274,0.,-0.00000002,0.00012131,-0.00000001,0.,-0.00003921,-0.00000002,0
 .00000004,-0.00029583,0.00000007,0.,0.00053199,0.,0.00000013,-0.002885
 41,0.00000229,0.00000137,0.02715181,-0.00092417,-0.00146067,-0.0000000
 7,-0.00121243,-0.00397118,-0.00000018,0.01307480,-0.01555883,-0.000000
 60,-0.13259034,0.12719139,0.00000484,-0.01090452,0.02851369,0.00000117
 ,-0.00541146,-0.00095031,-0.00000026,0.00068106,0.00143628,-0.00000005
 ,-0.00070708,0.00026495,0.00000013,0.00003075,-0.00033107,0.00000002,0
 .00220693,-0.00004244,0.00000005,-0.00009539,0.00008698,0.,0.00066957,
 -0.00071558,-0.00000002,0.00067564,0.00006347,0.,0.13447527,-0.0008170
 1,0.00082612,0.00000007,-0.00286751,-0.00310082,-0.00000052,0.01331708
 ,-0.01512152,-0.00000080,0.12824085,-0.27940577,-0.00000910,-0.0031026
 3,0.00627726,-0.00000004,-0.00106795,-0.00029751,-0.00000029,0.0001030
 4,0.00029281,0.,-0.00026712,0.00014959,0.00000005,-0.00015539,-0.00004
 094,0.00000003,-0.00001668,-0.00012398,0.00000011,0.00009421,-0.000083
 54,0.00000003,0.00075667,-0.00050756,0.00000002,0.00010635,0.00068187,
 0.00000021,-0.13441242,0.29038873,-0.00000014,0.00000004,-0.00105475,0
 .00000002,-0.00000063,0.00907508,0.00000059,-0.00000076,0.00569675,0.0
 0000480,-0.00000909,-0.04234838,-0.00000022,-0.00000012,0.00724506,-0.
 00000005,-0.00000006,0.00568146,-0.00000018,-0.00000002,-0.00136995,0.
 00000008,-0.00000005,0.00020323,0.00000002,0.00000002,0.00003357,0.000
 00005,0.00000022,-0.00269570,0.00000003,0.00000002,-0.00083390,0.00000
 004,0.,-0.00059457,0.00000003,0.00000022,-0.00464525,-0.00000504,0.000
 01021,0.02597109,-0.00076730,-0.00017720,0.00000016,0.00088046,-0.0006
 1531,-0.00000007,-0.00001674,0.00070870,0.00000005,-0.00049755,-0.0001
 5969,-0.00000011,0.00060756,-0.00004231,-0.00000020,0.00129326,-0.0025
 3131,0.00000142,-0.03070201,-0.00437406,0.00000274,0.00328128,0.007092
 47,-0.00000036,-0.46935056,0.06861599,0.00006332,0.00157329,-0.0002840
 6,0.00000013,-0.00050252,-0.00013730,0.00000007,-0.00006643,-0.0000301
 4,-0.00000005,-0.00002609,0.00000916,0.00000002,-0.00000564,0.00005653
 ,0.00000002,0.49643130,-0.00142075,0.00014754,-0.00000002,-0.00000682,
 -0.00045508,-0.00000008,0.00008043,-0.00003656,0.,0.00019819,0.0001828
 0,0.00000004,-0.00076746,-0.00147423,-0.00000012,-0.00229043,-0.004954
 26,0.00000033,-0.04842741,0.01302134,0.00000680,0.00674051,-0.00132428
 ,-0.00000132,0.11495553,-0.06865712,-0.00001367,0.00290425,-0.00080323
 ,-0.00000015,-0.00052996,0.00010635,0.00000006,-0.00011786,0.00001250,
 0.,-0.00000162,0.00001090,0.,-0.00002737,0.00002198,0.,-0.06993970,0.0
 6074220,0.00000023,-0.00000010,0.00091494,-0.00000029,0.00000018,-0.00
 028227,0.,-0.00000021,0.00010631,0.00000015,0.00000004,-0.00025050,-0.
 00000015,0.00000017,-0.00074061,-0.00000052,0.00000020,0.00487624,0.00
 000713,0.00000039,0.00306836,-0.00000135,-0.00000032,-0.00525407,0.000
 06186,-0.00000792,-0.01495049,-0.00000014,-0.00000013,0.00049005,0.000
 00005,0.,0.00029537,0.00000001,0.,-0.00018935,0.,0.,0.00007014,0.,0.,0
 .00004805,-0.00006727,0.00000779,0.01209274,0.00018892,0.00291984,0.00
 000007,-0.00205646,0.00200593,0.00000005,-0.00058143,-0.00297642,-0.00
 000014,0.00561968,0.00066205,0.00000009,-0.02341094,-0.01077570,-0.000
 00079,-0.00221527,0.00406206,0.00000003,0.01770380,0.01068346,-0.00000
 136,-0.00375076,-0.00525605,-0.00000006,-0.00927580,-0.00743357,0.0000
 0095,-0.47488973,0.01652362,-0.00000673,0.00139689,-0.00009434,-0.0000
 0002,-0.00010759,-0.00009406,0.00000002,0.00002031,-0.00006241,0.,0.00
 003701,0.00003198,-0.00000002,-0.00213229,-0.00134954,0.00000030,0.493
 45365,-0.00143654,-0.00102091,0.00000006,0.00178308,-0.00068747,-0.000
 00002,-0.00164071,0.00261516,0.00000007,-0.00312769,-0.00705964,-0.000
 00067,-0.04573770,-0.00084837,-0.00000031,0.00116946,0.00034604,-0.000
 00009,-0.00519901,-0.01098102,0.00000038,0.00088040,0.00347898,0.00000
 019,-0.00180310,0.00043355,0.00000024,0.06263967,-0.04849630,-0.000000
 29,-0.00037315,0.00009142,0.00000002,0.00008057,-0.00006082,-0.0000000
 2,-0.00010975,-0.00036272,0.00000003,-0.00008688,0.00004329,0.00000001
 ,0.00180821,0.00345918,-0.00000009,-0.00884687,0.05904963,-0.00000005,
 -0.00000004,-0.00082084,0.00000016,-0.00000013,0.00020984,-0.00000005,
 0.00000020,0.00147710,-0.00000030,-0.00000056,0.00467753,-0.00000192,0
 .00000084,-0.00415530,0.00000030,0.00000010,0.00023015,-0.00000179,-0.
 00000122,-0.00015353,0.00000045,0.00000066,0.00059111,0.00000078,0.000
 00078,-0.00230366,-0.00000527,-0.00000151,-0.01196390,-0.00000009,0.,-
 0.00001710,0.,0.,-0.00005775,0.,0.,-0.00050268,0.00000002,0.00000003,-
 0.00041179,0.00000012,0.00000034,-0.00029492,0.00000763,0.00000049,0.0
 1349574\\0.00005313,0.00001808,-0.00000171,-0.00000117,0.00000683,0.00
 000039,-0.00001937,-0.00000635,-0.00000009,-0.00001629,-0.00000233,0.0
 0000107,0.00005200,-0.00001737,-0.00000108,-0.00000310,-0.00001003,-0.
 00001015,0.00003005,0.00002097,0.00003678,-0.00002327,-0.00000401,-0.0
 0001428,-0.00002433,0.00000365,-0.00001111,0.00002086,-0.00001124,-0.0
 0000074,-0.00003099,0.00000713,0.00000050,-0.00000656,0.00000293,0.000
 00033,-0.00000057,-0.00000030,-0.00000009,0.00000532,0.00000167,-0.000
 00011,-0.00001929,-0.00000836,-0.00000070,-0.00001642,-0.00000126,0.00
 000100\\\@


 KNOWLEDGE IS OF TWO KINDS:  WE KNOW A SUBJECT OURSELVES OR WE KNOW 
 WHERE WE CAN FIND INFORMATION UPON IT.

                                    -- SAMUEL JOHNSON
 Job cpu time:       0 days  0 hours 18 minutes 52.9 seconds.
 File lengths (MBytes):  RWF=     85 Int=      0 D2E=      0 Chk=      5 Scr=      1
 Normal termination of Gaussian 09 at Wed Dec 18 00:26:04 2024.
