 Entering Gaussian System, Link 0=g09
 Input=camb3lypD33HPA2.gjf
 Output=camb3lypD33HPA2.log
 Initial command:
 /home/c612/g09E/g09/l1.exe "/mnt/ja_sm883/scratch/Gau-1464570.inp" -scrdir="/mnt/ja_sm883/scratch/"
 Default is to use a total of  18 processors:
                               18 via shared-memory
                                1 via Linda
 Entering Link 1 = /home/c612/g09E/g09/l1.exe PID=   1464572.
  
 Copyright (c) 1988,1990,1992,1993,1995,1998,2003,2009,2015,
            Gaussian, Inc.  All Rights Reserved.
  
 This is part of the Gaussian(R) 09 program.  It is based on
 the Gaussian(R) 03 system (copyright 2003, Gaussian, Inc.),
 the Gaussian(R) 98 system (copyright 1998, Gaussian, Inc.),
 the Gaussian(R) 94 system (copyright 1995, Gaussian, Inc.),
 the Gaussian 92(TM) system (copyright 1992, Gaussian, Inc.),
 the Gaussian 90(TM) system (copyright 1990, Gaussian, Inc.),
 the Gaussian 88(TM) system (copyright 1988, Gaussian, Inc.),
 the Gaussian 86(TM) system (copyright 1986, Carnegie Mellon
 University), and the Gaussian 82(TM) system (copyright 1983,
 Carnegie Mellon University). Gaussian is a federally registered
 trademark of Gaussian, Inc.
  
 This software contains proprietary and confidential information,
 including trade secrets, belonging to Gaussian, Inc.
  
 This software is provided under written license and may be
 used, copied, transmitted, or stored only in accord with that
 written license.
  
 The following legend is applicable only to US Government
 contracts under FAR:
  
                    RESTRICTED RIGHTS LEGEND
  
 Use, reproduction and disclosure by the US Government is
 subject to restrictions as set forth in subparagraphs (a)
 and (c) of the Commercial Computer Software - Restricted
 Rights clause in FAR 52.227-19.
  
 Gaussian, Inc.
 340 Quinnipiac St., Bldg. 40, Wallingford CT 06492
  
  
 ---------------------------------------------------------------
 Warning -- This program may not be used in any manner that
 competes with the business of Gaussian, Inc. or will provide
 assistance to any competitor of Gaussian, Inc.  The licensee
 of this program is prohibited from giving any competitor of
 Gaussian, Inc. access to this program.  By using this program,
 the user acknowledges that Gaussian, Inc. is engaged in the
 business of creating and licensing software in the field of
 computational chemistry and represents and warrants to the
 licensee that it is not a competitor of Gaussian, Inc. and that
 it will not use this program in any manner prohibited above.
 ---------------------------------------------------------------
  

 Cite this work as:
 Gaussian 09, Revision E.01,
 M. J. Frisch, G. W. Trucks, H. B. Schlegel, G. E. Scuseria, 
 M. A. Robb, J. R. Cheeseman, G. Scalmani, V. Barone, B. Mennucci, 
 G. A. Petersson, H. Nakatsuji, M. Caricato, X. Li, H. P. Hratchian, 
 A. F. Izmaylov, J. Bloino, G. Zheng, J. L. Sonnenberg, M. Hada, 
 M. Ehara, K. Toyota, R. Fukuda, J. Hasegawa, M. Ishida, T. Nakajima, 
 Y. Honda, O. Kitao, H. Nakai, T. Vreven, J. A. Montgomery, Jr., 
 J. E. Peralta, F. Ogliaro, M. Bearpark, J. J. Heyd, E. Brothers, 
 K. N. Kudin, V. N. Staroverov, T. Keith, R. Kobayashi, J. Normand, 
 K. Raghavachari, A. Rendell, J. C. Burant, S. S. Iyengar, J. Tomasi, 
 M. Cossi, N. Rega, J. M. Millam, M. Klene, J. E. Knox, J. B. Cross, 
 V. Bakken, C. Adamo, J. Jaramillo, R. Gomperts, R. E. Stratmann, 
 O. Yazyev, A. J. Austin, R. Cammi, C. Pomelli, J. W. Ochterski, 
 R. L. Martin, K. Morokuma, V. G. Zakrzewski, G. A. Voth, 
 P. Salvador, J. J. Dannenberg, S. Dapprich, A. D. Daniels, 
 O. Farkas, J. B. Foresman, J. V. Ortiz, J. Cioslowski, 
 and D. J. Fox, Gaussian, Inc., Wallingford CT, 2013.
 
 ******************************************
 Gaussian 09:  ES64L-G09RevE.01 30-Nov-2015
                17-Dec-2024 
 ******************************************
 %chk=camb3lypD33HPA2.chk
 --------------------------------------------------------
 # opt freq cam-b3lyp/6-31+g(d,p) empiricaldispersion=gd3
 --------------------------------------------------------
 1/14=-1,18=20,19=15,26=3,38=1/1,3;
 2/9=110,12=2,17=6,18=5,40=1/2;
 3/5=1,6=6,7=111,11=2,16=1,25=1,30=1,71=1,74=-40,124=31/1,2,3;
 4//1;
 5/5=2,38=5/2;
 6/7=2,8=2,9=2,10=2,28=1/1;
 7//1,2,3,16;
 1/14=-1,18=20,19=15,26=3/3(2);
 2/9=110/2;
 99//99;
 2/9=110/2;
 3/5=1,6=6,7=111,11=2,16=1,25=1,30=1,71=1,74=-40,124=31/1,2,3;
 4/5=5,16=3,69=1/1;
 5/5=2,38=5/2;
 7//1,2,3,16;
 1/14=-1,18=20,19=15,26=3/3(-5);
 2/9=110/2;
 6/7=2,8=2,9=2,10=2,19=2,28=1/1;
 99/9=1/99;
 ----------
 [No Title]
 ----------
 Symbolic Z-matrix:
 Charge =  1 Multiplicity = 1
 N                    -0.50626  -1.35033  -0.00004 
 C                    -1.83537  -1.42015  -0.00002 
 C                    -2.56483  -0.22804   0.00005 
 C                    -1.89785   0.98128   0.00009 
 C                    -0.48334   1.02407   0.00006 
 C                     0.20632  -0.19613  -0.00001 
 C                     1.67697  -0.42244  -0.00004 
 O                     2.15021  -1.53255  -0.00015 
 O                     2.36549   0.7265   -0.00002 
 O                     0.09018   2.21546   0.0001 
 H                     0.06858  -2.19871  -0.00009 
 H                    -2.28324  -2.40674  -0.00005 
 H                    -3.64836  -0.26734   0.00006 
 H                    -2.43581   1.92466   0.00014 
 H                     3.32208   0.54278  -0.00007 
 H                     1.06218   2.15085   0.00007 
 

 GradGradGradGradGradGradGradGradGradGradGradGradGradGradGradGradGradGrad
 Berny optimization.
 Initialization pass.
                           ----------------------------
                           !    Initial Parameters    !
                           ! (Angstroms and Degrees)  !
 --------------------------                            --------------------------
 ! Name  Definition              Value          Derivative Info.                !
 --------------------------------------------------------------------------------
 ! R1    R(1,2)                  1.3309         estimate D2E/DX2                !
 ! R2    R(1,6)                  1.3564         estimate D2E/DX2                !
 ! R3    R(1,11)                 1.0248         estimate D2E/DX2                !
 ! R4    R(2,3)                  1.3976         estimate D2E/DX2                !
 ! R5    R(2,12)                 1.0835         estimate D2E/DX2                !
 ! R6    R(3,4)                  1.3811         estimate D2E/DX2                !
 ! R7    R(3,13)                 1.0842         estimate D2E/DX2                !
 ! R8    R(4,5)                  1.4152         estimate D2E/DX2                !
 ! R9    R(4,14)                 1.086          estimate D2E/DX2                !
 ! R10   R(5,6)                  1.4016         estimate D2E/DX2                !
 ! R11   R(5,10)                 1.3223         estimate D2E/DX2                !
 ! R12   R(6,7)                  1.488          estimate D2E/DX2                !
 ! R13   R(7,8)                  1.2068         estimate D2E/DX2                !
 ! R14   R(7,9)                  1.3394         estimate D2E/DX2                !
 ! R15   R(9,15)                 0.9741         estimate D2E/DX2                !
 ! R16   R(10,16)                0.9742         estimate D2E/DX2                !
 ! A1    A(2,1,6)              124.6979         estimate D2E/DX2                !
 ! A2    A(2,1,11)             121.1133         estimate D2E/DX2                !
 ! A3    A(6,1,11)             114.1888         estimate D2E/DX2                !
 ! A4    A(1,2,3)              118.4556         estimate D2E/DX2                !
 ! A5    A(1,2,12)             117.4234         estimate D2E/DX2                !
 ! A6    A(3,2,12)             124.121          estimate D2E/DX2                !
 ! A7    A(2,3,4)              119.6591         estimate D2E/DX2                !
 ! A8    A(2,3,13)             119.3855         estimate D2E/DX2                !
 ! A9    A(4,3,13)             120.9554         estimate D2E/DX2                !
 ! A10   A(3,4,5)              120.6105         estimate D2E/DX2                !
 ! A11   A(3,4,14)             121.4279         estimate D2E/DX2                !
 ! A12   A(5,4,14)             117.9615         estimate D2E/DX2                !
 ! A13   A(4,5,6)              117.7429         estimate D2E/DX2                !
 ! A14   A(4,5,10)             117.4377         estimate D2E/DX2                !
 ! A15   A(6,5,10)             124.8194         estimate D2E/DX2                !
 ! A16   A(1,6,5)              118.834          estimate D2E/DX2                !
 ! A17   A(1,6,7)              112.9425         estimate D2E/DX2                !
 ! A18   A(5,6,7)              128.2235         estimate D2E/DX2                !
 ! A19   A(6,7,8)              121.8365         estimate D2E/DX2                !
 ! A20   A(6,7,9)              112.1846         estimate D2E/DX2                !
 ! A21   A(8,7,9)              125.9789         estimate D2E/DX2                !
 ! A22   A(7,9,15)             110.0612         estimate D2E/DX2                !
 ! A23   A(5,10,16)            111.902          estimate D2E/DX2                !
 ! D1    D(6,1,2,3)              0.0            estimate D2E/DX2                !
 ! D2    D(6,1,2,12)           180.0            estimate D2E/DX2                !
 ! D3    D(11,1,2,3)           179.9999         estimate D2E/DX2                !
 ! D4    D(11,1,2,12)           -0.0001         estimate D2E/DX2                !
 ! D5    D(2,1,6,5)              0.0            estimate D2E/DX2                !
 ! D6    D(2,1,6,7)            179.9998         estimate D2E/DX2                !
 ! D7    D(11,1,6,5)          -179.9998         estimate D2E/DX2                !
 ! D8    D(11,1,6,7)            -0.0001         estimate D2E/DX2                !
 ! D9    D(1,2,3,4)             -0.0001         estimate D2E/DX2                !
 ! D10   D(1,2,3,13)          -180.0            estimate D2E/DX2                !
 ! D11   D(12,2,3,4)           179.9999         estimate D2E/DX2                !
 ! D12   D(12,2,3,13)            0.0001         estimate D2E/DX2                !
 ! D13   D(2,3,4,5)              0.0001         estimate D2E/DX2                !
 ! D14   D(2,3,4,14)           179.9999         estimate D2E/DX2                !
 ! D15   D(13,3,4,5)           180.0            estimate D2E/DX2                !
 ! D16   D(13,3,4,14)           -0.0002         estimate D2E/DX2                !
 ! D17   D(3,4,5,6)             -0.0001         estimate D2E/DX2                !
 ! D18   D(3,4,5,10)           179.9997         estimate D2E/DX2                !
 ! D19   D(14,4,5,6)          -179.9999         estimate D2E/DX2                !
 ! D20   D(14,4,5,10)           -0.0001         estimate D2E/DX2                !
 ! D21   D(4,5,6,1)              0.0            estimate D2E/DX2                !
 ! D22   D(4,5,6,7)           -179.9997         estimate D2E/DX2                !
 ! D23   D(10,5,6,1)          -179.9998         estimate D2E/DX2                !
 ! D24   D(10,5,6,7)             0.0005         estimate D2E/DX2                !
 ! D25   D(4,5,10,16)         -179.9995         estimate D2E/DX2                !
 ! D26   D(6,5,10,16)            0.0003         estimate D2E/DX2                !
 ! D27   D(1,6,7,8)              0.0032         estimate D2E/DX2                !
 ! D28   D(1,6,7,9)            179.9992         estimate D2E/DX2                !
 ! D29   D(5,6,7,8)           -179.9971         estimate D2E/DX2                !
 ! D30   D(5,6,7,9)             -0.0011         estimate D2E/DX2                !
 ! D31   D(6,7,9,15)          -179.9979         estimate D2E/DX2                !
 ! D32   D(8,7,9,15)            -0.0021         estimate D2E/DX2                !
 --------------------------------------------------------------------------------
 Trust Radius=3.00D-01 FncErr=1.00D-07 GrdErr=1.00D-06
 Number of steps in this run=     81 maximum allowed number of steps=    100.
 GradGradGradGradGradGradGradGradGradGradGradGradGradGradGradGradGradGrad

                          Input orientation:                          
 ---------------------------------------------------------------------
 Center     Atomic      Atomic             Coordinates (Angstroms)
 Number     Number       Type             X           Y           Z
 ---------------------------------------------------------------------
      1          7           0       -0.506264   -1.350327   -0.000041
      2          6           0       -1.835367   -1.420151   -0.000019
      3          6           0       -2.564829   -0.228041    0.000045
      4          6           0       -1.897850    0.981282    0.000086
      5          6           0       -0.483339    1.024065    0.000061
      6          6           0        0.206322   -0.196131   -0.000005
      7          6           0        1.676970   -0.422436   -0.000037
      8          8           0        2.150208   -1.532553   -0.000146
      9          8           0        2.365485    0.726499   -0.000019
     10          8           0        0.090178    2.215464    0.000097
     11          1           0        0.068577   -2.198708   -0.000086
     12          1           0       -2.283240   -2.406742   -0.000053
     13          1           0       -3.648355   -0.267343    0.000064
     14          1           0       -2.435809    1.924655    0.000135
     15          1           0        3.322077    0.542782   -0.000074
     16          1           0        1.062184    2.150847    0.000068
 ---------------------------------------------------------------------
                    Distance matrix (angstroms):
                    1          2          3          4          5
     1  N    0.000000
     2  C    1.330936   0.000000
     3  C    2.344614   1.397584   0.000000
     4  C    2.715311   2.402246   1.381059   0.000000
     5  C    2.374503   2.793237   2.429068   1.415158   0.000000
     6  C    1.356447   2.380487   2.771335   2.411191   1.401610
     7  C    2.372234   3.651294   4.246251   3.840542   2.599865
     8  O    2.662715   3.987160   4.892170   4.765096   3.670404
     9  O    3.544030   4.717548   5.021866   4.270941   2.864323
    10  O    3.615330   4.114052   3.608293   2.339970   1.322253
    11  H    1.024789   2.056977   3.289127   3.738873   3.269691
    12  H    2.067282   1.083491   2.196823   3.409873   3.874284
    13  H    3.323491   2.148463   1.084239   2.150194   3.418342
    14  H    3.801138   3.398273   2.156559   1.085980   2.150163
    15  H    4.270838   5.518363   5.937157   5.238313   3.835730
    16  H    3.836437   4.598677   4.337549   3.182716   1.912663
                    6          7          8          9         10
     6  C    0.000000
     7  C    1.487958   0.000000
     8  O    2.358965   1.206778   0.000000
     9  O    2.348027   1.339442   2.269286   0.000000
    10  O    2.414390   3.078380   4.276839   2.719198   0.000000
    11  H    2.007309   2.396262   2.185624   3.719223   4.414225
    12  H    3.329372   4.429530   4.518813   5.606054   5.195950
    13  H    3.855335   5.327583   5.934989   6.095408   4.487868
    14  H    3.388007   4.735376   5.743156   4.948535   2.542672
    15  H    3.202175   1.907360   2.383336   0.974074   3.639098
    16  H    2.498160   2.645704   3.840733   1.930637   0.974151
                   11         12         13         14         15
    11  H    0.000000
    12  H    2.361000   0.000000
    13  H    4.188765   2.537827   0.000000
    14  H    4.824321   4.334083   2.505020   0.000000
    15  H    4.254530   6.333977   7.017352   5.921387   0.000000
    16  H    4.461601   5.653625   5.294981   3.505299   2.773624
                   16
    16  H    0.000000
 Stoichiometry    C6H6NO3(1+)
 Framework group  C1[X(C6H6NO3)]
 Deg. of freedom    42
 Full point group                 C1      NOp   1
 Largest Abelian subgroup         C1      NOp   1
 Largest concise Abelian subgroup C1      NOp   1
                         Standard orientation:                         
 ---------------------------------------------------------------------
 Center     Atomic      Atomic             Coordinates (Angstroms)
 Number     Number       Type             X           Y           Z
 ---------------------------------------------------------------------
      1          7           0       -0.506264   -1.350327   -0.000041
      2          6           0       -1.835367   -1.420151   -0.000019
      3          6           0       -2.564829   -0.228040    0.000045
      4          6           0       -1.897850    0.981283    0.000086
      5          6           0       -0.483339    1.024065    0.000061
      6          6           0        0.206322   -0.196131   -0.000005
      7          6           0        1.676970   -0.422437   -0.000037
      8          8           0        2.150208   -1.532554   -0.000146
      9          8           0        2.365485    0.726498   -0.000019
     10          8           0        0.090179    2.215464    0.000097
     11          1           0        0.068576   -2.198708   -0.000086
     12          1           0       -2.283241   -2.406741   -0.000053
     13          1           0       -3.648355   -0.267342    0.000064
     14          1           0       -2.435808    1.924656    0.000135
     15          1           0        3.322077    0.542781   -0.000074
     16          1           0        1.062185    2.150847    0.000068
 ---------------------------------------------------------------------
 Rotational constants (GHZ):      2.2876459      1.2515636      0.8089757
 Standard basis: 6-31+G(d,p) (6D, 7F)
 There are   220 symmetry adapted cartesian basis functions of A   symmetry.
 There are   220 symmetry adapted basis functions of A   symmetry.
   220 basis functions,   362 primitive gaussians,   220 cartesian basis functions
    36 alpha electrons       36 beta electrons
       nuclear repulsion energy       521.6884515608 Hartrees.
 NAtoms=   16 NActive=   16 NUniq=   16 SFac= 1.00D+00 NAtFMM=   60 NAOKFM=F Big=F
 Integral buffers will be    131072 words long.
 Raffenetti 2 integral format.
 Two-electron integral symmetry is turned on.
 Nuclear repulsion after empirical dispersion term =      521.6806663230 Hartrees.
 One-electron integrals computed using PRISM.
 NBasis=   220 RedAO= T EigKep=  4.76D-06  NBF=   220
 NBsUse=   220 1.00D-06 EigRej= -1.00D+00 NBFU=   220
 ExpMin= 4.38D-02 ExpMax= 5.48D+03 ExpMxC= 8.25D+02 IAcc=2 IRadAn=         4 AccDes= 0.00D+00
 Harris functional with IExCor=20419 and IRadAn=       4 diagonalized for initial guess.
 HarFok:  IExCor=20419 AccDes= 0.00D+00 IRadAn=         4 IDoV= 1 UseB2=F ITyADJ=14
 ICtDFT=  3500011 ScaDFX=  1.000000  1.000000  1.000000  1.000000
 FoFCou: FMM=F IPFlag=           0 FMFlag=      100000 FMFlg1=           0
         NFxFlg=           0 DoJE=T BraDBF=F KetDBF=T FulRan=T
         wScrn=  0.000000 ICntrl=     500 IOpCl=  0 I1Cent=   200000004 NGrid=           0
         NMat0=    1 NMatS0=      1 NMatT0=    0 NMatD0=    1 NMtDS0=    0 NMtDT0=    0
 Petite list used in FoFCou.
 Keep R1 ints in memory in canonical form, NReq=596566580.
 Requested convergence on RMS density matrix=1.00D-08 within 128 cycles.
 Requested convergence on MAX density matrix=1.00D-06.
 Requested convergence on             energy=1.00D-06.
 No special actions if energy rises.
 SCF Done:  E(RCAM-B3LYP) =  -512.264272438     A.U. after   15 cycles
            NFock= 15  Conv=0.63D-08     -V/T= 2.0089

 **********************************************************************

            Population analysis using the SCF density.

 **********************************************************************

 Orbital symmetries:
       Occupied  (A) (A) (A) (A) (A) (A) (A) (A) (A) (A) (A) (A)
                 (A) (A) (A) (A) (A) (A) (A) (A) (A) (A) (A) (A)
                 (A) (A) (A) (A) (A) (A) (A) (A) (A) (A) (A) (A)
       Virtual   (A) (A) (A) (A) (A) (A) (A) (A) (A) (A) (A) (A)
                 (A) (A) (A) (A) (A) (A) (A) (A) (A) (A) (A) (A)
                 (A) (A) (A) (A) (A) (A) (A) (A) (A) (A) (A) (A)
                 (A) (A) (A) (A) (A) (A) (A) (A) (A) (A) (A) (A)
                 (A) (A) (A) (A) (A) (A) (A) (A) (A) (A) (A) (A)
                 (A) (A) (A) (A) (A) (A) (A) (A) (A) (A) (A) (A)
                 (A) (A) (A) (A) (A) (A) (A) (A) (A) (A) (A) (A)
                 (A) (A) (A) (A) (A) (A) (A) (A) (A) (A) (A) (A)
                 (A) (A) (A) (A) (A) (A) (A) (A) (A) (A) (A) (A)
                 (A) (A) (A) (A) (A) (A) (A) (A) (A) (A) (A) (A)
                 (A) (A) (A) (A) (A) (A) (A) (A) (A) (A) (A) (A)
                 (A) (A) (A) (A) (A) (A) (A) (A) (A) (A) (A) (A)
                 (A) (A) (A) (A) (A) (A) (A) (A) (A) (A) (A) (A)
                 (A) (A) (A) (A) (A) (A) (A) (A) (A) (A) (A) (A)
                 (A) (A) (A) (A) (A) (A) (A) (A) (A) (A) (A) (A)
                 (A) (A) (A) (A)
 The electronic state is 1-A.
 Alpha  occ. eigenvalues --  -19.47480 -19.45002 -19.41420 -14.71127 -10.60487
 Alpha  occ. eigenvalues --  -10.55701 -10.53379 -10.53220 -10.48938 -10.48659
 Alpha  occ. eigenvalues --   -1.39331  -1.35165  -1.31215  -1.29030  -1.10756
 Alpha  occ. eigenvalues --   -1.08404  -0.97494  -0.94227  -0.91406  -0.85813
 Alpha  occ. eigenvalues --   -0.82729  -0.79110  -0.76954  -0.74878  -0.74605
 Alpha  occ. eigenvalues --   -0.74212  -0.69761  -0.68114  -0.67062  -0.66226
 Alpha  occ. eigenvalues --   -0.66003  -0.61401  -0.58443  -0.55479  -0.54995
 Alpha  occ. eigenvalues --   -0.50073
 Alpha virt. eigenvalues --   -0.23186  -0.17737  -0.11852  -0.10072  -0.09492
 Alpha virt. eigenvalues --   -0.08300  -0.07676  -0.06423  -0.06242  -0.05365
 Alpha virt. eigenvalues --   -0.03003  -0.02989  -0.01889  -0.01611  -0.00448
 Alpha virt. eigenvalues --    0.00471   0.01309   0.01742   0.01797   0.03110
 Alpha virt. eigenvalues --    0.03114   0.03546   0.05257   0.05600   0.05941
 Alpha virt. eigenvalues --    0.06339   0.08018   0.08149   0.08796   0.10323
 Alpha virt. eigenvalues --    0.10894   0.11031   0.11690   0.12052   0.12646
 Alpha virt. eigenvalues --    0.13566   0.14173   0.15056   0.15574   0.16928
 Alpha virt. eigenvalues --    0.17328   0.17754   0.17780   0.18753   0.19839
 Alpha virt. eigenvalues --    0.20093   0.21234   0.22711   0.23298   0.23628
 Alpha virt. eigenvalues --    0.25830   0.27550   0.27886   0.29145   0.30066
 Alpha virt. eigenvalues --    0.33908   0.38044   0.39916   0.46624   0.49592
 Alpha virt. eigenvalues --    0.52358   0.52648   0.56543   0.57332   0.58665
 Alpha virt. eigenvalues --    0.60032   0.61431   0.62950   0.63467   0.68215
 Alpha virt. eigenvalues --    0.68743   0.71374   0.75445   0.76416   0.79386
 Alpha virt. eigenvalues --    0.82882   0.83600   0.86724   0.89079   0.91678
 Alpha virt. eigenvalues --    0.92381   0.95969   0.97872   0.99901   1.00887
 Alpha virt. eigenvalues --    1.02718   1.03643   1.06419   1.07122   1.07860
 Alpha virt. eigenvalues --    1.08966   1.11444   1.12244   1.14511   1.17149
 Alpha virt. eigenvalues --    1.17702   1.19704   1.20280   1.23104   1.23981
 Alpha virt. eigenvalues --    1.25114   1.25782   1.26840   1.27912   1.28423
 Alpha virt. eigenvalues --    1.29853   1.34294   1.40868   1.44604   1.45505
 Alpha virt. eigenvalues --    1.48985   1.49556   1.60520   1.61701   1.63305
 Alpha virt. eigenvalues --    1.63925   1.66055   1.68907   1.72522   1.76316
 Alpha virt. eigenvalues --    1.79598   1.80439   1.81580   1.84003   1.86583
 Alpha virt. eigenvalues --    1.87158   1.90971   1.94817   1.95361   1.96620
 Alpha virt. eigenvalues --    1.98866   2.01194   2.11623   2.13175   2.16349
 Alpha virt. eigenvalues --    2.18040   2.22932   2.25011   2.25573   2.26701
 Alpha virt. eigenvalues --    2.28147   2.29007   2.34713   2.37661   2.41031
 Alpha virt. eigenvalues --    2.41239   2.42602   2.42833   2.46488   2.47026
 Alpha virt. eigenvalues --    2.48383   2.53490   2.55089   2.58374   2.63402
 Alpha virt. eigenvalues --    2.63666   2.65213   2.67558   2.70820   2.77234
 Alpha virt. eigenvalues --    2.85419   2.94054   2.98638   3.00965   3.07475
 Alpha virt. eigenvalues --    3.12269   3.15154   3.16209   3.25746   3.30710
 Alpha virt. eigenvalues --    3.36423   3.41650   3.49615   3.76870   4.07071
 Alpha virt. eigenvalues --    4.15131   4.20078   4.24052   4.28402   4.35177
 Alpha virt. eigenvalues --    4.42521   4.55374   4.78072   4.81678
          Condensed to atoms (all electrons):
               1          2          3          4          5          6
     1  N    6.648477   0.165120  -0.021007  -0.062819  -0.230209   0.419592
     2  C    0.165120   5.706201   0.147398   0.222336  -0.179025  -0.434237
     3  C   -0.021007   0.147398   5.125590  -0.244027   0.935637  -0.250279
     4  C   -0.062819   0.222336  -0.244027   7.291185  -2.371279   0.910908
     5  C   -0.230209  -0.179025   0.935637  -2.371279  12.236034  -3.739298
     6  C    0.419592  -0.434237  -0.250279   0.910908  -3.739298   9.006770
     7  C    0.006685   0.118983  -0.181425   0.231540  -1.469316   0.420346
     8  O    0.014147   0.046618  -0.011646   0.030895   0.023128  -0.340491
     9  O    0.018256   0.006378  -0.004257   0.023029  -0.053738  -0.015301
    10  O    0.014000   0.001240   0.026710  -0.341163   0.280049   0.023390
    11  H    0.304792  -0.045076   0.031688  -0.020250   0.090040  -0.029047
    12  H   -0.059208   0.372535  -0.021602   0.032877  -0.038189   0.032936
    13  H    0.002288   0.022369   0.306336   0.021322  -0.025565   0.009794
    14  H    0.003701  -0.014040   0.042976   0.227603   0.116409  -0.037680
    15  H   -0.001076  -0.001167   0.000633  -0.000175   0.007825   0.025110
    16  H   -0.000651  -0.002063  -0.004887   0.055131   0.022493  -0.087946
               7          8          9         10         11         12
     1  N    0.006685   0.014147   0.018256   0.014000   0.304792  -0.059208
     2  C    0.118983   0.046618   0.006378   0.001240  -0.045076   0.372535
     3  C   -0.181425  -0.011646  -0.004257   0.026710   0.031688  -0.021602
     4  C    0.231540   0.030895   0.023029  -0.341163  -0.020250   0.032877
     5  C   -1.469316   0.023128  -0.053738   0.280049   0.090040  -0.038189
     6  C    0.420346  -0.340491  -0.015301   0.023390  -0.029047   0.032936
     7  C    5.966586   0.529343   0.053077  -0.014995  -0.067917   0.012265
     8  O    0.529343   8.268200  -0.148849  -0.002372   0.027567   0.000055
     9  O    0.053077  -0.148849   8.451883  -0.003471   0.002469   0.000018
    10  O   -0.014995  -0.002372  -0.003471   8.325198  -0.000331   0.000116
    11  H   -0.067917   0.027567   0.002469  -0.000331   0.330355  -0.003794
    12  H    0.012265   0.000055   0.000018   0.000116  -0.003794   0.454204
    13  H    0.002023   0.000005   0.000000  -0.000424  -0.000112  -0.002609
    14  H   -0.001993  -0.000002   0.000160  -0.009345   0.000011  -0.000087
    15  H   -0.011857   0.004726   0.226046   0.001340  -0.000046  -0.000000
    16  H    0.021130   0.001375   0.026284   0.214945  -0.000017  -0.000000
              13         14         15         16
     1  N    0.002288   0.003701  -0.001076  -0.000651
     2  C    0.022369  -0.014040  -0.001167  -0.002063
     3  C    0.306336   0.042976   0.000633  -0.004887
     4  C    0.021322   0.227603  -0.000175   0.055131
     5  C   -0.025565   0.116409   0.007825   0.022493
     6  C    0.009794  -0.037680   0.025110  -0.087946
     7  C    0.002023  -0.001993  -0.011857   0.021130
     8  O    0.000005  -0.000002   0.004726   0.001375
     9  O    0.000000   0.000160   0.226046   0.026284
    10  O   -0.000424  -0.009345   0.001340   0.214945
    11  H   -0.000112   0.000011  -0.000046  -0.000017
    12  H   -0.002609  -0.000087  -0.000000  -0.000000
    13  H    0.455191  -0.003975   0.000000   0.000003
    14  H   -0.003975   0.460123  -0.000000   0.000021
    15  H    0.000000  -0.000000   0.297032   0.000703
    16  H    0.000003   0.000021   0.000703   0.319776
 Mulliken charges:
               1
     1  N   -0.222087
     2  C   -0.133571
     3  C    0.122161
     4  C   -0.007114
     5  C    0.395005
     6  C    0.085432
     7  C    0.385525
     8  O   -0.442701
     9  O   -0.581985
    10  O   -0.514889
    11  H    0.379666
    12  H    0.220483
    13  H    0.213351
    14  H    0.216116
    15  H    0.450905
    16  H    0.433703
 Sum of Mulliken charges =   1.00000
 Mulliken charges with hydrogens summed into heavy atoms:
               1
     1  N    0.157579
     2  C    0.086911
     3  C    0.335513
     4  C    0.209002
     5  C    0.395005
     6  C    0.085432
     7  C    0.385525
     8  O   -0.442701
     9  O   -0.131080
    10  O   -0.081185
 Electronic spatial extent (au):  <R**2>=           1309.4215
 Charge=              1.0000 electrons
 Dipole moment (field-independent basis, Debye):
    X=             -2.6617    Y=             -1.2453    Z=              0.0001  Tot=              2.9386
 Quadrupole moment (field-independent basis, Debye-Ang):
   XX=            -25.5447   YY=            -45.2091   ZZ=            -56.3692
   XY=              9.8032   XZ=             -0.0002   YZ=              0.0001
 Traceless Quadrupole moment (field-independent basis, Debye-Ang):
   XX=             16.8297   YY=             -2.8348   ZZ=            -13.9949
   XY=              9.8032   XZ=             -0.0002   YZ=              0.0001
 Octapole moment (field-independent basis, Debye-Ang**2):
  XXX=             10.0799  YYY=            -16.3830  ZZZ=             -0.0006  XYY=            -14.2071
  XXY=             17.2912  XXZ=              0.0005  XZZ=              8.5948  YZZ=              0.5084
  YYZ=             -0.0003  XYZ=             -0.0017
 Hexadecapole moment (field-independent basis, Debye-Ang**3):
 XXXX=           -655.7046 YYYY=           -498.0223 ZZZZ=            -54.1483 XXXY=             70.7722
 XXXZ=              0.0048 YYYX=             49.1647 YYYZ=             -0.0102 ZZZX=              0.0118
 ZZZY=             -0.0120 XXYY=           -225.8129 XXZZ=           -185.6058 YYZZ=           -105.2984
 XXYZ=             -0.0045 YYXZ=              0.0053 ZZXY=             -0.6934
 N-N= 5.216806663230D+02 E-N=-2.225466623115D+03  KE= 5.077234096275D+02
 Calling FoFJK, ICntrl=      2127 FMM=F ISym2X=0 I1Cent= 0 IOpClX= 0 NMat=1 NMatS=1 NMatT=0.
 ***** Axes restored to original set *****
 -------------------------------------------------------------------
 Center     Atomic                   Forces (Hartrees/Bohr)
 Number     Number              X              Y              Z
 -------------------------------------------------------------------
      1        7          -0.002413598    0.000211371    0.000000517
      2        6           0.002514111    0.001963750   -0.000000198
      3        6           0.002225302    0.001331706    0.000000332
      4        6           0.000418905   -0.003074815   -0.000000559
      5        6           0.000360988   -0.005560745   -0.000000583
      6        6          -0.004651571    0.003459271    0.000003490
      7        6           0.002091062   -0.002437722   -0.000010253
      8        8          -0.001934454    0.006459314    0.000004578
      9        8          -0.001081139   -0.003287016    0.000002607
     10        8           0.001135107   -0.000843918    0.000000074
     11        1          -0.000707764   -0.000348983   -0.000000332
     12        1           0.000110784    0.000523755   -0.000000009
     13        1           0.000669071    0.000065577   -0.000000066
     14        1           0.000605555   -0.000450832    0.000000088
     15        1           0.000846374    0.000542201    0.000000078
     16        1          -0.000188733    0.001447086    0.000000233
 -------------------------------------------------------------------
 Cartesian Forces:  Max     0.006459314 RMS     0.001892329

 GradGradGradGradGradGradGradGradGradGradGradGradGradGradGradGradGradGrad
 Berny optimization.
 FormGI is forming the generalized inverse of G from B-inverse, IUseBI=4.
 Internal  Forces:  Max     0.006700139 RMS     0.001490383
 Search for a local minimum.
 Step number   1 out of a maximum of   81
 All quantities printed in internal units (Hartrees-Bohrs-Radians)
 Mixed Optimization -- RFO/linear search
 Second derivative matrix not updated -- first step.
 ITU=  0
     Eigenvalues ---    0.00925   0.01482   0.01758   0.02012   0.02117
     Eigenvalues ---    0.02156   0.02205   0.02233   0.02339   0.02391
     Eigenvalues ---    0.02469   0.02493   0.02720   0.16000   0.16000
     Eigenvalues ---    0.16000   0.16000   0.16000   0.16000   0.22000
     Eigenvalues ---    0.22479   0.24466   0.25000   0.25000   0.25000
     Eigenvalues ---    0.25000   0.33674   0.35281   0.35487   0.35576
     Eigenvalues ---    0.41216   0.42750   0.43583   0.45716   0.47268
     Eigenvalues ---    0.52352   0.52538   0.52553   0.57330   0.57614
     Eigenvalues ---    0.61373   1.01490
 RFO step:  Lambda=-3.39683805D-04 EMin= 9.25237861D-03
 Linear search not attempted -- first point.
 Iteration  1 RMS(Cart)=  0.00778505 RMS(Int)=  0.00003341
 Iteration  2 RMS(Cart)=  0.00003364 RMS(Int)=  0.00000023
 Iteration  3 RMS(Cart)=  0.00000000 RMS(Int)=  0.00000023
 Variable       Old X    -DE/DX   Delta X   Delta X   Delta X     New X
                                 (Linear)    (Quad)   (Total)
    R1        2.51510  -0.00375   0.00000  -0.00623  -0.00623   2.50888
    R2        2.56331  -0.00049   0.00000  -0.00086  -0.00086   2.56245
    R3        1.93657  -0.00011   0.00000  -0.00025  -0.00025   1.93632
    R4        2.64105  -0.00242   0.00000  -0.00518  -0.00518   2.63587
    R5        2.04750  -0.00052   0.00000  -0.00147  -0.00147   2.04603
    R6        2.60982  -0.00397   0.00000  -0.00817  -0.00817   2.60166
    R7        2.04891  -0.00067   0.00000  -0.00189  -0.00189   2.04702
    R8        2.67426  -0.00280   0.00000  -0.00662  -0.00662   2.66764
    R9        2.05220  -0.00069   0.00000  -0.00196  -0.00196   2.05025
   R10        2.64866  -0.00632   0.00000  -0.01398  -0.01398   2.63468
   R11        2.49870   0.00095   0.00000   0.00155   0.00155   2.50025
   R12        2.81183  -0.00027   0.00000  -0.00080  -0.00080   2.81103
   R13        2.28048  -0.00670   0.00000  -0.00660  -0.00660   2.27388
   R14        2.53118  -0.00248   0.00000  -0.00432  -0.00432   2.52686
   R15        1.84073   0.00073   0.00000   0.00139   0.00139   1.84212
   R16        1.84088  -0.00028   0.00000  -0.00054  -0.00054   1.84034
    A1        2.17639  -0.00080   0.00000  -0.00318  -0.00318   2.17321
    A2        2.11383  -0.00036   0.00000  -0.00313  -0.00313   2.11069
    A3        1.99297   0.00116   0.00000   0.00631   0.00631   1.99928
    A4        2.06744   0.00002   0.00000   0.00055   0.00055   2.06799
    A5        2.04943   0.00011   0.00000   0.00047   0.00047   2.04989
    A6        2.16632  -0.00013   0.00000  -0.00102  -0.00102   2.16530
    A7        2.08845  -0.00017   0.00000  -0.00073  -0.00073   2.08771
    A8        2.08367   0.00013   0.00000   0.00064   0.00064   2.08431
    A9        2.11107   0.00004   0.00000   0.00010   0.00010   2.11117
   A10        2.10505   0.00033   0.00000   0.00117   0.00117   2.10622
   A11        2.11932   0.00014   0.00000   0.00135   0.00135   2.12067
   A12        2.05882  -0.00048   0.00000  -0.00253  -0.00253   2.05629
   A13        2.05500   0.00005   0.00000  -0.00010  -0.00010   2.05490
   A14        2.04967  -0.00060   0.00000  -0.00225  -0.00225   2.04742
   A15        2.17851   0.00055   0.00000   0.00236   0.00236   2.18087
   A16        2.07404   0.00056   0.00000   0.00229   0.00229   2.07633
   A17        1.97122   0.00144   0.00000   0.00571   0.00571   1.97693
   A18        2.23792  -0.00200   0.00000  -0.00800  -0.00800   2.22992
   A19        2.12645   0.00055   0.00000   0.00219   0.00219   2.12863
   A20        1.95799   0.00062   0.00000   0.00248   0.00248   1.96048
   A21        2.19875  -0.00117   0.00000  -0.00467  -0.00467   2.19408
   A22        1.92093   0.00127   0.00000   0.00794   0.00794   1.92887
   A23        1.95306   0.00263   0.00000   0.01643   0.01643   1.96949
    D1        0.00000  -0.00000   0.00000  -0.00000  -0.00000  -0.00000
    D2        3.14159  -0.00000   0.00000  -0.00000  -0.00000   3.14159
    D3        3.14159   0.00000   0.00000   0.00001   0.00001  -3.14159
    D4       -0.00000   0.00000   0.00000   0.00001   0.00001   0.00000
    D5        0.00000   0.00000   0.00000   0.00000   0.00000   0.00000
    D6        3.14159   0.00000   0.00000   0.00001   0.00001  -3.14159
    D7       -3.14159  -0.00000   0.00000  -0.00001  -0.00001   3.14159
    D8       -0.00000  -0.00000   0.00000   0.00000   0.00000  -0.00000
    D9       -0.00000   0.00000   0.00000   0.00000   0.00000   0.00000
   D10       -3.14159   0.00000   0.00000   0.00000   0.00000  -3.14159
   D11        3.14159   0.00000   0.00000   0.00000   0.00000  -3.14159
   D12        0.00000   0.00000   0.00000   0.00000   0.00000   0.00000
   D13        0.00000  -0.00000   0.00000  -0.00000  -0.00000  -0.00000
   D14        3.14159   0.00000   0.00000   0.00000   0.00000  -3.14159
   D15        3.14159   0.00000   0.00000   0.00000   0.00000   3.14159
   D16       -0.00000   0.00000   0.00000   0.00001   0.00001   0.00000
   D17       -0.00000   0.00000   0.00000   0.00000   0.00000   0.00000
   D18        3.14159   0.00000   0.00000   0.00001   0.00001  -3.14159
   D19       -3.14159  -0.00000   0.00000  -0.00000  -0.00000   3.14159
   D20       -0.00000   0.00000   0.00000   0.00000   0.00000   0.00000
   D21       -0.00000  -0.00000   0.00000   0.00000   0.00000  -0.00000
   D22       -3.14159  -0.00000   0.00000  -0.00001  -0.00001   3.14159
   D23       -3.14159  -0.00000   0.00000  -0.00001  -0.00001   3.14159
   D24        0.00001  -0.00000   0.00000  -0.00002  -0.00002  -0.00001
   D25       -3.14158  -0.00000   0.00000  -0.00001  -0.00001  -3.14159
   D26        0.00000  -0.00000   0.00000  -0.00000  -0.00000   0.00000
   D27        0.00006  -0.00000   0.00000  -0.00019  -0.00019  -0.00013
   D28        3.14158   0.00000   0.00000   0.00012   0.00012  -3.14149
   D29       -3.14154  -0.00000   0.00000  -0.00018  -0.00018   3.14146
   D30       -0.00002   0.00000   0.00000   0.00013   0.00013   0.00011
   D31       -3.14156  -0.00000   0.00000  -0.00016  -0.00016   3.14146
   D32       -0.00004   0.00000   0.00000   0.00016   0.00016   0.00012
         Item               Value     Threshold  Converged?
 Maximum Force            0.006700     0.000450     NO 
 RMS     Force            0.001490     0.000300     NO 
 Maximum Displacement     0.024486     0.001800     NO 
 RMS     Displacement     0.007786     0.001200     NO 
 Predicted change in Energy=-1.700123D-04
 GradGradGradGradGradGradGradGradGradGradGradGradGradGradGradGradGradGrad

                          Input orientation:                          
 ---------------------------------------------------------------------
 Center     Atomic      Atomic             Coordinates (Angstroms)
 Number     Number       Type             X           Y           Z
 ---------------------------------------------------------------------
      1          7           0       -0.510623   -1.354503   -0.000074
      2          6           0       -1.836681   -1.419328   -0.000015
      3          6           0       -2.561036   -0.227317    0.000074
      4          6           0       -1.891544    0.975673    0.000096
      5          6           0       -0.480427    1.014615    0.000031
      6          6           0        0.202254   -0.201022   -0.000056
      7          6           0        1.673650   -0.419536   -0.000142
      8          8           0        2.153740   -1.522899   -0.000082
      9          8           0        2.357813    0.729338    0.000006
     10          8           0        0.093914    2.206530    0.000060
     11          1           0        0.058385   -2.206648   -0.000145
     12          1           0       -2.288276   -2.403366   -0.000041
     13          1           0       -3.643702   -0.262554    0.000124
     14          1           0       -2.424105    1.920914    0.000165
     15          1           0        3.317039    0.555739    0.000062
     16          1           0        1.066546    2.157525    0.000011
 ---------------------------------------------------------------------
                    Distance matrix (angstroms):
                    1          2          3          4          5
     1  N    0.000000
     2  C    1.327641   0.000000
     3  C    2.339816   1.394841   0.000000
     4  C    2.708626   2.395629   1.376737   0.000000
     5  C    2.369310   2.786307   2.423083   1.411654   0.000000
     6  C    1.355992   2.375190   2.763415   2.401791   1.394212
     7  C    2.375965   3.649932   4.239046   3.828474   2.587824
     8  O    2.669680   3.991765   4.889545   4.754701   3.657570
     9  O    3.545465   4.712807   5.011014   4.256491   2.852541
    10  O    3.611983   4.107803   3.601718   2.336033   1.323075
    11  H    1.024658   2.052109   3.283157   3.732210   3.266015
    12  H    2.064017   1.082714   2.193077   3.402249   3.866641
    13  H    3.317911   2.145565   1.083239   2.145521   3.411373
    14  H    3.793385   3.391502   2.152591   1.084944   2.144589
    15  H    4.277853   5.519214   5.930004   5.225484   3.825090
    16  H    3.849909   4.606800   4.341293   3.185446   1.923374
                    6          7          8          9         10
     6  C    0.000000
     7  C    1.487532   0.000000
     8  O    2.357044   1.203286   0.000000
     9  O    2.347765   1.337158   2.261463   0.000000
    10  O    2.409988   3.064603   4.260461   2.703209   0.000000
    11  H    2.010780   2.408910   2.204093   3.729260   4.413322
    12  H    3.324615   4.430851   4.528436   5.603569   5.189024
    13  H    3.846448   5.319668   5.932858   6.082929   4.479525
    14  H    3.376444   4.719036   5.728570   4.928144   2.534166
    15  H    3.205397   1.910992   2.382017   0.974808   3.621277
    16  H    2.511920   2.647607   3.837645   1.925381   0.973866
                   11         12         13         14         15
    11  H    0.000000
    12  H    2.354893   0.000000
    13  H    4.181501   2.533822   0.000000
    14  H    4.816589   4.326413   2.500989   0.000000
    15  H    4.271956   6.338444   7.008674   5.901224   0.000000
    16  H    4.479107   5.661851   5.295584   3.498661   2.762325
                   16
    16  H    0.000000
 Stoichiometry    C6H6NO3(1+)
 Framework group  C1[X(C6H6NO3)]
 Deg. of freedom    42
 Full point group                 C1      NOp   1
 Largest Abelian subgroup         C1      NOp   1
 Largest concise Abelian subgroup C1      NOp   1
                         Standard orientation:                         
 ---------------------------------------------------------------------
 Center     Atomic      Atomic             Coordinates (Angstroms)
 Number     Number       Type             X           Y           Z
 ---------------------------------------------------------------------
      1          7           0       -0.517444   -1.350807   -0.000067
      2          6           0       -1.843816   -1.408843   -0.000008
      3          6           0       -2.562059   -0.213140    0.000082
      4          6           0       -1.886416    0.986407    0.000103
      5          6           0       -0.475119    1.018125    0.000038
      6          6           0        0.201330   -0.200991   -0.000049
      7          6           0        1.671587   -0.427036   -0.000135
      8          8           0        2.146023   -1.532842   -0.000074
      9          8           0        2.361624    0.718320    0.000013
     10          8           0        0.105316    2.207084    0.000067
     11          1           0        0.047195   -2.205855   -0.000137
     12          1           0       -2.300443   -2.390556   -0.000033
     13          1           0       -3.644891   -0.242833    0.000131
     14          1           0       -2.414132    1.934363    0.000173
     15          1           0        3.319948    0.539813    0.000070
     16          1           0        1.077685    2.153100    0.000018
 ---------------------------------------------------------------------
 Rotational constants (GHZ):      2.2999463      1.2548548      0.8118875
 Standard basis: 6-31+G(d,p) (6D, 7F)
 There are   220 symmetry adapted cartesian basis functions of A   symmetry.
 There are   220 symmetry adapted basis functions of A   symmetry.
   220 basis functions,   362 primitive gaussians,   220 cartesian basis functions
    36 alpha electrons       36 beta electrons
       nuclear repulsion energy       522.5983934783 Hartrees.
 NAtoms=   16 NActive=   16 NUniq=   16 SFac= 1.00D+00 NAtFMM=   60 NAOKFM=F Big=F
 Integral buffers will be    131072 words long.
 Raffenetti 2 integral format.
 Two-electron integral symmetry is turned on.
 Nuclear repulsion after empirical dispersion term =      522.5905944744 Hartrees.
 One-electron integrals computed using PRISM.
 NBasis=   220 RedAO= T EigKep=  4.67D-06  NBF=   220
 NBsUse=   220 1.00D-06 EigRej= -1.00D+00 NBFU=   220
 Initial guess from the checkpoint file:  "camb3lypD33HPA2.chk"
 B after Tr=    -0.000000   -0.000000   -0.000000
         Rot=    0.999997    0.000003    0.000000    0.002266 Ang=   0.26 deg.
 ExpMin= 4.38D-02 ExpMax= 5.48D+03 ExpMxC= 8.25D+02 IAcc=2 IRadAn=         4 AccDes= 0.00D+00
 Harris functional with IExCor=20419 and IRadAn=       4 diagonalized for initial guess.
 HarFok:  IExCor=20419 AccDes= 0.00D+00 IRadAn=         4 IDoV= 1 UseB2=F ITyADJ=14
 ICtDFT=  3500011 ScaDFX=  1.000000  1.000000  1.000000  1.000000
 FoFCou: FMM=F IPFlag=           0 FMFlag=      100000 FMFlg1=           0
         NFxFlg=           0 DoJE=T BraDBF=F KetDBF=T FulRan=T
         wScrn=  0.000000 ICntrl=     500 IOpCl=  0 I1Cent=   200000004 NGrid=           0
         NMat0=    1 NMatS0=      1 NMatT0=    0 NMatD0=    1 NMtDS0=    0 NMtDT0=    0
 Petite list used in FoFCou.
 Keep R1 ints in memory in canonical form, NReq=596566580.
 Requested convergence on RMS density matrix=1.00D-08 within 128 cycles.
 Requested convergence on MAX density matrix=1.00D-06.
 Requested convergence on             energy=1.00D-06.
 No special actions if energy rises.
 SCF Done:  E(RCAM-B3LYP) =  -512.264424236     A.U. after   12 cycles
            NFock= 12  Conv=0.38D-08     -V/T= 2.0088
 Calling FoFJK, ICntrl=      2127 FMM=F ISym2X=0 I1Cent= 0 IOpClX= 0 NMat=1 NMatS=1 NMatT=0.
 ***** Axes restored to original set *****
 -------------------------------------------------------------------
 Center     Atomic                   Forces (Hartrees/Bohr)
 Number     Number              X              Y              Z
 -------------------------------------------------------------------
      1        7           0.000447207   -0.000636388   -0.000001637
      2        6           0.000588836   -0.000229426    0.000000294
      3        6          -0.000548474    0.000365421   -0.000000131
      4        6          -0.000731128    0.000268868    0.000000998
      5        6           0.001466912   -0.000362673   -0.000000270
      6        6          -0.000445612    0.000578759   -0.000009607
      7        6           0.000894988   -0.000366169    0.000032932
      8        8          -0.000339905    0.000151256   -0.000012946
      9        8           0.000321278    0.000039937   -0.000009744
     10        8          -0.000497107    0.000592341   -0.000000699
     11        1          -0.000208745    0.000117822    0.000000716
     12        1          -0.000127107   -0.000036992    0.000000283
     13        1          -0.000046376   -0.000029739   -0.000000050
     14        1           0.000024153    0.000125442   -0.000000151
     15        1          -0.000261915   -0.000154538   -0.000000562
     16        1          -0.000537005   -0.000423922    0.000000575
 -------------------------------------------------------------------
 Cartesian Forces:  Max     0.001466912 RMS     0.000389847

 GradGradGradGradGradGradGradGradGradGradGradGradGradGradGradGradGradGrad
 Berny optimization.
 Using GEDIIS/GDIIS optimizer.
 FormGI is forming the generalized inverse of G from B-inverse, IUseBI=4.
 Internal  Forces:  Max     0.001012191 RMS     0.000316857
 Search for a local minimum.
 Step number   2 out of a maximum of   81
 All quantities printed in internal units (Hartrees-Bohrs-Radians)
 Mixed Optimization -- En-DIIS/RFO-DIIS
 Update second derivatives using D2CorX and points    1    2
 DE= -1.52D-04 DEPred=-1.70D-04 R= 8.93D-01
 TightC=F SS=  1.41D+00  RLast= 3.16D-02 DXNew= 5.0454D-01 9.4859D-02
 Trust test= 8.93D-01 RLast= 3.16D-02 DXMaxT set to 3.00D-01
 ITU=  1  0
 Use linear search instead of GDIIS.
     Eigenvalues ---    0.00925   0.01479   0.01760   0.02012   0.02117
     Eigenvalues ---    0.02157   0.02205   0.02233   0.02339   0.02391
     Eigenvalues ---    0.02469   0.02493   0.02720   0.15757   0.16000
     Eigenvalues ---    0.16000   0.16000   0.16000   0.16842   0.21802
     Eigenvalues ---    0.22433   0.23923   0.24506   0.25000   0.25000
     Eigenvalues ---    0.27018   0.33665   0.35313   0.35504   0.35610
     Eigenvalues ---    0.41944   0.42498   0.43540   0.46609   0.47830
     Eigenvalues ---    0.52255   0.52535   0.53469   0.57158   0.57696
     Eigenvalues ---    0.61655   0.99517
 RFO step:  Lambda=-1.87747913D-05 EMin= 9.25238004D-03
 Quartic linear search produced a step of -0.09704.
 Iteration  1 RMS(Cart)=  0.00401375 RMS(Int)=  0.00000586
 Iteration  2 RMS(Cart)=  0.00000778 RMS(Int)=  0.00000008
 Iteration  3 RMS(Cart)=  0.00000000 RMS(Int)=  0.00000008
 Variable       Old X    -DE/DX   Delta X   Delta X   Delta X     New X
                                 (Linear)    (Quad)   (Total)
    R1        2.50888   0.00008   0.00060  -0.00085  -0.00025   2.50863
    R2        2.56245   0.00028   0.00008   0.00033   0.00042   2.56287
    R3        1.93632  -0.00021   0.00002  -0.00048  -0.00046   1.93586
    R4        2.63587   0.00059   0.00050   0.00035   0.00085   2.63672
    R5        2.04603   0.00009   0.00014  -0.00001   0.00014   2.04617
    R6        2.60166   0.00004   0.00079  -0.00116  -0.00037   2.60129
    R7        2.04702   0.00005   0.00018  -0.00017   0.00002   2.04704
    R8        2.66764   0.00075   0.00064   0.00058   0.00122   2.66886
    R9        2.05025   0.00010   0.00019  -0.00005   0.00014   2.05039
   R10        2.63468   0.00032   0.00136  -0.00149  -0.00014   2.63454
   R11        2.50025  -0.00030  -0.00015  -0.00020  -0.00035   2.49990
   R12        2.81103   0.00066   0.00008   0.00164   0.00172   2.81274
   R13        2.27388  -0.00027   0.00064  -0.00125  -0.00061   2.27327
   R14        2.52686  -0.00007   0.00042  -0.00077  -0.00035   2.52651
   R15        1.84212  -0.00023  -0.00013  -0.00018  -0.00032   1.84180
   R16        1.84034  -0.00051   0.00005  -0.00097  -0.00091   1.83943
    A1        2.17321  -0.00003   0.00031  -0.00070  -0.00039   2.17282
    A2        2.11069  -0.00009   0.00030  -0.00097  -0.00067   2.11002
    A3        1.99928   0.00012  -0.00061   0.00167   0.00106   2.00034
    A4        2.06799   0.00027  -0.00005   0.00110   0.00105   2.06904
    A5        2.04989  -0.00003  -0.00005   0.00015   0.00010   2.04999
    A6        2.16530  -0.00024   0.00010  -0.00125  -0.00115   2.16415
    A7        2.08771  -0.00017   0.00007  -0.00082  -0.00075   2.08696
    A8        2.08431   0.00006  -0.00006   0.00030   0.00023   2.08454
    A9        2.11117   0.00011  -0.00001   0.00052   0.00051   2.11168
   A10        2.10622  -0.00007  -0.00011  -0.00003  -0.00014   2.10608
   A11        2.12067   0.00012  -0.00013   0.00080   0.00066   2.12134
   A12        2.05629  -0.00005   0.00025  -0.00077  -0.00052   2.05577
   A13        2.05490   0.00014   0.00001   0.00055   0.00056   2.05546
   A14        2.04742  -0.00091   0.00022  -0.00366  -0.00344   2.04398
   A15        2.18087   0.00077  -0.00023   0.00311   0.00288   2.18375
   A16        2.07633  -0.00013  -0.00022  -0.00011  -0.00033   2.07600
   A17        1.97693  -0.00089  -0.00055  -0.00232  -0.00288   1.97405
   A18        2.22992   0.00101   0.00078   0.00243   0.00321   2.23313
   A19        2.12863  -0.00060  -0.00021  -0.00183  -0.00204   2.12659
   A20        1.96048   0.00062  -0.00024   0.00264   0.00240   1.96287
   A21        2.19408  -0.00003   0.00045  -0.00081  -0.00035   2.19372
   A22        1.92887  -0.00037  -0.00077  -0.00086  -0.00163   1.92723
   A23        1.96949  -0.00083  -0.00159  -0.00216  -0.00375   1.96573
    D1       -0.00000   0.00000   0.00000   0.00001   0.00001   0.00001
    D2        3.14159   0.00000   0.00000   0.00001   0.00001  -3.14158
    D3       -3.14159  -0.00000  -0.00000  -0.00001  -0.00001   3.14158
    D4        0.00000  -0.00000  -0.00000  -0.00001  -0.00001  -0.00001
    D5        0.00000  -0.00000  -0.00000  -0.00001  -0.00001  -0.00001
    D6       -3.14159  -0.00000  -0.00000  -0.00001  -0.00002   3.14158
    D7        3.14159   0.00000   0.00000   0.00001   0.00001  -3.14159
    D8       -0.00000   0.00000  -0.00000   0.00001   0.00001   0.00000
    D9        0.00000  -0.00000  -0.00000  -0.00001  -0.00001  -0.00000
   D10       -3.14159  -0.00000  -0.00000  -0.00000  -0.00000   3.14159
   D11       -3.14159  -0.00000  -0.00000  -0.00001  -0.00001   3.14159
   D12        0.00000  -0.00000  -0.00000  -0.00001  -0.00001  -0.00000
   D13       -0.00000   0.00000   0.00000   0.00000   0.00000   0.00000
   D14       -3.14159  -0.00000  -0.00000  -0.00000  -0.00000  -3.14159
   D15        3.14159  -0.00000  -0.00000  -0.00000  -0.00000   3.14159
   D16        0.00000  -0.00000  -0.00000  -0.00000  -0.00000  -0.00000
   D17        0.00000  -0.00000  -0.00000  -0.00000  -0.00000  -0.00000
   D18       -3.14159   0.00000  -0.00000   0.00000   0.00000  -3.14159
   D19        3.14159   0.00000   0.00000   0.00000   0.00000   3.14159
   D20        0.00000   0.00000  -0.00000   0.00001   0.00001   0.00001
   D21       -0.00000   0.00000  -0.00000   0.00000   0.00000   0.00000
   D22        3.14159   0.00000   0.00000   0.00001   0.00001  -3.14158
   D23        3.14159   0.00000   0.00000  -0.00000  -0.00000   3.14159
   D24       -0.00001   0.00000   0.00000   0.00001   0.00001   0.00000
   D25       -3.14159  -0.00000   0.00000  -0.00002  -0.00002   3.14157
   D26        0.00000  -0.00000   0.00000  -0.00001  -0.00001  -0.00001
   D27       -0.00013   0.00001   0.00002   0.00049   0.00051   0.00037
   D28       -3.14149  -0.00001  -0.00001  -0.00044  -0.00045   3.14124
   D29        3.14146   0.00001   0.00002   0.00048   0.00050  -3.14122
   D30        0.00011  -0.00001  -0.00001  -0.00045  -0.00046  -0.00035
   D31        3.14146   0.00001   0.00002   0.00050   0.00052  -3.14120
   D32        0.00012  -0.00001  -0.00002  -0.00047  -0.00049  -0.00037
         Item               Value     Threshold  Converged?
 Maximum Force            0.001012     0.000450     NO 
 RMS     Force            0.000317     0.000300     NO 
 Maximum Displacement     0.017195     0.001800     NO 
 RMS     Displacement     0.004012     0.001200     NO 
 Predicted change in Energy=-1.117298D-05
 GradGradGradGradGradGradGradGradGradGradGradGradGradGradGradGradGradGrad

                          Input orientation:                          
 ---------------------------------------------------------------------
 Center     Atomic      Atomic             Coordinates (Angstroms)
 Number     Number       Type             X           Y           Z
 ---------------------------------------------------------------------
      1          7           0       -0.508845   -1.352961    0.000036
      2          6           0       -1.834731   -1.418621   -0.000034
      3          6           0       -2.561324   -0.227447   -0.000029
      4          6           0       -1.893052    0.975999    0.000052
      5          6           0       -0.481322    1.016084    0.000127
      6          6           0        0.202969   -0.198565    0.000119
      7          6           0        1.674854   -0.419946    0.000198
      8          8           0        2.150513   -1.524876   -0.000197
      9          8           0        2.363801    0.725849   -0.000154
     10          8           0        0.087888    2.210252    0.000208
     11          1           0        0.060000   -2.204924    0.000042
     12          1           0       -2.285833   -2.402965   -0.000089
     13          1           0       -3.643946   -0.264252   -0.000086
     14          1           0       -2.425908    1.921161    0.000059
     15          1           0        3.321824    0.546640   -0.000450
     16          1           0        1.060061    2.161736    0.000273
 ---------------------------------------------------------------------
                    Distance matrix (angstroms):
                    1          2          3          4          5
     1  N    0.000000
     2  C    1.327511   0.000000
     3  C    2.340823   1.395290   0.000000
     4  C    2.709259   2.395331   1.376543   0.000000
     5  C    2.369204   2.785589   2.423382   1.412300   0.000000
     6  C    1.356211   2.375028   2.764445   2.402688   1.394140
     7  C    2.374670   3.648910   4.240550   3.831269   2.590613
     8  O    2.664909   3.986660   4.887201   4.754450   3.658282
     9  O    3.545920   4.714491   5.016536   4.264197   2.859888
    10  O    3.612834   4.106724   3.600097   2.333989   1.322890
    11  H    1.024415   2.051409   3.283559   3.732652   3.266178
    12  H    2.064024   1.082786   2.192892   3.401717   3.866026
    13  H    3.318756   2.146119   1.083247   2.145659   3.411957
    14  H    3.794075   3.391701   2.152871   1.085019   2.144896
    15  H    4.275805   5.518361   5.933856   5.232522   3.832009
    16  H    3.848968   4.604213   4.338505   3.182271   1.920515
                    6          7          8          9         10
     6  C    0.000000
     7  C    1.488440   0.000000
     8  O    2.356273   1.202963   0.000000
     9  O    2.350263   1.336972   2.260809   0.000000
    10  O    2.411564   3.071873   4.266802   2.717210   0.000000
    11  H    2.011447   2.407053   2.198342   3.727859   4.415264
    12  H    3.324683   4.429380   4.522411   5.604336   5.188094
    13  H    3.847476   5.321078   5.930002   6.088787   4.477695
    14  H    3.377016   4.721973   5.728769   4.936606   2.530364
    15  H    3.206647   1.909659   2.379738   0.974640   3.636749
    16  H    2.511101   2.653875   3.844502   1.939461   0.973382
                   11         12         13         14         15
    11  H    0.000000
    12  H    2.354178   0.000000
    13  H    4.181557   2.533488   0.000000
    14  H    4.817086   4.326394   2.501929   0.000000
    15  H    4.267389   6.336086   7.012809   5.909799   0.000000
    16  H    4.479715   5.659638   5.292740   3.494260   2.779227
                   16
    16  H    0.000000
 Stoichiometry    C6H6NO3(1+)
 Framework group  C1[X(C6H6NO3)]
 Deg. of freedom    42
 Full point group                 C1      NOp   1
 Largest Abelian subgroup         C1      NOp   1
 Largest concise Abelian subgroup C1      NOp   1
                         Standard orientation:                         
 ---------------------------------------------------------------------
 Center     Atomic      Atomic             Coordinates (Angstroms)
 Number     Number       Type             X           Y           Z
 ---------------------------------------------------------------------
      1          7           0       -0.512246   -1.350804    0.000016
      2          6           0       -1.838302   -1.412943   -0.000054
      3          6           0       -2.561729   -0.219843   -0.000049
      4          6           0       -1.890263    0.981824    0.000032
      5          6           0       -0.478431    1.018159    0.000107
      6          6           0        0.202632   -0.198303    0.000099
      7          6           0        1.673923   -0.423592    0.000178
      8          8           0        2.146646   -1.529781   -0.000217
      9          8           0        2.365911    0.720370   -0.000174
     10          8           0        0.093948    2.210811    0.000188
     11          1           0        0.054334   -2.204275    0.000022
     12          1           0       -2.292017   -2.396085   -0.000108
     13          1           0       -3.644444   -0.253773   -0.000106
     14          1           0       -2.420607    1.928398    0.000039
     15          1           0        3.323454    0.538618   -0.000470
     16          1           0        1.065988    2.159714    0.000253
 ---------------------------------------------------------------------
 Rotational constants (GHZ):      2.2977696      1.2539446      0.8112353
 Standard basis: 6-31+G(d,p) (6D, 7F)
 There are   220 symmetry adapted cartesian basis functions of A   symmetry.
 There are   220 symmetry adapted basis functions of A   symmetry.
   220 basis functions,   362 primitive gaussians,   220 cartesian basis functions
    36 alpha electrons       36 beta electrons
       nuclear repulsion energy       522.4585778188 Hartrees.
 NAtoms=   16 NActive=   16 NUniq=   16 SFac= 1.00D+00 NAtFMM=   60 NAOKFM=F Big=F
 Integral buffers will be    131072 words long.
 Raffenetti 2 integral format.
 Two-electron integral symmetry is turned on.
 Nuclear repulsion after empirical dispersion term =      522.4507817413 Hartrees.
 One-electron integrals computed using PRISM.
 NBasis=   220 RedAO= T EigKep=  4.66D-06  NBF=   220
 NBsUse=   220 1.00D-06 EigRej= -1.00D+00 NBFU=   220
 Initial guess from the checkpoint file:  "camb3lypD33HPA2.chk"
 B after Tr=     0.000000   -0.000000   -0.000000
         Rot=    0.999999   -0.000006    0.000000   -0.001186 Ang=  -0.14 deg.
 Keep R1 ints in memory in canonical form, NReq=596566580.
 Requested convergence on RMS density matrix=1.00D-08 within 128 cycles.
 Requested convergence on MAX density matrix=1.00D-06.
 Requested convergence on             energy=1.00D-06.
 No special actions if energy rises.
 SCF Done:  E(RCAM-B3LYP) =  -512.264431796     A.U. after   11 cycles
            NFock= 11  Conv=0.26D-08     -V/T= 2.0088
 Calling FoFJK, ICntrl=      2127 FMM=F ISym2X=0 I1Cent= 0 IOpClX= 0 NMat=1 NMatS=1 NMatT=0.
 ***** Axes restored to original set *****
 -------------------------------------------------------------------
 Center     Atomic                   Forces (Hartrees/Bohr)
 Number     Number              X              Y              Z
 -------------------------------------------------------------------
      1        7          -0.000221911   -0.000241395    0.000004453
      2        6           0.000219906   -0.000189209   -0.000000978
      3        6          -0.000275823    0.000145578    0.000000249
      4        6          -0.000383266    0.000003503   -0.000002802
      5        6           0.000221119   -0.000514765    0.000002094
      6        6           0.000066561    0.000520661    0.000028212
      7        6           0.000452543    0.000396949   -0.000099510
      8        8           0.000034564   -0.000499896    0.000038708
      9        8          -0.000510474    0.000166049    0.000030090
     10        8           0.000419375    0.000167134    0.000002037
     11        1           0.000046710    0.000047001   -0.000001665
     12        1          -0.000060263   -0.000027784   -0.000000797
     13        1          -0.000031921   -0.000049554    0.000000185
     14        1           0.000041203    0.000068244    0.000000344
     15        1          -0.000073191   -0.000038243    0.000001726
     16        1           0.000054870    0.000045726   -0.000002347
 -------------------------------------------------------------------
 Cartesian Forces:  Max     0.000520661 RMS     0.000212836

 GradGradGradGradGradGradGradGradGradGradGradGradGradGradGradGradGradGrad
 Berny optimization.
 Using GEDIIS/GDIIS optimizer.
 FormGI is forming the generalized inverse of G from B-inverse, IUseBI=4.
 Internal  Forces:  Max     0.000760314 RMS     0.000200593
 Search for a local minimum.
 Step number   3 out of a maximum of   81
 All quantities printed in internal units (Hartrees-Bohrs-Radians)
 Mixed Optimization -- En-DIIS/RFO-DIIS
 Swapping is turned off.
 Update second derivatives using D2CorX and points    1    2    3
 DE= -7.56D-06 DEPred=-1.12D-05 R= 6.77D-01
 TightC=F SS=  1.41D+00  RLast= 8.97D-03 DXNew= 5.0454D-01 2.6907D-02
 Trust test= 6.77D-01 RLast= 8.97D-03 DXMaxT set to 3.00D-01
 ITU=  1  1  0
     Eigenvalues ---    0.00925   0.01486   0.01759   0.02012   0.02118
     Eigenvalues ---    0.02157   0.02205   0.02233   0.02339   0.02391
     Eigenvalues ---    0.02469   0.02493   0.02720   0.15032   0.16000
     Eigenvalues ---    0.16000   0.16000   0.16081   0.16505   0.20840
     Eigenvalues ---    0.22356   0.23862   0.24509   0.25000   0.25302
     Eigenvalues ---    0.33027   0.34814   0.35296   0.35502   0.35619
     Eigenvalues ---    0.41469   0.43398   0.45474   0.46307   0.49585
     Eigenvalues ---    0.52326   0.52582   0.54120   0.57385   0.57707
     Eigenvalues ---    0.65419   1.02955
 En-DIIS/RFO-DIIS IScMMF=        0 using points:     3    2
 RFO step:  Lambda=-3.86374375D-06.
 DidBck=T Rises=F RFO-DIIS coefs:    0.75100    0.24900
 Iteration  1 RMS(Cart)=  0.00160948 RMS(Int)=  0.00000119
 Iteration  2 RMS(Cart)=  0.00000163 RMS(Int)=  0.00000024
 Iteration  3 RMS(Cart)=  0.00000000 RMS(Int)=  0.00000024
 Variable       Old X    -DE/DX   Delta X   Delta X   Delta X     New X
                                 (Linear)    (Quad)   (Total)
    R1        2.50863   0.00006   0.00006  -0.00001   0.00005   2.50868
    R2        2.56287   0.00026  -0.00010   0.00051   0.00040   2.56327
    R3        1.93586  -0.00001   0.00011  -0.00022  -0.00010   1.93576
    R4        2.63672   0.00034  -0.00021   0.00093   0.00072   2.63743
    R5        2.04617   0.00005  -0.00003   0.00016   0.00013   2.04630
    R6        2.60129   0.00018   0.00009   0.00014   0.00023   2.60152
    R7        2.04704   0.00003  -0.00000   0.00008   0.00007   2.04711
    R8        2.66886   0.00043  -0.00030   0.00124   0.00094   2.66980
    R9        2.05039   0.00004  -0.00004   0.00014   0.00011   2.05050
   R10        2.63454  -0.00047   0.00003  -0.00082  -0.00079   2.63376
   R11        2.49990   0.00040   0.00009   0.00031   0.00040   2.50030
   R12        2.81274  -0.00010  -0.00043   0.00052   0.00009   2.81284
   R13        2.27327   0.00047   0.00015   0.00009   0.00024   2.27351
   R14        2.52651  -0.00019   0.00009  -0.00039  -0.00030   2.52621
   R15        1.84180  -0.00006   0.00008  -0.00023  -0.00015   1.84165
   R16        1.83943   0.00005   0.00023  -0.00032  -0.00009   1.83934
    A1        2.17282  -0.00005   0.00010  -0.00034  -0.00024   2.17258
    A2        2.11002   0.00008   0.00017   0.00009   0.00026   2.11028
    A3        2.00034  -0.00004  -0.00026   0.00025  -0.00002   2.00032
    A4        2.06904   0.00002  -0.00026   0.00058   0.00032   2.06936
    A5        2.04999   0.00004  -0.00003   0.00018   0.00015   2.05015
    A6        2.16415  -0.00005   0.00029  -0.00076  -0.00048   2.16367
    A7        2.08696  -0.00009   0.00019  -0.00048  -0.00030   2.08667
    A8        2.08454  -0.00000  -0.00006  -0.00004  -0.00010   2.08444
    A9        2.11168   0.00009  -0.00013   0.00052   0.00039   2.11207
   A10        2.10608  -0.00008   0.00003  -0.00027  -0.00024   2.10585
   A11        2.12134   0.00011  -0.00017   0.00071   0.00055   2.12188
   A12        2.05577  -0.00003   0.00013  -0.00044  -0.00031   2.05546
   A13        2.05546   0.00009  -0.00014   0.00044   0.00030   2.05576
   A14        2.04398   0.00033   0.00086  -0.00047   0.00038   2.04437
   A15        2.18375  -0.00042  -0.00072   0.00003  -0.00069   2.18306
   A16        2.07600   0.00010   0.00008   0.00006   0.00015   2.07615
   A17        1.97405   0.00043   0.00072   0.00006   0.00077   1.97483
   A18        2.23313  -0.00054  -0.00080  -0.00012  -0.00092   2.23221
   A19        2.12659   0.00019   0.00051  -0.00032   0.00018   2.12678
   A20        1.96287  -0.00076  -0.00060  -0.00118  -0.00178   1.96109
   A21        2.19372   0.00057   0.00009   0.00150   0.00159   2.19531
   A22        1.92723  -0.00010   0.00041  -0.00115  -0.00074   1.92650
   A23        1.96573   0.00009   0.00093  -0.00123  -0.00030   1.96544
    D1        0.00001  -0.00000  -0.00000  -0.00002  -0.00002  -0.00001
    D2       -3.14158  -0.00000  -0.00000  -0.00002  -0.00003   3.14158
    D3        3.14158   0.00000   0.00000   0.00002   0.00002  -3.14158
    D4       -0.00001   0.00000   0.00000   0.00001   0.00002   0.00001
    D5       -0.00001   0.00000   0.00000   0.00002   0.00002   0.00001
    D6        3.14158   0.00000   0.00000   0.00003   0.00003  -3.14157
    D7       -3.14159  -0.00000  -0.00000  -0.00002  -0.00002   3.14158
    D8        0.00000  -0.00000  -0.00000  -0.00001  -0.00001  -0.00001
    D9       -0.00000   0.00000   0.00000   0.00001   0.00001   0.00001
   D10        3.14159   0.00000   0.00000   0.00000   0.00000  -3.14159
   D11        3.14159   0.00000   0.00000   0.00002   0.00002  -3.14158
   D12       -0.00000   0.00000   0.00000   0.00001   0.00001   0.00001
   D13        0.00000  -0.00000  -0.00000  -0.00001  -0.00001  -0.00000
   D14       -3.14159  -0.00000   0.00000  -0.00000  -0.00000   3.14159
   D15        3.14159   0.00000   0.00000   0.00000   0.00000  -3.14159
   D16       -0.00000   0.00000   0.00000   0.00000   0.00000   0.00000
   D17       -0.00000   0.00000   0.00000   0.00001   0.00001   0.00001
   D18       -3.14159  -0.00000  -0.00000  -0.00002  -0.00002   3.14158
   D19        3.14159   0.00000  -0.00000   0.00000   0.00000  -3.14159
   D20        0.00001  -0.00000  -0.00000  -0.00002  -0.00002  -0.00002
   D21        0.00000  -0.00000  -0.00000  -0.00001  -0.00001  -0.00001
   D22       -3.14158  -0.00000  -0.00000  -0.00002  -0.00002   3.14158
   D23        3.14159   0.00000   0.00000   0.00002   0.00002  -3.14158
   D24        0.00000   0.00000  -0.00000   0.00001   0.00001   0.00001
   D25        3.14157   0.00000   0.00000   0.00006   0.00007  -3.14155
   D26       -0.00001   0.00000   0.00000   0.00003   0.00003   0.00002
   D27        0.00037  -0.00002  -0.00013  -0.00100  -0.00113  -0.00076
   D28        3.14124   0.00002   0.00011   0.00098   0.00109  -3.14085
   D29       -3.14122  -0.00002  -0.00012  -0.00099  -0.00112   3.14084
   D30       -0.00035   0.00002   0.00012   0.00099   0.00110   0.00075
   D31       -3.14120  -0.00003  -0.00013  -0.00107  -0.00120   3.14078
   D32       -0.00037   0.00002   0.00012   0.00100   0.00112   0.00076
         Item               Value     Threshold  Converged?
 Maximum Force            0.000760     0.000450     NO 
 RMS     Force            0.000201     0.000300     YES
 Maximum Displacement     0.006108     0.001800     NO 
 RMS     Displacement     0.001610     0.001200     NO 
 Predicted change in Energy=-2.760464D-06
 GradGradGradGradGradGradGradGradGradGradGradGradGradGradGradGradGradGrad

                          Input orientation:                          
 ---------------------------------------------------------------------
 Center     Atomic      Atomic             Coordinates (Angstroms)
 Number     Number       Type             X           Y           Z
 ---------------------------------------------------------------------
      1          7           0       -0.509084   -1.353681   -0.000222
      2          6           0       -1.835023   -1.418772    0.000012
      3          6           0       -2.561685   -0.227196    0.000215
      4          6           0       -1.892865    0.976088    0.000160
      5          6           0       -0.480614    1.015278   -0.000094
      6          6           0        0.203063   -0.199239   -0.000292
      7          6           0        1.675126   -0.419768   -0.000593
      8          8           0        2.151683   -1.524448    0.000020
      9          8           0        2.361285    0.727514    0.000258
     10          8           0        0.089913    2.209054   -0.000151
     11          1           0        0.059581   -2.205699   -0.000390
     12          1           0       -2.286729   -2.402913    0.000028
     13          1           0       -3.644346   -0.263989    0.000410
     14          1           0       -2.424848    1.921807    0.000311
     15          1           0        3.319520    0.549873    0.000776
     16          1           0        1.061973    2.159253   -0.000372
 ---------------------------------------------------------------------
                    Distance matrix (angstroms):
                    1          2          3          4          5
     1  N    0.000000
     2  C    1.327535   0.000000
     3  C    2.341397   1.395669   0.000000
     4  C    2.709737   2.395558   1.376667   0.000000
     5  C    2.369130   2.785502   2.423757   1.412795   0.000000
     6  C    1.356425   2.375090   2.764889   2.402979   1.393724
     7  C    2.375493   3.649542   4.241186   3.831315   2.589705
     8  O    2.666241   3.988106   4.888630   4.755108   3.657758
     9  O    3.545475   4.713337   5.014689   4.261407   2.856432
    10  O    3.612738   4.106884   3.600872   2.334869   1.323103
    11  H    1.024361   2.051531   3.284130   3.733070   3.265961
    12  H    2.064197   1.082854   2.193023   3.401879   3.866017
    13  H    3.319232   2.146433   1.083286   2.146037   3.412583
    14  H    3.794598   3.392250   2.153355   1.085076   2.145190
    15  H    4.275714   5.517688   5.932319   5.229782   3.828528
    16  H    3.848237   4.603786   4.338898   3.182915   1.920483
                    6          7          8          9         10
     6  C    0.000000
     7  C    1.488490   0.000000
     8  O    2.356544   1.203089   0.000000
     9  O    2.348786   1.336814   2.261695   0.000000
    10  O    2.410950   3.069789   4.264965   2.711843   0.000000
    11  H    2.011583   2.408222   2.200226   3.728482   4.414856
    12  H    3.324942   4.430481   4.524511   5.603892   5.188320
    13  H    3.847954   5.321753   5.931502   6.086928   4.478909
    14  H    3.377092   4.721521   5.728988   4.932890   2.531113
    15  H    3.205227   1.908989   2.380473   0.974562   3.630874
    16  H    2.510023   2.650907   3.841500   1.933414   0.973335
                   11         12         13         14         15
    11  H    0.000000
    12  H    2.354583   0.000000
    13  H    4.182023   2.533402   0.000000
    14  H    4.817540   4.326926   2.502974   0.000000
    15  H    4.268534   6.336322   7.011263   5.905927   0.000000
    16  H    4.478571   5.659255   5.293538   3.494897   2.772476
                   16
    16  H    0.000000
 Stoichiometry    C6H6NO3(1+)
 Framework group  C1[X(C6H6NO3)]
 Deg. of freedom    42
 Full point group                 C1      NOp   1
 Largest Abelian subgroup         C1      NOp   1
 Largest concise Abelian subgroup C1      NOp   1
                         Standard orientation:                         
 ---------------------------------------------------------------------
 Center     Atomic      Atomic             Coordinates (Angstroms)
 Number     Number       Type             X           Y           Z
 ---------------------------------------------------------------------
      1          7           0       -0.513533   -1.351109   -0.000176
      2          6           0       -1.839683   -1.411738    0.000057
      3          6           0       -2.562331   -0.217723    0.000261
      4          6           0       -1.889466    0.983303    0.000206
      5          6           0       -0.477091    1.017741   -0.000049
      6          6           0        0.202495   -0.199071   -0.000247
      7          6           0        1.673808   -0.424552   -0.000547
      8          8           0        2.146645   -1.530829    0.000066
      9          8           0        2.363824    0.720414    0.000304
     10          8           0        0.097450    2.209589   -0.000106
     11          1           0        0.052262   -2.205036   -0.000345
     12          1           0       -2.294698   -2.394354    0.000073
     13          1           0       -3.645110   -0.250873    0.000455
     14          1           0       -2.418263    1.930807    0.000356
     15          1           0        3.321456    0.539550    0.000821
     16          1           0        1.069337    2.156518   -0.000327
 ---------------------------------------------------------------------
 Rotational constants (GHZ):      2.2982550      1.2542189      0.8114106
 Standard basis: 6-31+G(d,p) (6D, 7F)
 There are   220 symmetry adapted cartesian basis functions of A   symmetry.
 There are   220 symmetry adapted basis functions of A   symmetry.
   220 basis functions,   362 primitive gaussians,   220 cartesian basis functions
    36 alpha electrons       36 beta electrons
       nuclear repulsion energy       522.4852453146 Hartrees.
 NAtoms=   16 NActive=   16 NUniq=   16 SFac= 1.00D+00 NAtFMM=   60 NAOKFM=F Big=F
 Integral buffers will be    131072 words long.
 Raffenetti 2 integral format.
 Two-electron integral symmetry is turned on.
 Nuclear repulsion after empirical dispersion term =      522.4774482176 Hartrees.
 One-electron integrals computed using PRISM.
 NBasis=   220 RedAO= T EigKep=  4.66D-06  NBF=   220
 NBsUse=   220 1.00D-06 EigRej= -1.00D+00 NBFU=   220
 Initial guess from the checkpoint file:  "camb3lypD33HPA2.chk"
 B after Tr=     0.000000    0.000000    0.000000
         Rot=    1.000000    0.000012   -0.000001    0.000323 Ang=   0.04 deg.
 Keep R1 ints in memory in canonical form, NReq=596566580.
 Requested convergence on RMS density matrix=1.00D-08 within 128 cycles.
 Requested convergence on MAX density matrix=1.00D-06.
 Requested convergence on             energy=1.00D-06.
 No special actions if energy rises.
 SCF Done:  E(RCAM-B3LYP) =  -512.264434246     A.U. after   10 cycles
            NFock= 10  Conv=0.67D-08     -V/T= 2.0088
 Calling FoFJK, ICntrl=      2127 FMM=F ISym2X=0 I1Cent= 0 IOpClX= 0 NMat=1 NMatS=1 NMatT=0.
 ***** Axes restored to original set *****
 -------------------------------------------------------------------
 Center     Atomic                   Forces (Hartrees/Bohr)
 Number     Number              X              Y              Z
 -------------------------------------------------------------------
      1        7          -0.000211552   -0.000058427   -0.000009011
      2        6           0.000096664   -0.000059956    0.000002021
      3        6           0.000017253    0.000086155   -0.000000455
      4        6          -0.000108506   -0.000051921    0.000005835
      5        6          -0.000061000   -0.000095110   -0.000005130
      6        6           0.000083482    0.000102345   -0.000057944
      7        6          -0.000147258    0.000040394    0.000205085
      8        8           0.000095139   -0.000075867   -0.000079737
      9        8           0.000033629   -0.000049958   -0.000062049
     10        8           0.000006348    0.000074858   -0.000004097
     11        1           0.000027922    0.000004075    0.000003234
     12        1          -0.000015726    0.000000665    0.000001624
     13        1           0.000001401   -0.000031250   -0.000000417
     14        1           0.000025657    0.000011308   -0.000000649
     15        1           0.000075237    0.000054478   -0.000003507
     16        1           0.000081309    0.000048209    0.000005196
[...]
 ! A23   A(5,10,16)            112.6358         -DE/DX =    0.0                 !
 ! D1    D(6,1,2,3)             -0.0001         -DE/DX =    0.0                 !
 ! D2    D(6,1,2,12)           179.9999         -DE/DX =    0.0                 !
 ! D3    D(11,1,2,3)          -179.9999         -DE/DX =    0.0                 !
 ! D4    D(11,1,2,12)            0.0001         -DE/DX =    0.0                 !
 ! D5    D(2,1,6,5)              0.0001         -DE/DX =    0.0                 !
 ! D6    D(2,1,6,7)           -179.9999         -DE/DX =    0.0                 !
 ! D7    D(11,1,6,5)           179.9999         -DE/DX =    0.0                 !
 ! D8    D(11,1,6,7)            -0.0001         -DE/DX =    0.0                 !
 ! D9    D(1,2,3,4)              0.0            -DE/DX =    0.0                 !
 ! D10   D(1,2,3,13)           180.0            -DE/DX =    0.0                 !
 ! D11   D(12,2,3,4)          -179.9999         -DE/DX =    0.0                 !
 ! D12   D(12,2,3,13)            0.0001         -DE/DX =    0.0                 !
 ! D13   D(2,3,4,5)              0.0            -DE/DX =    0.0                 !
 ! D14   D(2,3,4,14)          -180.0            -DE/DX =    0.0                 !
 ! D15   D(13,3,4,5)          -180.0            -DE/DX =    0.0                 !
 ! D16   D(13,3,4,14)            0.0            -DE/DX =    0.0                 !
 ! D17   D(3,4,5,6)              0.0            -DE/DX =    0.0                 !
 ! D18   D(3,4,5,10)           180.0            -DE/DX =    0.0                 !
 ! D19   D(14,4,5,6)           180.0            -DE/DX =    0.0                 !
 ! D20   D(14,4,5,10)           -0.0001         -DE/DX =    0.0                 !
 ! D21   D(4,5,6,1)             -0.0001         -DE/DX =    0.0                 !
 ! D22   D(4,5,6,7)            179.9999         -DE/DX =    0.0                 !
 ! D23   D(10,5,6,1)          -180.0            -DE/DX =    0.0                 !
 ! D24   D(10,5,6,7)             0.0            -DE/DX =    0.0                 !
 ! D25   D(4,5,10,16)         -179.9998         -DE/DX =    0.0                 !
 ! D26   D(6,5,10,16)            0.0001         -DE/DX =    0.0                 !
 ! D27   D(1,6,7,8)             -0.0043         -DE/DX =    0.0                 !
 ! D28   D(1,6,7,9)            180.004          -DE/DX =    0.0                 !
 ! D29   D(5,6,7,8)           -180.0042         -DE/DX =    0.0                 !
 ! D30   D(5,6,7,9)              0.0041         -DE/DX =    0.0                 !
 ! D31   D(6,7,9,15)           179.9955         -DE/DX =    0.0                 !
 ! D32   D(8,7,9,15)             0.0042         -DE/DX =    0.0                 !
 --------------------------------------------------------------------------------
 GradGradGradGradGradGradGradGradGradGradGradGradGradGradGradGradGradGrad

 1\1\ WCSS.PL-BEM-JP\Freq\RCAM-B3LYP\6-31+G(d,p)\C6H6N1O3(1+)\C612\17-D
 ec-2024\0\\#N Geom=AllCheck Guess=TCheck SCRF=Check GenChk RCAM-B3LYP/
 6-31+G(d,p) Freq\\[No Title]\\1,1\N,-0.5092642732,-1.3537395489,-0.000
 0646484\C,-1.8351039106,-1.4188484031,-0.0000162962\C,-2.5618535052,-0
 .2271969516,0.0000657995\C,-1.8930455578,0.976047195,0.0000936424\C,-0
 .4806102517,1.0152124728,0.0000405106\C,0.2031032972,-0.1992236245,-0.
 0000410861\C,1.6752650746,-0.4199719217,-0.0001109232\O,2.1518683732,-
 1.5247006442,-0.00010456\O,2.3615274322,0.7272712005,0.0000003702\O,0.
 0898580627,2.2091979963,0.0000707436\H,0.0594972771,-2.2056939027,-0.0
 001273287\H,-2.2869866041,-2.4029313849,-0.0000440378\H,-3.6445083574,
 -0.264288899,0.0001061909\H,-2.424719809,1.9219463792,0.0001570134\H,3
 .3199137585,0.5501643834,0.00002256\H,1.0620069937,2.1599176535,0.0000
 280497\\Version=ES64L-G09RevE.01\State=1-A\HF=-512.2644345\RMSD=4.133e
 -09\RMSF=2.109e-05\ZeroPoint=0.1235125\Thermal=0.1313803\Dipole=-1.049
 3485,-0.4938635,-0.0000141\DipoleDeriv=0.1532038,0.1637831,0.,0.602582
 7,-0.3221106,-0.0000283,0.0000244,-0.00002,-0.1090679,-0.2860088,-0.16
 27256,0.000001,0.1526452,0.2583671,0.0000037,0.0000219,0.000014,0.0821
 74,0.1887922,0.042616,-0.0000077,-0.3840899,-0.1529214,0.0000054,-0.00
 00256,-0.0000066,-0.0605448,0.2170583,-0.3298739,-0.0000199,0.0516418,
 0.1086916,0.0000063,-0.0000119,0.0000205,-0.0275051,0.0160492,0.707056
 6,0.0000324,0.6383552,1.3915155,0.0000226,0.0000464,0.0000218,0.210976
 ,-0.5843818,0.2851403,0.0000274,-0.5539351,-0.2102336,0.000007,0.00002
 1,-0.0000278,0.0795141,2.0764053,-0.0913289,-0.0000373,0.0205192,1.671
 2719,0.0000896,-0.0000298,0.0000823,0.3813972,-0.9231241,0.2945062,0.0
 000327,0.2524665,-1.0110981,-0.0000575,0.0000041,-0.0000023,-0.3344938
 ,-1.0462257,-0.449988,-0.0000171,-0.4120203,-0.9345038,-0.0000273,-0.0
 000432,-0.0000621,-0.3622107,-0.5413555,-0.6303535,-0.0000192,-0.40701
 44,-1.2116918,-0.000017,-0.0000131,-0.0000081,-0.3401253,0.3607853,-0.
 0378207,-0.0000033,-0.093481,0.3794754,0.0000092,-0.0000068,0.0000081,
 0.2834923,0.1259381,0.0434877,0.0000031,0.0372671,0.127798,-0.0000027,
 0.0000013,-0.000002,0.1631965,0.1215876,-0.0046087,0.0000011,-0.009582
 4,0.112937,-0.0000015,0.0000011,-0.0000013,0.1527334,0.1238844,-0.0149
 928,0.,-0.0173419,0.1193736,-0.0000005,-0.0000008,-0.0000019,0.1464772
 ,0.5085404,0.0881023,0.000005,0.0975789,0.2856983,-0.0000049,0.0000086
 ,-0.0000049,0.3868146,0.4888512,0.0969999,0.0000018,0.0244082,0.387431
 ,-0.0000042,0.0000024,-0.0000095,0.3471722\Polar=106.7113895,1.3019726
 ,92.4641784,-0.0016582,0.0021074,40.7937723\PG=C01 [X(C6H6N1O3)]\NImag
 =0\\0.88114790,-0.05408612,0.80886650,-0.00003291,0.00003337,0.1329734
 8,-0.40472232,0.01925559,0.00001469,0.74421241,-0.05158234,-0.15967406
 ,-0.00000264,0.04852901,0.80618831,0.00001095,-0.00000544,-0.06382134,
 -0.00002098,0.00002804,0.14698658,-0.04768061,0.03383364,0.00000381,-0
 .18824985,0.11649640,0.00000987,0.79530715,0.09176979,0.03296643,-0.00
 000222,0.05020912,-0.28890899,-0.00001194,0.02399518,0.70375464,0.0000
 0622,-0.00000033,0.00845443,0.00000706,-0.00001450,-0.06766605,-0.0000
 2443,0.00002452,0.13863915,-0.05729655,-0.03086685,0.00000065,0.073186
 08,-0.01453852,-0.00000344,-0.20376251,-0.08157087,0.00000195,0.684433
 31,-0.03404873,-0.01609281,0.00000068,0.02286495,-0.05580216,-0.000003
 56,-0.14123861,-0.34173031,-0.00000715,0.00145559,0.80745724,0.0000006
 7,0.00000071,-0.00260053,-0.00000172,-0.00000219,0.00460223,-0.0000006
 9,-0.00000959,-0.05866191,-0.00002105,0.00002999,0.13995369,0.07396686
 ,0.02816963,-0.00000159,-0.05491493,0.01678656,0.00000291,-0.01176806,
 -0.06869315,-0.00000264,-0.30351245,0.04918761,0.00001090,0.71169565,-
 0.01327238,-0.06651183,-0.00000204,0.02640493,0.00068634,-0.00000100,-
 0.03967699,0.02036986,0.00000252,-0.00668115,-0.12372473,-0.00000204,0
 .03173329,0.77697575,-0.00000397,-0.00000423,-0.00211319,0.00000352,-0
 .00000066,-0.00321928,-0.00000137,0.00000405,-0.00210546,0.00000880,-0
 .00000427,-0.06828543,-0.00002069,0.00002643,0.15956927,-0.17999935,-0
 .10362103,0.00000090,-0.06244516,-0.02272085,0.00000187,0.00267543,-0.
 02886238,-0.00000154,-0.00450406,0.03678040,0.00000219,-0.21429779,0.0
 9905080,0.00001145,0.68113049,-0.05079633,-0.28591432,-0.00000864,-0.0
 8422308,0.01436974,0.00000389,0.01435325,-0.05436486,-0.00000282,0.059
 63715,0.03474437,-0.00000106,0.06137397,-0.26962257,-0.00001227,-0.021
 63105,0.76006007,0.00000383,-0.00000631,-0.05626548,-0.00000120,0.0000
 0156,0.00717570,0.00000031,-0.00000124,-0.00338699,0.00000286,-0.00000
 059,0.00388607,0.00000994,-0.00001337,-0.05956924,-0.00002049,0.000029
 98,0.12670746,-0.05386529,-0.02452609,0.00000059,0.02440826,-0.0078218
 9,-0.00000134,-0.00201716,0.01797174,0.00000087,-0.01275984,-0.0068628
 5,0.00000024,0.01569192,0.03523950,0.00000062,-0.19442819,0.01221147,0
 .00000894,0.68624332,-0.02825130,0.00497130,0.00000211,-0.00739072,-0.
 00813847,-0.00000017,0.00188512,-0.00326310,-0.00000022,0.00238852,-0.
 00522163,-0.00000077,0.03315012,0.01769064,-0.00000062,0.01202992,-0.0
 9444189,-0.00000272,-0.13165743,1.00623735,0.00000033,0.00000091,-0.00
 262144,-0.00000126,-0.00000010,0.00612954,0.,-0.00000090,-0.00057472,0
 .00000109,-0.00000053,0.00799211,0.00000142,0.00000071,0.00180042,0.00
 000422,-0.00000279,-0.07254770,0.00000828,0.00001875,0.19749044,-0.001
 35919,0.00728927,0.00000025,-0.00361621,0.00379343,0.00000030,-0.00040
 026,-0.00326174,-0.00000013,0.00171530,0.00357645,0.00000026,-0.010927
 12,-0.01213865,-0.00000020,-0.03351286,0.04790518,0.00000083,-0.230565
 47,0.25243030,-0.00000147,0.23640458,-0.01577879,-0.00364021,-0.000000
 05,0.00822359,0.00062162,-0.00000043,-0.00167919,0.00455281,0.00000030
 ,-0.00184478,-0.00198403,-0.00000010,0.00144168,0.00191248,-0.00000002
 ,0.03684224,-0.02222904,-0.00000049,0.25113083,-0.65902916,-0.00000007
 ,-0.29016908,0.77773628,-0.00000014,-0.00000021,0.00139656,0.00000025,
 -0.00000013,-0.00060590,0.00000003,0.00000022,-0.00015870,-0.00000024,
 0.00000014,-0.00169989,0.00000004,-0.00000013,0.00231057,0.00000218,-0
 .00000081,0.02047477,-0.00000263,0.00000170,-0.07502758,0.00000007,0.0
 0000542,0.03387117,-0.00606156,0.00603172,0.00000045,-0.00351286,-0.00
 079775,0.00000023,0.00029672,-0.00362614,-0.00000020,0.00313037,0.0010
 6319,-0.00000009,-0.00454938,-0.00384751,0.00000003,-0.03356282,-0.040
 82024,-0.00000373,-0.20168310,-0.11246676,-0.00001153,0.03727259,-0.00
 373548,0.00000015,0.69358087,0.00146888,0.00520761,0.00000002,-0.00196
 198,0.00251319,0.00000020,-0.00010491,-0.00326563,-0.00000015,0.003809
 97,0.00232678,0.00000004,-0.00874654,-0.01590878,-0.00000020,-0.016407
 44,0.00085770,-0.00000120,-0.06941289,-0.25487883,-0.00001442,-0.02523
 403,-0.10039896,-0.00000697,0.03306532,0.42562209,-0.00000019,0.000000
 23,0.00155580,0.00000007,0.00000010,-0.00002142,0.,-0.00000013,0.00025
 019,0.00000007,0.00000020,-0.00071962,-0.00000074,-0.00000114,0.000694
 63,-0.00000008,-0.00000044,0.00785207,-0.00000977,-0.00001883,-0.06088
 887,-0.00000078,-0.00000483,0.02697321,0.00002240,0.00002462,0.0405597
 7,-0.01473833,-0.00435293,0.00000057,0.01122737,-0.00750636,-0.0000008
 5,-0.00665923,0.01680421,0.00000116,-0.04192561,-0.06422920,-0.0000008
 1,-0.16694237,-0.12948597,-0.00000100,0.03018055,0.01032261,-0.0000005
 5,-0.02103711,-0.01266751,-0.00000057,0.00512568,0.00384721,0.,-0.0048
 8342,0.01640449,0.00000108,0.68729946,-0.00309458,-0.00356344,-0.00000
 060,0.00720152,-0.00981754,-0.00000064,0.00425340,0.01219937,0.0000001
 9,-0.02954977,-0.01202025,0.00000036,-0.09071560,-0.33874172,-0.000009
 46,-0.00425607,-0.05418129,-0.00000250,-0.02035722,-0.00487159,0.00000
 005,0.00496357,-0.00011397,-0.00000005,0.01121926,0.00710357,0.0000005
 6,0.10966510,0.45307470,0.00000090,-0.00000039,0.00885158,-0.00000016,
 -0.00000007,-0.00149858,0.00000066,-0.00000032,0.00482697,0.00000054,0
 .00000184,0.00601306,0.00000093,-0.00000827,-0.04641745,-0.00000150,-0
 .00000272,0.00709576,-0.00000024,0.00000022,-0.00268642,0.00000006,0.,
 -0.00004569,0.00000054,-0.00000007,0.00167400,-0.00002172,0.00001401,0
 .03632146,-0.17014028,0.15517394,0.00001304,-0.01551525,0.02878692,0.0
 0000201,-0.00488316,-0.00368738,0.00000035,-0.00013595,-0.00045672,-0.
 00000006,-0.00213355,-0.00317988,0.00000023,0.01753199,-0.01324766,-0.
 00000144,0.00329957,-0.01479134,-0.00000072,0.00070455,0.00881084,0.00
 000011,0.00057346,0.00579664,0.00000050,-0.00061748,-0.00212285,-0.000
 00006,0.17032360,0.15523239,-0.31698795,-0.00001954,-0.00151176,0.0114
 3413,0.00000059,-0.00272004,0.00268697,-0.00000013,-0.00082340,-0.0002
 4713,0.00000007,-0.00483898,-0.00245913,-0.00000013,0.01356454,-0.0261
 2476,-0.00000191,-0.00196897,-0.00214483,0.00000015,0.00301140,-0.0000
 4211,0.00000004,0.00113131,-0.00011661,0.,0.00138619,0.00003060,-0.000
 00009,-0.16107425,0.33232191,0.00001326,-0.00001946,-0.03286032,0.0000
 0033,-0.00000065,0.00047097,0.00000042,-0.00000022,0.00791807,0.000000
 04,0.00000010,-0.00126476,-0.00000004,-0.00000012,0.00553085,-0.000000
 22,-0.00000079,0.00031320,0.00000015,0.00000040,-0.00178546,0.00000002
 ,-0.00000001,-0.00291932,-0.00000007,-0.00000016,0.00042240,0.00000012
 ,0.00000006,0.00054023,-0.00001371,0.00002062,0.02806244,-0.01876735,-
 0.03585283,-0.00000082,-0.10855236,-0.10415119,-0.00000217,0.01373206,
 0.01572109,0.00000041,-0.00273918,0.00348369,0.00000048,-0.00011726,-0
 .00052642,-0.00000003,-0.00335212,0.00424132,0.00000068,-0.00003252,-0
 .00145407,0.00000004,0.00004709,0.00020286,-0.00000002,-0.00053013,0.0
 0008700,-0.00000002,0.00041723,0.00025757,-0.00000003,0.00043200,-0.00
 092727,-0.00000023,0.11851370,0.00234928,0.00619690,0.00000013,-0.1144
 9107,-0.31592647,-0.00000817,-0.01119779,-0.01166043,-0.00000037,0.002
 56174,-0.00255933,-0.00000049,0.00133958,-0.00104299,-0.00000009,0.001
 97797,0.00283315,-0.00000033,-0.00066586,0.00042886,-0.00000006,0.0002
 0996,-0.00027674,0.,0.00032590,0.00008387,0.00000003,0.00004453,0.0006
 1522,0.00000006,-0.00020135,0.00107544,0.00000027,0.11850206,0.3202879
 7,0.00000080,0.00000168,0.00106125,-0.00000261,-0.00000864,-0.03962620
 ,-0.00000081,-0.00000142,0.00607607,0.00000048,-0.00000053,0.00591677,
 0.00000006,-0.00000010,-0.00027307,0.00000053,-0.00000036,0.00802902,0
 .,0.00000003,0.00164103,-0.00000001,-0.00000001,-0.00006180,0.00000009
 ,0.00000002,-0.00035527,0.,0.00000008,-0.00066235,-0.00000020,0.000000
 28,-0.00435527,0.00000188,0.00000881,0.02654492,0.00059879,0.00240743,
 0.00000035,-0.00883563,-0.00286196,0.00000028,-0.35973134,-0.00860784,
 0.00001193,-0.00699483,0.00075358,0.00000050,0.00063653,-0.00127777,0.
 00000028,0.00081361,-0.00023073,-0.00000007,-0.00044719,0.00006498,-0.
 00000002,0.00010666,-0.00012452,0.,0.00012423,0.00005329,0.,-0.0003297
 9,0.00014375,0.,-0.00014985,-0.00029513,0.,0.00047347,0.00005190,-0.00
 000013,0.37304010,0.00406759,-0.00560347,-0.00000073,0.02751993,0.0069
 0289,-0.00000082,-0.00987828,-0.06118201,-0.00000049,-0.02906608,0.004
 20188,0.00000108,-0.00130996,-0.00477878,-0.00000059,-0.00092867,-0.00
 121504,0.00000002,0.00040023,-0.00030200,0.00000001,0.00005150,0.00036
 340,0.,-0.00001174,0.00011721,0.00000001,-0.00162318,0.00025880,0.0000
 0010,0.00095390,0.00052610,-0.00000004,-0.00025753,0.00048254,0.000000
 16,0.00993600,0.05976432,0.00000050,-0.00000059,0.00689546,0.00000157,
 0.00000038,0.00183739,0.00001189,-0.00000056,-0.04153988,-0.00000089,-
 0.00000013,0.00511542,0.00000034,-0.00000059,0.00934905,-0.00000012,-0
 .00000004,-0.00069334,0.00000004,0.00000001,-0.00092459,0.,0.00000003,
 0.00011383,0.,0.,-0.00003407,-0.00000010,0.00000002,-0.00037049,0.0000
 0005,0.00000001,0.00045515,-0.00000014,0.00000016,-0.00300801,-0.00001
 292,0.00000103,0.02806456,-0.00096505,-0.00151497,-0.00000006,-0.00120
 625,-0.00395431,0.00000021,0.01371468,-0.01574352,-0.00000099,-0.13395
 651,0.12691218,0.00000917,-0.01087064,0.02891501,0.00000199,-0.0053376
 0,-0.00079795,0.00000048,0.00061148,0.00139293,0.00000004,-0.00065724,
 0.00024084,-0.00000001,0.00004593,-0.00031956,-0.00000003,0.00257983,-
 0.00002588,-0.00000022,-0.00009452,0.00008734,-0.00000002,0.00064703,-
 0.00066691,-0.00000008,0.00071694,0.00018107,-0.00000020,0.13483584,-0
 .00087018,0.00084408,0.00000011,-0.00264448,-0.00319466,-0.00000046,0.
 01319431,-0.01495208,-0.00000147,0.12819532,-0.28247629,-0.00001571,-0
 .00289319,0.00676942,0.00000007,-0.00103837,-0.00037362,-0.00000021,0.
 00015146,0.00028910,0.00000010,-0.00027035,0.00013673,-0.00000002,-0.0
 0017713,-0.00005210,-0.00000001,-0.00006719,-0.00021754,0.00000012,0.0
 0009577,-0.00009435,0.00000003,0.00070957,-0.00048497,-0.00000002,0.00
 009369,0.00078475,0.00000026,-0.13457226,0.29293071,0.00000002,0.00000
 015,-0.00092608,0.00000020,-0.00000035,0.00926681,0.00000031,-0.000000
 43,0.00643729,0.00000928,-0.00001568,-0.04450053,0.00000058,-0.0000010
 3,0.00766786,0.00000035,-0.00000033,0.00563709,0.00000002,0.00000006,-
 0.00137155,-0.00000003,0.00000001,0.00018858,-0.00000002,0.,0.00004095
 ,-0.00000021,0.00000005,-0.00277286,-0.00000003,0.00000003,-0.00079310
 ,-0.00000002,0.00000004,-0.00071081,-0.00000021,0.00000024,-0.00486963
 ,-0.00001024,0.00001720,0.02707438,-0.00073831,-0.00029356,-0.00000002
 ,0.00088509,-0.00060970,-0.00000005,-0.00000399,0.00077605,0.00000003,
 -0.00056853,-0.00020565,0.00000005,0.00062180,-0.00007999,0.00000005,0
 .00129629,-0.00217539,-0.00000076,-0.03060709,-0.00516461,-0.00000052,
 0.00327104,0.00760595,0.00000034,-0.46984788,0.06828557,-0.00001183,0.
 00142939,-0.00029292,-0.00000012,-0.00051178,-0.00016174,-0.00000002,-
 0.00006058,-0.00004013,0.00000001,-0.00003041,0.00000909,0.,-0.0000087
 2,0.00005995,0.,0.49681018,-0.00139637,0.00008998,0.00000001,0.0000046
 5,-0.00042328,0.00000002,0.00007437,-0.00000512,0.,0.00014858,0.000159
 52,0.,-0.00068894,-0.00130329,0.00000002,-0.00203892,-0.00483170,-0.00
 000069,-0.04887984,0.01358910,-0.00000114,0.00702880,-0.00102168,0.000
 00074,0.11420999,-0.06949043,-0.00000059,0.00264812,-0.00090328,-0.000
 00011,-0.00050600,0.00009419,-0.00000002,-0.00010422,0.00000950,0.0000
 0002,-0.00000293,0.00000926,0.,-0.00002797,0.00002417,0.,-0.06949800,0
 .06070090,-0.00000014,0.,0.00082510,0.00000009,-0.00000008,-0.00024846
 ,0.00000001,0.00000007,0.00008745,-0.00000005,0.00000002,-0.00024858,-
 0.00000003,-0.00000014,-0.00064037,0.00000030,-0.00000062,0.00489584,-
 0.00000571,0.00000058,0.00330089,0.00000084,0.00000018,-0.00531825,-0.
 00000805,-0.00000185,-0.01549659,0.00000023,-0.00000002,0.00044344,-0.
 00000003,0.,0.00027769,-0.00000002,0.,-0.00015815,0.,0.,0.00006112,0.,
 0.,0.00004605,0.00001272,0.00000163,0.01237373,0.00062064,0.00295317,0
 .00000010,-0.00234840,0.00215256,0.00000021,-0.00056988,-0.00319416,-0
 .00000006,0.00569096,0.00096411,-0.00000005,-0.02257921,-0.01117682,0.
 00000030,-0.00218841,0.00387747,0.00000037,0.01718842,0.01050186,0.000
 00068,-0.00360915,-0.00501420,-0.00000012,-0.01039302,-0.00678382,-0.0
 0000067,-0.48112617,0.01271072,0.00002042,0.00131665,-0.00009166,-0.00
 000004,-0.00011109,-0.00009983,-0.00000002,0.00000874,-0.00004388,-0.0
 0000002,-0.00005520,0.00003307,0.,-0.00193651,-0.00097132,-0.00000017,
 0.50009163,-0.00171081,-0.00115473,0.00000002,0.00200979,-0.00083060,-
 0.00000013,-0.00158986,0.00280244,0.00000011,-0.00325544,-0.00703112,-
 0.00000031,-0.04529609,-0.00031067,0.00000196,0.00125892,0.00043406,0.
 ,-0.00495219,-0.01091486,-0.00000067,0.00081397,0.00341257,0.00000004,
 -0.00156394,0.00027934,0.00000021,0.05880986,-0.04885165,-0.00000430,-
 0.00035058,0.00004755,0.,0.00006838,-0.00006252,0.,-0.00010377,-0.0003
 2985,0.,-0.00010605,0.00006664,0.00000003,0.00178508,0.00330216,0.0000
 0023,-0.00581727,0.05914124,-0.00000013,-0.00000010,-0.00080527,0.0000
 0014,-0.00000009,0.00023802,0.,0.00000011,0.00140409,-0.00000010,-0.00
 000052,0.00450192,-0.00000139,0.00000030,-0.00429914,-0.00000003,-0.00
 000018,0.00039576,-0.00000007,-0.00000053,0.00007392,-0.00000002,0.000
 00006,0.00050845,-0.00000019,0.00000012,-0.00250716,0.00002266,-0.0000
 0212,-0.01131264,-0.00000003,0.,-0.00001277,0.,0.,-0.00005813,-0.00000
 002,0.,-0.00045196,-0.00000003,0.00000002,-0.00041443,0.00000012,0.000
 00012,-0.00020091,-0.00002092,0.00000278,0.01294026\\0.00004298,-0.000
 01347,0.00000090,-0.00000755,-0.00000795,-0.00000019,-0.00004356,-0.00
 001814,0.00000005,-0.00003582,0.00002116,-0.00000056,0.00004932,-0.000
 03500,0.00000040,-0.00006041,0.00001387,0.00000565,0.00006365,0.000006
 88,-0.00001988,0.00000389,-0.00001845,0.00000774,-0.00001402,-0.000001
 48,0.00000599,0.00003329,0.00002730,0.00000040,-0.00001645,0.00000904,
 -0.00000034,-0.00000732,-0.00000469,-0.00000016,-0.00000307,0.00000173
 ,0.00000004,-0.00000125,0.00000609,0.00000007,0.00000336,0.00000026,0.
 00000034,-0.00000706,0.00001286,-0.00000046\\\@


 A DANDELION FROM A LOVER MEANS MORE THAN AN ORCHID FROM A FRIEND.
 Job cpu time:       0 days  0 hours 11 minutes 15.3 seconds.
 File lengths (MBytes):  RWF=     85 Int=      0 D2E=      0 Chk=      5 Scr=      1
 Normal termination of Gaussian 09 at Tue Dec 17 14:58:24 2024.
