 Entering Gaussian System, Link 0=g09
 Input=camb3lypD33HPA.gjf
 Output=camb3lypD33HPA.log
 Initial command:
 /home/c612/g09E/g09/l1.exe "/mnt/ja_sm883/scratch/Gau-1443485.inp" -scrdir="/mnt/ja_sm883/scratch/"
 Default is to use a total of  18 processors:
                               18 via shared-memory
                                1 via Linda
 Entering Link 1 = /home/c612/g09E/g09/l1.exe PID=   1443487.
  
 Copyright (c) 1988,1990,1992,1993,1995,1998,2003,2009,2015,
            Gaussian, Inc.  All Rights Reserved.
  
 This is part of the Gaussian(R) 09 program.  It is based on
 the Gaussian(R) 03 system (copyright 2003, Gaussian, Inc.),
 the Gaussian(R) 98 system (copyright 1998, Gaussian, Inc.),
 the Gaussian(R) 94 system (copyright 1995, Gaussian, Inc.),
 the Gaussian 92(TM) system (copyright 1992, Gaussian, Inc.),
 the Gaussian 90(TM) system (copyright 1990, Gaussian, Inc.),
 the Gaussian 88(TM) system (copyright 1988, Gaussian, Inc.),
 the Gaussian 86(TM) system (copyright 1986, Carnegie Mellon
 University), and the Gaussian 82(TM) system (copyright 1983,
 Carnegie Mellon University). Gaussian is a federally registered
 trademark of Gaussian, Inc.
  
 This software contains proprietary and confidential information,
 including trade secrets, belonging to Gaussian, Inc.
  
 This software is provided under written license and may be
 used, copied, transmitted, or stored only in accord with that
 written license.
  
 The following legend is applicable only to US Government
 contracts under FAR:
  
                    RESTRICTED RIGHTS LEGEND
  
 Use, reproduction and disclosure by the US Government is
 subject to restrictions as set forth in subparagraphs (a)
 and (c) of the Commercial Computer Software - Restricted
 Rights clause in FAR 52.227-19.
  
 Gaussian, Inc.
 340 Quinnipiac St., Bldg. 40, Wallingford CT 06492
  
  
 ---------------------------------------------------------------
 Warning -- This program may not be used in any manner that
 competes with the business of Gaussian, Inc. or will provide
 assistance to any competitor of Gaussian, Inc.  The licensee
 of this program is prohibited from giving any competitor of
 Gaussian, Inc. access to this program.  By using this program,
 the user acknowledges that Gaussian, Inc. is engaged in the
 business of creating and licensing software in the field of
 computational chemistry and represents and warrants to the
 licensee that it is not a competitor of Gaussian, Inc. and that
 it will not use this program in any manner prohibited above.
 ---------------------------------------------------------------
  

 Cite this work as:
 Gaussian 09, Revision E.01,
 M. J. Frisch, G. W. Trucks, H. B. Schlegel, G. E. Scuseria, 
 M. A. Robb, J. R. Cheeseman, G. Scalmani, V. Barone, B. Mennucci, 
 G. A. Petersson, H. Nakatsuji, M. Caricato, X. Li, H. P. Hratchian, 
 A. F. Izmaylov, J. Bloino, G. Zheng, J. L. Sonnenberg, M. Hada, 
 M. Ehara, K. Toyota, R. Fukuda, J. Hasegawa, M. Ishida, T. Nakajima, 
 Y. Honda, O. Kitao, H. Nakai, T. Vreven, J. A. Montgomery, Jr., 
 J. E. Peralta, F. Ogliaro, M. Bearpark, J. J. Heyd, E. Brothers, 
 K. N. Kudin, V. N. Staroverov, T. Keith, R. Kobayashi, J. Normand, 
 K. Raghavachari, A. Rendell, J. C. Burant, S. S. Iyengar, J. Tomasi, 
 M. Cossi, N. Rega, J. M. Millam, M. Klene, J. E. Knox, J. B. Cross, 
 V. Bakken, C. Adamo, J. Jaramillo, R. Gomperts, R. E. Stratmann, 
 O. Yazyev, A. J. Austin, R. Cammi, C. Pomelli, J. W. Ochterski, 
 R. L. Martin, K. Morokuma, V. G. Zakrzewski, G. A. Voth, 
 P. Salvador, J. J. Dannenberg, S. Dapprich, A. D. Daniels, 
 O. Farkas, J. B. Foresman, J. V. Ortiz, J. Cioslowski, 
 and D. J. Fox, Gaussian, Inc., Wallingford CT, 2013.
 
 ******************************************
 Gaussian 09:  ES64L-G09RevE.01 30-Nov-2015
                17-Dec-2024 
 ******************************************
 %chk=camb3lypD33HPA.chk
 --------------------------------------------------------
 # opt freq cam-b3lyp/6-31+g(d,p) empiricaldispersion=gd3
 --------------------------------------------------------
 1/14=-1,18=20,19=15,26=3,38=1/1,3;
 2/9=110,12=2,17=6,18=5,40=1/2;
 3/5=1,6=6,7=111,11=2,16=1,25=1,30=1,71=1,74=-40,124=31/1,2,3;
 4//1;
 5/5=2,38=5/2;
 6/7=2,8=2,9=2,10=2,28=1/1;
 7//1,2,3,16;
 1/14=-1,18=20,19=15,26=3/3(2);
 2/9=110/2;
 99//99;
 2/9=110/2;
 3/5=1,6=6,7=111,11=2,16=1,25=1,30=1,71=1,74=-40,124=31/1,2,3;
 4/5=5,16=3,69=1/1;
 5/5=2,38=5/2;
 7//1,2,3,16;
 1/14=-1,18=20,19=15,26=3/3(-5);
 2/9=110/2;
 6/7=2,8=2,9=2,10=2,19=2,28=1/1;
 99/9=1/99;
 ----------
 [No Title]
 ----------
 Symbolic Z-matrix:
 Charge =  0 Multiplicity = 1
 N                    -0.44313  -1.44944   0.00003 
 C                    -1.76628  -1.47649   0.00004 
 C                    -2.55143  -0.3107    0.00002 
 C                    -1.92965   0.92339   0. 
 C                    -0.52654   0.97374  0. 
 C                     0.17294  -0.25694   0.00001 
 C                     1.64752  -0.22649  -0.00001 
 O                     2.29205   0.82512  -0.00007 
 O                     2.24875  -1.41439   0. 
 O                     0.07468   2.16645  -0.00001 
 H                    -2.23201  -2.45928   0.00005 
 H                    -3.63517  -0.384     0.00003 
 H                    -2.48725   1.85457  -0.00001 
 H                     3.20385  -1.24105  -0.00003 
 H                     1.0492    1.99928   0.00001 
 

 GradGradGradGradGradGradGradGradGradGradGradGradGradGradGradGradGradGrad
 Berny optimization.
 Initialization pass.
                           ----------------------------
                           !    Initial Parameters    !
                           ! (Angstroms and Degrees)  !
 --------------------------                            --------------------------
 ! Name  Definition              Value          Derivative Info.                !
 --------------------------------------------------------------------------------
 ! R1    R(1,2)                  1.3234         estimate D2E/DX2                !
 ! R2    R(1,6)                  1.3422         estimate D2E/DX2                !
 ! R3    R(2,3)                  1.4055         estimate D2E/DX2                !
 ! R4    R(2,11)                 1.0876         estimate D2E/DX2                !
 ! R5    R(3,4)                  1.3819         estimate D2E/DX2                !
 ! R6    R(3,12)                 1.0862         estimate D2E/DX2                !
 ! R7    R(4,5)                  1.404          estimate D2E/DX2                !
 ! R8    R(4,13)                 1.0854         estimate D2E/DX2                !
 ! R9    R(5,6)                  1.4156         estimate D2E/DX2                !
 ! R10   R(5,10)                 1.3357         estimate D2E/DX2                !
 ! R11   R(6,7)                  1.4749         estimate D2E/DX2                !
 ! R12   R(7,8)                  1.2334         estimate D2E/DX2                !
 ! R13   R(7,9)                  1.3314         estimate D2E/DX2                !
 ! R14   R(9,14)                 0.9707         estimate D2E/DX2                !
 ! R15   R(10,15)                0.9888         estimate D2E/DX2                !
 ! A1    A(2,1,6)              118.4932         estimate D2E/DX2                !
 ! A2    A(1,2,3)              122.7888         estimate D2E/DX2                !
 ! A3    A(1,2,11)             116.5266         estimate D2E/DX2                !
 ! A4    A(3,2,11)             120.6846         estimate D2E/DX2                !
 ! A5    A(2,3,4)              119.2992         estimate D2E/DX2                !
 ! A6    A(2,3,12)             120.0908         estimate D2E/DX2                !
 ! A7    A(4,3,12)             120.61           estimate D2E/DX2                !
 ! A8    A(3,4,5)              118.7961         estimate D2E/DX2                !
 ! A9    A(3,4,13)             122.3456         estimate D2E/DX2                !
 ! A10   A(5,4,13)             118.8583         estimate D2E/DX2                !
 ! A11   A(4,5,6)              117.5572         estimate D2E/DX2                !
 ! A12   A(4,5,10)             118.8068         estimate D2E/DX2                !
 ! A13   A(6,5,10)             123.6359         estimate D2E/DX2                !
 ! A14   A(1,6,5)              123.0655         estimate D2E/DX2                !
 ! A15   A(1,6,7)              118.5047         estimate D2E/DX2                !
 ! A16   A(5,6,7)              118.4298         estimate D2E/DX2                !
 ! A17   A(6,7,8)              122.6868         estimate D2E/DX2                !
 ! A18   A(6,7,9)              115.6624         estimate D2E/DX2                !
 ! A19   A(8,7,9)              121.6508         estimate D2E/DX2                !
 ! A20   A(7,9,14)             106.5583         estimate D2E/DX2                !
 ! A21   A(5,10,15)            107.0177         estimate D2E/DX2                !
 ! D1    D(6,1,2,3)              0.0002         estimate D2E/DX2                !
 ! D2    D(6,1,2,11)          -180.0            estimate D2E/DX2                !
 ! D3    D(2,1,6,5)              0.0            estimate D2E/DX2                !
 ! D4    D(2,1,6,7)           -179.9995         estimate D2E/DX2                !
 ! D5    D(1,2,3,4)             -0.0001         estimate D2E/DX2                !
 ! D6    D(1,2,3,12)           179.9999         estimate D2E/DX2                !
 ! D7    D(11,2,3,4)          -180.0            estimate D2E/DX2                !
 ! D8    D(11,2,3,12)            0.0001         estimate D2E/DX2                !
 ! D9    D(2,3,4,5)              0.0            estimate D2E/DX2                !
 ! D10   D(2,3,4,13)          -179.9998         estimate D2E/DX2                !
 ! D11   D(12,3,4,5)           179.9999         estimate D2E/DX2                !
 ! D12   D(12,3,4,13)            0.0002         estimate D2E/DX2                !
 ! D13   D(3,4,5,6)              0.0002         estimate D2E/DX2                !
 ! D14   D(3,4,5,10)          -179.9995         estimate D2E/DX2                !
 ! D15   D(13,4,5,6)           179.9999         estimate D2E/DX2                !
 ! D16   D(13,4,5,10)            0.0002         estimate D2E/DX2                !
 ! D17   D(4,5,6,1)             -0.0002         estimate D2E/DX2                !
 ! D18   D(4,5,6,7)            179.9994         estimate D2E/DX2                !
 ! D19   D(10,5,6,1)           179.9995         estimate D2E/DX2                !
 ! D20   D(10,5,6,7)            -0.0009         estimate D2E/DX2                !
 ! D21   D(4,5,10,15)          179.9989         estimate D2E/DX2                !
 ! D22   D(6,5,10,15)           -0.0008         estimate D2E/DX2                !
 ! D23   D(1,6,7,8)            179.9978         estimate D2E/DX2                !
 ! D24   D(1,6,7,9)             -0.0003         estimate D2E/DX2                !
 ! D25   D(5,6,7,8)             -0.0018         estimate D2E/DX2                !
 ! D26   D(5,6,7,9)           -179.9999         estimate D2E/DX2                !
 ! D27   D(6,7,9,14)           179.9991         estimate D2E/DX2                !
 ! D28   D(8,7,9,14)             0.0009         estimate D2E/DX2                !
 --------------------------------------------------------------------------------
 Trust Radius=3.00D-01 FncErr=1.00D-07 GrdErr=1.00D-06
 Number of steps in this run=     74 maximum allowed number of steps=    100.
 GradGradGradGradGradGradGradGradGradGradGradGradGradGradGradGradGradGrad

                          Input orientation:                          
 ---------------------------------------------------------------------
 Center     Atomic      Atomic             Coordinates (Angstroms)
 Number     Number       Type             X           Y           Z
 ---------------------------------------------------------------------
      1          7           0       -0.443132   -1.449437    0.000028
      2          6           0       -1.766278   -1.476489    0.000035
      3          6           0       -2.551429   -0.310702    0.000021
      4          6           0       -1.929646    0.923389    0.000002
      5          6           0       -0.526538    0.973743   -0.000002
      6          6           0        0.172942   -0.256936    0.000010
      7          6           0        1.647524   -0.226491   -0.000008
      8          8           0        2.292053    0.825120   -0.000065
      9          8           0        2.248751   -1.414390    0.000002
     10          8           0        0.074676    2.166451   -0.000011
     11          1           0       -2.232005   -2.459282    0.000050
     12          1           0       -3.635166   -0.383999    0.000026
     13          1           0       -2.487249    1.854572   -0.000006
     14          1           0        3.203854   -1.241045   -0.000027
     15          1           0        1.049199    1.999280    0.000006
 ---------------------------------------------------------------------
                    Distance matrix (angstroms):
                    1          2          3          4          5
     1  N    0.000000
     2  C    1.323423   0.000000
     3  C    2.396171   1.405532   0.000000
     4  C    2.800005   2.405432   1.381881   0.000000
     5  C    2.424615   2.746014   2.397912   1.404011   0.000000
     6  C    1.342239   2.290826   2.724901   2.411233   1.415572
     7  C    2.422073   3.635456   4.199797   3.757442   2.483366
     8  O    3.557365   4.665560   4.974878   4.222843   2.822507
     9  O    2.692111   4.015509   4.925429   4.787924   3.661340
    10  O    3.652776   4.081681   3.610085   2.358497   1.335669
    11  H    2.054228   1.087559   2.172194   3.396157   3.833312
    12  H    3.365151   2.164781   1.086213   2.148968   3.392202
    13  H    3.885214   3.408191   2.166225   1.085368   2.149476
    14  H    3.652935   4.975706   5.829993   5.571140   4.338330
    15  H    3.757752   4.473017   4.277913   3.167185   1.880073
                    6          7          8          9         10
     6  C    0.000000
     7  C    1.474896   0.000000
     8  O    2.379386   1.233411   0.000000
     9  O    2.376696   1.331382   2.239929   0.000000
    10  O    2.425378   2.863568   2.591511   4.189156   0.000000
    11  H    3.260996   4.476170   5.590563   4.600975   5.168963
    12  H    3.810227   5.285038   6.049289   5.973457   4.501969
    13  H    3.396334   4.628949   4.888916   5.754634   2.580839
    14  H    3.186675   1.857817   2.258411   0.970706   4.626314
    15  H    2.420400   2.304788   1.709777   3.618296   0.988757
                   11         12         13         14         15
    11  H    0.000000
    12  H    2.505127   0.000000
    13  H    4.321399   2.515733   0.000000
    14  H    5.570697   6.892512   6.478541   0.000000
    15  H    5.535799   5.255787   3.539407   3.891304   0.000000
 Stoichiometry    C6H5NO3
 Framework group  C1[X(C6H5NO3)]
 Deg. of freedom    39
 Full point group                 C1      NOp   1
 Largest Abelian subgroup         C1      NOp   1
 Largest concise Abelian subgroup C1      NOp   1
                         Standard orientation:                         
 ---------------------------------------------------------------------
 Center     Atomic      Atomic             Coordinates (Angstroms)
 Number     Number       Type             X           Y           Z
 ---------------------------------------------------------------------
      1          7           0       -0.443132   -1.449437    0.000028
      2          6           0       -1.766278   -1.476489    0.000035
      3          6           0       -2.551429   -0.310702    0.000021
      4          6           0       -1.929646    0.923389    0.000002
      5          6           0       -0.526538    0.973743   -0.000002
      6          6           0        0.172942   -0.256936    0.000010
      7          6           0        1.647524   -0.226491   -0.000008
      8          8           0        2.292053    0.825120   -0.000065
      9          8           0        2.248751   -1.414390    0.000002
     10          8           0        0.074676    2.166451   -0.000011
     11          1           0       -2.232005   -2.459282    0.000050
     12          1           0       -3.635166   -0.383999    0.000026
     13          1           0       -2.487249    1.854572   -0.000006
     14          1           0        3.203854   -1.241045   -0.000027
     15          1           0        1.049199    1.999280    0.000006
 ---------------------------------------------------------------------
 Rotational constants (GHZ):      2.3726204      1.2629476      0.8242165
 Standard basis: 6-31+G(d,p) (6D, 7F)
 There are   215 symmetry adapted cartesian basis functions of A   symmetry.
 There are   215 symmetry adapted basis functions of A   symmetry.
   215 basis functions,   355 primitive gaussians,   215 cartesian basis functions
    36 alpha electrons       36 beta electrons
       nuclear repulsion energy       507.9639111222 Hartrees.
 NAtoms=   15 NActive=   15 NUniq=   15 SFac= 1.00D+00 NAtFMM=   60 NAOKFM=F Big=F
 Integral buffers will be    131072 words long.
 Raffenetti 2 integral format.
 Two-electron integral symmetry is turned on.
 Nuclear repulsion after empirical dispersion term =      507.9570794617 Hartrees.
 One-electron integrals computed using PRISM.
 NBasis=   215 RedAO= T EigKep=  5.81D-06  NBF=   215
 NBsUse=   215 1.00D-06 EigRej= -1.00D+00 NBFU=   215
 ExpMin= 4.38D-02 ExpMax= 5.48D+03 ExpMxC= 8.25D+02 IAcc=2 IRadAn=         4 AccDes= 0.00D+00
 Harris functional with IExCor=20419 and IRadAn=       4 diagonalized for initial guess.
 HarFok:  IExCor=20419 AccDes= 0.00D+00 IRadAn=         4 IDoV= 1 UseB2=F ITyADJ=14
 ICtDFT=  3500011 ScaDFX=  1.000000  1.000000  1.000000  1.000000
 FoFCou: FMM=F IPFlag=           0 FMFlag=      100000 FMFlg1=           0
         NFxFlg=           0 DoJE=T BraDBF=F KetDBF=T FulRan=T
         wScrn=  0.000000 ICntrl=     500 IOpCl=  0 I1Cent=   200000004 NGrid=           0
         NMat0=    1 NMatS0=      1 NMatT0=    0 NMatD0=    1 NMtDS0=    0 NMtDT0=    0
 Petite list used in FoFCou.
 Keep R1 ints in memory in canonical form, NReq=544393055.
 Requested convergence on RMS density matrix=1.00D-08 within 128 cycles.
 Requested convergence on MAX density matrix=1.00D-06.
 Requested convergence on             energy=1.00D-06.
 No special actions if energy rises.
 SCF Done:  E(RCAM-B3LYP) =  -511.906275463     A.U. after   16 cycles
            NFock= 16  Conv=0.53D-08     -V/T= 2.0089

 **********************************************************************

            Population analysis using the SCF density.

 **********************************************************************

 Orbital symmetries:
       Occupied  (A) (A) (A) (A) (A) (A) (A) (A) (A) (A) (A) (A)
                 (A) (A) (A) (A) (A) (A) (A) (A) (A) (A) (A) (A)
                 (A) (A) (A) (A) (A) (A) (A) (A) (A) (A) (A) (A)
       Virtual   (A) (A) (A) (A) (A) (A) (A) (A) (A) (A) (A) (A)
                 (A) (A) (A) (A) (A) (A) (A) (A) (A) (A) (A) (A)
                 (A) (A) (A) (A) (A) (A) (A) (A) (A) (A) (A) (A)
                 (A) (A) (A) (A) (A) (A) (A) (A) (A) (A) (A) (A)
                 (A) (A) (A) (A) (A) (A) (A) (A) (A) (A) (A) (A)
                 (A) (A) (A) (A) (A) (A) (A) (A) (A) (A) (A) (A)
                 (A) (A) (A) (A) (A) (A) (A) (A) (A) (A) (A) (A)
                 (A) (A) (A) (A) (A) (A) (A) (A) (A) (A) (A) (A)
                 (A) (A) (A) (A) (A) (A) (A) (A) (A) (A) (A) (A)
                 (A) (A) (A) (A) (A) (A) (A) (A) (A) (A) (A) (A)
                 (A) (A) (A) (A) (A) (A) (A) (A) (A) (A) (A) (A)
                 (A) (A) (A) (A) (A) (A) (A) (A) (A) (A) (A) (A)
                 (A) (A) (A) (A) (A) (A) (A) (A) (A) (A) (A) (A)
                 (A) (A) (A) (A) (A) (A) (A) (A) (A) (A) (A) (A)
                 (A) (A) (A) (A) (A) (A) (A) (A) (A) (A) (A)
 The electronic state is 1-A.
 Alpha  occ. eigenvalues --  -19.30023 -19.26878 -19.25152 -14.43470 -10.43176
 Alpha  occ. eigenvalues --  -10.36379 -10.32700 -10.31266 -10.30186 -10.29836
 Alpha  occ. eigenvalues --   -1.22498  -1.16993  -1.12435  -1.05137  -0.90646
 Alpha  occ. eigenvalues --   -0.87377  -0.78021  -0.72728  -0.71433  -0.63771
 Alpha  occ. eigenvalues --   -0.62943  -0.59504  -0.57450  -0.55991  -0.55427
 Alpha  occ. eigenvalues --   -0.50714  -0.50324  -0.49136  -0.47730  -0.47037
 Alpha  occ. eigenvalues --   -0.45288  -0.41469  -0.38535  -0.36102  -0.33970
 Alpha  occ. eigenvalues --   -0.30959
 Alpha virt. eigenvalues --   -0.03563   0.01570   0.02381   0.03203   0.05158
 Alpha virt. eigenvalues --    0.05646   0.06974   0.07405   0.07591   0.07976
 Alpha virt. eigenvalues --    0.09879   0.10289   0.11001   0.11525   0.12765
 Alpha virt. eigenvalues --    0.14126   0.15082   0.16086   0.16361   0.17155
 Alpha virt. eigenvalues --    0.17390   0.19342   0.19778   0.20070   0.21266
 Alpha virt. eigenvalues --    0.22012   0.22089   0.22946   0.24350   0.24614
 Alpha virt. eigenvalues --    0.26206   0.26540   0.27338   0.27700   0.28750
 Alpha virt. eigenvalues --    0.29356   0.29957   0.30845   0.31282   0.32165
 Alpha virt. eigenvalues --    0.32471   0.32680   0.33085   0.34284   0.36266
 Alpha virt. eigenvalues --    0.36363   0.37650   0.38187   0.39294   0.40307
 Alpha virt. eigenvalues --    0.42038   0.43314   0.44760   0.46506   0.48881
 Alpha virt. eigenvalues --    0.50894   0.56020   0.64688   0.67679   0.70321
 Alpha virt. eigenvalues --    0.70370   0.73283   0.75873   0.76793   0.77232
 Alpha virt. eigenvalues --    0.77258   0.79465   0.80838   0.85375   0.87432
 Alpha virt. eigenvalues --    0.90931   0.93685   0.94551   0.98851   1.00776
 Alpha virt. eigenvalues --    1.02657   1.06886   1.07692   1.09988   1.13319
 Alpha virt. eigenvalues --    1.14182   1.15886   1.17213   1.19224   1.19989
 Alpha virt. eigenvalues --    1.23026   1.25113   1.25435   1.26746   1.27952
 Alpha virt. eigenvalues --    1.29705   1.29898   1.33906   1.35674   1.35699
 Alpha virt. eigenvalues --    1.37327   1.37776   1.39609   1.43233   1.44351
 Alpha virt. eigenvalues --    1.44527   1.46948   1.47318   1.48890   1.52525
 Alpha virt. eigenvalues --    1.53878   1.62651   1.63049   1.65096   1.68402
 Alpha virt. eigenvalues --    1.71481   1.80811   1.81118   1.82777   1.85075
 Alpha virt. eigenvalues --    1.88875   1.89519   1.92614   1.94343   1.96028
 Alpha virt. eigenvalues --    1.97526   2.01474   2.04327   2.04889   2.06174
 Alpha virt. eigenvalues --    2.09022   2.11530   2.15516   2.21333   2.25284
 Alpha virt. eigenvalues --    2.33685   2.33851   2.35883   2.40802   2.41083
 Alpha virt. eigenvalues --    2.42070   2.44679   2.48066   2.51107   2.55237
 Alpha virt. eigenvalues --    2.55714   2.56491   2.59572   2.60478   2.60772
 Alpha virt. eigenvalues --    2.64341   2.68315   2.70941   2.73215   2.73554
 Alpha virt. eigenvalues --    2.78213   2.80741   2.82762   2.84537   2.91031
 Alpha virt. eigenvalues --    2.95672   3.01504   3.10950   3.14230   3.16486
 Alpha virt. eigenvalues --    3.25568   3.26417   3.33107   3.39062   3.45224
 Alpha virt. eigenvalues --    3.48481   3.59436   3.66140   3.88215   4.22686
 Alpha virt. eigenvalues --    4.32924   4.38163   4.40096   4.43276   4.54054
 Alpha virt. eigenvalues --    4.64502   4.76489   4.89542   4.92397
          Condensed to atoms (all electrons):
               1          2          3          4          5          6
     1  N    6.995959  -0.126138   0.236375  -0.140666   0.158511   0.355876
     2  C   -0.126138   6.235364  -0.327360   0.276168  -0.371216  -0.141385
     3  C    0.236375  -0.327360   5.808066  -0.723128   1.478537  -0.672648
     4  C   -0.140666   0.276168  -0.723128   9.735090  -4.266915   1.241077
     5  C    0.158511  -0.371216   1.478537  -4.266915  13.124170  -4.105633
     6  C    0.355876  -0.141385  -0.672648   1.241077  -4.105633   9.625205
     7  C   -0.221296   0.202585  -0.135771  -0.010447  -0.625778   0.038591
     8  O    0.014632  -0.015784   0.014221   0.000357   0.089306  -0.235326
     9  O    0.039183  -0.025367   0.014640  -0.001326   0.152415  -0.269231
    10  O    0.005599  -0.021319   0.029085  -0.519123   0.277755   0.197134
    11  H   -0.103417   0.474305  -0.126403   0.036491  -0.037024   0.030547
    12  H    0.004578   0.023843   0.293431   0.017840  -0.005218  -0.009517
    13  H    0.001816  -0.019048   0.019600   0.236276   0.091002  -0.005631
    14  H    0.003743   0.004498  -0.002217   0.007698  -0.029506   0.019767
    15  H   -0.000259   0.003701  -0.008896   0.138290  -0.013454  -0.104698
               7          8          9         10         11         12
     1  N   -0.221296   0.014632   0.039183   0.005599  -0.103417   0.004578
     2  C    0.202585  -0.015784  -0.025367  -0.021319   0.474305   0.023843
     3  C   -0.135771   0.014221   0.014640   0.029085  -0.126403   0.293431
     4  C   -0.010447   0.000357  -0.001326  -0.519123   0.036491   0.017840
     5  C   -0.625778   0.089306   0.152415   0.277755  -0.037024  -0.005218
     6  C    0.038591  -0.235326  -0.269231   0.197134   0.030547  -0.009517
     7  C    5.643348   0.374493   0.208943  -0.043171   0.012697  -0.001174
     8  O    0.374493   8.484679  -0.164950  -0.042521   0.000004   0.000004
     9  O    0.208943  -0.164950   8.295373  -0.004032  -0.000358  -0.000007
    10  O   -0.043171  -0.042521  -0.004032   8.513656   0.000144  -0.000617
    11  H    0.012697   0.000004  -0.000358   0.000144   0.577029  -0.002255
    12  H   -0.001174   0.000004  -0.000007  -0.000617  -0.002255   0.534703
    13  H    0.000258   0.000079   0.000017  -0.007119  -0.000112  -0.004445
    14  H    0.035115   0.000331   0.186677   0.000206  -0.000001   0.000000
    15  H   -0.000212   0.051522   0.003607   0.182152  -0.000000   0.000003
              13         14         15
     1  N    0.001816   0.003743  -0.000259
     2  C   -0.019048   0.004498   0.003701
     3  C    0.019600  -0.002217  -0.008896
     4  C    0.236276   0.007698   0.138290
     5  C    0.091002  -0.029506  -0.013454
     6  C   -0.005631   0.019767  -0.104698
     7  C    0.000258   0.035115  -0.000212
     8  O    0.000079   0.000331   0.051522
     9  O    0.000017   0.186677   0.003607
    10  O   -0.007119   0.000206   0.182152
    11  H   -0.000112  -0.000001  -0.000000
    12  H   -0.004445   0.000000   0.000003
    13  H    0.526989  -0.000000   0.000056
    14  H   -0.000000   0.382861   0.000011
    15  H    0.000056   0.000011   0.330163
 Mulliken charges:
               1
     1  N   -0.224495
     2  C   -0.172848
     3  C    0.102468
     4  C   -0.027683
     5  C    0.083047
     6  C    0.035873
     7  C    0.521821
     8  O   -0.571048
     9  O   -0.435583
    10  O   -0.567829
    11  H    0.138355
    12  H    0.148831
    13  H    0.160261
    14  H    0.390816
    15  H    0.418013
 Sum of Mulliken charges =  -0.00000
 Mulliken charges with hydrogens summed into heavy atoms:
               1
     1  N   -0.224495
     2  C   -0.034493
     3  C    0.251300
     4  C    0.132579
     5  C    0.083047
     6  C    0.035873
     7  C    0.521821
     8  O   -0.571048
     9  O   -0.044767
    10  O   -0.149816
 Electronic spatial extent (au):  <R**2>=           1308.5060
 Charge=             -0.0000 electrons
 Dipole moment (field-independent basis, Debye):
    X=             -1.2847    Y=             -0.5094    Z=              0.0001  Tot=              1.3820
 Quadrupole moment (field-independent basis, Debye-Ang):
   XX=            -43.7212   YY=            -63.3606   ZZ=            -58.5139
   XY=             -2.4257   XZ=              0.0001   YZ=              0.0003
 Traceless Quadrupole moment (field-independent basis, Debye-Ang):
   XX=             11.4774   YY=             -8.1620   ZZ=             -3.3154
   XY=             -2.4257   XZ=              0.0001   YZ=              0.0003
 Octapole moment (field-independent basis, Debye-Ang**2):
  XXX=             17.4017  YYY=              2.0019  ZZZ=             -0.0004  XYY=             -1.1501
  XXY=            -18.3069  XXZ=              0.0003  XZZ=             10.6298  YZZ=              1.7011
  YYZ=              0.0000  XYZ=              0.0008
 Hexadecapole moment (field-independent basis, Debye-Ang**3):
 XXXX=           -863.1364 YYYY=           -602.9181 ZZZZ=            -61.0162 XXXY=            -75.8121
 XXXZ=              0.0044 YYYX=             16.6030 YYYZ=              0.0036 ZZZX=              0.0054
 ZZZY=              0.0035 XXYY=           -236.5614 XXZZ=           -196.2556 YYZZ=           -110.5273
 XXYZ=              0.0022 YYXZ=              0.0014 ZZXY=             -2.6145
 N-N= 5.079570794617D+02 E-N=-2.211333072794D+03  KE= 5.073901573323D+02
 Calling FoFJK, ICntrl=      2127 FMM=F ISym2X=0 I1Cent= 0 IOpClX= 0 NMat=1 NMatS=1 NMatT=0.
 ***** Axes restored to original set *****
 -------------------------------------------------------------------
 Center     Atomic                   Forces (Hartrees/Bohr)
 Number     Number              X              Y              Z
 -------------------------------------------------------------------
      1        7          -0.002868993    0.002884191    0.000000388
      2        6           0.001768737    0.000298120   -0.000000341
      3        6           0.002875444    0.001783601   -0.000000066
      4        6           0.000708500   -0.002581291    0.000000120
      5        6          -0.001942682   -0.005357128    0.000000732
      6        6          -0.003724706    0.002773396    0.000000702
      7        6           0.003039370    0.001561381   -0.000004616
      8        8          -0.002734921   -0.005957628    0.000003052
      9        8          -0.000752747    0.003998075    0.000001104
     10        8           0.002113225   -0.001389640    0.000000843
     11        1           0.000454965    0.001005641    0.000000011
     12        1           0.000997812   -0.000099580    0.000000007
     13        1           0.000679063   -0.000581320   -0.000000073
     14        1           0.000714977   -0.000798770   -0.000000034
     15        1          -0.001328043    0.002460953   -0.000001829
 -------------------------------------------------------------------
 Cartesian Forces:  Max     0.005957628 RMS     0.002011127

 GradGradGradGradGradGradGradGradGradGradGradGradGradGradGradGradGradGrad
 Berny optimization.
 FormGI is forming the generalized inverse of G from B-inverse, IUseBI=4.
 Internal  Forces:  Max     0.006509256 RMS     0.001642517
 Search for a local minimum.
 Step number   1 out of a maximum of   74
 All quantities printed in internal units (Hartrees-Bohrs-Radians)
 Mixed Optimization -- RFO/linear search
 Second derivative matrix not updated -- first step.
 ITU=  0
     Eigenvalues ---    0.01098   0.01591   0.01741   0.01974   0.02095
     Eigenvalues ---    0.02130   0.02170   0.02199   0.02264   0.02472
     Eigenvalues ---    0.02543   0.02599   0.16000   0.16000   0.16000
     Eigenvalues ---    0.16000   0.16000   0.22081   0.23319   0.24912
     Eigenvalues ---    0.25000   0.25000   0.25000   0.25000   0.35096
     Eigenvalues ---    0.35161   0.35254   0.35354   0.40644   0.43532
     Eigenvalues ---    0.44176   0.47447   0.49721   0.53233   0.55194
     Eigenvalues ---    0.58187   0.59180   0.59430   0.89680
 RFO step:  Lambda=-4.26308643D-04 EMin= 1.09802181D-02
 Linear search not attempted -- first point.
 Iteration  1 RMS(Cart)=  0.01180611 RMS(Int)=  0.00014188
 Iteration  2 RMS(Cart)=  0.00013899 RMS(Int)=  0.00000017
 Iteration  3 RMS(Cart)=  0.00000001 RMS(Int)=  0.00000017
 Variable       Old X    -DE/DX   Delta X   Delta X   Delta X     New X
                                 (Linear)    (Quad)   (Total)
    R1        2.50091  -0.00422   0.00000  -0.00693  -0.00693   2.49397
    R2        2.53646  -0.00261   0.00000  -0.00462  -0.00462   2.53185
    R3        2.65607  -0.00275   0.00000  -0.00616  -0.00616   2.64992
    R4        2.05519  -0.00110   0.00000  -0.00314  -0.00314   2.05205
    R5        2.61138  -0.00409   0.00000  -0.00836  -0.00836   2.60302
    R6        2.05264  -0.00099   0.00000  -0.00280  -0.00280   2.04984
    R7        2.65320  -0.00326   0.00000  -0.00721  -0.00721   2.64598
    R8        2.05105  -0.00085   0.00000  -0.00239  -0.00239   2.04865
    R9        2.67504  -0.00434   0.00000  -0.01004  -0.01004   2.66500
   R10        2.52405   0.00131   0.00000   0.00225   0.00225   2.52630
   R11        2.78715   0.00024   0.00000   0.00069   0.00069   2.78784
   R12        2.33081  -0.00651   0.00000  -0.00725  -0.00725   2.32355
   R13        2.51595  -0.00287   0.00000  -0.00485  -0.00485   2.51110
   R14        1.83437   0.00056   0.00000   0.00105   0.00105   1.83542
   R15        1.86848  -0.00172   0.00000  -0.00346  -0.00346   1.86502
    A1        2.06810   0.00073   0.00000   0.00278   0.00278   2.07088
    A2        2.14307  -0.00074   0.00000  -0.00340  -0.00340   2.13967
    A3        2.03377   0.00039   0.00000   0.00183   0.00183   2.03561
    A4        2.10634   0.00035   0.00000   0.00157   0.00157   2.10791
    A5        2.08216   0.00018   0.00000   0.00091   0.00091   2.08307
    A6        2.09598  -0.00026   0.00000  -0.00151  -0.00151   2.09447
    A7        2.10504   0.00008   0.00000   0.00061   0.00061   2.10565
    A8        2.07338   0.00023   0.00000   0.00122   0.00122   2.07460
    A9        2.13533   0.00018   0.00000   0.00121   0.00121   2.13655
   A10        2.07447  -0.00041   0.00000  -0.00243  -0.00243   2.07204
   A11        2.05176  -0.00011   0.00000  -0.00032  -0.00032   2.05144
   A12        2.07357  -0.00172   0.00000  -0.00694  -0.00694   2.06663
   A13        2.15785   0.00183   0.00000   0.00726   0.00726   2.16511
   A14        2.14790  -0.00030   0.00000  -0.00119  -0.00119   2.14671
   A15        2.06830  -0.00151   0.00000  -0.00603  -0.00603   2.06227
   A16        2.06699   0.00181   0.00000   0.00721   0.00721   2.07420
   A17        2.14129   0.00059   0.00000   0.00237   0.00237   2.14366
   A18        2.01869   0.00064   0.00000   0.00255   0.00255   2.02124
   A19        2.12321  -0.00123   0.00000  -0.00491  -0.00491   2.11829
   A20        1.85979   0.00168   0.00000   0.01046   0.01046   1.87025
   A21        1.86781   0.00411   0.00000   0.02563   0.02563   1.89344
    D1        0.00000  -0.00000   0.00000  -0.00001  -0.00001  -0.00001
    D2       -3.14159  -0.00000   0.00000  -0.00000  -0.00000   3.14159
    D3       -0.00000  -0.00000   0.00000  -0.00000  -0.00000  -0.00000
    D4       -3.14158  -0.00000   0.00000  -0.00003  -0.00003   3.14157
    D5       -0.00000   0.00000   0.00000   0.00001   0.00001   0.00001
    D6        3.14159   0.00000   0.00000   0.00000   0.00000  -3.14159
    D7       -3.14159   0.00000   0.00000   0.00000   0.00000  -3.14159
    D8        0.00000  -0.00000   0.00000  -0.00000  -0.00000  -0.00000
    D9       -0.00000   0.00000   0.00000   0.00000   0.00000   0.00000
   D10       -3.14159  -0.00000   0.00000  -0.00001  -0.00001   3.14158
   D11        3.14159   0.00000   0.00000   0.00001   0.00001  -3.14159
   D12        0.00000  -0.00000   0.00000  -0.00001  -0.00001  -0.00000
   D13        0.00000  -0.00000   0.00000  -0.00001  -0.00001  -0.00001
   D14       -3.14158  -0.00000   0.00000  -0.00003  -0.00003   3.14157
   D15        3.14159   0.00000   0.00000   0.00000   0.00000  -3.14159
   D16        0.00000  -0.00000   0.00000  -0.00002  -0.00002  -0.00001
   D17       -0.00000   0.00000   0.00000   0.00001   0.00001   0.00001
   D18        3.14158   0.00000   0.00000   0.00004   0.00004  -3.14157
   D19        3.14158   0.00000   0.00000   0.00003   0.00003  -3.14157
   D20       -0.00002   0.00000   0.00000   0.00006   0.00006   0.00004
   D21        3.14157   0.00000   0.00000   0.00007   0.00007  -3.14154
   D22       -0.00001   0.00000   0.00000   0.00005   0.00005   0.00004
   D23        3.14155   0.00000   0.00000   0.00016   0.00016  -3.14147
   D24       -0.00001  -0.00000   0.00000  -0.00001  -0.00001  -0.00001
   D25       -0.00003   0.00000   0.00000   0.00013   0.00013   0.00010
   D26       -3.14159  -0.00000   0.00000  -0.00003  -0.00003   3.14156
   D27        3.14158   0.00000   0.00000   0.00008   0.00008  -3.14153
   D28        0.00002  -0.00000   0.00000  -0.00008  -0.00008  -0.00007
         Item               Value     Threshold  Converged?
 Maximum Force            0.006509     0.000450     NO 
 RMS     Force            0.001643     0.000300     NO 
 Maximum Displacement     0.072046     0.001800     NO 
 RMS     Displacement     0.011830     0.001200     NO 
 Predicted change in Energy=-2.134700D-04
 GradGradGradGradGradGradGradGradGradGradGradGradGradGradGradGradGradGrad

                          Input orientation:                          
 ---------------------------------------------------------------------
 Center     Atomic      Atomic             Coordinates (Angstroms)
 Number     Number       Type             X           Y           Z
 ---------------------------------------------------------------------
      1          7           0       -0.443414   -1.443924   -0.000017
      2          6           0       -1.762799   -1.475088    0.000014
      3          6           0       -2.545867   -0.311826    0.000044
      4          6           0       -1.926911    0.918735    0.000032
      5          6           0       -0.527715    0.971606   -0.000009
      6          6           0        0.171072   -0.253353   -0.000028
      7          6           0        1.646165   -0.231214   -0.000036
      8          8           0        2.297057    0.811949    0.000075
      9          8           0        2.242567   -1.418673   -0.000016
     10          8           0        0.063464    2.170647   -0.000048
     11          1           0       -2.226497   -2.457002    0.000022
     12          1           0       -3.628030   -0.386414    0.000071
     13          1           0       -2.483368    1.849128    0.000046
     14          1           0        3.200480   -1.258192    0.000034
     15          1           0        1.041352    2.037405   -0.000123
 ---------------------------------------------------------------------
                    Distance matrix (angstroms):
                    1          2          3          4          5
     1  N    0.000000
     2  C    1.319753   0.000000
     3  C    2.387876   1.402275   0.000000
     4  C    2.789789   2.399442   1.377457   0.000000
     5  C    2.417001   2.740756   2.391680   1.400194   0.000000
     6  C    1.339796   2.287465   2.717568   2.403190   1.410258
     7  C    2.415990   3.628810   4.192807   3.753565   2.484458
     8  O    3.549527   4.659718   4.971597   4.225317   2.829280
     9  O    2.686100   4.005764   4.914694   4.779961   3.658948
    10  O    3.649939   4.077576   3.601566   2.351356   1.336859
    11  H    2.050783   1.085896   2.168820   3.389005   3.826384
    12  H    3.355608   2.159698   1.084730   2.144113   3.384696
    13  H    3.873706   3.401416   2.161857   1.084101   2.143507
    14  H    3.648625   4.968016   5.823754   5.570382   4.344127
    15  H    3.784730   4.494538   4.288009   3.172067   1.896813
                    6          7          8          9         10
     6  C    0.000000
     7  C    1.475259   0.000000
     8  O    2.377956   1.229572   0.000000
     9  O    2.376776   1.328817   2.231287   0.000000
    10  O    2.426388   2.876435   2.614383   4.199013   0.000000
    11  H    3.256441   4.466727   5.581091   4.588101   5.163241
    12  H    3.801431   5.276478   6.045058   5.960660   4.490622
    13  H    3.386218   4.623944   4.891645   5.745693   2.567046
    14  H    3.191710   1.862950   2.258685   0.971263   4.647345
    15  H    2.450502   2.347856   1.754576   3.658879   0.986924
                   11         12         13         14         15
    11  H    0.000000
    12  H    2.500326   0.000000
    13  H    4.313785   2.511553   0.000000
    14  H    5.557808   6.883934   6.477774   0.000000
    15  H    5.556846   5.260991   3.529744   3.939898   0.000000
 Stoichiometry    C6H5NO3
 Framework group  C1[X(C6H5NO3)]
 Deg. of freedom    39
 Full point group                 C1      NOp   1
 Largest Abelian subgroup         C1      NOp   1
 Largest concise Abelian subgroup C1      NOp   1
                         Standard orientation:                         
 ---------------------------------------------------------------------
 Center     Atomic      Atomic             Coordinates (Angstroms)
 Number     Number       Type             X           Y           Z
 ---------------------------------------------------------------------
      1          7           0       -0.436421   -1.444474   -0.000018
      2          6           0       -1.755659   -1.481375    0.000012
      3          6           0       -2.543776   -0.321528    0.000042
      4          6           0       -1.930177    0.911713    0.000031
      5          6           0       -0.531224    0.970667   -0.000011
      6          6           0        0.172883   -0.251243   -0.000030
      7          6           0        1.647865   -0.222690   -0.000038
      8          8           0        2.294215    0.823292    0.000074
      9          8           0        2.249425   -1.407545   -0.000018
     10          8           0        0.054736    2.172267   -0.000049
     11          1           0       -2.215083   -2.465295    0.000020
     12          1           0       -3.625605   -0.400820    0.000069
     13          1           0       -2.490673    1.839677    0.000044
     14          1           0        3.206631   -1.242901    0.000033
     15          1           0        1.033194    2.043277   -0.000125
 ---------------------------------------------------------------------
 Rotational constants (GHZ):      2.3738675      1.2657300      0.8255515
 Standard basis: 6-31+G(d,p) (6D, 7F)
 There are   215 symmetry adapted cartesian basis functions of A   symmetry.
 There are   215 symmetry adapted basis functions of A   symmetry.
   215 basis functions,   355 primitive gaussians,   215 cartesian basis functions
    36 alpha electrons       36 beta electrons
       nuclear repulsion energy       508.4686506223 Hartrees.
 NAtoms=   15 NActive=   15 NUniq=   15 SFac= 1.00D+00 NAtFMM=   60 NAOKFM=F Big=F
 Integral buffers will be    131072 words long.
 Raffenetti 2 integral format.
 Two-electron integral symmetry is turned on.
 Nuclear repulsion after empirical dispersion term =      508.4617977541 Hartrees.
 One-electron integrals computed using PRISM.
 NBasis=   215 RedAO= T EigKep=  5.64D-06  NBF=   215
 NBsUse=   215 1.00D-06 EigRej= -1.00D+00 NBFU=   215
 Initial guess from the checkpoint file:  "camb3lypD33HPA.chk"
 B after Tr=    -0.000000    0.000000    0.000000
         Rot=    0.999998   -0.000005    0.000003   -0.001912 Ang=  -0.22 deg.
 ExpMin= 4.38D-02 ExpMax= 5.48D+03 ExpMxC= 8.25D+02 IAcc=2 IRadAn=         4 AccDes= 0.00D+00
 Harris functional with IExCor=20419 and IRadAn=       4 diagonalized for initial guess.
 HarFok:  IExCor=20419 AccDes= 0.00D+00 IRadAn=         4 IDoV= 1 UseB2=F ITyADJ=14
 ICtDFT=  3500011 ScaDFX=  1.000000  1.000000  1.000000  1.000000
 FoFCou: FMM=F IPFlag=           0 FMFlag=      100000 FMFlg1=           0
         NFxFlg=           0 DoJE=T BraDBF=F KetDBF=T FulRan=T
         wScrn=  0.000000 ICntrl=     500 IOpCl=  0 I1Cent=   200000004 NGrid=           0
         NMat0=    1 NMatS0=      1 NMatT0=    0 NMatD0=    1 NMtDS0=    0 NMtDT0=    0
 Petite list used in FoFCou.
 Keep R1 ints in memory in canonical form, NReq=544393055.
 Requested convergence on RMS density matrix=1.00D-08 within 128 cycles.
 Requested convergence on MAX density matrix=1.00D-06.
 Requested convergence on             energy=1.00D-06.
 No special actions if energy rises.
 SCF Done:  E(RCAM-B3LYP) =  -511.906450021     A.U. after   13 cycles
            NFock= 13  Conv=0.25D-08     -V/T= 2.0088
 Calling FoFJK, ICntrl=      2127 FMM=F ISym2X=0 I1Cent= 0 IOpClX= 0 NMat=1 NMatS=1 NMatT=0.
 ***** Axes restored to original set *****
 -------------------------------------------------------------------
 Center     Atomic                   Forces (Hartrees/Bohr)
 Number     Number              X              Y              Z
 -------------------------------------------------------------------
      1        7          -0.000364105    0.000222057   -0.000001174
      2        6           0.000258949   -0.000538460    0.000000965
      3        6          -0.000462379    0.000147171    0.000000015
      4        6          -0.000127096    0.000422219    0.000000166
      5        6           0.000887376   -0.002166364   -0.000002330
      6        6          -0.000713324    0.000867122   -0.000003779
      7        6           0.003032800    0.001647389    0.000018111
      8        8          -0.001431843   -0.000318852   -0.000009671
      9        8          -0.000454818   -0.000556651   -0.000005179
     10        8           0.002918151    0.000763191   -0.000002034
     11        1          -0.000112764   -0.000081753   -0.000000067
     12        1          -0.000124455   -0.000026505    0.000000019
     13        1           0.000053032    0.000134933    0.000000086
     14        1          -0.000479599    0.000164436    0.000000077
     15        1          -0.002879926   -0.000679934    0.000004796
 -------------------------------------------------------------------
 Cartesian Forces:  Max     0.003032800 RMS     0.000948202

 GradGradGradGradGradGradGradGradGradGradGradGradGradGradGradGradGradGrad
 Berny optimization.
 Using GEDIIS/GDIIS optimizer.
 FormGI is forming the generalized inverse of G from B-inverse, IUseBI=4.
 Internal  Forces:  Max     0.002761612 RMS     0.000675701
 Search for a local minimum.
 Step number   2 out of a maximum of   74
 All quantities printed in internal units (Hartrees-Bohrs-Radians)
 Mixed Optimization -- En-DIIS/RFO-DIIS
 Update second derivatives using D2CorX and points    1    2
 DE= -1.75D-04 DEPred=-2.13D-04 R= 8.18D-01
 TightC=F SS=  1.41D+00  RLast= 3.85D-02 DXNew= 5.0454D-01 1.1537D-01
 Trust test= 8.18D-01 RLast= 3.85D-02 DXMaxT set to 3.00D-01
 ITU=  1  0
 Use linear search instead of GDIIS.
     Eigenvalues ---    0.01098   0.01588   0.01740   0.01974   0.02095
     Eigenvalues ---    0.02130   0.02170   0.02199   0.02265   0.02472
     Eigenvalues ---    0.02543   0.02599   0.15875   0.16000   0.16000
     Eigenvalues ---    0.16000   0.17570   0.22028   0.23324   0.24535
     Eigenvalues ---    0.24967   0.25000   0.25000   0.30505   0.33941
     Eigenvalues ---    0.35167   0.35316   0.35590   0.36781   0.43078
     Eigenvalues ---    0.44417   0.47020   0.50058   0.53298   0.56692
     Eigenvalues ---    0.58205   0.59200   0.61490   0.86679
 RFO step:  Lambda=-6.17510349D-05 EMin= 1.09802358D-02
 Quartic linear search produced a step of -0.15125.
 Iteration  1 RMS(Cart)=  0.00560143 RMS(Int)=  0.00001522
 Iteration  2 RMS(Cart)=  0.00001559 RMS(Int)=  0.00000025
 Iteration  3 RMS(Cart)=  0.00000000 RMS(Int)=  0.00000025
 Variable       Old X    -DE/DX   Delta X   Delta X   Delta X     New X
                                 (Linear)    (Quad)   (Total)
    R1        2.49397   0.00031   0.00105  -0.00156  -0.00052   2.49346
    R2        2.53185   0.00024   0.00070  -0.00107  -0.00038   2.53147
    R3        2.64992   0.00064   0.00093  -0.00043   0.00050   2.65041
    R4        2.05205   0.00012   0.00048  -0.00063  -0.00016   2.05189
    R5        2.60302   0.00037   0.00126  -0.00173  -0.00047   2.60255
    R6        2.04984   0.00013   0.00042  -0.00052  -0.00010   2.04974
    R7        2.64598   0.00020   0.00109  -0.00182  -0.00073   2.64525
    R8        2.04865   0.00009   0.00036  -0.00049  -0.00013   2.04852
    R9        2.66500  -0.00198   0.00152  -0.00704  -0.00552   2.65948
   R10        2.52630   0.00009  -0.00034   0.00080   0.00046   2.52676
   R11        2.78784   0.00068  -0.00010   0.00184   0.00174   2.78958
   R12        2.32355  -0.00103   0.00110  -0.00312  -0.00202   2.32153
   R13        2.51110  -0.00007   0.00073  -0.00153  -0.00080   2.51030
   R14        1.83542  -0.00045  -0.00016  -0.00040  -0.00056   1.83486
   R15        1.86502  -0.00276   0.00052  -0.00574  -0.00521   1.85980
    A1        2.07088   0.00006  -0.00042   0.00100   0.00058   2.07146
    A2        2.13967  -0.00015   0.00051  -0.00110  -0.00059   2.13908
    A3        2.03561   0.00015  -0.00028   0.00096   0.00068   2.03628
    A4        2.10791   0.00001  -0.00024   0.00015  -0.00009   2.10782
    A5        2.08307  -0.00032  -0.00014  -0.00041  -0.00055   2.08252
    A6        2.09447   0.00014   0.00023  -0.00020   0.00003   2.09450
    A7        2.10565   0.00018  -0.00009   0.00061   0.00052   2.10617
    A8        2.07460  -0.00032  -0.00018  -0.00078  -0.00096   2.07364
    A9        2.13655   0.00028  -0.00018   0.00155   0.00136   2.13791
   A10        2.07204   0.00004   0.00037  -0.00077  -0.00040   2.07164
   A11        2.05144   0.00080   0.00005   0.00223   0.00228   2.05373
   A12        2.06663   0.00059   0.00105   0.00015   0.00120   2.06783
   A13        2.16511  -0.00139  -0.00110  -0.00238  -0.00348   2.16163
   A14        2.14671  -0.00006   0.00018  -0.00094  -0.00076   2.14595
   A15        2.06227   0.00148   0.00091   0.00347   0.00438   2.06665
   A16        2.07420  -0.00143  -0.00109  -0.00253  -0.00362   2.07059
   A17        2.14366  -0.00092  -0.00036  -0.00243  -0.00279   2.14087
   A18        2.02124  -0.00059  -0.00039  -0.00125  -0.00163   2.01960
   A19        2.11829   0.00151   0.00074   0.00368   0.00442   2.12271
   A20        1.87025  -0.00044  -0.00158   0.00072  -0.00087   1.86939
   A21        1.89344  -0.00198  -0.00388  -0.00300  -0.00688   1.88657
    D1       -0.00001   0.00000   0.00000   0.00002   0.00002   0.00001
    D2        3.14159   0.00000   0.00000   0.00000   0.00000  -3.14159
    D3       -0.00000   0.00000   0.00000  -0.00000   0.00000  -0.00000
    D4        3.14157   0.00000   0.00000   0.00005   0.00005  -3.14156
    D5        0.00001  -0.00000  -0.00000  -0.00002  -0.00002  -0.00001
    D6       -3.14159  -0.00000  -0.00000  -0.00001  -0.00001   3.14159
    D7       -3.14159  -0.00000  -0.00000  -0.00000  -0.00000   3.14159
    D8       -0.00000   0.00000   0.00000   0.00001   0.00001   0.00001
    D9        0.00000   0.00000  -0.00000  -0.00000  -0.00000  -0.00000
   D10        3.14158   0.00000   0.00000   0.00002   0.00003  -3.14158
   D11       -3.14159  -0.00000  -0.00000  -0.00001  -0.00001   3.14158
   D12       -0.00000   0.00000   0.00000   0.00001   0.00001   0.00001
   D13       -0.00001   0.00000   0.00000   0.00002   0.00002   0.00001
   D14        3.14157   0.00000   0.00000   0.00007   0.00007  -3.14154
   D15       -3.14159  -0.00000  -0.00000  -0.00001  -0.00001   3.14159
   D16       -0.00001   0.00000   0.00000   0.00004   0.00005   0.00003
   D17        0.00001  -0.00000  -0.00000  -0.00002  -0.00002  -0.00001
   D18       -3.14157  -0.00000  -0.00001  -0.00007  -0.00007   3.14155
   D19       -3.14157  -0.00000  -0.00001  -0.00007  -0.00007   3.14154
   D20        0.00004  -0.00000  -0.00001  -0.00012  -0.00013  -0.00008
   D21       -3.14154  -0.00000  -0.00001  -0.00014  -0.00015   3.14149
   D22        0.00004  -0.00000  -0.00001  -0.00009  -0.00010  -0.00006
   D23       -3.14147  -0.00001  -0.00002  -0.00039  -0.00042   3.14129
   D24       -0.00001   0.00000   0.00000   0.00010   0.00010   0.00009
   D25        0.00010  -0.00001  -0.00002  -0.00035  -0.00037  -0.00027
   D26        3.14156   0.00000   0.00001   0.00015   0.00015  -3.14147
   D27       -3.14153  -0.00000  -0.00001  -0.00024  -0.00025   3.14140
   D28       -0.00007   0.00000   0.00001   0.00024   0.00026   0.00019
         Item               Value     Threshold  Converged?
 Maximum Force            0.002762     0.000450     NO 
 RMS     Force            0.000676     0.000300     NO 
 Maximum Displacement     0.029752     0.001800     NO 
 RMS     Displacement     0.005597     0.001200     NO 
 Predicted change in Energy=-3.650299D-05
 GradGradGradGradGradGradGradGradGradGradGradGradGradGradGradGradGradGrad

                          Input orientation:                          
 ---------------------------------------------------------------------
 Center     Atomic      Atomic             Coordinates (Angstroms)
 Number     Number       Type             X           Y           Z
 ---------------------------------------------------------------------
      1          7           0       -0.445389   -1.444542    0.000108
      2          6           0       -1.764515   -1.475126    0.000069
      3          6           0       -2.546536   -0.310843   -0.000016
      4          6           0       -1.925756    0.918521   -0.000045
      5          6           0       -0.526817    0.967828    0.000013
      6          6           0        0.170214   -0.254772    0.000082
      7          6           0        1.646144   -0.227655    0.000084
      8          8           0        2.290046    0.818581   -0.000249
      9          8           0        2.244412   -1.413703    0.000008
     10          8           0        0.068944    2.164870    0.000041
     11          1           0       -2.229272   -2.456447    0.000094
     12          1           0       -3.628725   -0.384288   -0.000051
     13          1           0       -2.479442    1.850485   -0.000095
     14          1           0        3.201613   -1.250785   -0.000157
     15          1           0        1.042634    2.021661    0.000175
 ---------------------------------------------------------------------
                    Distance matrix (angstroms):
                    1          2          3          4          5
     1  N    0.000000
     2  C    1.319480   0.000000
     3  C    2.387487   1.402537   0.000000
     4  C    2.788468   2.399071   1.377209   0.000000
     5  C    2.413744   2.738598   2.390453   1.399808   0.000000
     6  C    1.339597   2.287452   2.717329   2.402021   1.407339
     7  C    2.419779   3.631636   4.193506   3.751292   2.480109
     8  O    3.550258   4.658386   4.966702   4.216987   2.820814
     9  O    2.689979   4.009398   4.916247   4.778030   3.653957
    10  O    3.645874   4.075676   3.601373   2.352066   1.337102
    11  H    2.050899   1.085814   2.168934   3.388589   3.824136
    12  H    3.355259   2.159909   1.084678   2.144158   3.383792
    13  H    3.872283   3.401589   2.162369   1.084032   2.142855
    14  H    3.652146   4.971193   5.824493   5.567388   4.338598
    15  H    3.772105   4.484150   4.280504   3.166743   1.890434
                    6          7          8          9         10
     6  C    0.000000
     7  C    1.476180   0.000000
     8  O    2.376084   1.228502   0.000000
     9  O    2.376009   1.328396   2.232750   0.000000
    10  O    2.421760   2.865613   2.597266   4.187941   0.000000
    11  H    3.256517   4.470612   5.581223   4.593601   5.161237
    12  H    3.801146   5.277194   6.039764   5.962670   4.491209
    13  H    3.384196   4.619429   4.879840   5.741926   2.567704
    14  H    3.190835   1.861795   2.261245   0.970966   4.634686
    15  H    2.437881   2.328872   1.733043   3.639505   0.984166
                   11         12         13         14         15
    11  H    0.000000
    12  H    2.500463   0.000000
    13  H    4.314192   2.512979   0.000000
    14  H    5.563105   6.885081   6.472423   0.000000
    15  H    5.546064   5.254539   3.526233   3.920471   0.000000
 Stoichiometry    C6H5NO3
 Framework group  C1[X(C6H5NO3)]
 Deg. of freedom    39
 Full point group                 C1      NOp   1
 Largest Abelian subgroup         C1      NOp   1
 Largest concise Abelian subgroup C1      NOp   1
                         Standard orientation:                         
 ---------------------------------------------------------------------
 Center     Atomic      Atomic             Coordinates (Angstroms)
 Number     Number       Type             X           Y           Z
 ---------------------------------------------------------------------
      1          7           0       -0.442814   -1.444137    0.000105
      2          6           0       -1.761904   -1.476220    0.000066
      3          6           0       -2.545248   -0.312827   -0.000019
      4          6           0       -1.925865    0.917242   -0.000048
      5          6           0       -0.526983    0.968139    0.000009
      6          6           0        0.171437   -0.253668    0.000078
      7          6           0        1.647336   -0.224873    0.000080
      8          8           0        2.290048    0.822093   -0.000253
      9          8           0        2.246951   -1.410241    0.000005
     10          8           0        0.067417    2.165857    0.000037
     11          1           0       -2.225545   -2.458069    0.000091
     12          1           0       -3.627352   -0.387502   -0.000055
     13          1           0       -2.480610    1.848576   -0.000098
     14          1           0        3.203966   -1.246235   -0.000160
     15          1           0        1.041269    2.023755    0.000172
 ---------------------------------------------------------------------
 Rotational constants (GHZ):      2.3807272      1.2666753      0.8267824
 Standard basis: 6-31+G(d,p) (6D, 7F)
 There are   215 symmetry adapted cartesian basis functions of A   symmetry.
 There are   215 symmetry adapted basis functions of A   symmetry.
   215 basis functions,   355 primitive gaussians,   215 cartesian basis functions
    36 alpha electrons       36 beta electrons
       nuclear repulsion energy       508.8391710532 Hartrees.
 NAtoms=   15 NActive=   15 NUniq=   15 SFac= 1.00D+00 NAtFMM=   60 NAOKFM=F Big=F
 Integral buffers will be    131072 words long.
 Raffenetti 2 integral format.
 Two-electron integral symmetry is turned on.
 Nuclear repulsion after empirical dispersion term =      508.8323354313 Hartrees.
 One-electron integrals computed using PRISM.
 NBasis=   215 RedAO= T EigKep=  5.63D-06  NBF=   215
 NBsUse=   215 1.00D-06 EigRej= -1.00D+00 NBFU=   215
 Initial guess from the checkpoint file:  "camb3lypD33HPA.chk"
 B after Tr=     0.000000   -0.000000    0.000000
         Rot=    0.999999    0.000012   -0.000007    0.001387 Ang=   0.16 deg.
 ExpMin= 4.38D-02 ExpMax= 5.48D+03 ExpMxC= 8.25D+02 IAcc=2 IRadAn=         4 AccDes= 0.00D+00
 Harris functional with IExCor=20419 and IRadAn=       4 diagonalized for initial guess.
 HarFok:  IExCor=20419 AccDes= 0.00D+00 IRadAn=         4 IDoV= 1 UseB2=F ITyADJ=14
 ICtDFT=  3500011 ScaDFX=  1.000000  1.000000  1.000000  1.000000
 FoFCou: FMM=F IPFlag=           0 FMFlag=      100000 FMFlg1=           0
         NFxFlg=           0 DoJE=T BraDBF=F KetDBF=T FulRan=T
         wScrn=  0.000000 ICntrl=     500 IOpCl=  0 I1Cent=   200000004 NGrid=           0
         NMat0=    1 NMatS0=      1 NMatT0=    0 NMatD0=    1 NMtDS0=    0 NMtDT0=    0
 Petite list used in FoFCou.
 Keep R1 ints in memory in canonical form, NReq=544393055.
 Requested convergence on RMS density matrix=1.00D-08 within 128 cycles.
 Requested convergence on MAX density matrix=1.00D-06.
 Requested convergence on             energy=1.00D-06.
 No special actions if energy rises.
 SCF Done:  E(RCAM-B3LYP) =  -511.906472967     A.U. after   12 cycles
            NFock= 12  Conv=0.69D-08     -V/T= 2.0087
 Calling FoFJK, ICntrl=      2127 FMM=F ISym2X=0 I1Cent= 0 IOpClX= 0 NMat=1 NMatS=1 NMatT=0.
 ***** Axes restored to original set *****
 -------------------------------------------------------------------
 Center     Atomic                   Forces (Hartrees/Bohr)
 Number     Number              X              Y              Z
 -------------------------------------------------------------------
      1        7           0.000150452   -0.000511187    0.000003499
      2        6           0.000255010   -0.000290439   -0.000002597
      3        6          -0.000564393    0.000108795   -0.000000087
      4        6          -0.000492110    0.000357871   -0.000000904
      5        6           0.000253863    0.000254781    0.000005465
      6        6           0.000249604   -0.000303784    0.000012790
      7        6           0.000293845   -0.000143028   -0.000054037
      8        8           0.000665078    0.000028900    0.000026154
      9        8           0.000008515   -0.000200496    0.000015709
     10        8          -0.000636561    0.000825472    0.000003895
     11        1          -0.000091846   -0.000150401    0.000000085
     12        1          -0.000166294   -0.000020730    0.000000103
     13        1          -0.000048882    0.000117739   -0.000000159
     14        1          -0.000037551   -0.000034710   -0.000000157
     15        1           0.000161271   -0.000038781   -0.000009759
 -------------------------------------------------------------------
 Cartesian Forces:  Max     0.000825472 RMS     0.000266852

 GradGradGradGradGradGradGradGradGradGradGradGradGradGradGradGradGradGrad
 Berny optimization.
 Using GEDIIS/GDIIS optimizer.
 FormGI is forming the generalized inverse of G from B-inverse, IUseBI=4.
 Internal  Forces:  Max     0.001580474 RMS     0.000449674
 Search for a local minimum.
 Step number   3 out of a maximum of   74
 All quantities printed in internal units (Hartrees-Bohrs-Radians)
 Mixed Optimization -- En-DIIS/RFO-DIIS
 Swapping is turned off.
 Update second derivatives using D2CorX and points    1    2    3
 DE= -2.29D-05 DEPred=-3.65D-05 R= 6.29D-01
 TightC=F SS=  1.41D+00  RLast= 1.42D-02 DXNew= 5.0454D-01 4.2654D-02
 Trust test= 6.29D-01 RLast= 1.42D-02 DXMaxT set to 3.00D-01
 ITU=  1  1  0
     Eigenvalues ---    0.01098   0.01592   0.01740   0.01974   0.02095
     Eigenvalues ---    0.02130   0.02170   0.02199   0.02265   0.02472
     Eigenvalues ---    0.02543   0.02599   0.15465   0.16000   0.16000
     Eigenvalues ---    0.16000   0.17590   0.20674   0.22144   0.23391
     Eigenvalues ---    0.24961   0.25000   0.25168   0.30817   0.34531
     Eigenvalues ---    0.35149   0.35305   0.35499   0.42961   0.44388
     Eigenvalues ---    0.46165   0.48439   0.53230   0.55614   0.56997
     Eigenvalues ---    0.59198   0.60834   0.69097   0.87094
 En-DIIS/RFO-DIIS IScMMF=        0 using points:     3    2
 RFO step:  Lambda=-1.66633144D-05.
 DidBck=T Rises=F RFO-DIIS coefs:    0.72558    0.27442
 Iteration  1 RMS(Cart)=  0.00379379 RMS(Int)=  0.00000457
 Iteration  2 RMS(Cart)=  0.00000616 RMS(Int)=  0.00000010
 Iteration  3 RMS(Cart)=  0.00000000 RMS(Int)=  0.00000010
 Variable       Old X    -DE/DX   Delta X   Delta X   Delta X     New X
                                 (Linear)    (Quad)   (Total)
    R1        2.49346   0.00027   0.00014   0.00001   0.00015   2.49361
    R2        2.53147   0.00055   0.00010   0.00049   0.00059   2.53206
    R3        2.65041   0.00057  -0.00014   0.00105   0.00091   2.65132
    R4        2.05189   0.00018   0.00004   0.00026   0.00030   2.05219
    R5        2.60255   0.00041   0.00013   0.00030   0.00043   2.60298
    R6        2.04974   0.00017   0.00003   0.00027   0.00030   2.05004
    R7        2.64525   0.00084   0.00020   0.00092   0.00112   2.64638
    R8        2.04852   0.00013   0.00004   0.00018   0.00021   2.04873
    R9        2.65948   0.00158   0.00151  -0.00023   0.00128   2.66077
   R10        2.52676   0.00049  -0.00013   0.00080   0.00068   2.52743
   R11        2.78958   0.00092  -0.00048   0.00265   0.00217   2.79175
   R12        2.32153   0.00037   0.00055  -0.00073  -0.00018   2.32136
   R13        2.51030   0.00020   0.00022  -0.00017   0.00004   2.51035
   R14        1.83486  -0.00004   0.00015  -0.00034  -0.00018   1.83468
   R15        1.85980   0.00017   0.00143  -0.00239  -0.00096   1.85884
    A1        2.07146   0.00031  -0.00016   0.00111   0.00095   2.07241
    A2        2.13908   0.00015   0.00016  -0.00000   0.00016   2.13924
    A3        2.03628  -0.00006  -0.00019   0.00028   0.00009   2.03638
    A4        2.10782  -0.00010   0.00002  -0.00028  -0.00025   2.10757
    A5        2.08252  -0.00008   0.00015  -0.00069  -0.00054   2.08198
    A6        2.09450   0.00003  -0.00001   0.00018   0.00018   2.09467
    A7        2.10617   0.00005  -0.00014   0.00051   0.00037   2.10653
    A8        2.07364   0.00016   0.00026   0.00001   0.00027   2.07391
    A9        2.13791  -0.00006  -0.00037   0.00052   0.00015   2.13806
   A10        2.07164  -0.00010   0.00011  -0.00053  -0.00042   2.07122
   A11        2.05373  -0.00012  -0.00063   0.00099   0.00036   2.05409
   A12        2.06783  -0.00091  -0.00033  -0.00193  -0.00226   2.06557
   A13        2.16163   0.00102   0.00096   0.00095   0.00190   2.16353
   A14        2.14595  -0.00043   0.00021  -0.00141  -0.00120   2.14475
   A15        2.06665  -0.00113  -0.00120  -0.00094  -0.00214   2.06451
   A16        2.07059   0.00156   0.00099   0.00235   0.00334   2.07393
   A17        2.14087   0.00098   0.00077   0.00126   0.00203   2.14289
   A18        2.01960  -0.00068   0.00045  -0.00267  -0.00222   2.01738
   A19        2.12271  -0.00030  -0.00121   0.00141   0.00020   2.12291
   A20        1.86939   0.00005   0.00024  -0.00020   0.00004   1.86942
   A21        1.88657  -0.00003   0.00189  -0.00354  -0.00166   1.88491
    D1        0.00001  -0.00000  -0.00001  -0.00003  -0.00004  -0.00002
    D2       -3.14159  -0.00000  -0.00000  -0.00001  -0.00001   3.14159
    D3       -0.00000   0.00000  -0.00000   0.00001   0.00001   0.00001
    D4       -3.14156  -0.00000  -0.00001  -0.00005  -0.00007   3.14156
    D5       -0.00001   0.00000   0.00001   0.00003   0.00003   0.00002
    D6        3.14159   0.00000   0.00000   0.00001   0.00002  -3.14158
    D7        3.14159   0.00000   0.00000   0.00000   0.00000  -3.14159
    D8        0.00001  -0.00000  -0.00000  -0.00001  -0.00001  -0.00001
    D9       -0.00000  -0.00000   0.00000   0.00000   0.00000   0.00000
   D10       -3.14158  -0.00000  -0.00001  -0.00003  -0.00004   3.14157
   D11        3.14158   0.00000   0.00000   0.00001   0.00002  -3.14158
   D12        0.00001  -0.00000  -0.00000  -0.00002  -0.00002  -0.00001
   D13        0.00001  -0.00000  -0.00001  -0.00002  -0.00003  -0.00002
   D14       -3.14154  -0.00000  -0.00002  -0.00009  -0.00011   3.14153
   D15        3.14159   0.00000   0.00000   0.00001   0.00001  -3.14159
   D16        0.00003  -0.00000  -0.00001  -0.00006  -0.00007  -0.00004
   D17       -0.00001   0.00000   0.00001   0.00002   0.00002   0.00001
   D18        3.14155   0.00000   0.00002   0.00008   0.00010  -3.14154
   D19        3.14154   0.00000   0.00002   0.00009   0.00012  -3.14153
   D20       -0.00008   0.00001   0.00004   0.00016   0.00019   0.00011
   D21        3.14149   0.00001   0.00004   0.00020   0.00025  -3.14145
   D22       -0.00006   0.00001   0.00003   0.00013   0.00016   0.00009
   D23        3.14129   0.00002   0.00011   0.00069   0.00081  -3.14108
   D24        0.00009  -0.00001  -0.00003  -0.00028  -0.00031  -0.00022
   D25       -0.00027   0.00002   0.00010   0.00064   0.00074   0.00047
   D26       -3.14147  -0.00001  -0.00004  -0.00034  -0.00038   3.14133
   D27        3.14140   0.00001   0.00007   0.00048   0.00055  -3.14123
   D28        0.00019  -0.00001  -0.00007  -0.00048  -0.00055  -0.00036
         Item               Value     Threshold  Converged?
 Maximum Force            0.001580     0.000450     NO 
 RMS     Force            0.000450     0.000300     NO 
 Maximum Displacement     0.013301     0.001800     NO 
 RMS     Displacement     0.003794     0.001200     NO 
 Predicted change in Energy=-1.122830D-05
 GradGradGradGradGradGradGradGradGradGradGradGradGradGradGradGradGradGrad

                          Input orientation:                          
 ---------------------------------------------------------------------
 Center     Atomic      Atomic             Coordinates (Angstroms)
 Number     Number       Type             X           Y           Z
 ---------------------------------------------------------------------
      1          7           0       -0.443733   -1.442732   -0.000138
      2          6           0       -1.762903   -1.474889   -0.000035
      3          6           0       -2.546764   -0.311265    0.000097
      4          6           0       -1.926875    0.918805    0.000097
      5          6           0       -0.527396    0.969644   -0.000036
      6          6           0        0.171732   -0.252539   -0.000144
      7          6           0        1.648860   -0.228213   -0.000214
      8          8           0        2.296820    0.815403    0.000302
      9          8           0        2.242240   -1.416741   -0.000002
     10          8           0        0.064518    2.168993   -0.000111
     11          1           0       -2.226649   -2.456865   -0.000039
     12          1           0       -3.629023   -0.385990    0.000189
     13          1           0       -2.481232    1.850499    0.000176
     14          1           0        3.200016   -1.257824    0.000256
     15          1           0        1.037946    2.027498   -0.000336
 ---------------------------------------------------------------------
                    Distance matrix (angstroms):
                    1          2          3          4          5
     1  N    0.000000
     2  C    1.319562   0.000000
     3  C    2.388087   1.403019   0.000000
     4  C    2.788650   2.399304   1.377438   0.000000
     5  C    2.413827   2.739018   2.391354   1.400402   0.000000
     6  C    1.339909   2.288439   2.719131   2.403372   1.408017
     7  C    2.419505   3.632400   4.196447   3.755200   2.484141
     8  O    3.551029   4.661200   4.972896   4.224960   2.828425
     9  O    2.686099   4.005565   4.914941   4.778733   3.655916
    10  O    3.647311   4.076437   3.601454   2.351300   1.337460
    11  H    2.051159   1.085973   2.169349   3.388955   3.824713
    12  H    3.356007   2.160580   1.084836   2.144715   3.384943
    13  H    3.872568   3.402089   2.162757   1.084143   2.143218
    14  H    3.648437   4.967663   5.824213   5.569804   4.342259
    15  H    3.773310   4.484581   4.280182   3.165337   1.889272
                    6          7          8          9         10
     6  C    0.000000
     7  C    1.477329   0.000000
     8  O    2.378340   1.228408   0.000000
     9  O    2.375367   1.328419   2.232811   0.000000
    10  O    2.423904   2.873454   2.610628   4.195231   0.000000
    11  H    3.257497   4.470622   5.582966   4.588336   5.162171
    12  H    3.803098   5.280242   6.046401   5.961055   4.491123
    13  H    3.385409   4.623712   4.888886   5.743348   2.565596
    14  H    3.190783   1.861768   2.261423   0.970870   4.644827
    15  H    2.439036   2.336974   1.747552   3.648713   0.983658
                   11         12         13         14         15
    11  H    0.000000
    12  H    2.501036   0.000000
    13  H    4.314882   2.513824   0.000000
    14  H    5.557552   6.884466   6.475975   0.000000
    15  H    5.546809   5.254096   3.523627   3.932923   0.000000
 Stoichiometry    C6H5NO3
 Framework group  C1[X(C6H5NO3)]
 Deg. of freedom    39
 Full point group                 C1      NOp   1
 Largest Abelian subgroup         C1      NOp   1
 Largest concise Abelian subgroup C1      NOp   1
                         Standard orientation:                         
 ---------------------------------------------------------------------
 Center     Atomic      Atomic             Coordinates (Angstroms)
 Number     Number       Type             X           Y           Z
 ---------------------------------------------------------------------
      1          7           0       -0.438728   -1.443395   -0.000129
      2          6           0       -1.757791   -1.479663   -0.000026
      3          6           0       -2.545277   -0.318488    0.000106
      4          6           0       -1.929224    0.913508    0.000106
      5          6           0       -0.529911    0.968710   -0.000027
      6          6           0        0.173024   -0.251288   -0.000135
      7          6           0        1.650069   -0.222358   -0.000206
      8          8           0        2.294772    0.823273    0.000310
      9          8           0        2.247151   -1.409030    0.000006
     10          8           0        0.058261    2.169897   -0.000103
     11          1           0       -2.218474   -2.463081   -0.000030
     12          1           0       -3.627297   -0.396587    0.000197
     13          1           0       -2.486484    1.843470    0.000184
     14          1           0        3.204426   -1.247128    0.000265
     15          1           0        1.032125    2.031438   -0.000328
 ---------------------------------------------------------------------
 Rotational constants (GHZ):      2.3769029      1.2653811      0.8257698
 Standard basis: 6-31+G(d,p) (6D, 7F)
 There are   215 symmetry adapted cartesian basis functions of A   symmetry.
 There are   215 symmetry adapted basis functions of A   symmetry.
   215 basis functions,   355 primitive gaussians,   215 cartesian basis functions
    36 alpha electrons       36 beta electrons
       nuclear repulsion energy       508.5752695554 Hartrees.
 NAtoms=   15 NActive=   15 NUniq=   15 SFac= 1.00D+00 NAtFMM=   60 NAOKFM=F Big=F
 Integral buffers will be    131072 words long.
 Raffenetti 2 integral format.
 Two-electron integral symmetry is turned on.
 Nuclear repulsion after empirical dispersion term =      508.5684235092 Hartrees.
 One-electron integrals computed using PRISM.
 NBasis=   215 RedAO= T EigKep=  5.64D-06  NBF=   215
 NBsUse=   215 1.00D-06 EigRej= -1.00D+00 NBFU=   215
 Initial guess from the checkpoint file:  "camb3lypD33HPA.chk"
 B after Tr=     0.000000    0.000000   -0.000000
         Rot=    1.000000   -0.000021    0.000011   -0.000896 Ang=  -0.10 deg.
 Keep R1 ints in memory in canonical form, NReq=544393055.
 Requested convergence on RMS density matrix=1.00D-08 within 128 cycles.
 Requested convergence on MAX density matrix=1.00D-06.
 Requested convergence on             energy=1.00D-06.
 No special actions if energy rises.
 SCF Done:  E(RCAM-B3LYP) =  -511.906481279     A.U. after   11 cycles
            NFock= 11  Conv=0.66D-08     -V/T= 2.0087
 Calling FoFJK, ICntrl=      2127 FMM=F ISym2X=0 I1Cent= 0 IOpClX= 0 NMat=1 NMatS=1 NMatT=0.
 ***** Axes restored to original set *****
 -------------------------------------------------------------------
 Center     Atomic                   Forces (Hartrees/Bohr)
 Number     Number              X              Y              Z
 -------------------------------------------------------------------
      1        7           0.000067922   -0.000279155   -0.000006692
      2        6           0.000090466    0.000020512    0.000004726
      3        6          -0.000234705   -0.000022589    0.000000164
      4        6          -0.000111438    0.000058591    0.000001987
      5        6          -0.000206358   -0.000231659   -0.000008346
      6        6           0.000032705   -0.000054314   -0.000025625
      7        6          -0.000038476    0.000169528    0.000103150
      8        8          -0.000255386    0.000208819   -0.000047271
      9        8           0.000059834   -0.000281901   -0.000030361
     10        8           0.000264073    0.000178879   -0.000005976
     11        1          -0.000023920   -0.000060304   -0.000000006
     12        1          -0.000046701   -0.000005890   -0.000000388
     13        1          -0.000005552    0.000047611    0.000000177
     14        1           0.000044615   -0.000000719    0.000000178
     15        1           0.000362921    0.000252589    0.000014282
 -------------------------------------------------------------------
 Cartesian Forces:  Max     0.000362921 RMS     0.000133978

 GradGradGradGradGradGradGradGradGradGradGradGradGradGradGradGradGradGrad
 Berny optimization.
 Using GEDIIS/GDIIS optimizer.
 FormGI is forming the generalized inverse of G from B-inverse, IUseBI=4.
 Internal  Forces:  Max     0.000664453 RMS     0.000183684
 Search for a local minimum.
 Step number   4 out of a maximum of   74
 All quantities printed in internal units (Hartrees-Bohrs-Radians)
 Mixed Optimization -- En-DIIS/RFO-DIIS
 Swapping is turned off.
 Update second derivatives using D2CorX and points    1    2    3    4
 DE= -8.31D-06 DEPred=-1.12D-05 R= 7.40D-01
 TightC=F SS=  1.41D+00  RLast= 7.25D-03 DXNew= 5.0454D-01 2.1748D-02
 Trust test= 7.40D-01 RLast= 7.25D-03 DXMaxT set to 3.00D-01
 ITU=  1  1  1  0
     Eigenvalues ---    0.01098   0.01601   0.01740   0.01975   0.02095
     Eigenvalues ---    0.02130   0.02170   0.02199   0.02265   0.02472
     Eigenvalues ---    0.02544   0.02599   0.15308   0.16000   0.16000
     Eigenvalues ---    0.16021   0.17966   0.21891   0.22736   0.23365
     Eigenvalues ---    0.24966   0.25000   0.27298   0.33059   0.35084
     Eigenvalues ---    0.35245   0.35332   0.35430   0.43066   0.44041
     Eigenvalues ---    0.46168   0.48003   0.53230   0.55364   0.58915
     Eigenvalues ---    0.59418   0.62149   0.73473   0.87220
 En-DIIS/RFO-DIIS IScMMF=        0 using points:     4    3    2
 RFO step:  Lambda=-2.98263561D-06.
 DidBck=T Rises=F RFO-DIIS coefs:    0.72360    0.20375    0.07265
 Iteration  1 RMS(Cart)=  0.00098097 RMS(Int)=  0.00000072
 Iteration  2 RMS(Cart)=  0.00000076 RMS(Int)=  0.00000021
 Variable       Old X    -DE/DX   Delta X   Delta X   Delta X     New X
                                 (Linear)    (Quad)   (Total)
    R1        2.49361   0.00013  -0.00001   0.00022   0.00021   2.49382
    R2        2.53206   0.00016  -0.00014   0.00046   0.00033   2.53239
    R3        2.65132   0.00025  -0.00029   0.00087   0.00058   2.65190
    R4        2.05219   0.00006  -0.00007   0.00027   0.00020   2.05239
    R5        2.60298   0.00021  -0.00009   0.00052   0.00044   2.60342
    R6        2.05004   0.00005  -0.00008   0.00024   0.00016   2.05020
    R7        2.64638   0.00021  -0.00026   0.00083   0.00057   2.64695
    R8        2.04873   0.00004  -0.00005   0.00019   0.00014   2.04887
    R9        2.66077  -0.00001   0.00005   0.00031   0.00036   2.66112
   R10        2.52743   0.00066  -0.00022   0.00113   0.00090   2.52834
   R11        2.79175  -0.00019  -0.00073   0.00072  -0.00001   2.79174
   R12        2.32136   0.00004   0.00020  -0.00013   0.00007   2.32142
   R13        2.51035   0.00030   0.00005   0.00035   0.00040   2.51075
   R14        1.83468   0.00004   0.00009  -0.00006   0.00003   1.83471
   R15        1.85884   0.00032   0.00064  -0.00025   0.00039   1.85924
    A1        2.07241  -0.00019  -0.00031  -0.00009  -0.00040   2.07201
    A2        2.13924   0.00009  -0.00000   0.00036   0.00036   2.13960
    A3        2.03638  -0.00005  -0.00007  -0.00010  -0.00017   2.03620
    A4        2.10757  -0.00004   0.00008  -0.00026  -0.00019   2.10738
    A5        2.08198  -0.00003   0.00019  -0.00035  -0.00016   2.08182
    A6        2.09467   0.00001  -0.00005   0.00011   0.00006   2.09474
    A7        2.10653   0.00002  -0.00014   0.00024   0.00010   2.10663
    A8        2.07391  -0.00004  -0.00001  -0.00004  -0.00004   2.07387
    A9        2.13806   0.00004  -0.00014   0.00028   0.00014   2.13820
   A10        2.07122  -0.00000   0.00015  -0.00024  -0.00010   2.07112
   A11        2.05409  -0.00004  -0.00027   0.00016  -0.00011   2.05398
   A12        2.06557   0.00021   0.00054  -0.00036   0.00018   2.06575
   A13        2.16353  -0.00017  -0.00027   0.00020  -0.00007   2.16346
   A14        2.14475   0.00021   0.00039  -0.00004   0.00035   2.14510
   A15        2.06451   0.00036   0.00027   0.00029   0.00057   2.06507
[...]
 ! R5    R(3,4)                  1.3776         -DE/DX =    0.0                 !
 ! R6    R(3,12)                 1.0849         -DE/DX =    0.0                 !
 ! R7    R(4,5)                  1.4006         -DE/DX =    0.0                 !
 ! R8    R(4,13)                 1.0842         -DE/DX =    0.0                 !
 ! R9    R(5,6)                  1.4082         -DE/DX =    0.0                 !
 ! R10   R(5,10)                 1.3379         -DE/DX =    0.0                 !
 ! R11   R(6,7)                  1.4773         -DE/DX =    0.0                 !
 ! R12   R(7,8)                  1.2284         -DE/DX =    0.0                 !
 ! R13   R(7,9)                  1.3287         -DE/DX =    0.0                 !
 ! R14   R(9,14)                 0.9709         -DE/DX =    0.0                 !
 ! R15   R(10,15)                0.984          -DE/DX =    0.0                 !
 ! A1    A(2,1,6)              118.7042         -DE/DX =    0.0                 !
 ! A2    A(1,2,3)              122.5989         -DE/DX =    0.0                 !
 ! A3    A(1,2,11)             116.6627         -DE/DX =    0.0                 !
 ! A4    A(3,2,11)             120.7385         -DE/DX =    0.0                 !
 ! A5    A(2,3,4)              119.2801         -DE/DX =    0.0                 !
 ! A6    A(2,3,12)             120.0177         -DE/DX =    0.0                 !
 ! A7    A(4,3,12)             120.7023         -DE/DX =    0.0                 !
 ! A8    A(3,4,5)              118.8188         -DE/DX =    0.0                 !
 ! A9    A(3,4,13)             122.5139         -DE/DX =    0.0                 !
 ! A10   A(5,4,13)             118.6673         -DE/DX =    0.0                 !
 ! A11   A(4,5,6)              117.6882         -DE/DX =    0.0                 !
 ! A12   A(4,5,10)             118.3575         -DE/DX =    0.0                 !
 ! A13   A(6,5,10)             123.9543         -DE/DX =    0.0                 !
 ! A14   A(1,6,5)              122.9098         -DE/DX =    0.0                 !
 ! A15   A(1,6,7)              118.3235         -DE/DX =    0.0                 !
 ! A16   A(5,6,7)              118.7667         -DE/DX =    0.0                 !
 ! A17   A(6,7,8)              122.7414         -DE/DX =    0.0                 !
 ! A18   A(6,7,9)              115.6029         -DE/DX =    0.0                 !
 ! A19   A(8,7,9)              121.6557         -DE/DX =    0.0                 !
 ! A20   A(7,9,14)             107.1198         -DE/DX =    0.0                 !
 ! A21   A(5,10,15)            108.0969         -DE/DX =    0.0                 !
 ! D1    D(6,1,2,3)              0.0            -DE/DX =    0.0                 !
 ! D2    D(6,1,2,11)           180.0            -DE/DX =    0.0                 !
 ! D3    D(2,1,6,5)             -0.0001         -DE/DX =    0.0                 !
 ! D4    D(2,1,6,7)            179.9998         -DE/DX =    0.0                 !
 ! D5    D(1,2,3,4)              0.0            -DE/DX =    0.0                 !
 ! D6    D(1,2,3,12)           180.0            -DE/DX =    0.0                 !
 ! D7    D(11,2,3,4)          -180.0            -DE/DX =    0.0                 !
 ! D8    D(11,2,3,12)            0.0            -DE/DX =    0.0                 !
 ! D9    D(2,3,4,5)              0.0            -DE/DX =    0.0                 !
 ! D10   D(2,3,4,13)           179.9999         -DE/DX =    0.0                 !
 ! D11   D(12,3,4,5)          -179.9999         -DE/DX =    0.0                 !
 ! D12   D(12,3,4,13)            0.0            -DE/DX =    0.0                 !
 ! D13   D(3,4,5,6)             -0.0001         -DE/DX =    0.0                 !
 ! D14   D(3,4,5,10)           179.9998         -DE/DX =    0.0                 !
 ! D15   D(13,4,5,6)          -180.0            -DE/DX =    0.0                 !
 ! D16   D(13,4,5,10)           -0.0001         -DE/DX =    0.0                 !
 ! D17   D(4,5,6,1)              0.0001         -DE/DX =    0.0                 !
 ! D18   D(4,5,6,7)           -179.9997         -DE/DX =    0.0                 !
 ! D19   D(10,5,6,1)          -179.9998         -DE/DX =    0.0                 !
 ! D20   D(10,5,6,7)             0.0004         -DE/DX =    0.0                 !
 ! D21   D(4,5,10,15)         -179.9996         -DE/DX =    0.0                 !
 ! D22   D(6,5,10,15)            0.0003         -DE/DX =    0.0                 !
 ! D23   D(1,6,7,8)            179.9998         -DE/DX =    0.0                 !
 ! D24   D(1,6,7,9)              0.0007         -DE/DX =    0.0                 !
 ! D25   D(5,6,7,8)             -0.0003         -DE/DX =    0.0                 !
 ! D26   D(5,6,7,9)            180.0006         -DE/DX =    0.0                 !
 ! D27   D(6,7,9,14)           179.9995         -DE/DX =    0.0                 !
 ! D28   D(8,7,9,14)             0.0004         -DE/DX =    0.0                 !
 --------------------------------------------------------------------------------
 GradGradGradGradGradGradGradGradGradGradGradGradGradGradGradGradGradGrad

 1\1\ WCSS.PL-BEM-JP\Freq\RCAM-B3LYP\6-31+G(d,p)\C6H5N1O3\C612\17-Dec-2
 024\0\\#N Geom=AllCheck Guess=TCheck SCRF=Check GenChk RCAM-B3LYP/6-31
 +G(d,p) Freq\\[No Title]\\0,1\N,-0.4440487029,-1.4438418604,0.00001975
 63\C,-1.7633363083,-1.4751751168,0.0000305048\C,-2.5472198691,-0.31124
 08589,0.0000262722\C,-1.9269237881,0.9188404542,0.000009576\C,-0.52718
 95425,0.9691451861,-0.0000027897\C,0.17149548,-0.2534741532,0.00000403
 91\C,1.6485330871,-0.2282133998,-0.000002975\O,2.2951649948,0.81626043
 58,-0.0000201292\O,2.2431126856,-1.4164569993,-0.000008226\O,0.0655920
 16,2.1685883142,-0.0000225816\H,-2.2275167022,-2.4570621101,0.00004341
 21\H,-3.6295495187,-0.385818127,0.0000353192\H,-2.4808753298,1.8508544
 514,0.0000043358\H,3.2008209208,-1.2568287002,-0.0000199876\H,1.039496
 5774,2.028206484,-0.0000355263\\Version=ES64L-G09RevE.01\State=1-A\HF=
 -511.9064833\RMSD=8.922e-09\RMSF=8.301e-06\ZeroPoint=0.110106\Thermal=
 0.1176993\Dipole=-0.4991517,-0.1924419,0.0000014\DipoleDeriv=0.1170232
 ,-0.0694115,-0.0000028,0.4456531,-0.4233195,-0.000002,-0.0000079,0.000
 0022,-0.2452183,-0.3362032,0.1063589,0.0000016,0.2937289,0.2622263,-0.
 000005,-0.0000005,-0.0000033,-0.028086,0.1473767,0.0563376,-0.0000024,
 -0.3717149,0.0752408,0.0000017,0.000002,-0.0000021,-0.0727591,0.079326
 3,-0.4082288,0.0000025,0.0405984,-0.0299808,-0.0000015,-0.0000017,0.00
 00031,-0.1468375,0.207381,0.6758973,-0.0000081,0.4570223,1.1509713,-0.
 0000163,-0.0000081,-0.0000191,0.1744383,-0.5942694,0.2686192,0.0000024
 ,-0.4510866,-0.1172255,0.0000061,0.0000074,-0.0000005,0.0280348,2.1521
 315,-0.2714288,-0.0000117,-0.192615,1.708797,-0.0000036,-0.0000151,-0.
 0000032,0.3364778,-1.1744414,-0.2695821,0.0000062,-0.2428275,-1.050963
 1,0.0000047,0.0000085,0.0000102,-0.3829132,-0.8652717,0.5884236,0.0000
 013,0.6019723,-1.0495358,-0.0000017,0.0000043,-0.0000062,-0.359585,-0.
 6660572,-0.500433,0.0000079,-0.3511487,-1.2647913,0.0000143,0.0000069,
 0.0000155,-0.3624264,0.0139967,-0.0543498,0.0000014,-0.0821144,-0.0454
 58,0.0000022,0.0000018,0.000002,0.1176628,-0.0601167,-0.0151929,0.0000
 017,-0.0153226,0.0897339,0.0000006,0.0000016,0.0000002,0.132098,0.0650
 623,0.035146,0.0000003,0.0465594,0.0075991,0.000001,0.0000003,0.000001
 8,0.1447099,0.3523496,-0.0980301,0.0000004,-0.1293483,0.2922676,0.0000
 014,0.0000006,0.0000012,0.3519813,0.5617124,-0.0441258,-0.0000009,-0.0
 493563,0.394438,-0.0000017,-0.0000001,-0.0000018,0.3124225\Polar=114.5
 905427,3.3646276,95.6010636,-0.0006009,-0.0004839,46.2618953\PG=C01 [X
 (C6H5N1O3)]\NImag=0\\0.66117714,0.11376153,0.46460520,-0.00000539,-0.0
 0000435,0.10006511,-0.39440478,0.01103466,0.00000253,0.72326106,-0.028
 14039,-0.12581713,0.00000079,0.06214652,0.75088243,0.00000289,0.000000
 59,-0.06732251,-0.00000520,-0.00000594,0.15346164,-0.05454309,0.023517
 46,0.00000037,-0.18282080,0.11356236,-0.00000011,0.77059728,0.09959627
 ,0.05147805,-0.00000096,0.03399794,-0.26756807,0.00000140,0.03556662,0
 .69511507,-0.00000033,-0.00000041,0.02448648,0.00000063,0.00000080,-0.
 07210475,-0.00000537,-0.00000542,0.14102030,-0.06364704,-0.03799121,0.
 00000074,0.07976826,-0.01886997,-0.00000032,-0.19154038,-0.06716819,0.
 00000165,0.69692330,-0.03973312,-0.02001434,0.00000041,0.03157827,-0.0
 5700528,0.00000038,-0.13572846,-0.34539282,0.00000379,-0.01138452,0.80
 016892,0.00000084,0.00000040,-0.00673363,-0.00000085,0.00000080,0.0086
 1155,0.00000232,0.00000332,-0.05997732,-0.00000458,-0.00000667,0.13386
 992,0.08805153,0.03303352,-0.00000084,-0.07190683,0.03020049,0.0000001
 7,-0.01173695,-0.08977930,0.00000097,-0.32071226,0.05439010,0.00000166
 ,0.73284867,-0.02849848,-0.06940041,0.00000096,0.03650159,-0.00715696,
 -0.00000026,-0.04122112,0.02823602,0.00000005,-0.01316772,-0.12849334,
 0.00000058,0.03141169,0.72060258,-0.00000031,0.00000054,0.01502794,0.0
 0000011,-0.00000026,-0.00876634,0.00000050,0.00000039,-0.00170248,0.00
 000233,0.00000009,-0.07161735,-0.00000547,-0.00000647,0.16891256,-0.14
 547557,-0.08762028,0.00000143,-0.06907464,-0.03484607,0.00000087,-0.00
 001356,-0.02185358,0.00000015,-0.00906274,0.02950966,-0.00000022,-0.20
 536175,0.09133883,0.00000002,0.66909041,-0.07391394,-0.29716292,0.0000
 0286,-0.09313740,0.01013072,0.00000054,0.01665730,-0.07105956,0.000000
 43,0.06720540,0.04092102,-0.00000079,0.03703844,-0.23516631,0.00000146
 ,0.01860438,0.71208173,0.00000121,0.00000285,-0.06372721,0.00000143,0.
 00000018,0.00585314,-0.00000019,0.00000073,-0.00849415,-0.00000046,-0.
 00000044,0.00940978,0.00000036,0.00000096,-0.07225640,-0.00000367,-0.0
 0000554,0.14849412,-0.04495402,-0.03383928,0.00000050,0.02615693,-0.01
 005496,0.,0.00029649,0.01809420,-0.00000018,-0.01252195,-0.00287945,0.
 00000021,-0.00135209,0.04054088,-0.00000043,-0.20536831,0.01699327,0.0
 0000017,0.75140413,-0.03567496,-0.00397681,0.00000007,-0.00611827,-0.0
 0652979,0.00000022,0.00027796,-0.00167616,0.00000003,0.00200806,-0.006
 77911,0.00000012,0.03928304,0.02594920,-0.00000045,0.02586657,-0.09843
 295,0.00000008,0.11265750,0.88332896,0.00000059,0.00000006,-0.01246535
 ,-0.00000003,0.00000025,0.01247693,0.00000003,-0.00000009,0.00055630,0
 .00000009,0.00000015,0.00693650,-0.00000022,-0.00000059,0.00127804,0.0
 0000061,0.00000026,-0.07935219,-0.00000696,-0.00000603,0.21312965,-0.0
 0462504,0.00391101,0.00000006,-0.00643248,0.00088139,0.,-0.00018441,-0
 .00447742,0.00000005,0.00276959,0.00014335,-0.00000004,-0.00095940,-0.
 00353191,0.00000002,-0.02479165,-0.04431654,0.00000085,-0.29221286,-0.
 25056254,0.00000451,0.31039385,0.00433459,0.00709367,-0.00000001,-0.00
 782363,0.00464844,-0.00000002,0.00008397,-0.00741133,0.00000008,0.0071
 6605,0.00454021,-0.00000011,-0.01307440,-0.02963062,0.00000042,-0.0351
 2875,-0.00668292,0.00000051,-0.24057664,-0.49166113,0.00000640,0.28612
 213,0.60822725,0.00000003,-0.00000004,0.00572499,0.00000014,-0.0000001
 0,-0.00256138,0.,0.00000014,0.00004468,-0.00000014,-0.00000009,-0.0007
 7849,0.00000020,0.00000051,0.00012842,0.00000059,0.00000054,0.01900323
 ,0.00000450,0.00000647,-0.07713465,-0.00000527,-0.00000760,0.03739469,
 0.00002045,0.00386456,-0.00000001,-0.00350148,0.00272961,-0.00000001,-
 0.00035952,-0.00255122,0.00000002,0.00093665,0.00275666,-0.00000006,-0
 .00863626,-0.00964968,0.00000017,-0.03048841,0.04276186,0.00000031,-0.
 18369865,0.10732853,0.00000104,0.03904343,-0.00957009,-0.00000005,0.66
 875500,-0.00580754,-0.00153308,0.00000009,0.00505835,-0.00088307,-0.00
 000003,-0.00031443,0.00262296,-0.00000002,-0.00096925,0.00037786,0.,-0
 .00250165,-0.00111718,0.00000005,0.01561365,-0.00358135,-0.00000021,0.
 07402592,-0.27761913,-0.00000018,0.00714692,-0.11140335,0.00000067,-0.
 03117933,0.44884375,0.00000004,0.,0.00174157,0.,-0.00000003,-0.0012619
 6,0.,0.,-0.00013346,0.,-0.00000003,-0.00100722,0.00000009,0.00000011,0
 .00207954,0.00000018,-0.00000036,0.01089866,0.00000124,-0.00000088,-0.
 06665056,-0.00000012,0.00000085,0.02822976,-0.00000716,-0.00000098,0.0
 4130826,-0.01488768,-0.00390000,0.00000022,0.01217028,-0.00984383,0.,-
 0.00593277,0.01801320,-0.00000008,-0.04107124,-0.06390201,0.00000115,-
 0.15602122,-0.11107946,0.00000249,0.03116587,0.00984482,-0.00000022,-0
 .03132181,-0.02303324,0.00000036,-0.01180164,0.04176347,-0.00000056,0.
 00336870,0.00808179,-0.00000002,0.62397350,-0.00161250,-0.00616415,0.0
 0000017,0.00435951,-0.00736178,0.00000003,0.00427679,0.00818848,-0.000
 00004,-0.02620648,-0.00781071,0.00000050,-0.07538743,-0.31293467,0.000
 00356,-0.00549477,-0.04584885,0.00000069,-0.02276804,-0.00693748,0.000
 00022,0.01632087,0.00846169,-0.00000018,0.00368127,-0.00102734,-0.0000
 0005,0.05818952,0.43415851,0.00000020,0.00000025,0.00773430,-0.0000001
 8,0.00000014,-0.00058997,0.00000008,-0.00000019,0.00612711,0.00000074,
 0.00000080,0.00710393,0.00000215,0.00000430,-0.04885395,-0.00000006,0.
 00000039,0.00751239,0.00000056,0.00000025,-0.00066874,-0.00000013,-0.0
 0000039,0.00454660,-0.00000008,-0.00000005,-0.00083090,-0.00000864,-0.
 00000478,0.04028856,-0.02644971,-0.03241581,0.00000046,-0.09796767,-0.
 10047901,0.00000141,0.01133779,0.01746787,-0.00000021,-0.00216260,0.00
 306519,0.00000004,-0.00103709,0.00020070,0.00000001,-0.00384691,-0.000
 77361,0.00000012,0.00075519,-0.00108813,0.,-0.00078566,-0.00022336,0.,
 -0.00027350,0.00021399,0.,0.00033970,-0.00039764,-0.00000001,0.1192434
 2,-0.00529311,0.00620009,-0.00000008,-0.10204701,-0.29912834,0.0000032
 2,-0.01278684,-0.01677979,0.00000030,0.00378415,-0.00262275,0.00000005
 ,0.00111058,0.00000418,0.,0.00158058,0.00291629,0.00000007,0.00023191,
 0.00019410,0.,-0.00012031,-0.00003691,0.,-0.00017470,0.00002592,0.,-0.
 00011643,0.00014385,-0.00000001,0.11406425,0.30961377,0.00000021,0.000
 00012,-0.00650071,0.00000142,0.00000323,-0.03959616,0.00000006,0.00000
 005,0.00506828,0.00000004,0.00000006,0.00574707,0.,0.,0.00109919,0.000
 00009,0.00000010,0.01113667,0.,0.00000002,0.00064131,0.,0.,-0.00040635
 ,0.,0.,0.00003902,-0.00000001,-0.00000001,-0.00158604,-0.00000180,-0.0
 0000353,0.02713381,-0.00155601,0.00360142,0.00000003,-0.01088183,-0.00
 643689,0.00000017,-0.34780116,-0.01860025,0.00000255,-0.00828773,0.001
 56045,0.00000009,0.00155335,-0.00158738,0.00000008,0.00144559,0.000463
 96,-0.00000002,-0.00002174,0.00005283,-0.00000002,-0.00015607,-0.00001
 384,0.,-0.00013091,0.00003711,0.,-0.00089207,-0.00015849,0.00000001,0.
 00039133,0.00043251,-0.00000003,0.36540445,0.00520486,-0.00409979,0.00
 000005,0.02549923,0.01007741,-0.00000028,-0.01828275,-0.06308145,0.000
 00035,-0.02936558,0.00368670,0.00000024,-0.00139582,-0.00472105,0.0000
 0015,-0.00120347,-0.00213126,0.00000003,0.00045149,-0.00018725,-0.0000
 0002,-0.00004165,0.00016115,0.,-0.00006681,0.00020200,0.,-0.00180346,0
 .00026636,0.00000002,-0.00058858,0.00030283,-0.00000002,0.02108469,0.0
 5904986,0.,0.00000003,0.00631928,-0.00000009,-0.00000002,0.00266162,0.
 00000253,0.00000035,-0.04069779,0.00000039,0.00000003,0.00482383,0.000
 00007,0.00000016,0.00945847,0.,0.00000003,-0.00007949,-0.00000002,-0.0
 0000002,-0.00199181,0.,0.,0.00031140,0.,0.,0.00027289,0.00000002,-0.00
 000001,-0.00006671,-0.00000002,-0.00000003,-0.00272005,-0.00000283,-0.
 00000046,0.02693525,-0.00082976,-0.00100434,-0.00000001,-0.00077840,-0
 .00354857,0.00000012,0.01345214,-0.01399080,0.00000008,-0.13909668,0.1
 2802634,-0.00000051,-0.01089115,0.03020337,-0.00000016,-0.00529698,-0.
 00178279,0.00000009,0.00033521,0.00184066,-0.00000002,0.00008091,-0.00
 057535,0.00000001,-0.00075464,-0.00004870,0.,0.00307087,-0.00044744,-0
 .00000005,0.00049348,-0.00072146,0.,0.00072789,0.00048364,-0.00000005,
 0.13986934,-0.00042037,0.00027181,-0.00000003,-0.00424660,-0.00273685,
 0.00000015,0.01603736,-0.01661736,0.00000009,0.13015322,-0.27225546,0.
 00000137,-0.00277382,0.00404507,0.00000005,-0.00047840,0.00101872,0.00
 000006,-0.00059407,0.00003202,0.,0.00011372,0.00018510,0.,0.00001409,-
 0.00004091,0.,0.00039266,0.00067374,-0.00000005,0.00082654,-0.00080302
 ,0.,-0.00022026,0.00086330,-0.00000006,-0.13874174,0.28528632,0.,-0.00
 000001,-0.00303509,0.00000010,0.00000014,0.00903797,-0.00000023,0.0000
 0029,0.00446326,-0.00000051,0.00000144,-0.03953913,0.00000012,-0.00000
 024,0.00671915,0.00000011,0.00000007,0.00600392,0.,-0.00000003,-0.0005
 8515,0.,0.,0.00002696,0.00000001,0.,-0.00000606,-0.00000006,-0.0000000
 4,-0.00347587,-0.00000001,0.00000001,-0.00012673,-0.00000004,-0.000000
 06,-0.00488055,0.00000052,-0.00000157,0.02585577,0.00043252,-0.0001349
 0,0.,0.00059742,-0.00045608,0.,0.00011151,0.00044448,0.,-0.00026703,0.
 00031384,0.,-0.00082113,-0.00051388,0.00000002,0.00202188,0.00284267,0
 .00000006,-0.03401885,0.00617951,0.00000034,0.00300431,-0.00954168,-0.
 00000002,-0.48239559,-0.05957053,0.00000575,0.00111929,-0.00036326,0.,
 0.00001634,0.00002653,0.,0.00003134,0.00000236,0.,-0.00005874,-0.00001
 745,0.,0.51147385,-0.00147038,0.00017368,0.,-0.00006455,0.00042628,0.,
 -0.00019891,-0.00011556,0.,0.00013255,-0.00047249,0.,0.00165675,0.0010
 9465,-0.00000002,0.00084304,-0.00662181,0.00000004,0.05647106,0.006276
 91,-0.00000070,-0.00758113,0.00145788,0.00000007,-0.10981215,-0.060986
 25,0.00000128,-0.00135273,0.00010925,0.,-0.00004810,-0.00003262,0.,-0.
 00003967,0.00002674,0.,0.00012424,0.00001610,0.,0.05996426,0.05956330,
 0.,0.,-0.00035567,0.,0.,0.00000954,0.,0.,0.00003014,0.,-0.00000001,-0.
 00040957,0.00000001,0.00000001,0.00060972,-0.00000005,0.,0.00505863,0.
 00000049,-0.00000010,0.00436568,-0.00000011,0.00000006,-0.00623496,0.0
 0000579,0.00000073,-0.01652200,-0.00000001,0.00000001,-0.00000415,0.,0
 .,0.00001292,0.,0.,-0.00000858,0.,0.,0.00003011,-0.00000612,-0.0000007
 0,0.01339290,0.00169106,0.00418165,-0.00000007,-0.00418504,0.00315540,
 0.,-0.00086258,-0.00475981,0.00000007,0.00797186,0.00228370,-0.0000000
 3,-0.03301742,-0.02094743,0.00000062,-0.00494323,0.00151218,-0.0000000
 3,0.02652232,0.02098248,-0.00000033,-0.01334289,-0.02294246,0.00000057
 ,-0.00188527,-0.00978631,0.,-0.41327979,0.04600810,0.00000544,-0.00005
 412,0.00002936,0.,0.00017356,0.00002185,0.,-0.00032348,-0.00004489,0.,
 -0.00124711,0.00137572,0.00000002,0.43678214,-0.00233246,-0.00165388,0
 .00000002,0.00326138,-0.00197802,0.,-0.00144731,0.00406152,-0.00000003
 ,-0.00532651,-0.00884840,0.00000018,-0.04321220,0.00868884,0.00000050,
 0.00326862,-0.00038056,0.,-0.00875377,-0.02198138,0.00000028,-0.004007
 90,0.01205089,-0.00000038,-0.00013260,0.00611914,0.00000006,0.07874570
 ,-0.06391689,-0.00000069,0.00017571,0.00000238,0.,-0.00017620,-0.00041
 555,0.,0.00018293,0.00006142,0.,0.00082413,-0.00091605,-0.00000001,-0.
 02106953,0.06910655,0.00000002,-0.00000004,-0.00095950,-0.00000002,0.0
 0000002,0.00009068,0.00000002,-0.00000002,0.00131340,0.00000003,0.0000
 0011,0.00356014,0.00000073,-0.00000010,-0.00211650,-0.00000005,0.,0.00
 053888,-0.00000007,0.00000026,-0.00053597,0.00000017,-0.00000018,-0.00
 829491,0.00000004,-0.00000007,0.00184247,0.00000537,-0.00000008,-0.017
 23657,0.,0.,0.00005778,0.,0.,-0.00033776,0.,0.,-0.00048858,0.,0.000000
 01,0.00002529,-0.00000623,0.00000009,0.02254114\\0.00001305,0.00000097
 ,-0.00000017,-0.00000052,-0.00000358,0.00000006,-0.00001615,-0.0000054
 4,0.,0.00000154,0.00000860,0.00000009,-0.00000594,0.00001361,0.0000001
 6,-0.00001532,-0.00002401,-0.00000081,0.00001504,-0.00001805,0.0000023
 9,0.00000006,0.00000496,-0.00000064,-0.00000281,0.00001718,-0.00000076
 ,0.00001779,0.00000296,0.00000012,0.00000081,-0.00000391,0.00000003,-0
 .00000555,0.00000496,-0.00000004,-0.00000362,0.00000338,-0.00000002,0.
 00000875,-0.00000718,-0.00000002,-0.00000713,0.00000556,-0.00000040\\\
 @


 WE LEARN WISDOM FROM FAILURE MUCH MORE THAN FROM SUCCESS.
 WE DISCOVER WHAT WILL DO BY FINDING OUT WHAT WILL NOT DO...
 AND HE WHO NEVER MADE A MISTAKE NEVER MADE A DISCOVERY
 Job cpu time:       0 days  0 hours 11 minutes 27.3 seconds.
 File lengths (MBytes):  RWF=     79 Int=      0 D2E=      0 Chk=      5 Scr=      1
 Normal termination of Gaussian 09 at Tue Dec 17 14:47:24 2024.
