 Entering Gaussian System, Link 0=g09
 Input=pbeD33HPA.gjf
 Output=pbeD33HPA.log
 Initial command:
 /home/c612/g09E/g09/l1.exe "/mnt/ja_sm883/scratch/Gau-1452740.inp" -scrdir="/mnt/ja_sm883/scratch/"
 Default is to use a total of  18 processors:
                               18 via shared-memory
                                1 via Linda
 Entering Link 1 = /home/c612/g09E/g09/l1.exe PID=   1452742.
  
 Copyright (c) 1988,1990,1992,1993,1995,1998,2003,2009,2015,
            Gaussian, Inc.  All Rights Reserved.
  
 This is part of the Gaussian(R) 09 program.  It is based on
 the Gaussian(R) 03 system (copyright 2003, Gaussian, Inc.),
 the Gaussian(R) 98 system (copyright 1998, Gaussian, Inc.),
 the Gaussian(R) 94 system (copyright 1995, Gaussian, Inc.),
 the Gaussian 92(TM) system (copyright 1992, Gaussian, Inc.),
 the Gaussian 90(TM) system (copyright 1990, Gaussian, Inc.),
 the Gaussian 88(TM) system (copyright 1988, Gaussian, Inc.),
 the Gaussian 86(TM) system (copyright 1986, Carnegie Mellon
 University), and the Gaussian 82(TM) system (copyright 1983,
 Carnegie Mellon University). Gaussian is a federally registered
 trademark of Gaussian, Inc.
  
 This software contains proprietary and confidential information,
 including trade secrets, belonging to Gaussian, Inc.
  
 This software is provided under written license and may be
 used, copied, transmitted, or stored only in accord with that
 written license.
  
 The following legend is applicable only to US Government
 contracts under FAR:
  
                    RESTRICTED RIGHTS LEGEND
  
 Use, reproduction and disclosure by the US Government is
 subject to restrictions as set forth in subparagraphs (a)
 and (c) of the Commercial Computer Software - Restricted
 Rights clause in FAR 52.227-19.
  
 Gaussian, Inc.
 340 Quinnipiac St., Bldg. 40, Wallingford CT 06492
  
  
 ---------------------------------------------------------------
 Warning -- This program may not be used in any manner that
 competes with the business of Gaussian, Inc. or will provide
 assistance to any competitor of Gaussian, Inc.  The licensee
 of this program is prohibited from giving any competitor of
 Gaussian, Inc. access to this program.  By using this program,
 the user acknowledges that Gaussian, Inc. is engaged in the
 business of creating and licensing software in the field of
 computational chemistry and represents and warrants to the
 licensee that it is not a competitor of Gaussian, Inc. and that
 it will not use this program in any manner prohibited above.
 ---------------------------------------------------------------
  

 Cite this work as:
 Gaussian 09, Revision E.01,
 M. J. Frisch, G. W. Trucks, H. B. Schlegel, G. E. Scuseria, 
 M. A. Robb, J. R. Cheeseman, G. Scalmani, V. Barone, B. Mennucci, 
 G. A. Petersson, H. Nakatsuji, M. Caricato, X. Li, H. P. Hratchian, 
 A. F. Izmaylov, J. Bloino, G. Zheng, J. L. Sonnenberg, M. Hada, 
 M. Ehara, K. Toyota, R. Fukuda, J. Hasegawa, M. Ishida, T. Nakajima, 
 Y. Honda, O. Kitao, H. Nakai, T. Vreven, J. A. Montgomery, Jr., 
 J. E. Peralta, F. Ogliaro, M. Bearpark, J. J. Heyd, E. Brothers, 
 K. N. Kudin, V. N. Staroverov, T. Keith, R. Kobayashi, J. Normand, 
 K. Raghavachari, A. Rendell, J. C. Burant, S. S. Iyengar, J. Tomasi, 
 M. Cossi, N. Rega, J. M. Millam, M. Klene, J. E. Knox, J. B. Cross, 
 V. Bakken, C. Adamo, J. Jaramillo, R. Gomperts, R. E. Stratmann, 
 O. Yazyev, A. J. Austin, R. Cammi, C. Pomelli, J. W. Ochterski, 
 R. L. Martin, K. Morokuma, V. G. Zakrzewski, G. A. Voth, 
 P. Salvador, J. J. Dannenberg, S. Dapprich, A. D. Daniels, 
 O. Farkas, J. B. Foresman, J. V. Ortiz, J. Cioslowski, 
 and D. J. Fox, Gaussian, Inc., Wallingford CT, 2013.
 
 ******************************************
 Gaussian 09:  ES64L-G09RevE.01 30-Nov-2015
                17-Dec-2024 
 ******************************************
 %chk=pbeD33HPA.chk
 -----------------------------------------------------
 # opt freq pbepbe/6-31+g(d,p) empiricaldispersion=gd3
 -----------------------------------------------------
 1/14=-1,18=20,19=15,26=3,38=1/1,3;
 2/9=110,12=2,17=6,18=5,40=1/2;
 3/5=1,6=6,7=111,11=2,16=1,25=1,30=1,71=1,74=1009,124=31/1,2,3;
 4//1;
 5/5=2,38=5/2;
 6/7=2,8=2,9=2,10=2,28=1/1;
 7//1,2,3,16;
 1/14=-1,18=20,19=15,26=3/3(2);
 2/9=110/2;
 99//99;
 2/9=110/2;
 3/5=1,6=6,7=111,11=2,16=1,25=1,30=1,71=1,74=1009,124=31/1,2,3;
 4/5=5,16=3,69=1/1;
 5/5=2,38=5/2;
 7//1,2,3,16;
 1/14=-1,18=20,19=15,26=3/3(-5);
 2/9=110/2;
 6/7=2,8=2,9=2,10=2,19=2,28=1/1;
 99/9=1/99;
 ----------
 [No Title]
 ----------
 Symbolic Z-matrix:
 Charge =  0 Multiplicity = 1
 N                    -0.44313  -1.44944   0.00003 
 C                    -1.76628  -1.47649   0.00004 
 C                    -2.55143  -0.3107    0.00002 
 C                    -1.92965   0.92339   0. 
 C                    -0.52654   0.97374  0. 
 C                     0.17294  -0.25694   0.00001 
 C                     1.64752  -0.22649  -0.00001 
 O                     2.29205   0.82512  -0.00007 
 O                     2.24875  -1.41439   0. 
 O                     0.07468   2.16645  -0.00001 
 H                    -2.23201  -2.45928   0.00005 
 H                    -3.63517  -0.384     0.00003 
 H                    -2.48725   1.85457  -0.00001 
 H                     3.20385  -1.24105  -0.00003 
 H                     1.0492    1.99928   0.00001 
 

 GradGradGradGradGradGradGradGradGradGradGradGradGradGradGradGradGradGrad
 Berny optimization.
 Initialization pass.
                           ----------------------------
                           !    Initial Parameters    !
                           ! (Angstroms and Degrees)  !
 --------------------------                            --------------------------
 ! Name  Definition              Value          Derivative Info.                !
 --------------------------------------------------------------------------------
 ! R1    R(1,2)                  1.3234         estimate D2E/DX2                !
 ! R2    R(1,6)                  1.3422         estimate D2E/DX2                !
 ! R3    R(2,3)                  1.4055         estimate D2E/DX2                !
 ! R4    R(2,11)                 1.0876         estimate D2E/DX2                !
 ! R5    R(3,4)                  1.3819         estimate D2E/DX2                !
 ! R6    R(3,12)                 1.0862         estimate D2E/DX2                !
 ! R7    R(4,5)                  1.404          estimate D2E/DX2                !
 ! R8    R(4,13)                 1.0854         estimate D2E/DX2                !
 ! R9    R(5,6)                  1.4156         estimate D2E/DX2                !
 ! R10   R(5,10)                 1.3357         estimate D2E/DX2                !
 ! R11   R(6,7)                  1.4749         estimate D2E/DX2                !
 ! R12   R(7,8)                  1.2334         estimate D2E/DX2                !
 ! R13   R(7,9)                  1.3314         estimate D2E/DX2                !
 ! R14   R(9,14)                 0.9707         estimate D2E/DX2                !
 ! R15   R(10,15)                0.9888         estimate D2E/DX2                !
 ! A1    A(2,1,6)              118.4932         estimate D2E/DX2                !
 ! A2    A(1,2,3)              122.7888         estimate D2E/DX2                !
 ! A3    A(1,2,11)             116.5266         estimate D2E/DX2                !
 ! A4    A(3,2,11)             120.6846         estimate D2E/DX2                !
 ! A5    A(2,3,4)              119.2992         estimate D2E/DX2                !
 ! A6    A(2,3,12)             120.0908         estimate D2E/DX2                !
 ! A7    A(4,3,12)             120.61           estimate D2E/DX2                !
 ! A8    A(3,4,5)              118.7961         estimate D2E/DX2                !
 ! A9    A(3,4,13)             122.3456         estimate D2E/DX2                !
 ! A10   A(5,4,13)             118.8583         estimate D2E/DX2                !
 ! A11   A(4,5,6)              117.5572         estimate D2E/DX2                !
 ! A12   A(4,5,10)             118.8068         estimate D2E/DX2                !
 ! A13   A(6,5,10)             123.6359         estimate D2E/DX2                !
 ! A14   A(1,6,5)              123.0655         estimate D2E/DX2                !
 ! A15   A(1,6,7)              118.5047         estimate D2E/DX2                !
 ! A16   A(5,6,7)              118.4298         estimate D2E/DX2                !
 ! A17   A(6,7,8)              122.6868         estimate D2E/DX2                !
 ! A18   A(6,7,9)              115.6624         estimate D2E/DX2                !
 ! A19   A(8,7,9)              121.6508         estimate D2E/DX2                !
 ! A20   A(7,9,14)             106.5583         estimate D2E/DX2                !
 ! A21   A(5,10,15)            107.0177         estimate D2E/DX2                !
 ! D1    D(6,1,2,3)              0.0002         estimate D2E/DX2                !
 ! D2    D(6,1,2,11)          -180.0            estimate D2E/DX2                !
 ! D3    D(2,1,6,5)              0.0            estimate D2E/DX2                !
 ! D4    D(2,1,6,7)           -179.9995         estimate D2E/DX2                !
 ! D5    D(1,2,3,4)             -0.0001         estimate D2E/DX2                !
 ! D6    D(1,2,3,12)           179.9999         estimate D2E/DX2                !
 ! D7    D(11,2,3,4)          -180.0            estimate D2E/DX2                !
 ! D8    D(11,2,3,12)            0.0001         estimate D2E/DX2                !
 ! D9    D(2,3,4,5)              0.0            estimate D2E/DX2                !
 ! D10   D(2,3,4,13)          -179.9998         estimate D2E/DX2                !
 ! D11   D(12,3,4,5)           179.9999         estimate D2E/DX2                !
 ! D12   D(12,3,4,13)            0.0002         estimate D2E/DX2                !
 ! D13   D(3,4,5,6)              0.0002         estimate D2E/DX2                !
 ! D14   D(3,4,5,10)          -179.9995         estimate D2E/DX2                !
 ! D15   D(13,4,5,6)           179.9999         estimate D2E/DX2                !
 ! D16   D(13,4,5,10)            0.0002         estimate D2E/DX2                !
 ! D17   D(4,5,6,1)             -0.0002         estimate D2E/DX2                !
 ! D18   D(4,5,6,7)            179.9994         estimate D2E/DX2                !
 ! D19   D(10,5,6,1)           179.9995         estimate D2E/DX2                !
 ! D20   D(10,5,6,7)            -0.0009         estimate D2E/DX2                !
 ! D21   D(4,5,10,15)          179.9989         estimate D2E/DX2                !
 ! D22   D(6,5,10,15)           -0.0008         estimate D2E/DX2                !
 ! D23   D(1,6,7,8)            179.9978         estimate D2E/DX2                !
 ! D24   D(1,6,7,9)             -0.0003         estimate D2E/DX2                !
 ! D25   D(5,6,7,8)             -0.0018         estimate D2E/DX2                !
 ! D26   D(5,6,7,9)           -179.9999         estimate D2E/DX2                !
 ! D27   D(6,7,9,14)           179.9991         estimate D2E/DX2                !
 ! D28   D(8,7,9,14)             0.0009         estimate D2E/DX2                !
 --------------------------------------------------------------------------------
 Trust Radius=3.00D-01 FncErr=1.00D-07 GrdErr=1.00D-06
 Number of steps in this run=     74 maximum allowed number of steps=    100.
 GradGradGradGradGradGradGradGradGradGradGradGradGradGradGradGradGradGrad

                          Input orientation:                          
 ---------------------------------------------------------------------
 Center     Atomic      Atomic             Coordinates (Angstroms)
 Number     Number       Type             X           Y           Z
 ---------------------------------------------------------------------
      1          7           0       -0.443132   -1.449437    0.000028
      2          6           0       -1.766278   -1.476489    0.000035
      3          6           0       -2.551429   -0.310702    0.000021
      4          6           0       -1.929646    0.923389    0.000002
      5          6           0       -0.526538    0.973743   -0.000002
      6          6           0        0.172942   -0.256936    0.000010
      7          6           0        1.647524   -0.226491   -0.000008
      8          8           0        2.292053    0.825120   -0.000065
      9          8           0        2.248751   -1.414390    0.000002
     10          8           0        0.074676    2.166451   -0.000011
     11          1           0       -2.232005   -2.459282    0.000050
     12          1           0       -3.635166   -0.383999    0.000026
     13          1           0       -2.487249    1.854572   -0.000006
     14          1           0        3.203854   -1.241045   -0.000027
     15          1           0        1.049199    1.999280    0.000006
 ---------------------------------------------------------------------
                    Distance matrix (angstroms):
                    1          2          3          4          5
     1  N    0.000000
     2  C    1.323423   0.000000
     3  C    2.396171   1.405532   0.000000
     4  C    2.800005   2.405432   1.381881   0.000000
     5  C    2.424615   2.746014   2.397912   1.404011   0.000000
     6  C    1.342239   2.290826   2.724901   2.411233   1.415572
     7  C    2.422073   3.635456   4.199797   3.757442   2.483366
     8  O    3.557365   4.665560   4.974878   4.222843   2.822507
     9  O    2.692111   4.015509   4.925429   4.787924   3.661340
    10  O    3.652776   4.081681   3.610085   2.358497   1.335669
    11  H    2.054228   1.087559   2.172194   3.396157   3.833312
    12  H    3.365151   2.164781   1.086213   2.148968   3.392202
    13  H    3.885214   3.408191   2.166225   1.085368   2.149476
    14  H    3.652935   4.975706   5.829993   5.571140   4.338330
    15  H    3.757752   4.473017   4.277913   3.167185   1.880073
                    6          7          8          9         10
     6  C    0.000000
     7  C    1.474896   0.000000
     8  O    2.379386   1.233411   0.000000
     9  O    2.376696   1.331382   2.239929   0.000000
    10  O    2.425378   2.863568   2.591511   4.189156   0.000000
    11  H    3.260996   4.476170   5.590563   4.600975   5.168963
    12  H    3.810227   5.285038   6.049289   5.973457   4.501969
    13  H    3.396334   4.628949   4.888916   5.754634   2.580839
    14  H    3.186675   1.857817   2.258411   0.970706   4.626314
    15  H    2.420400   2.304788   1.709777   3.618296   0.988757
                   11         12         13         14         15
    11  H    0.000000
    12  H    2.505127   0.000000
    13  H    4.321399   2.515733   0.000000
    14  H    5.570697   6.892512   6.478541   0.000000
    15  H    5.535799   5.255787   3.539407   3.891304   0.000000
 Stoichiometry    C6H5NO3
 Framework group  C1[X(C6H5NO3)]
 Deg. of freedom    39
 Full point group                 C1      NOp   1
 Largest Abelian subgroup         C1      NOp   1
 Largest concise Abelian subgroup C1      NOp   1
                         Standard orientation:                         
 ---------------------------------------------------------------------
 Center     Atomic      Atomic             Coordinates (Angstroms)
 Number     Number       Type             X           Y           Z
 ---------------------------------------------------------------------
      1          7           0       -0.443132   -1.449437    0.000028
      2          6           0       -1.766278   -1.476489    0.000035
      3          6           0       -2.551429   -0.310702    0.000021
      4          6           0       -1.929646    0.923389    0.000002
      5          6           0       -0.526538    0.973743   -0.000002
      6          6           0        0.172942   -0.256936    0.000010
      7          6           0        1.647524   -0.226491   -0.000008
      8          8           0        2.292053    0.825120   -0.000065
      9          8           0        2.248751   -1.414390    0.000002
     10          8           0        0.074676    2.166451   -0.000011
     11          1           0       -2.232005   -2.459282    0.000050
     12          1           0       -3.635166   -0.383999    0.000026
     13          1           0       -2.487249    1.854572   -0.000006
     14          1           0        3.203854   -1.241045   -0.000027
     15          1           0        1.049199    1.999280    0.000006
 ---------------------------------------------------------------------
 Rotational constants (GHZ):      2.3726204      1.2629476      0.8242165
 Standard basis: 6-31+G(d,p) (6D, 7F)
 There are   215 symmetry adapted cartesian basis functions of A   symmetry.
 There are   215 symmetry adapted basis functions of A   symmetry.
   215 basis functions,   355 primitive gaussians,   215 cartesian basis functions
    36 alpha electrons       36 beta electrons
       nuclear repulsion energy       507.9639111222 Hartrees.
 NAtoms=   15 NActive=   15 NUniq=   15 SFac= 1.00D+00 NAtFMM=   60 NAOKFM=F Big=F
 Integral buffers will be    131072 words long.
 Raffenetti 2 integral format.
 Two-electron integral symmetry is turned on.
 Nuclear repulsion after empirical dispersion term =      507.9582080913 Hartrees.
 One-electron integrals computed using PRISM.
 NBasis=   215 RedAO= T EigKep=  5.81D-06  NBF=   215
 NBsUse=   215 1.00D-06 EigRej= -1.00D+00 NBFU=   215
 ExpMin= 4.38D-02 ExpMax= 5.48D+03 ExpMxC= 8.25D+02 IAcc=2 IRadAn=         4 AccDes= 0.00D+00
 Harris functional with IExCor= 1009 and IRadAn=       4 diagonalized for initial guess.
 HarFok:  IExCor= 1009 AccDes= 0.00D+00 IRadAn=         4 IDoV= 1 UseB2=F ITyADJ=14
 ICtDFT=  3500011 ScaDFX=  1.000000  1.000000  1.000000  1.000000
 FoFCou: FMM=F IPFlag=           0 FMFlag=      100000 FMFlg1=           0
         NFxFlg=           0 DoJE=T BraDBF=F KetDBF=T FulRan=T
         wScrn=  0.000000 ICntrl=     500 IOpCl=  0 I1Cent=   200000004 NGrid=           0
         NMat0=    1 NMatS0=      1 NMatT0=    0 NMatD0=    1 NMtDS0=    0 NMtDT0=    0
 Petite list used in FoFCou.
 Keep J ints in memory in canonical form, NReq=274797245.
 Requested convergence on RMS density matrix=1.00D-08 within 128 cycles.
 Requested convergence on MAX density matrix=1.00D-06.
 Requested convergence on             energy=1.00D-06.
 No special actions if energy rises.
 SCF Done:  E(RPBE-PBE) =  -511.559372467     A.U. after   15 cycles
            NFock= 15  Conv=0.53D-08     -V/T= 2.0087

 **********************************************************************

            Population analysis using the SCF density.

 **********************************************************************

 Orbital symmetries:
       Occupied  (A) (A) (A) (A) (A) (A) (A) (A) (A) (A) (A) (A)
                 (A) (A) (A) (A) (A) (A) (A) (A) (A) (A) (A) (A)
                 (A) (A) (A) (A) (A) (A) (A) (A) (A) (A) (A) (A)
       Virtual   (A) (A) (A) (A) (A) (A) (A) (A) (A) (A) (A) (A)
                 (A) (A) (A) (A) (A) (A) (A) (A) (A) (A) (A) (A)
                 (A) (A) (A) (A) (A) (A) (A) (A) (A) (A) (A) (A)
                 (A) (A) (A) (A) (A) (A) (A) (A) (A) (A) (A) (A)
                 (A) (A) (A) (A) (A) (A) (A) (A) (A) (A) (A) (A)
                 (A) (A) (A) (A) (A) (A) (A) (A) (A) (A) (A) (A)
                 (A) (A) (A) (A) (A) (A) (A) (A) (A) (A) (A) (A)
                 (A) (A) (A) (A) (A) (A) (A) (A) (A) (A) (A) (A)
                 (A) (A) (A) (A) (A) (A) (A) (A) (A) (A) (A) (A)
                 (A) (A) (A) (A) (A) (A) (A) (A) (A) (A) (A) (A)
                 (A) (A) (A) (A) (A) (A) (A) (A) (A) (A) (A) (A)
                 (A) (A) (A) (A) (A) (A) (A) (A) (A) (A) (A) (A)
                 (A) (A) (A) (A) (A) (A) (A) (A) (A) (A) (A) (A)
                 (A) (A) (A) (A) (A) (A) (A) (A) (A) (A) (A) (A)
                 (A) (A) (A) (A) (A) (A) (A) (A) (A) (A) (A)
 The electronic state is 1-A.
 Alpha  occ. eigenvalues --  -18.84735 -18.82242 -18.79911 -14.02458 -10.05025
 Alpha  occ. eigenvalues --   -9.99417  -9.96085  -9.94575  -9.93573  -9.93374
 Alpha  occ. eigenvalues --   -1.04822  -1.00050  -0.95385  -0.88373  -0.74829
 Alpha  occ. eigenvalues --   -0.71875  -0.63637  -0.58832  -0.57960  -0.51198
 Alpha  occ. eigenvalues --   -0.49960  -0.46268  -0.44888  -0.43361  -0.43019
 Alpha  occ. eigenvalues --   -0.38806  -0.38222  -0.37189  -0.35764  -0.35090
 Alpha  occ. eigenvalues --   -0.34100  -0.30150  -0.27360  -0.26822  -0.22732
 Alpha  occ. eigenvalues --   -0.22666
 Alpha virt. eigenvalues --   -0.10446  -0.05842  -0.01956  -0.00967  -0.00687
 Alpha virt. eigenvalues --    0.01090   0.01933   0.03577   0.03908   0.04339
 Alpha virt. eigenvalues --    0.06495   0.06635   0.07453   0.07915   0.08820
 Alpha virt. eigenvalues --    0.09556   0.11091   0.11204   0.12035   0.12457
 Alpha virt. eigenvalues --    0.12797   0.13891   0.14669   0.14772   0.15851
 Alpha virt. eigenvalues --    0.16069   0.17596   0.17978   0.19274   0.19966
 Alpha virt. eigenvalues --    0.20124   0.20946   0.21424   0.22302   0.22671
 Alpha virt. eigenvalues --    0.22983   0.23975   0.24924   0.25215   0.25993
 Alpha virt. eigenvalues --    0.26953   0.27233   0.27682   0.28577   0.29260
 Alpha virt. eigenvalues --    0.29499   0.30594   0.31839   0.32389   0.33105
 Alpha virt. eigenvalues --    0.34896   0.35715   0.36991   0.38708   0.41282
 Alpha virt. eigenvalues --    0.42873   0.46457   0.53297   0.55976   0.60544
 Alpha virt. eigenvalues --    0.60900   0.64229   0.65893   0.67036   0.67179
 Alpha virt. eigenvalues --    0.67628   0.69456   0.71073   0.75574   0.77493
 Alpha virt. eigenvalues --    0.80716   0.83392   0.84170   0.88744   0.90168
 Alpha virt. eigenvalues --    0.92442   0.95736   0.97611   0.99897   1.03001
 Alpha virt. eigenvalues --    1.03944   1.05309   1.06754   1.07911   1.08727
 Alpha virt. eigenvalues --    1.12253   1.12764   1.14176   1.14717   1.15935
 Alpha virt. eigenvalues --    1.17736   1.19134   1.22811   1.23204   1.24876
 Alpha virt. eigenvalues --    1.25511   1.26254   1.26659   1.29877   1.31078
 Alpha virt. eigenvalues --    1.32598   1.33538   1.34945   1.37120   1.38784
 Alpha virt. eigenvalues --    1.42189   1.49191   1.50707   1.51037   1.56529
 Alpha virt. eigenvalues --    1.58343   1.66579   1.68248   1.69636   1.71412
 Alpha virt. eigenvalues --    1.75110   1.75147   1.78711   1.79971   1.81870
 Alpha virt. eigenvalues --    1.83347   1.87004   1.90688   1.90887   1.91766
 Alpha virt. eigenvalues --    1.95259   1.97897   2.01229   2.06352   2.11036
 Alpha virt. eigenvalues --    2.18639   2.19135   2.20574   2.25912   2.26838
 Alpha virt. eigenvalues --    2.26894   2.29629   2.33595   2.36473   2.40470
 Alpha virt. eigenvalues --    2.40731   2.42218   2.44271   2.45408   2.45970
 Alpha virt. eigenvalues --    2.49611   2.52919   2.55979   2.57881   2.58812
 Alpha virt. eigenvalues --    2.62713   2.65826   2.67051   2.69556   2.75985
 Alpha virt. eigenvalues --    2.80324   2.86623   2.95540   2.98897   3.01164
 Alpha virt. eigenvalues --    3.10152   3.10748   3.18087   3.23375   3.29445
 Alpha virt. eigenvalues --    3.33103   3.43883   3.50483   3.72184   4.07072
 Alpha virt. eigenvalues --    4.17757   4.23098   4.24700   4.27925   4.38675
 Alpha virt. eigenvalues --    4.49137   4.60852   4.74005   4.76697
          Condensed to atoms (all electrons):
               1          2          3          4          5          6
     1  N    7.013915  -0.292951   0.345983  -0.165508   0.251170   0.239515
     2  C   -0.292951   6.897877  -0.856446   0.495774  -0.681057  -0.003590
     3  C    0.345983  -0.856446   6.445025  -1.235251   2.101659  -0.936799
     4  C   -0.165508   0.495774  -1.235251  11.348382  -5.692651   1.452550
     5  C    0.251170  -0.681057   2.101659  -5.692651  15.520083  -5.296650
     6  C    0.239515  -0.003590  -0.936799   1.452550  -5.296650  11.201440
     7  C   -0.224312   0.243592  -0.202196   0.012336  -0.834145  -0.214499
     8  O    0.018245  -0.020415   0.019919  -0.002837   0.125518  -0.283455
     9  O    0.051864  -0.036596   0.020799   0.000558   0.168939  -0.349006
    10  O    0.003784  -0.022566   0.027692  -0.589799   0.263229   0.283630
    11  H   -0.114856   0.489844  -0.159161   0.045600  -0.051721   0.045749
    12  H    0.004579   0.047761   0.254132   0.028700  -0.013955  -0.008018
    13  H    0.001978  -0.022200   0.051134   0.175231   0.126386  -0.018672
    14  H    0.002948   0.005293  -0.002533   0.009083  -0.033363   0.046703
    15  H    0.000611   0.005531  -0.012381   0.180146  -0.020413  -0.136197
               7          8          9         10         11         12
     1  N   -0.224312   0.018245   0.051864   0.003784  -0.114856   0.004579
     2  C    0.243592  -0.020415  -0.036596  -0.022566   0.489844   0.047761
     3  C   -0.202196   0.019919   0.020799   0.027692  -0.159161   0.254132
     4  C    0.012336  -0.002837   0.000558  -0.589799   0.045600   0.028700
     5  C   -0.834145   0.125518   0.168939   0.263229  -0.051721  -0.013955
     6  C   -0.214499  -0.283455  -0.349006   0.283630   0.045749  -0.008018
     7  C    6.193287   0.362047   0.244678  -0.055808   0.018030  -0.000365
     8  O    0.362047   8.447328  -0.170846  -0.040878   0.000007   0.000003
     9  O    0.244678  -0.170846   8.288405  -0.005197  -0.000517  -0.000012
    10  O   -0.055808  -0.040878  -0.005197   8.487241   0.000217  -0.000724
    11  H    0.018030   0.000007  -0.000517   0.000217   0.585987  -0.002409
    12  H   -0.000365   0.000003  -0.000012  -0.000724  -0.002409   0.543438
    13  H    0.001667   0.000079   0.000026  -0.008594  -0.000133  -0.005596
    14  H    0.021128   0.002464   0.163699   0.000201  -0.000002   0.000000
    15  H    0.005863   0.062088   0.004486   0.154062  -0.000000   0.000004
              13         14         15
     1  N    0.001978   0.002948   0.000611
     2  C   -0.022200   0.005293   0.005531
     3  C    0.051134  -0.002533  -0.012381
     4  C    0.175231   0.009083   0.180146
     5  C    0.126386  -0.033363  -0.020413
     6  C   -0.018672   0.046703  -0.136197
     7  C    0.001667   0.021128   0.005863
     8  O    0.000079   0.002464   0.062088
     9  O    0.000026   0.163699   0.004486
    10  O   -0.008594   0.000201   0.154062
    11  H   -0.000133  -0.000002  -0.000000
    12  H   -0.005596   0.000000   0.000004
    13  H    0.535553  -0.000000   0.000055
    14  H   -0.000000   0.405688   0.000012
    15  H    0.000055   0.000012   0.358956
 Mulliken charges:
               1
     1  N   -0.136963
     2  C   -0.249851
     3  C    0.138425
     4  C   -0.062314
     5  C    0.066973
     6  C   -0.022703
     7  C    0.428699
     8  O   -0.519265
     9  O   -0.381281
    10  O   -0.496491
    11  H    0.143366
    12  H    0.152464
    13  H    0.163085
    14  H    0.378680
    15  H    0.397178
 Sum of Mulliken charges =  -0.00000
 Mulliken charges with hydrogens summed into heavy atoms:
               1
     1  N   -0.136963
     2  C   -0.106486
     3  C    0.290888
     4  C    0.100771
     5  C    0.066973
     6  C   -0.022703
     7  C    0.428699
     8  O   -0.519265
     9  O   -0.002601
    10  O   -0.099313
 Electronic spatial extent (au):  <R**2>=           1307.8424
 Charge=             -0.0000 electrons
 Dipole moment (field-independent basis, Debye):
    X=             -1.0616    Y=             -0.3222    Z=              0.0001  Tot=              1.1094
 Quadrupole moment (field-independent basis, Debye-Ang):
   XX=            -44.0954   YY=            -62.3031   ZZ=            -58.3047
   XY=             -2.4218   XZ=              0.0001   YZ=              0.0003
 Traceless Quadrupole moment (field-independent basis, Debye-Ang):
   XX=             10.8057   YY=             -7.4020   ZZ=             -3.4036
   XY=             -2.4218   XZ=              0.0001   YZ=              0.0003
 Octapole moment (field-independent basis, Debye-Ang**2):
  XXX=             18.9706  YYY=              3.3633  ZZZ=             -0.0004  XYY=             -0.2402
  XXY=            -17.6267  XXZ=              0.0003  XZZ=             10.3937  YZZ=              1.7666
  YYZ=              0.0000  XYZ=              0.0008
 Hexadecapole moment (field-independent basis, Debye-Ang**3):
 XXXX=           -870.9686 YYYY=           -597.0323 ZZZZ=            -60.4831 XXXY=            -74.4864
 XXXZ=              0.0044 YYYX=             15.5111 YYYZ=              0.0036 ZZZX=              0.0054
 ZZZY=              0.0034 XXYY=           -236.7110 XXZZ=           -195.8378 YYZZ=           -109.8180
 XXYZ=              0.0022 YYXZ=              0.0014 ZZXY=             -2.4821
 N-N= 5.079582080913D+02 E-N=-2.211201975694D+03  KE= 5.071376374043D+02
 Calling FoFJK, ICntrl=      2527 FMM=F ISym2X=0 I1Cent= 0 IOpClX= 0 NMat=1 NMatS=1 NMatT=0.
 ***** Axes restored to original set *****
 -------------------------------------------------------------------
 Center     Atomic                   Forces (Hartrees/Bohr)
 Number     Number              X              Y              Z
 -------------------------------------------------------------------
      1        7           0.007047623   -0.009432439    0.000000513
      2        6          -0.005094235   -0.001486480   -0.000000261
      3        6          -0.003479995   -0.001183953   -0.000000017
      4        6          -0.001533818    0.002914530   -0.000000036
      5        6          -0.000767146    0.000684313    0.000000641
      6        6           0.005491607   -0.000938854    0.000000699
      7        6          -0.011141552   -0.005104347   -0.000003292
      8        8           0.011437638    0.019216356    0.000001600
      9        8          -0.004414542   -0.015444538    0.000001499
     10        8          -0.006956865    0.012002816    0.000000562
     11        1          -0.002576917   -0.005188948    0.000000103
     12        1          -0.005587577   -0.000317627    0.000000040
     13        1          -0.002699843    0.004744597   -0.000000107
     14        1           0.009783282    0.002108585   -0.000000327
     15        1           0.010492339   -0.002574012   -0.000001616
 -------------------------------------------------------------------
 Cartesian Forces:  Max     0.019216356 RMS     0.006028785

 GradGradGradGradGradGradGradGradGradGradGradGradGradGradGradGradGradGrad
 Berny optimization.
 FormGI is forming the generalized inverse of G from B-inverse, IUseBI=4.
 Internal  Forces:  Max     0.022356549 RMS     0.005274072
 Search for a local minimum.
 Step number   1 out of a maximum of   74
 All quantities printed in internal units (Hartrees-Bohrs-Radians)
 Mixed Optimization -- RFO/linear search
 Second derivative matrix not updated -- first step.
 ITU=  0
     Eigenvalues ---    0.01098   0.01591   0.01741   0.01974   0.02095
     Eigenvalues ---    0.02130   0.02170   0.02199   0.02264   0.02472
     Eigenvalues ---    0.02543   0.02599   0.16000   0.16000   0.16000
     Eigenvalues ---    0.16000   0.16000   0.22081   0.23319   0.24912
     Eigenvalues ---    0.25000   0.25000   0.25000   0.25000   0.35096
     Eigenvalues ---    0.35161   0.35254   0.35354   0.40644   0.43532
     Eigenvalues ---    0.44176   0.47447   0.49721   0.53233   0.55194
     Eigenvalues ---    0.58187   0.59180   0.59430   0.89680
 RFO step:  Lambda=-3.11870490D-03 EMin= 1.09802181D-02
 Linear search not attempted -- first point.
 Iteration  1 RMS(Cart)=  0.01710852 RMS(Int)=  0.00001589
 Iteration  2 RMS(Cart)=  0.00002875 RMS(Int)=  0.00000211
 Iteration  3 RMS(Cart)=  0.00000000 RMS(Int)=  0.00000211
 Variable       Old X    -DE/DX   Delta X   Delta X   Delta X     New X
                                 (Linear)    (Quad)   (Total)
    R1        2.50091   0.01226   0.00000   0.02031   0.02031   2.52122
    R2        2.53646   0.01078   0.00000   0.01931   0.01932   2.55578
    R3        2.65607   0.00808   0.00000   0.01793   0.01793   2.67400
    R4        2.05519   0.00579   0.00000   0.01635   0.01635   2.07154
    R5        2.61138   0.00929   0.00000   0.01847   0.01847   2.62985
    R6        2.05264   0.00560   0.00000   0.01574   0.01574   2.06838
    R7        2.65320   0.00873   0.00000   0.01880   0.01880   2.67200
    R8        2.05105   0.00546   0.00000   0.01531   0.01531   2.06636
    R9        2.67504   0.01131   0.00000   0.02608   0.02609   2.70113
   R10        2.52405   0.01001   0.00000   0.01711   0.01711   2.54116
   R11        2.78715   0.00567   0.00000   0.01600   0.01600   2.80315
   R12        2.33081   0.02236   0.00000   0.02484   0.02484   2.35565
   R13        2.51595   0.01433   0.00000   0.02409   0.02409   2.54004
   R14        1.83437   0.01000   0.00000   0.01867   0.01867   1.85304
   R15        1.86848   0.01078   0.00000   0.02155   0.02155   1.89003
    A1        2.06810  -0.00049   0.00000   0.00045   0.00046   2.06855
    A2        2.14307   0.00015   0.00000   0.00140   0.00140   2.14447
    A3        2.03377   0.00004   0.00000   0.00002   0.00002   2.03379
    A4        2.10634  -0.00019   0.00000  -0.00142  -0.00142   2.10493
    A5        2.08216   0.00013   0.00000  -0.00073  -0.00073   2.08143
    A6        2.09598   0.00001   0.00000   0.00079   0.00079   2.09677
    A7        2.10504  -0.00013   0.00000  -0.00006  -0.00006   2.10498
    A8        2.07338   0.00086   0.00000   0.00161   0.00161   2.07499
    A9        2.13533  -0.00030   0.00000  -0.00000  -0.00000   2.13533
   A10        2.07447  -0.00056   0.00000  -0.00161  -0.00161   2.07286
   A11        2.05176   0.00023   0.00000  -0.00009  -0.00009   2.05167
   A12        2.07357  -0.00076   0.00000  -0.00250  -0.00250   2.07107
   A13        2.15785   0.00053   0.00000   0.00259   0.00258   2.16044
   A14        2.14790  -0.00087   0.00000  -0.00265  -0.00264   2.14526
   A15        2.06830   0.00038   0.00000   0.00110   0.00110   2.06940
   A16        2.06699   0.00049   0.00000   0.00155   0.00154   2.06853
   A17        2.14129   0.00040   0.00000   0.00160   0.00160   2.14289
   A18        2.01869  -0.00147   0.00000  -0.00582  -0.00582   2.01287
   A19        2.12321   0.00107   0.00000   0.00422   0.00422   2.12743
   A20        1.85979  -0.00059   0.00000  -0.00360  -0.00360   1.85620
   A21        1.86781  -0.00143   0.00000  -0.00877  -0.00877   1.85904
    D1        0.00000  -0.00000   0.00000  -0.00001  -0.00001  -0.00001
    D2       -3.14159  -0.00000   0.00000  -0.00000  -0.00000   3.14159
    D3       -0.00000  -0.00000   0.00000  -0.00000  -0.00000  -0.00000
    D4       -3.14158  -0.00000   0.00000  -0.00002  -0.00002   3.14158
    D5       -0.00000   0.00000   0.00000   0.00001   0.00001   0.00001
    D6        3.14159   0.00000   0.00000   0.00000   0.00000  -3.14159
    D7       -3.14159   0.00000   0.00000   0.00000   0.00000  -3.14159
    D8        0.00000  -0.00000   0.00000  -0.00000  -0.00000  -0.00000
    D9       -0.00000   0.00000   0.00000   0.00000   0.00000   0.00000
   D10       -3.14159  -0.00000   0.00000  -0.00001  -0.00001   3.14159
   D11        3.14159   0.00000   0.00000   0.00001   0.00001  -3.14159
   D12        0.00000  -0.00000   0.00000  -0.00001  -0.00001  -0.00000
   D13        0.00000  -0.00000   0.00000  -0.00001  -0.00001  -0.00001
   D14       -3.14158  -0.00000   0.00000  -0.00003  -0.00003   3.14157
   D15        3.14159   0.00000   0.00000   0.00000   0.00000  -3.14159
   D16        0.00000  -0.00000   0.00000  -0.00002  -0.00002  -0.00001
   D17       -0.00000   0.00000   0.00000   0.00001   0.00001   0.00001
   D18        3.14158   0.00000   0.00000   0.00003   0.00003  -3.14157
   D19        3.14158   0.00000   0.00000   0.00003   0.00003  -3.14157
   D20       -0.00002   0.00000   0.00000   0.00005   0.00005   0.00004
   D21        3.14157   0.00000   0.00000   0.00007   0.00007  -3.14155
   D22       -0.00001   0.00000   0.00000   0.00005   0.00005   0.00003
   D23        3.14155   0.00000   0.00000   0.00013   0.00013  -3.14150
   D24       -0.00001  -0.00000   0.00000  -0.00001  -0.00001  -0.00001
   D25       -0.00003   0.00000   0.00000   0.00010   0.00010   0.00007
   D26       -3.14159  -0.00000   0.00000  -0.00003  -0.00003   3.14157
   D27        3.14158   0.00000   0.00000   0.00006   0.00006  -3.14154
   D28        0.00002  -0.00000   0.00000  -0.00007  -0.00007  -0.00005
         Item               Value     Threshold  Converged?
 Maximum Force            0.022357     0.000450     NO 
 RMS     Force            0.005274     0.000300     NO 
 Maximum Displacement     0.047048     0.001800     NO 
 RMS     Displacement     0.017102     0.001200     NO 
 Predicted change in Energy=-1.568650D-03
 GradGradGradGradGradGradGradGradGradGradGradGradGradGradGradGradGradGrad

                          Input orientation:                          
 ---------------------------------------------------------------------
 Center     Atomic      Atomic             Coordinates (Angstroms)
 Number     Number       Type             X           Y           Z
 ---------------------------------------------------------------------
      1          7           0       -0.441512   -1.459115   -0.000009
      2          6           0       -1.775413   -1.485996    0.000017
      3          6           0       -2.567160   -0.313215    0.000040
      4          6           0       -1.941442    0.929838    0.000028
      5          6           0       -0.528495    0.983345   -0.000007
      6          6           0        0.180155   -0.257998   -0.000021
      7          6           0        1.663190   -0.226862   -0.000030
      8          8           0        2.315918    0.835142    0.000052
      9          8           0        2.263598   -1.429442   -0.000013
     10          8           0        0.071415    2.186837   -0.000041
     11          1           0       -2.245153   -2.476464    0.000025
     12          1           0       -3.659182   -0.387413    0.000064
     13          1           0       -2.503556    1.867762    0.000039
     14          1           0        3.228751   -1.256144    0.000024
     15          1           0        1.056443    2.013509   -0.000107
 ---------------------------------------------------------------------
                    Distance matrix (angstroms):
                    1          2          3          4          5
     1  N    0.000000
     2  C    1.334172   0.000000
     3  C    2.414844   1.415019   0.000000
     4  C    2.820796   2.421533   1.391656   0.000000
     5  C    2.444009   2.766306   2.416035   1.413960   0.000000
     6  C    1.352462   2.309161   2.747870   2.431487   1.429376
     7  C    2.438897   3.661885   4.231231   3.785673   2.503614
     8  O    3.587065   4.703899   5.016291   4.258413   2.848272
     9  O    2.705272   4.039407   4.958043   4.821676   3.690166
    10  O    3.681856   4.111019   3.634878   2.373107   1.344725
    11  H    2.070778   1.096213   2.187084   3.419816   3.862278
    12  H    3.391452   2.180704   1.094540   2.164667   3.417628
    13  H    3.914095   3.431892   2.181904   1.093468   2.164038
    14  H    3.675870   5.009439   5.872112   5.613324   4.374038
    15  H    3.781929   4.501771   4.306291   3.187735   1.890308
                    6          7          8          9         10
     6  C    0.000000
     7  C    1.483362   0.000000
     8  O    2.399258   1.246558   0.000000
     9  O    2.390192   1.344131   2.265188   0.000000
    10  O    2.447252   2.891313   2.620091   4.228846   0.000000
    11  H    3.286900   4.509529   5.636498   4.628725   5.207002
    12  H    3.841518   5.324793   6.098891   6.013747   4.532563
    13  H    3.423618   4.663606   4.928858   5.796319   2.594665
    14  H    3.207839   1.873607   2.281828   0.980587   4.671497
    15  H    2.434671   2.321078   1.724769   3.648443   1.000161
                   11         12         13         14         15
    11  H    0.000000
    12  H    2.522620   0.000000
    13  H    4.351905   2.534026   0.000000
    14  H    5.608280   6.942500   6.528256   0.000000
    15  H    5.573186   5.291649   3.562981   3.925501   0.000000
 Stoichiometry    C6H5NO3
 Framework group  C1[X(C6H5NO3)]
 Deg. of freedom    39
 Full point group                 C1      NOp   1
 Largest Abelian subgroup         C1      NOp   1
 Largest concise Abelian subgroup C1      NOp   1
                         Standard orientation:                         
 ---------------------------------------------------------------------
 Center     Atomic      Atomic             Coordinates (Angstroms)
 Number     Number       Type             X           Y           Z
 ---------------------------------------------------------------------
      1          7           0       -0.442345   -1.460485   -0.000011
      2          6           0       -1.776215   -1.488877    0.000015
      3          6           0       -2.569291   -0.316994    0.000038
      4          6           0       -1.944982    0.926768    0.000027
      5          6           0       -0.532097    0.981876   -0.000009
      6          6           0        0.177959   -0.258663   -0.000023
      7          6           0        1.660958   -0.225846   -0.000032
      8          8           0        2.312483    0.836896    0.000050
      9          8           0        2.262729   -1.427745   -0.000014
     10          8           0        0.066449    2.186047   -0.000043
     11          1           0       -2.244832   -2.479877    0.000023
     12          1           0       -3.661228   -0.392430    0.000062
     13          1           0       -2.508159    1.864054    0.000037
     14          1           0        3.227685   -1.253354    0.000023
     15          1           0        1.051672    2.013836   -0.000109
 ---------------------------------------------------------------------
 Rotational constants (GHZ):      2.3317853      1.2447327      0.8115294
 Standard basis: 6-31+G(d,p) (6D, 7F)
 There are   215 symmetry adapted cartesian basis functions of A   symmetry.
 There are   215 symmetry adapted basis functions of A   symmetry.
   215 basis functions,   355 primitive gaussians,   215 cartesian basis functions
    36 alpha electrons       36 beta electrons
       nuclear repulsion energy       503.9358911799 Hartrees.
 NAtoms=   15 NActive=   15 NUniq=   15 SFac= 1.00D+00 NAtFMM=   60 NAOKFM=F Big=F
 Integral buffers will be    131072 words long.
 Raffenetti 2 integral format.
 Two-electron integral symmetry is turned on.
 Nuclear repulsion after empirical dispersion term =      503.9301621819 Hartrees.
 One-electron integrals computed using PRISM.
 NBasis=   215 RedAO= T EigKep=  6.18D-06  NBF=   215
 NBsUse=   215 1.00D-06 EigRej= -1.00D+00 NBFU=   215
 Initial guess from the checkpoint file:  "pbeD33HPA.chk"
 B after Tr=     0.000000    0.000000    0.000000
         Rot=    1.000000   -0.000004    0.000003   -0.000651 Ang=  -0.07 deg.
 ExpMin= 4.38D-02 ExpMax= 5.48D+03 ExpMxC= 8.25D+02 IAcc=2 IRadAn=         4 AccDes= 0.00D+00
 Harris functional with IExCor= 1009 and IRadAn=       4 diagonalized for initial guess.
 HarFok:  IExCor= 1009 AccDes= 0.00D+00 IRadAn=         4 IDoV= 1 UseB2=F ITyADJ=14
 ICtDFT=  3500011 ScaDFX=  1.000000  1.000000  1.000000  1.000000
 FoFCou: FMM=F IPFlag=           0 FMFlag=      100000 FMFlg1=           0
         NFxFlg=           0 DoJE=T BraDBF=F KetDBF=T FulRan=T
         wScrn=  0.000000 ICntrl=     500 IOpCl=  0 I1Cent=   200000004 NGrid=           0
         NMat0=    1 NMatS0=      1 NMatT0=    0 NMatD0=    1 NMtDS0=    0 NMtDT0=    0
 Petite list used in FoFCou.
 Keep J ints in memory in canonical form, NReq=274797245.
 Requested convergence on RMS density matrix=1.00D-08 within 128 cycles.
 Requested convergence on MAX density matrix=1.00D-06.
 Requested convergence on             energy=1.00D-06.
 No special actions if energy rises.
 EnCoef did     5 forward-backward iterations
 SCF Done:  E(RPBE-PBE) =  -511.560906101     A.U. after   12 cycles
            NFock= 12  Conv=0.76D-08     -V/T= 2.0094
 Calling FoFJK, ICntrl=      2527 FMM=F ISym2X=0 I1Cent= 0 IOpClX= 0 NMat=1 NMatS=1 NMatT=0.
 ***** Axes restored to original set *****
 -------------------------------------------------------------------
 Center     Atomic                   Forces (Hartrees/Bohr)
 Number     Number              X              Y              Z
 -------------------------------------------------------------------
      1        7           0.001158495   -0.001401891   -0.000000953
      2        6          -0.000789251    0.001607179    0.000000748
      3        6           0.000605745   -0.000190268    0.000000020
      4        6           0.000591117   -0.000155094    0.000000268
      5        6          -0.000712116   -0.001905624   -0.000001850
      6        6           0.000477841    0.000568281   -0.000002461
      7        6          -0.003778837    0.000883110    0.000011891
      8        8           0.000059390    0.001713471   -0.000006780
      9        8          -0.000184988   -0.002470489   -0.000003288
     10        8          -0.000918900    0.001561078   -0.000001598
     11        1           0.000411542    0.000154359   -0.000000047
     12        1           0.000134076    0.000068296   -0.000000015
     13        1           0.000123626   -0.000070139    0.000000040
     14        1           0.000739140    0.000917663    0.000000066
     15        1           0.002083120   -0.001279933    0.000003959
 -------------------------------------------------------------------
 Cartesian Forces:  Max     0.003778837 RMS     0.001021980

 GradGradGradGradGradGradGradGradGradGradGradGradGradGradGradGradGradGrad
 Berny optimization.
 Using GEDIIS/GDIIS optimizer.
 FormGI is forming the generalized inverse of G from B-inverse, IUseBI=4.
 Internal  Forces:  Max     0.003746927 RMS     0.001090417
 Search for a local minimum.
 Step number   2 out of a maximum of   74
 All quantities printed in internal units (Hartrees-Bohrs-Radians)
 Mixed Optimization -- RFO/linear search
 Update second derivatives using D2CorX and points    1    2
 DE= -1.53D-03 DEPred=-1.57D-03 R= 9.78D-01
 TightC=F SS=  1.41D+00  RLast= 7.73D-02 DXNew= 5.0454D-01 2.3179D-01
 Trust test= 9.78D-01 RLast= 7.73D-02 DXMaxT set to 3.00D-01
 ITU=  1  0
 Use linear search instead of GDIIS.
     Eigenvalues ---    0.01098   0.01592   0.01740   0.01974   0.02095
     Eigenvalues ---    0.02130   0.02170   0.02199   0.02265   0.02472
     Eigenvalues ---    0.02543   0.02599   0.15701   0.16000   0.16000
     Eigenvalues ---    0.16000   0.16007   0.22082   0.23133   0.24370
     Eigenvalues ---    0.24922   0.25000   0.25000   0.25139   0.34721
     Eigenvalues ---    0.35165   0.35313   0.36499   0.41054   0.43535
     Eigenvalues ---    0.46492   0.47775   0.48472   0.53071   0.56502
     Eigenvalues ---    0.57778   0.58588   0.59849   0.88225
 RFO step:  Lambda=-2.61065456D-04 EMin= 1.09802204D-02
 Quartic linear search produced a step of -0.00530.
 Iteration  1 RMS(Cart)=  0.01739821 RMS(Int)=  0.00011141
 Iteration  2 RMS(Cart)=  0.00019101 RMS(Int)=  0.00000141
 Iteration  3 RMS(Cart)=  0.00000002 RMS(Int)=  0.00000141
 Variable       Old X    -DE/DX   Delta X   Delta X   Delta X     New X
                                 (Linear)    (Quad)   (Total)
    R1        2.52122   0.00039  -0.00011   0.00253   0.00242   2.52364
    R2        2.55578  -0.00035  -0.00010   0.00107   0.00097   2.55675
    R3        2.67400  -0.00027  -0.00010   0.00114   0.00105   2.67504
    R4        2.07154  -0.00032  -0.00009   0.00055   0.00047   2.07201
    R5        2.62985  -0.00056  -0.00010   0.00053   0.00043   2.63028
    R6        2.06838  -0.00014  -0.00008   0.00101   0.00093   2.06931
    R7        2.67200  -0.00149  -0.00010  -0.00175  -0.00185   2.67015
    R8        2.06636  -0.00012  -0.00008   0.00102   0.00094   2.06729
    R9        2.70113  -0.00237  -0.00014  -0.00328  -0.00342   2.69771
   R10        2.54116   0.00077  -0.00009   0.00284   0.00275   2.54391
   R11        2.80315  -0.00315  -0.00008  -0.00748  -0.00756   2.79559
   R12        2.35565   0.00149  -0.00013   0.00386   0.00373   2.35938
   R13        2.54004   0.00165  -0.00013   0.00491   0.00478   2.54482
   R14        1.85304   0.00089  -0.00010   0.00331   0.00322   1.85626
   R15        1.89003   0.00228  -0.00011   0.00647   0.00636   1.89639
    A1        2.06855  -0.00223  -0.00000  -0.00864  -0.00864   2.05992
    A2        2.14447   0.00071  -0.00001   0.00380   0.00380   2.14826
    A3        2.03379  -0.00066  -0.00000  -0.00376  -0.00376   2.03003
    A4        2.10493  -0.00004   0.00001  -0.00004  -0.00004   2.10489
    A5        2.08143   0.00015   0.00000   0.00093   0.00093   2.08236
    A6        2.09677  -0.00001  -0.00000  -0.00000  -0.00000   2.09677
    A7        2.10498  -0.00014   0.00000  -0.00093  -0.00093   2.10405
    A8        2.07499  -0.00078  -0.00001  -0.00356  -0.00358   2.07141
    A9        2.13533   0.00047   0.00000   0.00234   0.00234   2.13768
   A10        2.07286   0.00031   0.00001   0.00122   0.00123   2.07410
   A11        2.05167   0.00057   0.00000   0.00175   0.00175   2.05342
   A12        2.07107   0.00175   0.00001   0.00697   0.00698   2.07805
   A13        2.16044  -0.00231  -0.00001  -0.00872  -0.00873   2.15171
   A14        2.14526   0.00158   0.00001   0.00572   0.00573   2.15099
   A15        2.06940   0.00217  -0.00001   0.00887   0.00887   2.07826
   A16        2.06853  -0.00375  -0.00001  -0.01459  -0.01460   2.05393
   A17        2.14289  -0.00162  -0.00001  -0.00629  -0.00630   2.13659
   A18        2.01287   0.00125   0.00003   0.00446   0.00449   2.01736
   A19        2.12743   0.00037  -0.00002   0.00183   0.00181   2.12924
   A20        1.85620  -0.00142   0.00002  -0.00912  -0.00910   1.84710
   A21        1.85904  -0.00170   0.00005  -0.01135  -0.01131   1.84774
    D1       -0.00001   0.00000   0.00000   0.00002   0.00002   0.00001
    D2        3.14159   0.00000   0.00000   0.00000   0.00000  -3.14159
    D3       -0.00000   0.00000   0.00000   0.00000   0.00000   0.00000
    D4        3.14158   0.00000   0.00000   0.00006   0.00006  -3.14155
    D5        0.00001  -0.00000  -0.00000  -0.00002  -0.00002  -0.00002
    D6       -3.14159  -0.00000  -0.00000  -0.00001  -0.00001   3.14159
    D7       -3.14159  -0.00000  -0.00000  -0.00000  -0.00000   3.14159
    D8       -0.00000   0.00000   0.00000   0.00001   0.00001   0.00001
    D9        0.00000   0.00000  -0.00000  -0.00000  -0.00000  -0.00000
   D10        3.14159   0.00000   0.00000   0.00003   0.00003  -3.14157
   D11       -3.14159  -0.00000  -0.00000  -0.00001  -0.00001   3.14158
   D12       -0.00000   0.00000   0.00000   0.00001   0.00001   0.00001
   D13       -0.00001   0.00000   0.00000   0.00002   0.00002   0.00002
   D14        3.14157   0.00000   0.00000   0.00007   0.00007  -3.14154
   D15       -3.14159  -0.00000  -0.00000  -0.00000  -0.00000   3.14159
   D16       -0.00001   0.00000   0.00000   0.00005   0.00005   0.00003
   D17        0.00001  -0.00000  -0.00000  -0.00002  -0.00002  -0.00002
   D18       -3.14157  -0.00000  -0.00000  -0.00008  -0.00008   3.14154
   D19       -3.14157  -0.00000  -0.00000  -0.00008  -0.00008   3.14154
   D20        0.00004  -0.00000  -0.00000  -0.00013  -0.00013  -0.00009
   D21       -3.14155  -0.00000  -0.00000  -0.00017  -0.00017   3.14147
   D22        0.00003  -0.00000  -0.00000  -0.00011  -0.00011  -0.00008
   D23       -3.14150  -0.00001  -0.00000  -0.00037  -0.00037   3.14131
   D24       -0.00001   0.00000   0.00000   0.00005   0.00005   0.00004
   D25        0.00007  -0.00000  -0.00000  -0.00032  -0.00032  -0.00025
   D26        3.14157   0.00000   0.00000   0.00010   0.00010  -3.14152
   D27       -3.14154  -0.00000  -0.00000  -0.00021  -0.00021   3.14143
   D28       -0.00005   0.00000   0.00000   0.00021   0.00021   0.00016
         Item               Value     Threshold  Converged?
 Maximum Force            0.003747     0.000450     NO 
 RMS     Force            0.001090     0.000300     NO 
 Maximum Displacement     0.075522     0.001800     NO 
 RMS     Displacement     0.017529     0.001200     NO 
 Predicted change in Energy=-1.307461D-04
 GradGradGradGradGradGradGradGradGradGradGradGradGradGradGradGradGradGrad

                          Input orientation:                          
 ---------------------------------------------------------------------
 Center     Atomic      Atomic             Coordinates (Angstroms)
 Number     Number       Type             X           Y           Z
 ---------------------------------------------------------------------
      1          7           0       -0.445665   -1.469910    0.000099
      2          6           0       -1.781017   -1.486525    0.000066
      3          6           0       -2.568479   -0.310196   -0.000014
      4          6           0       -1.938956    0.931189   -0.000043
      5          6           0       -0.526665    0.975400    0.000010
      6          6           0        0.175122   -0.267759    0.000071
      7          6           0        1.653781   -0.222222    0.000055
      8          8           0        2.290344    0.851843   -0.000270
      9          8           0        2.272470   -1.418350    0.000023
     10          8           0        0.090148    2.171955    0.000044
     11          1           0       -2.254770   -2.475355    0.000092
     12          1           0       -3.661271   -0.380157   -0.000045
     13          1           0       -2.496322    1.872518   -0.000087
     14          1           0        3.234973   -1.222192   -0.000136
     15          1           0        1.073863    1.973545    0.000194
 ---------------------------------------------------------------------
                    Distance matrix (angstroms):
                    1          2          3          4          5
     1  N    0.000000
     2  C    1.335455   0.000000
     3  C    2.418940   1.415573   0.000000
     4  C    2.827577   2.422868   1.391883   0.000000
     5  C    2.446651   2.763055   2.412832   1.412983   0.000000
     6  C    1.352976   2.304749   2.743929   2.430392   1.427568
     7  C    2.442213   3.660096   4.223177   3.773343   2.487699
     8  O    3.588354   4.695098   4.995848   4.230045   2.819718
     9  O    2.718624   4.054059   4.966164   4.822493   3.683096
    10  O    3.681070   4.109225   3.637220   2.378395   1.346181
    11  H    2.069729   1.096461   2.187767   3.421152   3.859282
    12  H    3.395244   2.181606   1.095029   2.164717   3.415156
    13  H    3.921354   3.434361   2.183907   1.093964   2.164340
    14  H    3.688965   5.022950   5.874674   5.604159   4.356528
    15  H    3.763821   4.485803   4.299085   3.188038   1.886262
                    6          7          8          9         10
     6  C    0.000000
     7  C    1.479360   0.000000
     8  O    2.393256   1.248531   0.000000
     9  O    2.392222   1.346662   2.270264   0.000000
    10  O    2.441194   2.859552   2.565845   4.201526   0.000000
    11  H    3.282964   4.511472   5.632789   4.648995   5.205394
    12  H    3.838039   5.317398   6.077792   6.023879   4.537226
    13  H    3.423069   4.648795   4.894278   5.794065   2.603745
    14  H    3.205251   1.870857   2.279023   0.982289   4.627112
    15  H    2.414783   2.271057   1.654703   3.597445   1.003525
                   11         12         13         14         15
    11  H    0.000000
    12  H    2.523509   0.000000
    13  H    4.354578   2.536071   0.000000
    14  H    5.630959   6.947460   6.513446   0.000000
    15  H    5.556303   5.287855   3.571614   3.857866   0.000000
 Stoichiometry    C6H5NO3
 Framework group  C1[X(C6H5NO3)]
 Deg. of freedom    39
 Full point group                 C1      NOp   1
 Largest Abelian subgroup         C1      NOp   1
 Largest concise Abelian subgroup C1      NOp   1
                         Standard orientation:                         
 ---------------------------------------------------------------------
 Center     Atomic      Atomic             Coordinates (Angstroms)
 Number     Number       Type             X           Y           Z
 ---------------------------------------------------------------------
      1          7           0       -0.456645   -1.467471    0.000100
      2          6           0       -1.792077   -1.475156    0.000067
      3          6           0       -2.571655   -0.293588   -0.000014
      4          6           0       -1.933845    0.943560   -0.000043
      5          6           0       -0.521291    0.978326    0.000010
      6          6           0        0.172168   -0.269498    0.000072
      7          6           0        1.651099   -0.233850    0.000056
      8          8           0        2.294830    0.835934   -0.000270
      9          8           0        2.261774   -1.434089    0.000023
     10          8           0        0.103510    2.170730    0.000045
     11          1           0       -2.272433   -2.460795    0.000093
     12          1           0       -3.664891   -0.356240   -0.000044
     13          1           0       -2.484904    1.888595   -0.000087
     14          1           0        3.225568   -1.244371   -0.000135
     15          1           0        1.085877    1.965746    0.000195
 ---------------------------------------------------------------------
 Rotational constants (GHZ):      2.3427480      1.2485416      0.8144758
 Standard basis: 6-31+G(d,p) (6D, 7F)
 There are   215 symmetry adapted cartesian basis functions of A   symmetry.
 There are   215 symmetry adapted basis functions of A   symmetry.
   215 basis functions,   355 primitive gaussians,   215 cartesian basis functions
    36 alpha electrons       36 beta electrons
       nuclear repulsion energy       504.5972448598 Hartrees.
 NAtoms=   15 NActive=   15 NUniq=   15 SFac= 1.00D+00 NAtFMM=   60 NAOKFM=F Big=F
 Integral buffers will be    131072 words long.
 Raffenetti 2 integral format.
 Two-electron integral symmetry is turned on.
 Nuclear repulsion after empirical dispersion term =      504.5915403508 Hartrees.
 One-electron integrals computed using PRISM.
 NBasis=   215 RedAO= T EigKep=  6.18D-06  NBF=   215
 NBsUse=   215 1.00D-06 EigRej= -1.00D+00 NBFU=   215
 Initial guess from the checkpoint file:  "pbeD33HPA.chk"
 B after Tr=    -0.000000    0.000000   -0.000000
         Rot=    0.999994    0.000011   -0.000007    0.003457 Ang=   0.40 deg.
 ExpMin= 4.38D-02 ExpMax= 5.48D+03 ExpMxC= 8.25D+02 IAcc=2 IRadAn=         4 AccDes= 0.00D+00
 Harris functional with IExCor= 1009 and IRadAn=       4 diagonalized for initial guess.
 HarFok:  IExCor= 1009 AccDes= 0.00D+00 IRadAn=         4 IDoV= 1 UseB2=F ITyADJ=14
 ICtDFT=  3500011 ScaDFX=  1.000000  1.000000  1.000000  1.000000
 FoFCou: FMM=F IPFlag=           0 FMFlag=      100000 FMFlg1=           0
         NFxFlg=           0 DoJE=T BraDBF=F KetDBF=T FulRan=T
         wScrn=  0.000000 ICntrl=     500 IOpCl=  0 I1Cent=   200000004 NGrid=           0
         NMat0=    1 NMatS0=      1 NMatT0=    0 NMatD0=    1 NMtDS0=    0 NMtDT0=    0
 Petite list used in FoFCou.
 Keep J ints in memory in canonical form, NReq=274797245.
 Requested convergence on RMS density matrix=1.00D-08 within 128 cycles.
 Requested convergence on MAX density matrix=1.00D-06.
 Requested convergence on             energy=1.00D-06.
 No special actions if energy rises.
 SCF Done:  E(RPBE-PBE) =  -511.560937489     A.U. after   12 cycles
            NFock= 12  Conv=0.68D-08     -V/T= 2.0094
 Calling FoFJK, ICntrl=      2527 FMM=F ISym2X=0 I1Cent= 0 IOpClX= 0 NMat=1 NMatS=1 NMatT=0.
 ***** Axes restored to original set *****
 -------------------------------------------------------------------
 Center     Atomic                   Forces (Hartrees/Bohr)
 Number     Number              X              Y              Z
 -------------------------------------------------------------------
      1        7          -0.000072560   -0.000170977    0.000003207
      2        6          -0.000139405    0.000413020   -0.000002289
      3        6           0.000553318    0.000100467   -0.000000121
      4        6          -0.000319053   -0.000192321   -0.000000891
      5        6           0.000059635    0.001869680    0.000005480
      6        6           0.001104369    0.000056674    0.000008844
      7        6          -0.002870316   -0.001530814   -0.000039640
      8        8           0.002581362   -0.001224568    0.000022184
      9        8           0.000920875    0.001241307    0.000010399
     10        8          -0.005086676    0.000187037    0.000004824
     11        1           0.000235528    0.000413178    0.000000004
     12        1           0.000485228   -0.000080260    0.000000145
     13        1           0.000193037   -0.000455905   -0.000000098
     14        1          -0.000284081   -0.000151525   -0.000000017
     15        1           0.002638739   -0.000474995   -0.000012030
 -------------------------------------------------------------------
 Cartesian Forces:  Max     0.005086676 RMS     0.001159049

 GradGradGradGradGradGradGradGradGradGradGradGradGradGradGradGradGradGrad
 Berny optimization.
 Using GEDIIS/GDIIS optimizer.
 FormGI is forming the generalized inverse of G from B-inverse, IUseBI=4.
 Internal  Forces:  Max     0.005053788 RMS     0.001266669
 Search for a local minimum.
 Step number   3 out of a maximum of   74
 All quantities printed in internal units (Hartrees-Bohrs-Radians)
 Mixed Optimization -- RFO/linear search
 Update second derivatives using D2CorX and points    1    2    3
 DE= -3.14D-05 DEPred=-1.31D-04 R= 2.40D-01
 Trust test= 2.40D-01 RLast= 3.21D-02 DXMaxT set to 3.00D-01
 ITU=  0  1  0
 Use linear search instead of GDIIS.
     Eigenvalues ---    0.01098   0.01595   0.01743   0.01974   0.02095
     Eigenvalues ---    0.02130   0.02169   0.02199   0.02264   0.02471
     Eigenvalues ---    0.02543   0.02599   0.13704   0.16000   0.16000
     Eigenvalues ---    0.16003   0.16003   0.21740   0.22127   0.24249
     Eigenvalues ---    0.24956   0.25000   0.25017   0.33251   0.35150
     Eigenvalues ---    0.35307   0.35903   0.36908   0.41588   0.44181
     Eigenvalues ---    0.45475   0.47677   0.52952   0.55876   0.57083
     Eigenvalues ---    0.58422   0.59853   0.73488   0.86269
 RFO step:  Lambda=-6.67155926D-05 EMin= 1.09803142D-02
 Quartic linear search produced a step of -0.42898.
 Iteration  1 RMS(Cart)=  0.00720416 RMS(Int)=  0.00002178
 Iteration  2 RMS(Cart)=  0.00002479 RMS(Int)=  0.00000066
 Iteration  3 RMS(Cart)=  0.00000000 RMS(Int)=  0.00000066
 Variable       Old X    -DE/DX   Delta X   Delta X   Delta X     New X
                                 (Linear)    (Quad)   (Total)
    R1        2.52364  -0.00085  -0.00104   0.00077  -0.00027   2.52337
    R2        2.55675  -0.00008  -0.00042   0.00063   0.00021   2.55696
    R3        2.67504  -0.00124  -0.00045  -0.00110  -0.00155   2.67350
    R4        2.07201  -0.00048  -0.00020  -0.00050  -0.00071   2.07131
    R5        2.63028  -0.00103  -0.00018  -0.00108  -0.00126   2.62902
    R6        2.06931  -0.00048  -0.00040  -0.00018  -0.00058   2.06873
    R7        2.67015  -0.00017   0.00079  -0.00150  -0.00070   2.66945
    R8        2.06729  -0.00049  -0.00040  -0.00018  -0.00059   2.06671
    R9        2.69771   0.00279   0.00147   0.00142   0.00289   2.70060
   R10        2.54391  -0.00138  -0.00118   0.00050  -0.00068   2.54324
   R11        2.79559   0.00029   0.00324  -0.00491  -0.00166   2.79392
   R12        2.35938   0.00026  -0.00160   0.00267   0.00107   2.36045
   R13        2.54482  -0.00066  -0.00205   0.00261   0.00056   2.54538
   R14        1.85626  -0.00031  -0.00138   0.00185   0.00047   1.85672
   R15        1.89639   0.00269  -0.00273   0.00748   0.00475   1.90114
    A1        2.05992   0.00071   0.00370  -0.00446  -0.00076   2.05916
    A2        2.14826   0.00020  -0.00163   0.00268   0.00105   2.14931
    A3        2.03003  -0.00013   0.00161  -0.00278  -0.00117   2.02886
    A4        2.10489  -0.00007   0.00002   0.00011   0.00012   2.10501
    A5        2.08236   0.00027  -0.00040   0.00073   0.00033   2.08269
    A6        2.09677  -0.00024   0.00000  -0.00041  -0.00041   2.09636
    A7        2.10405  -0.00003   0.00040  -0.00032   0.00008   2.10413
    A8        2.07141   0.00053   0.00153  -0.00128   0.00026   2.07167
    A9        2.13768  -0.00033  -0.00101   0.00082  -0.00019   2.13749
   A10        2.07410  -0.00021  -0.00053   0.00046  -0.00007   2.07403
   A11        2.05342  -0.00060  -0.00075   0.00031  -0.00044   2.05298
   A12        2.07805  -0.00233  -0.00299  -0.00061  -0.00360   2.07445
   A13        2.15171   0.00294   0.00375   0.00030   0.00404   2.15575
   A14        2.15099  -0.00111  -0.00246   0.00203  -0.00043   2.15056
   A15        2.07826  -0.00394  -0.00380  -0.00299  -0.00680   2.07146
   A16        2.05393   0.00505   0.00626   0.00097   0.00723   2.06116
   A17        2.13659   0.00365   0.00270   0.00390   0.00660   2.14320
   A18        2.01736  -0.00058  -0.00193   0.00188  -0.00005   2.01731
   A19        2.12924  -0.00307  -0.00077  -0.00578  -0.00656   2.12268
   A20        1.84710   0.00019   0.00390  -0.00590  -0.00200   1.84510
   A21        1.84774   0.00010   0.00485  -0.00779  -0.00294   1.84480
    D1        0.00001  -0.00000  -0.00001  -0.00002  -0.00003  -0.00001
    D2       -3.14159  -0.00000  -0.00000  -0.00000  -0.00001   3.14159
    D3        0.00000  -0.00000  -0.00000  -0.00000  -0.00000  -0.00000
    D4       -3.14155  -0.00000  -0.00002  -0.00005  -0.00007   3.14156
    D5       -0.00002   0.00000   0.00001   0.00002   0.00003   0.00001
    D6        3.14159   0.00000   0.00000   0.00001   0.00001  -3.14159
    D7        3.14159   0.00000   0.00000   0.00000   0.00000  -3.14159
    D8        0.00001  -0.00000  -0.00000  -0.00001  -0.00001  -0.00000
    D9       -0.00000  -0.00000   0.00000   0.00000   0.00000   0.00000
   D10       -3.14157  -0.00000  -0.00001  -0.00002  -0.00003   3.14158
   D11        3.14158   0.00000   0.00001   0.00001   0.00002  -3.14159
   D12        0.00001  -0.00000  -0.00001  -0.00001  -0.00002  -0.00001
   D13        0.00002  -0.00000  -0.00001  -0.00002  -0.00003  -0.00001
   D14       -3.14154  -0.00000  -0.00003  -0.00006  -0.00009   3.14156
   D15        3.14159   0.00000   0.00000   0.00000   0.00000  -3.14159
   D16        0.00003  -0.00000  -0.00002  -0.00004  -0.00006  -0.00002
   D17       -0.00002   0.00000   0.00001   0.00002   0.00003   0.00001
   D18        3.14154   0.00000   0.00003   0.00006   0.00010  -3.14155
   D19        3.14154   0.00000   0.00003   0.00006   0.00009  -3.14155
   D20       -0.00009   0.00001   0.00006   0.00011   0.00016   0.00007
   D21        3.14147   0.00001   0.00007   0.00015   0.00022  -3.14149
   D22       -0.00008   0.00001   0.00005   0.00011   0.00016   0.00008
   D23        3.14131   0.00002   0.00016   0.00031   0.00047  -3.14141
   D24        0.00004  -0.00000  -0.00002  -0.00008  -0.00010  -0.00006
   D25       -0.00025   0.00001   0.00014   0.00027   0.00041   0.00016
   D26       -3.14152  -0.00001  -0.00004  -0.00012  -0.00017   3.14150
   D27        3.14143   0.00001   0.00009   0.00019   0.00028  -3.14147
   D28        0.00016  -0.00001  -0.00009  -0.00020  -0.00028  -0.00012
         Item               Value     Threshold  Converged?
 Maximum Force            0.005054     0.000450     NO 
 RMS     Force            0.001267     0.000300     NO 
 Maximum Displacement     0.025454     0.001800     NO 
 RMS     Displacement     0.007206     0.001200     NO 
 Predicted change in Energy=-7.734858D-05
 GradGradGradGradGradGradGradGradGradGradGradGradGradGradGradGradGradGrad

                          Input orientation:                          
 ---------------------------------------------------------------------
 Center     Atomic      Atomic             Coordinates (Angstroms)
 Number     Number       Type             X           Y           Z
 ---------------------------------------------------------------------
      1          7           0       -0.442009   -1.466691   -0.000050
      2          6           0       -1.777198   -1.484762   -0.000002
      3          6           0       -2.566718   -0.310801    0.000058
      4          6           0       -1.940562    0.931540    0.000054
      5          6           0       -0.528770    0.979586   -0.000012
      6          6           0        0.176606   -0.263297   -0.000055
      7          6           0        1.654592   -0.225102   -0.000070
      8          8           0        2.303814    0.842023    0.000119
      9          8           0        2.267433   -1.424570    0.000000
     10          8           0        0.080300    2.179700   -0.000060
     11          1           0       -2.248553   -2.474324   -0.000003
     12          1           0       -3.659023   -0.383527    0.000102
     13          1           0       -2.500266    1.871119    0.000086
     14          1           0        3.230762   -1.231247    0.000096
     15          1           0        1.067148    1.984137   -0.000201
 ---------------------------------------------------------------------
                    Distance matrix (angstroms):
                    1          2          3          4          5
     1  N    0.000000
     2  C    1.335311   0.000000
     3  C    2.418774   1.414753   0.000000
     4  C    2.827927   2.421818   1.391216   0.000000
     5  C    2.447815   2.762532   2.412122   1.412610   0.000000
     6  C    1.353086   2.304197   2.743735   2.431056   1.429095
     7  C    2.436653   3.655670   4.222179   3.776632   2.493660
     8  O    3.587437   4.697722   5.005106   4.245320   2.835922
     9  O    2.709769   4.045078   4.960795   4.822704   3.687643
    10  O    3.683609   4.108355   3.634460   2.375245   1.345823
    11  H    2.068556   1.096088   2.186792   3.419761   3.858387
    12  H    3.394470   2.180364   1.094724   2.163911   3.414171
    13  H    3.921403   3.432895   2.182933   1.093654   2.163708
    14  H    3.680310   5.014373   5.870093   5.605376   4.361406
    15  H    3.766400   4.485929   4.297874   3.186578   1.885756
                    6          7          8          9         10
     6  C    0.000000
     7  C    1.478479   0.000000
     8  O    2.397238   1.249098   0.000000
     9  O    2.391676   1.346959   2.266885   0.000000
    10  O    2.444895   2.874277   2.594878   4.215959   0.000000
    11  H    3.281773   4.504835   5.632247   4.636390   5.204181
    12  H    3.837513   5.315976   6.087479   6.017196   4.533506
    13  H    3.423649   4.653707   4.913066   5.795905   2.598950
    14  H    3.203873   1.869931   2.271054   0.982536   4.643272
    15  H    2.417442   2.286006   1.683379   3.613857   1.006039
                   11         12         13         14         15
    11  H    0.000000
    12  H    2.522074   0.000000
    13  H    4.352727   2.534985   0.000000
    14  H    5.618553   6.941741   6.516852   0.000000
    15  H    5.556235   5.286069   3.569204   3.875554   0.000000
 Stoichiometry    C6H5NO3
 Framework group  C1[X(C6H5NO3)]
 Deg. of freedom    39
 Full point group                 C1      NOp   1
 Largest Abelian subgroup         C1      NOp   1
 Largest concise Abelian subgroup C1      NOp   1
                         Standard orientation:                         
 ---------------------------------------------------------------------
 Center     Atomic      Atomic             Coordinates (Angstroms)
 Number     Number       Type             X           Y           Z
 ---------------------------------------------------------------------
      1          7           0       -0.446351   -1.466412   -0.000051
      2          6           0       -1.781571   -1.481999   -0.000003
      3          6           0       -2.568905   -0.306571    0.000058
      4          6           0       -1.940438    0.934603    0.000053
      5          6           0       -0.528559    0.980022   -0.000013
      6          6           0        0.174502   -0.264171   -0.000056
      7          6           0        1.652557   -0.228726   -0.000070
      8          8           0        2.303763    0.837189    0.000119
      9          8           0        2.263165   -1.429333   -0.000000
     10          8           0        0.082743    2.179001   -0.000061
     11          1           0       -2.254766   -2.470681   -0.000003
     12          1           0       -3.661344   -0.377264    0.000101
     13          1           0       -2.498393    1.875223    0.000086
     14          1           0        3.226852   -1.237803    0.000095
     15          1           0        1.069225    1.981601   -0.000202
 ---------------------------------------------------------------------
 Rotational constants (GHZ):      2.3371174      1.2474813      0.8133436
 Standard basis: 6-31+G(d,p) (6D, 7F)
 There are   215 symmetry adapted cartesian basis functions of A   symmetry.
 There are   215 symmetry adapted basis functions of A   symmetry.
   215 basis functions,   355 primitive gaussians,   215 cartesian basis functions
    36 alpha electrons       36 beta electrons
       nuclear repulsion energy       504.3058642640 Hartrees.
 NAtoms=   15 NActive=   15 NUniq=   15 SFac= 1.00D+00 NAtFMM=   60 NAOKFM=F Big=F
 Integral buffers will be    131072 words long.
 Raffenetti 2 integral format.
 Two-electron integral symmetry is turned on.
 Nuclear repulsion after empirical dispersion term =      504.3001500961 Hartrees.
 One-electron integrals computed using PRISM.
 NBasis=   215 RedAO= T EigKep=  6.16D-06  NBF=   215
 NBsUse=   215 1.00D-06 EigRej= -1.00D+00 NBFU=   215
 Initial guess from the checkpoint file:  "pbeD33HPA.chk"
 B after Tr=     0.000000   -0.000000    0.000000
         Rot=    0.999998   -0.000014    0.000009   -0.002117 Ang=  -0.24 deg.
 ExpMin= 4.38D-02 ExpMax= 5.48D+03 ExpMxC= 8.25D+02 IAcc=2 IRadAn=         4 AccDes= 0.00D+00
 Harris functional with IExCor= 1009 and IRadAn=       4 diagonalized for initial guess.
 HarFok:  IExCor= 1009 AccDes= 0.00D+00 IRadAn=         4 IDoV= 1 UseB2=F ITyADJ=14
 ICtDFT=  3500011 ScaDFX=  1.000000  1.000000  1.000000  1.000000
 FoFCou: FMM=F IPFlag=           0 FMFlag=      100000 FMFlg1=           0
         NFxFlg=           0 DoJE=T BraDBF=F KetDBF=T FulRan=T
         wScrn=  0.000000 ICntrl=     500 IOpCl=  0 I1Cent=   200000004 NGrid=           0
         NMat0=    1 NMatS0=      1 NMatT0=    0 NMatD0=    1 NMtDS0=    0 NMtDT0=    0
 Petite list used in FoFCou.
 Keep J ints in memory in canonical form, NReq=274797245.
 Requested convergence on RMS density matrix=1.00D-08 within 128 cycles.
 Requested convergence on MAX density matrix=1.00D-06.
 Requested convergence on             energy=1.00D-06.
 No special actions if energy rises.
 SCF Done:  E(RPBE-PBE) =  -511.561009356     A.U. after   12 cycles
            NFock= 12  Conv=0.29D-08     -V/T= 2.0094
 Calling FoFJK, ICntrl=      2527 FMM=F ISym2X=0 I1Cent= 0 IOpClX= 0 NMat=1 NMatS=1 NMatT=0.
 ***** Axes restored to original set *****
 -------------------------------------------------------------------
 Center     Atomic                   Forces (Hartrees/Bohr)
 Number     Number              X              Y              Z
 -------------------------------------------------------------------
      1        7          -0.000477419    0.000298295   -0.000002317
      2        6          -0.000090450   -0.000160149    0.000001709
      3        6           0.000132271   -0.000073498    0.000000071
      4        6          -0.000107898   -0.000111579    0.000000777
      5        6          -0.000104396    0.000340716   -0.000003888
      6        6           0.000483785    0.000503704   -0.000006729
      7        6          -0.000277977   -0.000372712    0.000030407
      8        8          -0.000432085   -0.000269715   -0.000016459
      9        8           0.000598140    0.000667355   -0.000008388
     10        8          -0.000006986   -0.000920507   -0.000004108
     11        1           0.000042389    0.000209905    0.000000009
     12        1           0.000278409   -0.000081836   -0.000000142
     13        1           0.000123276   -0.000256426    0.000000088
     14        1          -0.000562683   -0.000160237   -0.000000036
     15        1           0.000401624    0.000386686    0.000009004
 -------------------------------------------------------------------
 Cartesian Forces:  Max     0.000920507 RMS     0.000298299

 GradGradGradGradGradGradGradGradGradGradGradGradGradGradGradGradGradGrad
 Berny optimization.
 Using GEDIIS/GDIIS optimizer.
 FormGI is forming the generalized inverse of G from B-inverse, IUseBI=4.
 Internal  Forces:  Max     0.000864902 RMS     0.000254182
 Search for a local minimum.
 Step number   4 out of a maximum of   74
 All quantities printed in internal units (Hartrees-Bohrs-Radians)
 Mixed Optimization -- En-DIIS/RFO-DIIS
 Update second derivatives using D2CorX and points    1    2    3    4
 DE= -7.19D-05 DEPred=-7.73D-05 R= 9.29D-01
 TightC=F SS=  1.41D+00  RLast= 1.65D-02 DXNew= 5.0454D-01 4.9581D-02
 Trust test= 9.29D-01 RLast= 1.65D-02 DXMaxT set to 3.00D-01
 ITU=  1  0  1  0
 Use linear search instead of GDIIS.
     Eigenvalues ---    0.01098   0.01590   0.01743   0.01974   0.02095
     Eigenvalues ---    0.02130   0.02169   0.02199   0.02264   0.02471
     Eigenvalues ---    0.02543   0.02599   0.15108   0.16000   0.16001
     Eigenvalues ---    0.16003   0.17182   0.20882   0.22116   0.24001
     Eigenvalues ---    0.24959   0.25000   0.25482   0.31808   0.35139
     Eigenvalues ---    0.35296   0.35497   0.36996   0.42094   0.43742
     Eigenvalues ---    0.44885   0.47579   0.53491   0.55897   0.57900
     Eigenvalues ---    0.58705   0.59652   0.77272   0.87777
 RFO step:  Lambda=-1.00194756D-05 EMin= 1.09806693D-02
 Quartic linear search produced a step of -0.07041.
 Iteration  1 RMS(Cart)=  0.00128700 RMS(Int)=  0.00000185
 Iteration  2 RMS(Cart)=  0.00000177 RMS(Int)=  0.00000002
 Iteration  3 RMS(Cart)=  0.00000000 RMS(Int)=  0.00000002
 Variable       Old X    -DE/DX   Delta X   Delta X   Delta X     New X
                                 (Linear)    (Quad)   (Total)
    R1        2.52337  -0.00032   0.00002  -0.00052  -0.00051   2.52287
    R2        2.55696  -0.00001  -0.00001   0.00002   0.00001   2.55697
    R3        2.67350  -0.00043   0.00011  -0.00110  -0.00099   2.67251
    R4        2.07131  -0.00021   0.00005  -0.00062  -0.00058   2.07073
    R5        2.62902  -0.00012   0.00009  -0.00042  -0.00033   2.62869
    R6        2.06873  -0.00027   0.00004  -0.00076  -0.00072   2.06801
    R7        2.66945  -0.00004   0.00005  -0.00014  -0.00009   2.66935
    R8        2.06671  -0.00028   0.00004  -0.00079  -0.00074   2.06596
    R9        2.70060  -0.00055  -0.00020  -0.00051  -0.00071   2.69989
   R10        2.54324  -0.00030   0.00005  -0.00059  -0.00054   2.54270
   R11        2.79392  -0.00068   0.00012  -0.00179  -0.00167   2.79225
   R12        2.36045  -0.00046  -0.00008  -0.00030  -0.00038   2.36007
   R13        2.54538  -0.00042  -0.00004  -0.00059  -0.00063   2.54476
   R14        1.85672  -0.00059  -0.00003  -0.00091  -0.00095   1.85578
   R15        1.90114   0.00032  -0.00033   0.00127   0.00094   1.90208
    A1        2.05916   0.00018   0.00005   0.00065   0.00070   2.05986
    A2        2.14931  -0.00019  -0.00007  -0.00067  -0.00074   2.14857
    A3        2.02886   0.00016   0.00008   0.00060   0.00068   2.02954
    A4        2.10501   0.00003  -0.00001   0.00007   0.00007   2.10508
    A5        2.08269   0.00009  -0.00002   0.00036   0.00034   2.08303
    A6        2.09636  -0.00014   0.00003  -0.00075  -0.00072   2.09565
[...]
 ! R2    R(1,6)                  1.3531         -DE/DX =    0.0                 !
 ! R3    R(2,3)                  1.4143         -DE/DX =    0.0                 !
 ! R4    R(2,11)                 1.0958         -DE/DX =    0.0                 !
 ! R5    R(3,4)                  1.391          -DE/DX =    0.0                 !
 ! R6    R(3,12)                 1.0943         -DE/DX =    0.0                 !
 ! R7    R(4,5)                  1.4126         -DE/DX =    0.0                 !
 ! R8    R(4,13)                 1.0932         -DE/DX =    0.0                 !
 ! R9    R(5,6)                  1.4288         -DE/DX =    0.0                 !
 ! R10   R(5,10)                 1.3449         -DE/DX =    0.0                 !
 ! R11   R(6,7)                  1.4774         -DE/DX =    0.0                 !
 ! R12   R(7,8)                  1.249          -DE/DX =    0.0                 !
 ! R13   R(7,9)                  1.3464         -DE/DX =    0.0                 !
 ! R14   R(9,14)                 0.9818         -DE/DX =    0.0                 !
 ! R15   R(10,15)                1.0066         -DE/DX =    0.0                 !
 ! A1    A(2,1,6)              118.0384         -DE/DX =    0.0                 !
 ! A2    A(1,2,3)              123.092          -DE/DX =    0.0                 !
 ! A3    A(1,2,11)             116.2959         -DE/DX =    0.0                 !
 ! A4    A(3,2,11)             120.6121         -DE/DX =    0.0                 !
 ! A5    A(2,3,4)              119.3568         -DE/DX =    0.0                 !
 ! A6    A(2,3,12)             120.0648         -DE/DX =    0.0                 !
 ! A7    A(4,3,12)             120.5784         -DE/DX =    0.0                 !
 ! A8    A(3,4,5)              118.7164         -DE/DX =    0.0                 !
 ! A9    A(3,4,13)             122.4443         -DE/DX =    0.0                 !
 ! A10   A(5,4,13)             118.8392         -DE/DX =    0.0                 !
 ! A11   A(4,5,6)              117.5941         -DE/DX =    0.0                 !
 ! A12   A(4,5,10)             118.9398         -DE/DX =    0.0                 !
 ! A13   A(6,5,10)             123.4661         -DE/DX =    0.0                 !
 ! A14   A(1,6,5)              123.2022         -DE/DX =    0.0                 !
 ! A15   A(1,6,7)              118.7009         -DE/DX =    0.0                 !
 ! A16   A(5,6,7)              118.0969         -DE/DX =    0.0                 !
 ! A17   A(6,7,8)              122.7202         -DE/DX =    0.0                 !
 ! A18   A(6,7,9)              115.7036         -DE/DX =    0.0                 !
 ! A19   A(8,7,9)              121.5763         -DE/DX =    0.0                 !
 ! A20   A(7,9,14)             105.7622         -DE/DX =    0.0                 !
 ! A21   A(5,10,15)            105.8729         -DE/DX =    0.0                 !
 ! D1    D(6,1,2,3)              0.0            -DE/DX =    0.0                 !
 ! D2    D(6,1,2,11)          -180.0            -DE/DX =    0.0                 !
 ! D3    D(2,1,6,5)              0.0            -DE/DX =    0.0                 !
 ! D4    D(2,1,6,7)           -180.0001         -DE/DX =    0.0                 !
 ! D5    D(1,2,3,4)              0.0            -DE/DX =    0.0                 !
 ! D6    D(1,2,3,12)           180.0            -DE/DX =    0.0                 !
 ! D7    D(11,2,3,4)           180.0            -DE/DX =    0.0                 !
 ! D8    D(11,2,3,12)            0.0            -DE/DX =    0.0                 !
 ! D9    D(2,3,4,5)              0.0            -DE/DX =    0.0                 !
 ! D10   D(2,3,4,13)           180.0            -DE/DX =    0.0                 !
 ! D11   D(12,3,4,5)           180.0            -DE/DX =    0.0                 !
 ! D12   D(12,3,4,13)            0.0            -DE/DX =    0.0                 !
 ! D13   D(3,4,5,6)              0.0            -DE/DX =    0.0                 !
 ! D14   D(3,4,5,10)          -180.0            -DE/DX =    0.0                 !
 ! D15   D(13,4,5,6)          -180.0            -DE/DX =    0.0                 !
 ! D16   D(13,4,5,10)            0.0            -DE/DX =    0.0                 !
 ! D17   D(4,5,6,1)              0.0            -DE/DX =    0.0                 !
 ! D18   D(4,5,6,7)            180.0001         -DE/DX =    0.0                 !
 ! D19   D(10,5,6,1)           180.0            -DE/DX =    0.0                 !
 ! D20   D(10,5,6,7)             0.0001         -DE/DX =    0.0                 !
 ! D21   D(4,5,10,15)          180.0001         -DE/DX =    0.0                 !
 ! D22   D(6,5,10,15)            0.0001         -DE/DX =    0.0                 !
 ! D23   D(1,6,7,8)           -179.9996         -DE/DX =    0.0                 !
 ! D24   D(1,6,7,9)              0.0001         -DE/DX =    0.0                 !
 ! D25   D(5,6,7,8)              0.0003         -DE/DX =    0.0                 !
 ! D26   D(5,6,7,9)           -180.0            -DE/DX =    0.0                 !
 ! D27   D(6,7,9,14)          -179.9999         -DE/DX =    0.0                 !
 ! D28   D(8,7,9,14)            -0.0002         -DE/DX =    0.0                 !
 --------------------------------------------------------------------------------
 GradGradGradGradGradGradGradGradGradGradGradGradGradGradGradGradGradGrad

 1\1\ WCSS.PL-BEM-JP\Freq\RPBEPBE\6-31+G(d,p)\C6H5N1O3\C612\17-Dec-2024
 \0\\#N Geom=AllCheck Guess=TCheck SCRF=Check GenChk RPBEPBE/6-31+G(d,p
 ) Freq\\[No Title]\\0,1\N,-0.4429748695,-1.466329806,0.0000177911\C,-1
 .7777431266,-1.4849023948,0.000030458\C,-2.566334717,-0.3108760752,0.0
 000269959\C,-1.9401691567,0.9311969681,0.0000093385\C,-0.528375211,0.9
 795706821,-0.0000046887\C,0.1764096771,-0.2632689935,0.0000005683\C,1.
 653320711,-0.225635459,-0.000011704\O,2.3014875652,0.842067755,-0.0000
 200151\O,2.2679728964,-1.4235106611,-0.0000069746\O,0.0817438991,2.178
 168386,-0.000022735\H,-2.2494550654,-2.4739237372,0.0000443691\H,-3.65
 82238882,-0.3838658401,0.000038036\H,-2.4999742807,1.8702168796,0.0000
 056153\H,3.2304137172,-1.2294300603,-0.0000138748\H,1.0694578491,1.984
 3063564,-0.0000321801\\Version=ES64L-G09RevE.01\State=1-A\HF=-511.5610
 147\RMSD=6.801e-09\RMSF=1.512e-05\ZeroPoint=0.1052531\Thermal=0.113112
 \Dipole=-0.4471379,-0.1416663,0.0000017\DipoleDeriv=0.0788687,-0.04594
 62,-0.0000023,0.4063327,-0.3742616,-0.0000022,-0.0000055,0.0000016,-0.
 2300574,-0.2734745,0.085281,0.000001,0.2476033,0.2589666,-0.0000051,-0
 .0000002,-0.0000037,-0.0379773,0.1616646,0.0617391,-0.0000029,-0.30136
 64,0.0749558,0.0000012,0.0000007,-0.000002,-0.0751285,0.0071379,-0.386
 8748,0.0000026,0.0051787,-0.0086847,-0.0000012,-0.0000016,0.0000026,-0
 .1423734,0.2830667,0.6216606,-0.0000079,0.4070254,1.0473598,-0.0000139
 ,-0.0000053,-0.0000154,0.1409377,-0.6116539,0.2843566,0.0000025,-0.362
 2596,-0.1210256,0.000005,0.0000087,-0.0000012,0.0466717,2.0465458,-0.2
 797184,-0.000012,-0.2247844,1.5156829,-0.0000054,-0.0000113,-0.0000054
 ,0.2416515,-1.0936565,-0.2322406,0.0000072,-0.233665,-0.9526784,0.0000
 064,0.000005,0.0000051,-0.331933,-0.7983304,0.5508018,0.0000006,0.6521
 896,-0.9488648,-0.0000013,-0.0000013,0.0000013,-0.3081124,-0.656616,-0
 .4380757,0.0000072,-0.3135242,-1.1563089,0.0000126,0.000006,0.0000136,
 -0.3054411,0.0022908,-0.0620479,0.0000016,-0.0901494,-0.0594647,0.0000
 025,0.0000018,0.0000024,0.1179453,-0.0876554,-0.0142845,0.0000022,-0.0
 158805,0.0852487,0.0000006,0.0000022,0.0000005,0.1294221,0.05947,0.035
 9337,0.0000004,0.051542,-0.0076679,0.0000009,0.0000002,0.0000012,0.141
 3252,0.3026454,-0.0885105,0.0000007,-0.1367039,0.271003,0.0000012,0.00
 00007,0.000001,0.3310133,0.5796967,-0.0920742,-0.0000008,-0.0915384,0.
 3757397,-0.0000013,-0.0000002,-0.0000017,0.2820563\Polar=127.6435845,2
 .7490839,102.5487367,-0.0007089,-0.0005229,47.9471942\PG=C01 [X(C6H5N1
 O3)]\NImag=0\\0.60413565,0.11153238,0.41992111,-0.00000590,-0.00000418
 ,0.08868931,-0.36036391,-0.00132700,0.00000287,0.66214816,-0.01350621,
 -0.10489090,0.00000055,0.05142936,0.69403083,0.00000295,0.00000044,-0.
 05873502,-0.00000547,-0.00000575,0.13381728,-0.05126458,0.02134219,0.0
 0000049,-0.16336342,0.10523522,-0.00000004,0.70895613,0.07451208,0.032
 97617,-0.00000079,0.04647383,-0.24856520,0.00000130,0.03191712,0.64601
 857,-0.00000003,-0.00000033,0.02179043,0.00000055,0.00000072,-0.062491
 00,-0.00000587,-0.00000521,0.12305030,-0.04148990,-0.02402040,0.000000
 56,0.05572402,-0.01085414,-0.00000035,-0.16977602,-0.07489456,0.000001
 86,0.64785147,-0.02870777,-0.01176708,0.00000033,0.02198884,-0.0520823
 0,0.00000035,-0.12442143,-0.31782870,0.00000371,-0.00900711,0.73803484
 ,0.00000061,0.00000028,-0.00559417,-0.00000067,0.00000066,0.00697811,0
 .00000231,0.00000324,-0.05087569,-0.00000502,-0.00000587,0.11610243,0.
 06137759,0.01833721,-0.00000063,-0.04650111,0.01983712,0.00000018,-0.0
 1460982,-0.06624251,0.00000074,-0.30330898,0.04263163,0.00000193,0.684
 63390,-0.02192977,-0.05896236,0.00000091,0.02656407,-0.00569058,-0.000
 00027,-0.03674506,0.01964149,0.00000012,-0.00800539,-0.11243297,0.0000
 0055,0.03589409,0.65120602,-0.00000025,0.00000051,0.01334274,0.0000001
 1,-0.00000021,-0.00801498,0.00000048,0.00000041,-0.00280827,0.00000239
 ,0.00000005,-0.06249515,-0.00000559,-0.00000528,0.15106096,-0.12977181
 ,-0.07457356,0.00000146,-0.06550036,-0.03720463,0.00000104,0.00193603,
 -0.01627930,0.00000007,-0.01340613,0.02545819,-0.00000003,-0.17438041,
 0.07894912,0.00000028,0.61124593,-0.08300354,-0.27168714,0.00000286,-0
 .06641397,-0.00129501,0.00000066,0.01402000,-0.04672050,0.00000026,0.0
 4764234,0.02809894,-0.00000066,0.04291321,-0.20466368,0.00000095,0.022
 82926,0.64303490,0.00000156,0.00000275,-0.05635773,0.00000126,0.000000
 43,0.00496035,-0.00000021,0.00000051,-0.00765194,-0.00000026,-0.000000
 44,0.00767968,0.00000060,0.00000060,-0.06360671,-0.00000436,-0.0000049
 9,0.13182228,-0.04064609,-0.03326761,0.00000054,0.02234821,-0.00639737
 ,-0.00000007,-0.00098079,0.01350748,-0.00000012,-0.00800369,-0.0012586
 7,0.00000012,-0.00738931,0.04015834,-0.00000033,-0.19186425,0.01299393
 ,0.00000102,0.67637110,-0.03415362,-0.00539682,0.00000024,-0.00518053,
 -0.00628216,0.00000022,-0.00003587,-0.00125709,0.00000001,0.00199852,-
 0.00636495,0.00000009,0.03462375,0.02308203,-0.00000052,0.02506246,-0.
 08655003,0.00000004,0.09060265,0.77888835,0.00000060,0.00000023,-0.012
 43832,0.,0.00000022,0.01199447,0.,-0.00000008,0.00031045,0.00000010,0.
 00000011,0.00616482,-0.00000020,-0.00000041,0.00010912,0.00000062,0.00
 000007,-0.06990655,-0.00000329,-0.00000396,0.18835403,-0.00489282,0.00
 349415,0.00000003,-0.00510029,-0.00012657,0.00000005,0.00012227,-0.003
 08364,0.00000003,0.00141511,-0.00056111,-0.00000002,0.00095498,-0.0021
 6545,-0.00000001,-0.02338054,-0.04004196,0.00000043,-0.25188690,-0.214
 51915,0.00000201,0.27449966,0.00367498,0.00686024,-0.00000005,-0.00707
 251,0.00356019,0.00000003,0.00060879,-0.00639819,0.00000006,0.00594502
 ,0.00384463,-0.00000009,-0.00977943,-0.02976563,0.00000042,-0.03696482
 ,-0.00722810,0.00000032,-0.19825889,-0.43131540,0.00000287,0.24365481,
 0.53387361,0.,-0.00000004,0.00597079,0.00000009,-0.00000007,-0.0025482
 8,0.,0.00000010,0.00008887,-0.00000011,-0.00000006,-0.00073847,0.00000
 013,0.00000031,0.00051152,0.00000064,0.00000039,0.01624541,0.00000164,
 0.00000279,-0.06752219,-0.00000245,-0.00000374,0.03455245,0.00068785,0
 .00357529,0.,-0.00318732,0.00203709,-0.00000001,-0.00005898,-0.0019785
 0,0.00000002,0.00042655,0.00243907,-0.00000003,-0.00732765,-0.00933194
 ,0.00000018,-0.03109397,0.04048023,-0.00000002,-0.16140035,0.09602287,
 -0.00000005,0.03367648,-0.01050521,0.00000005,0.60377648,-0.00520360,-
 0.00125526,0.00000005,0.00459779,-0.00060412,-0.00000005,-0.00048878,0
 .00207713,-0.00000001,-0.00047190,0.00077698,-0.00000001,-0.00314209,-
 0.00128296,0.00000006,0.01646201,-0.00371778,0.,0.05940679,-0.24086883
 ,0.00000087,0.01020876,-0.09590606,0.00000071,-0.01251743,0.39518666,0
 .00000005,-0.00000002,0.00165168,-0.00000004,-0.00000002,-0.00136658,0
 .,-0.00000001,-0.00013978,0.,-0.00000002,-0.00098372,0.00000009,0.0000
 0009,0.00226302,0.00000021,-0.00000019,0.00901255,0.00000022,0.0000007
 7,-0.05850844,-0.00000012,0.00000065,0.02425577,-0.00000332,-0.0000022
 0,0.03742331,-0.01113647,-0.00277676,0.00000017,0.00948657,-0.00766397
 ,-0.00000003,-0.00581124,0.01521273,-0.00000003,-0.03782504,-0.0582687
 8,0.00000101,-0.14556827,-0.10472148,0.00000209,0.02801675,0.00593827,
 -0.00000023,-0.03436039,-0.02394493,0.00000033,-0.01544505,0.04704817,
 -0.00000041,0.00394107,0.00916752,-0.00000007,0.53128027,0.00108032,-0
 .00602265,0.00000010,0.00310412,-0.00444337,0.,0.00370496,0.00554447,-
 0.00000003,-0.02302137,-0.00585120,0.00000037,-0.07492148,-0.29096028,
 0.00000311,-0.00850625,-0.04310678,0.00000060,-0.01865742,-0.00555037,
 0.00000016,0.01608264,0.00668483,-0.00000008,0.00301957,-0.00122217,-0
 .00000002,0.04716033,0.40698112,0.00000017,0.00000017,0.00699727,-0.00
 000014,0.00000011,-0.00076417,0.00000008,-0.00000015,0.00583924,0.0000
 0066,0.00000071,0.00564418,0.00000180,0.00000350,-0.04485109,-0.000000
 12,0.00000044,0.00709451,0.00000054,0.00000028,0.00089122,-0.00000006,
 -0.00000043,0.00446603,-0.00000008,-0.00000005,-0.00112461,-0.00000586
 ,-0.00000406,0.03992251,-0.02584203,-0.02954091,0.00000046,-0.09007531
 ,-0.09557130,0.00000143,0.01002060,0.01597267,-0.00000021,-0.00192614,
 0.00285691,0.00000004,-0.00115292,0.00033240,0.00000002,-0.00381503,-0
 .00102059,0.00000014,0.00080178,-0.00114327,0.00000002,-0.00081264,-0.
 00023015,0.,-0.00024879,0.00018355,0.,0.00037303,-0.00047684,-0.000000
 01,0.11191604,-0.00555443,0.00531594,-0.00000006,-0.09649409,-0.278609
 73,0.00000323,-0.01207162,-0.01668190,0.00000031,0.00387290,-0.0024127
 9,0.00000003,0.00090933,0.00014261,0.,0.00179002,0.00267787,0.00000005
 ,0.00020106,0.00017960,0.,-0.00010890,0.00001395,0.,-0.00016757,0.0000
 3357,0.,-0.00014367,0.00005608,-0.00000001,0.10814539,0.28989787,0.000
 00023,0.00000018,-0.00648664,0.00000144,0.00000322,-0.03429084,0.00000
 006,0.00000003,0.00378864,0.00000004,0.00000005,0.00523440,0.,0.,0.000
 94554,0.00000010,0.00000008,0.01008540,0.,0.00000002,0.00109075,0.,0.,
 -0.00055468,0.,0.,0.00001333,-0.00000001,0.,-0.00164335,-0.00000185,-0
 .00000354,0.02390538,-0.00161930,0.00380919,0.00000003,-0.01109170,-0.
 00648141,0.00000018,-0.32614798,-0.01741632,0.00000290,-0.00875052,0.0
 0163230,0.00000010,0.00177632,-0.00169183,0.00000009,0.00159555,0.0006
 8899,-0.00000002,-0.00007877,0.00006123,-0.00000002,-0.00017941,-0.000
 01759,0.,-0.00012919,0.00005289,0.,-0.00092519,-0.00006323,0.00000001,
 0.00036584,0.00030188,-0.00000003,0.34414966,0.00469756,-0.00381942,0.
 00000005,0.02385824,0.00868795,-0.00000029,-0.01660864,-0.05617448,0.0
 0000035,-0.02760494,0.00236486,0.00000027,-0.00091414,-0.00442146,0.00
 000013,-0.00122581,-0.00209485,0.00000003,0.00043715,-0.00016037,-0.00
 000002,-0.00003657,0.00020463,0.,-0.00009336,0.00021568,0.,-0.00192087
 ,0.00024507,0.00000002,-0.00053857,0.00030127,-0.00000002,0.01953620,0
 .05416961,0.00000003,0.00000006,0.00583627,-0.00000010,0.,0.00187524,0
 .00000289,0.00000035,-0.03540331,0.00000038,0.,0.00360275,0.00000008,0
 .00000014,0.00893190,-0.00000001,0.,-0.00020629,-0.00000002,-0.0000000
 2,-0.00223049,0.,0.,0.00039355,0.,0.,0.00037873,0.00000002,0.,0.000151
 93,-0.00000002,-0.00000003,-0.00223521,-0.00000320,-0.00000047,0.02367
 610,-0.00067589,-0.00085683,-0.00000002,-0.00074042,-0.00332338,0.0000
 0012,0.01159794,-0.01313825,0.00000005,-0.12911124,0.12227127,-0.00000
 027,-0.01074981,0.02829935,-0.00000011,-0.00509467,-0.00204653,0.00000
 012,0.00033465,0.00181627,-0.00000002,0.00014012,-0.00052386,0.,-0.000
 78163,-0.00008288,0.,0.00296910,-0.00037048,-0.00000006,0.00047634,-0.
 00074595,0.,0.00078640,0.00036885,-0.00000005,0.13125492,-0.00027509,0
 .00027768,-0.00000003,-0.00455543,-0.00245083,0.00000015,0.01525620,-0
 .01654455,0.00000004,0.12395036,-0.25507011,0.00000095,-0.00259574,0.0
 0278349,0.00000005,-0.00038105,0.00120024,0.00000005,-0.00063058,-0.00
 003393,0.,0.00012408,0.00020069,0.,0.00004072,-0.00005042,0.,0.0004609
 2,0.00078945,-0.00000004,0.00087468,-0.00086272,0.,-0.00012956,0.00093
 243,-0.00000005,-0.13204207,0.26878037,-0.00000002,-0.00000002,-0.0033
 1618,0.00000012,0.00000014,0.00846482,-0.00000022,0.00000031,0.0031720
 2,-0.00000028,0.00000097,-0.03428757,0.00000017,-0.00000024,0.00577025
 ,0.00000010,0.00000006,0.00575521,0.,-0.00000002,-0.00054046,0.,0.,0.0
 0002438,0.,0.,0.00001058,-0.00000006,-0.00000004,-0.00314036,-0.000000
 01,0.00000002,0.00005431,-0.00000005,-0.00000005,-0.00431645,0.0000002
 4,-0.00000111,0.02277907,0.00033268,-0.00005441,0.,0.00065378,-0.00037
 917,0.,0.00007412,0.00041719,0.,-0.00020797,0.00050710,0.,-0.00112645,
 -0.00090949,0.00000003,0.00201640,0.00313295,-0.00000003,-0.03515412,0
 .00488238,0.00000022,0.00337164,-0.00854973,0.,-0.43547331,-0.06673363
 ,0.00000291,0.00135923,-0.00022674,0.,-0.00000290,0.00001680,0.,0.0000
 2931,0.00000698,0.,-0.00010065,-0.00002292,0.,0.46573749,-0.00145531,0
 .00007355,0.00000001,-0.00000901,0.00039271,0.,-0.00020854,-0.00007232
 ,0.,0.00010195,-0.00054834,0.,0.00172058,0.00125254,-0.00000002,0.0011
 1852,-0.00655941,0.00000007,0.05212496,0.00612094,-0.00000031,-0.00720
 031,0.00122143,-0.00000002,-0.11344005,-0.05990950,0.00000096,-0.00173
 638,0.00019824,0.00000001,-0.00005057,-0.00004209,0.,-0.00005386,0.000
 03205,0.,0.00014850,0.00001434,0.,0.06714979,0.05898653,0.00000001,0.,
 -0.00035980,0.,0.,0.00000169,0.,0.,0.00003690,0.,0.,-0.00041230,0.,0.,
 0.00066499,0.00000003,0.00000006,0.00491320,-0.00000017,-0.00000003,0.
 00367150,0.,0.00000001,-0.00582422,0.00000324,0.00000067,-0.01528305,0
 .,0.,0.00000793,0.,0.,0.00000798,0.,0.,-0.00002057,0.,0.,0.00003639,-0
 .00000310,-0.00000071,0.01261939,0.00116905,0.00432708,-0.00000004,-0.
 00443690,0.00296936,0.00000002,-0.00069427,-0.00498001,0.00000007,0.00
 838847,0.00243956,-0.00000006,-0.03662806,-0.02469698,0.00000064,-0.00
 650349,0.00188742,0.00000002,0.03190891,0.02390724,-0.00000030,-0.0124
 8259,-0.02902958,0.00000041,-0.00280723,-0.01143901,0.00000005,-0.3263
 5437,0.05209185,0.00000307,-0.00007788,0.00004884,0.,0.00021897,0.0000
 3790,0.,-0.00030517,-0.00007453,0.,-0.00150926,0.00178973,0.,0.3501138
 3,-0.00170796,-0.00162308,0.,0.00303628,-0.00175748,0.,-0.00150454,0.0
 0398510,-0.00000002,-0.00563127,-0.00876181,0.00000019,-0.03927155,0.0
 1007175,0.00000032,0.00346583,-0.00138867,-0.00000002,-0.01096183,-0.0
 2449097,0.00000024,-0.00572078,0.01414916,-0.00000028,0.00041922,0.006
 52709,0.,0.07618889,-0.06334247,-0.00000048,0.00020660,-0.00000954,0.,
 -0.00022888,-0.00048298,0.,0.00022597,0.00003387,0.,0.00076290,-0.0011
 6068,0.,-0.01927888,0.06825069,0.,-0.00000003,-0.00099062,0.,0.,0.0001
 1891,0.00000003,0.,0.00129313,0.00000004,0.00000012,0.00398071,0.00000
 070,-0.00000001,-0.00182384,-0.00000002,0.,0.00016063,-0.00000008,0.00
 000009,-0.00143992,0.00000011,-0.00000005,-0.00932093,0.00000002,-0.00
 000004,0.00239720,0.00000308,-0.00000013,-0.01949126,0.,0.,0.00008498,
 0.,0.,-0.00043413,0.,0.,-0.00046600,0.,0.,-0.00006004,-0.00000386,0.00
 000004,0.02599118\\0.00000095,0.00000456,0.00000007,-0.00002793,0.0000
 0982,-0.00000004,0.00001171,-0.00000668,0.,0.00000788,0.00002135,0.,-0
 .00001016,-0.00001934,0.00000009,0.00001926,0.00001970,0.00000010,-0.0
 0000593,0.00004450,-0.00000064,-0.00002173,-0.00003839,0.00000044,0.00
 003244,-0.00002970,0.00000016,0.00001210,-0.00000498,0.00000013,0.0000
 0033,0.00001058,0.,0.00000645,0.00000591,0.,0.00000836,-0.00000293,0.,
 -0.00003157,-0.00001037,0.,-0.00000215,-0.00000405,-0.00000029\\\@


 VIRTUE IS LEARNED AT YOUR MOTHER'S KNEE,
 VICES ARE PICKED UP AT SOME OTHER JOINT.
 Job cpu time:       0 days  0 hours  9 minutes 11.2 seconds.
 File lengths (MBytes):  RWF=     79 Int=      0 D2E=      0 Chk=      5 Scr=      1
 Normal termination of Gaussian 09 at Tue Dec 17 14:52:23 2024.
