 Entering Gaussian System, Link 0=g09
 Input=m062x6311Anthranilicyang.gjf
 Output=m062x6311Anthranilicyang.log
 Initial command:
 /home/phzd/g09E/g09/l1.exe "/home/phzd/g09E/scratch/Gau-130969.inp" -scrdir="/home/phzd/g09E/scratch/"
 Default is to use a total of  18 processors:
                               18 via shared-memory
                                1 via Linda
 Entering Link 1 = /home/phzd/g09E/g09/l1.exe PID=    130971.
  
 Copyright (c) 1988,1990,1992,1993,1995,1998,2003,2009,2015,
            Gaussian, Inc.  All Rights Reserved.
  
 This is part of the Gaussian(R) 09 program.  It is based on
 the Gaussian(R) 03 system (copyright 2003, Gaussian, Inc.),
 the Gaussian(R) 98 system (copyright 1998, Gaussian, Inc.),
 the Gaussian(R) 94 system (copyright 1995, Gaussian, Inc.),
 the Gaussian 92(TM) system (copyright 1992, Gaussian, Inc.),
 the Gaussian 90(TM) system (copyright 1990, Gaussian, Inc.),
 the Gaussian 88(TM) system (copyright 1988, Gaussian, Inc.),
 the Gaussian 86(TM) system (copyright 1986, Carnegie Mellon
 University), and the Gaussian 82(TM) system (copyright 1983,
 Carnegie Mellon University). Gaussian is a federally registered
 trademark of Gaussian, Inc.
  
 This software contains proprietary and confidential information,
 including trade secrets, belonging to Gaussian, Inc.
  
 This software is provided under written license and may be
 used, copied, transmitted, or stored only in accord with that
 written license.
  
 The following legend is applicable only to US Government
 contracts under FAR:
  
                    RESTRICTED RIGHTS LEGEND
  
 Use, reproduction and disclosure by the US Government is
 subject to restrictions as set forth in subparagraphs (a)
 and (c) of the Commercial Computer Software - Restricted
 Rights clause in FAR 52.227-19.
  
 Gaussian, Inc.
 340 Quinnipiac St., Bldg. 40, Wallingford CT 06492
  
  
 ---------------------------------------------------------------
 Warning -- This program may not be used in any manner that
 competes with the business of Gaussian, Inc. or will provide
 assistance to any competitor of Gaussian, Inc.  The licensee
 of this program is prohibited from giving any competitor of
 Gaussian, Inc. access to this program.  By using this program,
 the user acknowledges that Gaussian, Inc. is engaged in the
 business of creating and licensing software in the field of
 computational chemistry and represents and warrants to the
 licensee that it is not a competitor of Gaussian, Inc. and that
 it will not use this program in any manner prohibited above.
 ---------------------------------------------------------------
  

 Cite this work as:
 Gaussian 09, Revision E.01,
 M. J. Frisch, G. W. Trucks, H. B. Schlegel, G. E. Scuseria, 
 M. A. Robb, J. R. Cheeseman, G. Scalmani, V. Barone, B. Mennucci, 
 G. A. Petersson, H. Nakatsuji, M. Caricato, X. Li, H. P. Hratchian, 
 A. F. Izmaylov, J. Bloino, G. Zheng, J. L. Sonnenberg, M. Hada, 
 M. Ehara, K. Toyota, R. Fukuda, J. Hasegawa, M. Ishida, T. Nakajima, 
 Y. Honda, O. Kitao, H. Nakai, T. Vreven, J. A. Montgomery, Jr., 
 J. E. Peralta, F. Ogliaro, M. Bearpark, J. J. Heyd, E. Brothers, 
 K. N. Kudin, V. N. Staroverov, T. Keith, R. Kobayashi, J. Normand, 
 K. Raghavachari, A. Rendell, J. C. Burant, S. S. Iyengar, J. Tomasi, 
 M. Cossi, N. Rega, J. M. Millam, M. Klene, J. E. Knox, J. B. Cross, 
 V. Bakken, C. Adamo, J. Jaramillo, R. Gomperts, R. E. Stratmann, 
 O. Yazyev, A. J. Austin, R. Cammi, C. Pomelli, J. W. Ochterski, 
 R. L. Martin, K. Morokuma, V. G. Zakrzewski, G. A. Voth, 
 P. Salvador, J. J. Dannenberg, S. Dapprich, A. D. Daniels, 
 O. Farkas, J. B. Foresman, J. V. Ortiz, J. Cioslowski, 
 and D. J. Fox, Gaussian, Inc., Wallingford CT, 2013.
 
 ******************************************
 Gaussian 09:  ES64L-G09RevE.01 30-Nov-2015
                22-Jun-2024 
 ******************************************
 %chk=m062x6311Anthranilicyang.chk
 -----------------------------
 # opt freq b3lyp/6-311+g(d,p)
 -----------------------------
 1/14=-1,18=20,19=15,26=3,38=1/1,3;
 2/9=110,12=2,17=6,18=5,40=1/2;
 3/5=4,6=6,7=111,11=2,16=1,25=1,30=1,71=1,74=-5/1,2,3;
 4//1;
 5/5=2,38=5/2;
 6/7=2,8=2,9=2,10=2,28=1/1;
 7//1,2,3,16;
 1/14=-1,18=20,19=15,26=3/3(2);
 2/9=110/2;
 99//99;
 2/9=110/2;
 3/5=4,6=6,7=111,11=2,16=1,25=1,30=1,71=1,74=-5/1,2,3;
 4/5=5,16=3,69=1/1;
 5/5=2,38=5/2;
 7//1,2,3,16;
 1/14=-1,18=20,19=15,26=3/3(-5);
 2/9=110/2;
 6/7=2,8=2,9=2,10=2,19=2,28=1/1;
 99/9=1/99;
 ----------
 [No Title]
 ----------
 Symbolic Z-matrix:
 Charge =  1 Multiplicity = 1
 C                    -1.93939  -1.47584  -0.0003 
 C                    -2.62312  -0.25842   0.00012 
 C                    -1.91407   0.94845   0.00037 
 C                    -0.5284    0.91123   0.00015 
 C                     0.18707  -0.3019   -0.00007 
 C                    -0.54476  -1.49913  -0.0003 
 C                     1.67336  -0.3022   0. 
 O                     2.22273  -1.5063    0.00051 
 N                     0.23835   2.18198  -0.00008 
 O                     2.34896   0.73349  -0.00035 
 H                    -2.4921   -2.40916  -0.00063 
 H                    -3.70788  -0.2395    0.00021 
 H                    -2.44514   1.8964    0.00077 
 H                    -0.01099  -2.44225  -0.00035 
 H                     3.19406  -1.4217    0.00047 
 H                     0.04136   2.75161   0.82897 
 H                     1.2724    1.88936   0.00009 
 H                     0.04211   2.75063  -0.83 
 

 GradGradGradGradGradGradGradGradGradGradGradGradGradGradGradGradGradGrad
 Berny optimization.
 Initialization pass.
                           ----------------------------
                           !    Initial Parameters    !
                           ! (Angstroms and Degrees)  !
 --------------------------                            --------------------------
 ! Name  Definition              Value          Derivative Info.                !
 --------------------------------------------------------------------------------
 ! R1    R(1,2)                  1.3963         estimate D2E/DX2                !
 ! R2    R(1,6)                  1.3948         estimate D2E/DX2                !
 ! R3    R(1,11)                 1.0847         estimate D2E/DX2                !
 ! R4    R(2,3)                  1.3997         estimate D2E/DX2                !
 ! R5    R(2,12)                 1.0849         estimate D2E/DX2                !
 ! R6    R(3,4)                  1.3862         estimate D2E/DX2                !
 ! R7    R(3,13)                 1.0866         estimate D2E/DX2                !
 ! R8    R(4,5)                  1.4084         estimate D2E/DX2                !
 ! R9    R(4,9)                  1.4842         estimate D2E/DX2                !
 ! R10   R(5,6)                  1.4032         estimate D2E/DX2                !
 ! R11   R(5,7)                  1.4863         estimate D2E/DX2                !
 ! R12   R(6,14)                 1.0837         estimate D2E/DX2                !
 ! R13   R(7,8)                  1.3235         estimate D2E/DX2                !
 ! R14   R(7,10)                 1.2366         estimate D2E/DX2                !
 ! R15   R(8,15)                 0.975          estimate D2E/DX2                !
 ! R16   R(9,16)                 1.025          estimate D2E/DX2                !
 ! R17   R(9,17)                 1.0747         estimate D2E/DX2                !
 ! R18   R(9,18)                 1.025          estimate D2E/DX2                !
 ! A1    A(2,1,6)              120.2761         estimate D2E/DX2                !
 ! A2    A(2,1,11)             120.0466         estimate D2E/DX2                !
 ! A3    A(6,1,11)             119.6774         estimate D2E/DX2                !
 ! A4    A(1,2,3)              120.2459         estimate D2E/DX2                !
 ! A5    A(1,2,12)             120.3186         estimate D2E/DX2                !
 ! A6    A(3,2,12)             119.4355         estimate D2E/DX2                !
 ! A7    A(2,3,4)              118.896          estimate D2E/DX2                !
 ! A8    A(2,3,13)             120.306          estimate D2E/DX2                !
 ! A9    A(4,3,13)             120.798          estimate D2E/DX2                !
 ! A10   A(3,4,5)              122.0696         estimate D2E/DX2                !
 ! A11   A(3,4,9)              119.5674         estimate D2E/DX2                !
 ! A12   A(5,4,9)              118.363          estimate D2E/DX2                !
 ! A13   A(4,5,6)              118.033          estimate D2E/DX2                !
 ! A14   A(4,5,7)              120.5423         estimate D2E/DX2                !
 ! A15   A(6,5,7)              121.4247         estimate D2E/DX2                !
 ! A16   A(1,6,5)              120.4795         estimate D2E/DX2                !
 ! A17   A(1,6,14)             120.4648         estimate D2E/DX2                !
 ! A18   A(5,6,14)             119.0557         estimate D2E/DX2                !
 ! A19   A(5,7,8)              114.5363         estimate D2E/DX2                !
 ! A20   A(5,7,10)             123.1059         estimate D2E/DX2                !
 ! A21   A(8,7,10)             122.3579         estimate D2E/DX2                !
 ! A22   A(7,8,15)             109.547          estimate D2E/DX2                !
 ! A23   A(4,9,16)             112.1121         estimate D2E/DX2                !
 ! A24   A(4,9,17)             105.3054         estimate D2E/DX2                !
 ! A25   A(4,9,18)             112.0996         estimate D2E/DX2                !
 ! A26   A(16,9,17)            109.6413         estimate D2E/DX2                !
 ! A27   A(16,9,18)            108.0461         estimate D2E/DX2                !
 ! A28   A(17,9,18)            109.5972         estimate D2E/DX2                !
 ! D1    D(6,1,2,3)              0.0083         estimate D2E/DX2                !
 ! D2    D(6,1,2,12)          -179.9943         estimate D2E/DX2                !
 ! D3    D(11,1,2,3)          -179.9921         estimate D2E/DX2                !
 ! D4    D(11,1,2,12)            0.0052         estimate D2E/DX2                !
 ! D5    D(2,1,6,5)             -0.0092         estimate D2E/DX2                !
 ! D6    D(2,1,6,14)           179.9827         estimate D2E/DX2                !
 ! D7    D(11,1,6,5)           179.9912         estimate D2E/DX2                !
 ! D8    D(11,1,6,14)           -0.0169         estimate D2E/DX2                !
 ! D9    D(1,2,3,4)              0.0022         estimate D2E/DX2                !
 ! D10   D(1,2,3,13)          -179.9955         estimate D2E/DX2                !
 ! D11   D(12,2,3,4)          -179.9951         estimate D2E/DX2                !
 ! D12   D(12,2,3,13)            0.0072         estimate D2E/DX2                !
 ! D13   D(2,3,4,5)             -0.0122         estimate D2E/DX2                !
 ! D14   D(2,3,4,9)            179.9784         estimate D2E/DX2                !
 ! D15   D(13,3,4,5)           179.9855         estimate D2E/DX2                !
 ! D16   D(13,3,4,9)            -0.0239         estimate D2E/DX2                !
 ! D17   D(3,4,5,6)              0.0112         estimate D2E/DX2                !
 ! D18   D(3,4,5,7)           -179.9863         estimate D2E/DX2                !
 ! D19   D(9,4,5,6)           -179.9795         estimate D2E/DX2                !
 ! D20   D(9,4,5,7)              0.023          estimate D2E/DX2                !
 ! D21   D(3,4,9,16)            60.8162         estimate D2E/DX2                !
 ! D22   D(3,4,9,17)           179.9828         estimate D2E/DX2                !
 ! D23   D(3,4,9,18)           -60.9105         estimate D2E/DX2                !
 ! D24   D(5,4,9,16)          -119.1928         estimate D2E/DX2                !
 ! D25   D(5,4,9,17)            -0.0262         estimate D2E/DX2                !
 ! D26   D(5,4,9,18)           119.0804         estimate D2E/DX2                !
 ! D27   D(4,5,6,1)             -0.0004         estimate D2E/DX2                !
 ! D28   D(4,5,6,14)          -179.9924         estimate D2E/DX2                !
 ! D29   D(7,5,6,1)            179.9971         estimate D2E/DX2                !
 ! D30   D(7,5,6,14)             0.0051         estimate D2E/DX2                !
 ! D31   D(4,5,7,8)            179.9649         estimate D2E/DX2                !
 ! D32   D(4,5,7,10)            -0.033          estimate D2E/DX2                !
 ! D33   D(6,5,7,8)             -0.0325         estimate D2E/DX2                !
 ! D34   D(6,5,7,10)           179.9696         estimate D2E/DX2                !
 ! D35   D(5,7,8,15)           179.9967         estimate D2E/DX2                !
 ! D36   D(10,7,8,15)           -0.0054         estimate D2E/DX2                !
 --------------------------------------------------------------------------------
 Trust Radius=3.00D-01 FncErr=1.00D-07 GrdErr=1.00D-06
 Number of steps in this run=     92 maximum allowed number of steps=    108.
 GradGradGradGradGradGradGradGradGradGradGradGradGradGradGradGradGradGrad

                          Input orientation:                          
 ---------------------------------------------------------------------
 Center     Atomic      Atomic             Coordinates (Angstroms)
 Number     Number       Type             X           Y           Z
 ---------------------------------------------------------------------
      1          6           0       -1.939390   -1.475838   -0.000302
      2          6           0       -2.623116   -0.258417    0.000119
      3          6           0       -1.914065    0.948453    0.000370
      4          6           0       -0.528397    0.911229    0.000146
      5          6           0        0.187071   -0.301902   -0.000072
      6          6           0       -0.544756   -1.499127   -0.000301
      7          6           0        1.673355   -0.302199   -0.000002
      8          8           0        2.222725   -1.506299    0.000512
      9          7           0        0.238354    2.181978   -0.000079
     10          8           0        2.348961    0.733494   -0.000352
     11          1           0       -2.492101   -2.409155   -0.000625
     12          1           0       -3.707882   -0.239496    0.000211
     13          1           0       -2.445144    1.896404    0.000772
     14          1           0       -0.010986   -2.442250   -0.000345
     15          1           0        3.194062   -1.421697    0.000471
     16          1           0        0.041360    2.751607    0.828966
     17          1           0        1.272402    1.889357    0.000085
     18          1           0        0.042110    2.750631   -0.830004
 ---------------------------------------------------------------------
                    Distance matrix (angstroms):
                    1          2          3          4          5
     1  C    0.000000
     2  C    1.396279   0.000000
     3  C    2.424423   1.399746   0.000000
     4  C    2.772903   2.399150   1.386168   0.000000
     5  C    2.428984   2.810523   2.445028   1.408397   0.000000
     6  C    1.394828   2.420525   2.804578   2.410412   1.403182
     7  C    3.798599   4.296694   3.799173   2.513985   1.486284
     8  O    4.162227   5.003937   4.810285   3.662392   2.365261
     9  N    4.257016   3.760790   2.480825   1.484153   2.484409
    10  O    4.824013   5.070053   4.268442   2.882842   2.397043
    11  H    1.084698   2.154725   3.407001   3.857601   3.408589
    12  H    2.157801   1.084931   2.151512   3.381315   3.895453
    13  H    3.409957   2.162158   1.086580   2.155108   3.429447
    14  H    2.157010   3.404754   3.888261   3.393160   2.149492
    15  H    5.133738   5.932350   5.631214   4.393091   3.208728
    16  H    4.741555   4.104469   2.785969   2.097274   3.167405
    17  H    4.651897   4.448370   3.322480   2.049295   2.445314
    18  H    4.741075   4.104498   2.786393   2.097147   3.166664
                    6          7          8          9         10
     6  C    0.000000
     7  C    2.520447   0.000000
     8  O    2.767490   1.323505   0.000000
     9  N    3.763482   2.868861   4.188212   0.000000
    10  O    3.654886   1.236569   2.243348   2.559837   0.000000
    11  H    2.149489   4.668007   4.800493   5.341712   5.771666
    12  H    3.404708   5.381602   6.064395   4.629937   6.134497
    13  H    3.891157   4.668607   5.776451   2.698651   4.933133
    14  H    1.083693   2.723384   2.421873   4.630945   3.956602
    15  H    3.739620   1.888339   0.975014   4.660760   2.314961
    16  H    4.370350   3.560383   4.855353   1.024988   3.175779
    17  H    3.844982   2.227932   3.526130   1.074655   1.579557
    18  H    4.369584   3.559443   4.854513   1.025014   3.174701
                   11         12         13         14         15
    11  H    0.000000
    12  H    2.487075   0.000000
    13  H    4.305815   2.481245   0.000000
    14  H    2.481336   4.303390   4.974841   0.000000
    15  H    5.771267   7.002459   6.542969   3.363608   0.000000
    16  H    5.808624   4.867273   2.756806   5.259909   5.295508
    17  H    5.713903   5.416202   3.717553   4.517732   3.828297
    18  H    5.808054   4.867500   2.757957   5.259008   5.294602
                   16         17         18
    16  H    0.000000
    17  H    1.716387   0.000000
    18  H    1.658970   1.715943   0.000000
 Stoichiometry    C7H8NO2(1+)
 Framework group  C1[X(C7H8NO2)]
 Deg. of freedom    48
 Full point group                 C1      NOp   1
 Largest Abelian subgroup         C1      NOp   1
 Largest concise Abelian subgroup C1      NOp   1
                         Standard orientation:                         
 ---------------------------------------------------------------------
 Center     Atomic      Atomic             Coordinates (Angstroms)
 Number     Number       Type             X           Y           Z
 ---------------------------------------------------------------------
      1          6           0        1.939390   -1.475838    0.000302
      2          6           0        2.623116   -0.258417   -0.000119
      3          6           0        1.914065    0.948453   -0.000370
      4          6           0        0.528397    0.911229   -0.000146
      5          6           0       -0.187071   -0.301902    0.000072
      6          6           0        0.544756   -1.499127    0.000301
      7          6           0       -1.673355   -0.302199    0.000002
      8          8           0       -2.222725   -1.506299   -0.000512
      9          7           0       -0.238354    2.181978    0.000079
     10          8           0       -2.348961    0.733494    0.000352
     11          1           0        2.492101   -2.409155    0.000625
     12          1           0        3.707882   -0.239497   -0.000211
     13          1           0        2.445144    1.896404   -0.000772
     14          1           0        0.010986   -2.442250    0.000345
     15          1           0       -3.194062   -1.421697   -0.000471
     16          1           0       -0.041360    2.751607   -0.828966
     17          1           0       -1.272402    1.889357   -0.000085
     18          1           0       -0.042110    2.750631    0.830004
 ---------------------------------------------------------------------
 Rotational constants (GHZ):      2.2343428      1.2032867      0.7854672
 Standard basis: 6-311+G(d,p) (5D, 7F)
 There are   278 symmetry adapted cartesian basis functions of A   symmetry.
 There are   268 symmetry adapted basis functions of A   symmetry.
   268 basis functions,   424 primitive gaussians,   278 cartesian basis functions
    36 alpha electrons       36 beta electrons
       nuclear repulsion energy       514.1645139868 Hartrees.
 NAtoms=   18 NActive=   18 NUniq=   18 SFac= 1.00D+00 NAtFMM=   60 NAOKFM=F Big=F
 Integral buffers will be    131072 words long.
 Raffenetti 2 integral format.
 Two-electron integral symmetry is turned on.
 One-electron integrals computed using PRISM.
 NBasis=   268 RedAO= T EigKep=  1.55D-06  NBF=   268
 NBsUse=   268 1.00D-06 EigRej= -1.00D+00 NBFU=   268
 ExpMin= 4.38D-02 ExpMax= 8.59D+03 ExpMxC= 1.30D+03 IAcc=2 IRadAn=         4 AccDes= 0.00D+00
 Harris functional with IExCor=  402 and IRadAn=       4 diagonalized for initial guess.
 HarFok:  IExCor=  402 AccDes= 0.00D+00 IRadAn=         4 IDoV= 1 UseB2=F ITyADJ=14
 ICtDFT=  3500011 ScaDFX=  1.000000  1.000000  1.000000  1.000000
 FoFCou: FMM=F IPFlag=           0 FMFlag=      100000 FMFlg1=           0
         NFxFlg=           0 DoJE=T BraDBF=F KetDBF=T FulRan=T
         wScrn=  0.000000 ICntrl=     500 IOpCl=  0 I1Cent=   200000004 NGrid=           0
         NMat0=    1 NMatS0=      1 NMatT0=    0 NMatD0=    1 NMtDS0=    0 NMtDT0=    0
 Petite list used in FoFCou.
 Keep R1 ints in memory in canonical form, NReq=660791231.
 Requested convergence on RMS density matrix=1.00D-08 within 128 cycles.
 Requested convergence on MAX density matrix=1.00D-06.
 Requested convergence on             energy=1.00D-06.
 No special actions if energy rises.
 SCF Done:  E(RB3LYP) =  -476.682019567     A.U. after   14 cycles
            NFock= 14  Conv=0.79D-08     -V/T= 2.0041

 **********************************************************************

            Population analysis using the SCF density.

 **********************************************************************

 Orbital symmetries:
       Occupied  (A) (A) (A) (A) (A) (A) (A) (A) (A) (A) (A) (A)
                 (A) (A) (A) (A) (A) (A) (A) (A) (A) (A) (A) (A)
                 (A) (A) (A) (A) (A) (A) (A) (A) (A) (A) (A) (A)
       Virtual   (A) (A) (A) (A) (A) (A) (A) (A) (A) (A) (A) (A)
                 (A) (A) (A) (A) (A) (A) (A) (A) (A) (A) (A) (A)
                 (A) (A) (A) (A) (A) (A) (A) (A) (A) (A) (A) (A)
                 (A) (A) (A) (A) (A) (A) (A) (A) (A) (A) (A) (A)
                 (A) (A) (A) (A) (A) (A) (A) (A) (A) (A) (A) (A)
                 (A) (A) (A) (A) (A) (A) (A) (A) (A) (A) (A) (A)
                 (A) (A) (A) (A) (A) (A) (A) (A) (A) (A) (A) (A)
                 (A) (A) (A) (A) (A) (A) (A) (A) (A) (A) (A) (A)
                 (A) (A) (A) (A) (A) (A) (A) (A) (A) (A) (A) (A)
                 (A) (A) (A) (A) (A) (A) (A) (A) (A) (A) (A) (A)
                 (A) (A) (A) (A) (A) (A) (A) (A) (A) (A) (A) (A)
                 (A) (A) (A) (A) (A) (A) (A) (A) (A) (A) (A) (A)
                 (A) (A) (A) (A) (A) (A) (A) (A) (A) (A) (A) (A)
                 (A) (A) (A) (A) (A) (A) (A) (A) (A) (A) (A) (A)
                 (A) (A) (A) (A) (A) (A) (A) (A) (A) (A) (A) (A)
                 (A) (A) (A) (A) (A) (A) (A) (A) (A) (A) (A) (A)
                 (A) (A) (A) (A) (A) (A) (A) (A) (A) (A) (A) (A)
                 (A) (A) (A) (A) (A) (A) (A) (A) (A) (A) (A) (A)
                 (A) (A) (A) (A) (A) (A) (A) (A) (A) (A) (A) (A)
                 (A) (A) (A) (A)
 The electronic state is 1-A.
 Alpha  occ. eigenvalues --  -19.34346 -19.29831 -14.60413 -10.49436 -10.41852
 Alpha  occ. eigenvalues --  -10.37833 -10.36181 -10.35531 -10.35402 -10.34548
 Alpha  occ. eigenvalues --   -1.29187  -1.20680  -1.17455  -1.03961  -0.95088
 Alpha  occ. eigenvalues --   -0.92792  -0.84324  -0.81143  -0.78215  -0.75892
 Alpha  occ. eigenvalues --   -0.74174  -0.71521  -0.68687  -0.67003  -0.63238
 Alpha  occ. eigenvalues --   -0.63187  -0.61958  -0.61208  -0.57243  -0.54781
 Alpha  occ. eigenvalues --   -0.54447  -0.53163  -0.50266  -0.47151  -0.43904
 Alpha  occ. eigenvalues --   -0.43731
 Alpha virt. eigenvalues --   -0.23359  -0.19558  -0.17058  -0.13023  -0.12323
 Alpha virt. eigenvalues --   -0.11465  -0.10477  -0.09758  -0.08415  -0.07447
 Alpha virt. eigenvalues --   -0.06667  -0.06305  -0.05406  -0.04423  -0.04312
 Alpha virt. eigenvalues --   -0.03116  -0.01857  -0.01490  -0.01158  -0.00588
 Alpha virt. eigenvalues --    0.00054   0.00248   0.00777   0.01655   0.03020
 Alpha virt. eigenvalues --    0.03325   0.03641   0.03870   0.04725   0.05277
 Alpha virt. eigenvalues --    0.05770   0.06252   0.06678   0.07525   0.08195
 Alpha virt. eigenvalues --    0.08537   0.08708   0.09286   0.10062   0.11447
 Alpha virt. eigenvalues --    0.12017   0.12252   0.12717   0.12872   0.13873
 Alpha virt. eigenvalues --    0.14361   0.14889   0.15641   0.15813   0.17424
 Alpha virt. eigenvalues --    0.18108   0.18376   0.18934   0.20390   0.22657
 Alpha virt. eigenvalues --    0.24816   0.25971   0.29147   0.29921   0.31299
 Alpha virt. eigenvalues --    0.33439   0.34494   0.36456   0.37165   0.37481
 Alpha virt. eigenvalues --    0.39659   0.40255   0.40346   0.40926   0.42020
 Alpha virt. eigenvalues --    0.42313   0.42516   0.45019   0.45548   0.46187
 Alpha virt. eigenvalues --    0.48401   0.49230   0.52135   0.52770   0.54209
 Alpha virt. eigenvalues --    0.54701   0.54894   0.56607   0.58301   0.60768
 Alpha virt. eigenvalues --    0.62558   0.64975   0.66367   0.67731   0.68994
 Alpha virt. eigenvalues --    0.69902   0.71284   0.71994   0.73391   0.75088
 Alpha virt. eigenvalues --    0.78627   0.79164   0.82170   0.84165   0.85862
 Alpha virt. eigenvalues --    0.86862   0.88309   0.89310   0.90363   0.90644
 Alpha virt. eigenvalues --    0.94322   0.95194   0.95899   0.97835   1.04248
 Alpha virt. eigenvalues --    1.08916   1.09213   1.11308   1.17051   1.17773
 Alpha virt. eigenvalues --    1.18986   1.27024   1.27946   1.29057   1.30779
 Alpha virt. eigenvalues --    1.31307   1.33402   1.34078   1.35139   1.36858
 Alpha virt. eigenvalues --    1.39464   1.39965   1.41009   1.42187   1.48104
 Alpha virt. eigenvalues --    1.49693   1.51958   1.56466   1.57713   1.58936
 Alpha virt. eigenvalues --    1.60815   1.62495   1.65577   1.69161   1.69455
 Alpha virt. eigenvalues --    1.71475   1.74591   1.75077   1.75478   1.75917
 Alpha virt. eigenvalues --    1.77136   1.78111   1.79893   1.84220   1.85771
 Alpha virt. eigenvalues --    1.87828   1.89957   1.90603   1.95149   1.98766
 Alpha virt. eigenvalues --    2.04154   2.09213   2.14422   2.14874   2.17750
 Alpha virt. eigenvalues --    2.23669   2.24203   2.28156   2.33343   2.38896
 Alpha virt. eigenvalues --    2.41020   2.41233   2.45214   2.47664   2.50070
 Alpha virt. eigenvalues --    2.51173   2.52705   2.54601   2.55541   2.58746
 Alpha virt. eigenvalues --    2.60068   2.60522   2.61315   2.62720   2.66689
 Alpha virt. eigenvalues --    2.68024   2.69116   2.70728   2.71258   2.74545
 Alpha virt. eigenvalues --    2.77031   2.80944   2.82641   2.88975   2.89332
 Alpha virt. eigenvalues --    2.91374   2.99047   3.01643   3.03035   3.07823
 Alpha virt. eigenvalues --    3.14587   3.16585   3.18192   3.21971   3.26767
 Alpha virt. eigenvalues --    3.34301   3.36977   3.41264   3.46112   3.55346
 Alpha virt. eigenvalues --    3.67788   3.69887   3.86778   3.90197   3.93366
 Alpha virt. eigenvalues --    4.00922   4.15070   4.44032   4.47248   4.65711
 Alpha virt. eigenvalues --    4.66666   4.78709   4.86125   5.06445   5.24306
 Alpha virt. eigenvalues --    5.47372   5.72325  23.38441  23.63425  23.73842
 Alpha virt. eigenvalues --   23.76798  23.86726  23.90826  24.00350  35.36591
 Alpha virt. eigenvalues --   49.70291  49.86718
          Condensed to atoms (all electrons):
               1          2          3          4          5          6
     1  C    7.410392   0.291507   0.526230   0.275307   0.830073  -3.114933
     2  C    0.291507   5.764605  -0.658317   1.584919  -1.535081   0.703308
     3  C    0.526230  -0.658317  11.131174  -4.756998   0.445641  -1.723738
     4  C    0.275307   1.584919  -4.756998  20.682653  -6.882107  -1.579637
     5  C    0.830073  -1.535081   0.445641  -6.882107  13.402139  -1.371675
     6  C   -3.114933   0.703308  -1.723738  -1.579637  -1.371675  13.773321
     7  C   -0.679075  -0.115700   0.721565  -1.499125  -1.097111  -0.052329
     8  O    0.083774  -0.021856   0.069949   0.030006   0.058050  -0.258375
     9  N   -0.028121  -0.044823  -0.600220  -0.342727   0.633296   0.171248
    10  O    0.078791  -0.018281   0.060101  -0.220317   0.141819  -0.033925
    11  H    0.369222   0.000217  -0.003227  -0.017156   0.026587  -0.028883
    12  H    0.009393   0.379995  -0.010817  -0.039549   0.042569  -0.026322
    13  H    0.016210   0.035187   0.612435  -0.217956  -0.070242  -0.027360
    14  H   -0.017627  -0.006714   0.009772  -0.029943  -0.026599   0.393991
    15  H   -0.026416   0.000011   0.001876  -0.031710  -0.064893   0.013465
    16  H    0.001099  -0.002237   0.016840   0.006071  -0.011783  -0.004956
    17  H   -0.010492   0.004649   0.111304  -0.077331  -0.048032   0.004055
    18  H    0.001101  -0.002228   0.017187   0.006625  -0.012592  -0.005050
               7          8          9         10         11         12
     1  C   -0.679075   0.083774  -0.028121   0.078791   0.369222   0.009393
     2  C   -0.115700  -0.021856  -0.044823  -0.018281   0.000217   0.379995
     3  C    0.721565   0.069949  -0.600220   0.060101  -0.003227  -0.010817
     4  C   -1.499125   0.030006  -0.342727  -0.220317  -0.017156  -0.039549
     5  C   -1.097111   0.058050   0.633296   0.141819   0.026587   0.042569
     6  C   -0.052329  -0.258375   0.171248  -0.033925  -0.028883  -0.026322
     7  C    7.854410   0.207430  -0.060679   0.205356   0.010558   0.003090
     8  O    0.207430   7.861565  -0.005822  -0.089183   0.000130   0.000009
     9  N   -0.060679  -0.005822   6.762629  -0.030799   0.000526  -0.000865
    10  O    0.205356  -0.089183  -0.030799   8.159129  -0.000011   0.000008
    11  H    0.010558   0.000130   0.000526  -0.000011   0.477654  -0.006054
    12  H    0.003090   0.000009  -0.000865   0.000008  -0.006054   0.475089
    13  H    0.010259   0.000018  -0.002593   0.000099  -0.000165  -0.005684
    14  H    0.025996   0.012083  -0.000566  -0.000430  -0.005719  -0.000153
    15  H    0.155206   0.206418   0.000770  -0.019981   0.000002   0.000000
    16  H    0.001558   0.000236   0.324156  -0.000922  -0.000004   0.000007
    17  H    0.025484   0.002837   0.241831   0.088283  -0.000006  -0.000001
    18  H    0.001597   0.000235   0.324066  -0.000942  -0.000005   0.000008
              13         14         15         16         17         18
     1  C    0.016210  -0.017627  -0.026416   0.001099  -0.010492   0.001101
     2  C    0.035187  -0.006714   0.000011  -0.002237   0.004649  -0.002228
     3  C    0.612435   0.009772   0.001876   0.016840   0.111304   0.017187
     4  C   -0.217956  -0.029943  -0.031710   0.006071  -0.077331   0.006625
     5  C   -0.070242  -0.026599  -0.064893  -0.011783  -0.048032  -0.012592
     6  C   -0.027360   0.393991   0.013465  -0.004956   0.004055  -0.005050
     7  C    0.010259   0.025996   0.155206   0.001558   0.025484   0.001597
     8  O    0.000018   0.012083   0.206418   0.000236   0.002837   0.000235
     9  N   -0.002593  -0.000566   0.000770   0.324156   0.241831   0.324066
    10  O    0.000099  -0.000430  -0.019981  -0.000922   0.088283  -0.000942
    11  H   -0.000165  -0.005719   0.000002  -0.000004  -0.000006  -0.000005
    12  H   -0.005684  -0.000153   0.000000   0.000007  -0.000001   0.000008
    13  H    0.488253   0.000030  -0.000000   0.001119   0.000446   0.001112
    14  H    0.000030   0.461806  -0.000705   0.000013  -0.000044   0.000013
    15  H   -0.000000  -0.000705   0.450108  -0.000006   0.000633  -0.000007
    16  H    0.001119   0.000013  -0.000006   0.370415  -0.006054  -0.027683
    17  H    0.000446  -0.000044   0.000633  -0.006054   0.281523  -0.006022
    18  H    0.001112   0.000013  -0.000007  -0.027683  -0.006022   0.370384
 Mulliken charges:
               1
     1  C   -0.016434
     2  C   -0.359161
     3  C    0.029244
     4  C   -0.891026
     5  C    1.539940
     6  C   -0.832205
     7  C    0.281512
     8  O   -0.157505
     9  N   -0.341308
    10  O   -0.318796
    11  H    0.176335
    12  H    0.179275
    13  H    0.158833
    14  H    0.184797
    15  H    0.315229
    16  H    0.332132
    17  H    0.386936
    18  H    0.332202
 Sum of Mulliken charges =   1.00000
 Mulliken charges with hydrogens summed into heavy atoms:
               1
     1  C    0.159900
     2  C   -0.179885
     3  C    0.188077
     4  C   -0.891026
     5  C    1.539940
     6  C   -0.647408
     7  C    0.281512
     8  O    0.157724
     9  N    0.709962
    10  O   -0.318796
 Electronic spatial extent (au):  <R**2>=           1376.0316
 Charge=              1.0000 electrons
 Dipole moment (field-independent basis, Debye):
    X=              1.2374    Y=              4.1940    Z=              0.0004  Tot=              4.3727
 Quadrupole moment (field-independent basis, Debye-Ang):
   XX=            -36.4875   YY=            -29.1290   ZZ=            -56.7007
   XY=              3.5798   XZ=              0.0008   YZ=             -0.0014
 Traceless Quadrupole moment (field-independent basis, Debye-Ang):
   XX=              4.2849   YY=             11.6434   ZZ=            -15.9283
   XY=              3.5798   XZ=              0.0008   YZ=             -0.0014
 Octapole moment (field-independent basis, Debye-Ang**2):
  XXX=            -10.3522  YYY=             50.0387  ZZZ=              0.0041  XYY=             -0.3507
  XXY=            -25.8815  XXZ=             -0.0125  XZZ=            -11.3520  YZZ=              9.6113
  YYZ=              0.0045  XYZ=             -0.0077
 Hexadecapole moment (field-independent basis, Debye-Ang**3):
 XXXX=           -801.3281 YYYY=           -410.0600 ZZZZ=            -61.6547 XXXY=             84.8296
 XXXZ=              0.0242 YYYX=             -7.8676 YYYZ=             -0.0153 ZZZX=              0.0014
 ZZZY=              0.0172 XXYY=           -227.7491 XXZZ=           -199.1311 YYZZ=            -98.4224
 XXYZ=             -0.0100 YYXZ=             -0.0043 ZZXY=              3.3344
 N-N= 5.141645139868D+02 E-N=-2.128490993722D+03  KE= 4.747136511569D+02
 Calling FoFJK, ICntrl=      2127 FMM=F ISym2X=0 I1Cent= 0 IOpClX= 0 NMat=1 NMatS=1 NMatT=0.
 ***** Axes restored to original set *****
 -------------------------------------------------------------------
 Center     Atomic                   Forces (Hartrees/Bohr)
 Number     Number              X              Y              Z
 -------------------------------------------------------------------
      1        6           0.001057659    0.001804528   -0.000002411
      2        6           0.001983642   -0.000155515   -0.000002028
      3        6           0.001089396   -0.001772212    0.000001957
      4        6          -0.001941312   -0.001919660   -0.000002114
      5        6          -0.001661601   -0.000157062   -0.000002431
      6        6          -0.001244318    0.001351717    0.000015585
      7        6           0.006356847    0.005455594   -0.000003235
      8        8           0.000813147    0.003132170   -0.000006973
      9        7           0.000176331    0.000896049   -0.000044370
     10        8          -0.005447985   -0.008795994    0.000008511
     11        1           0.000625839    0.001168478    0.000005313
     12        1           0.001324379   -0.000044323    0.000001289
     13        1           0.000662488   -0.001172871   -0.000007938
     14        1          -0.000608020    0.001151011   -0.000007482
     15        1          -0.002689178   -0.000028543    0.000000829
     16        1           0.000263940   -0.000830344   -0.000842852
     17        1          -0.001000531    0.000740195    0.000023572
     18        1           0.000239277   -0.000823219    0.000864777
 -------------------------------------------------------------------
 Cartesian Forces:  Max     0.008795994 RMS     0.002079725

 GradGradGradGradGradGradGradGradGradGradGradGradGradGradGradGradGradGrad
 Berny optimization.
 FormGI is forming the generalized inverse of G from B-inverse, IUseBI=4.
 Internal  Forces:  Max     0.010344424 RMS     0.001577467
 Search for a local minimum.
 Step number   1 out of a maximum of   92
 All quantities printed in internal units (Hartrees-Bohrs-Radians)
 Mixed Optimization -- RFO/linear search
 Second derivative matrix not updated -- first step.
 ITU=  0
     Eigenvalues ---    0.00579   0.00947   0.01524   0.01526   0.01687
     Eigenvalues ---    0.02028   0.02099   0.02114   0.02128   0.02148
     Eigenvalues ---    0.02162   0.02199   0.02704   0.06966   0.07701
     Eigenvalues ---    0.16000   0.16000   0.16000   0.16000   0.16000
     Eigenvalues ---    0.16000   0.16000   0.16000   0.22000   0.22493
     Eigenvalues ---    0.24483   0.25000   0.25000   0.25000   0.25000
     Eigenvalues ---    0.33860   0.34098   0.35211   0.35405   0.35433
     Eigenvalues ---    0.35552   0.36648   0.41342   0.42050   0.43548
     Eigenvalues ---    0.43552   0.45139   0.45398   0.46203   0.47508
     Eigenvalues ---    0.52365   0.61066   0.88403
 RFO step:  Lambda=-3.40551700D-04 EMin= 5.78597264D-03
 Linear search not attempted -- first point.
 Iteration  1 RMS(Cart)=  0.00739902 RMS(Int)=  0.00001361
 Iteration  2 RMS(Cart)=  0.00002039 RMS(Int)=  0.00000045
 Iteration  3 RMS(Cart)=  0.00000000 RMS(Int)=  0.00000045
 Variable       Old X    -DE/DX   Delta X   Delta X   Delta X     New X
                                 (Linear)    (Quad)   (Total)
    R1        2.63859  -0.00354   0.00000  -0.00776  -0.00776   2.63083
    R2        2.63584  -0.00341   0.00000  -0.00735  -0.00735   2.62849
    R3        2.04978  -0.00132   0.00000  -0.00373  -0.00373   2.04605
    R4        2.64514  -0.00330   0.00000  -0.00730  -0.00730   2.63784
    R5        2.05022  -0.00132   0.00000  -0.00374  -0.00374   2.04648
    R6        2.61948  -0.00333   0.00000  -0.00692  -0.00692   2.61256
    R7        2.05334  -0.00135   0.00000  -0.00382  -0.00382   2.04952
    R8        2.66148  -0.00226   0.00000  -0.00499  -0.00499   2.65650
    R9        2.80464  -0.00018   0.00000  -0.00053  -0.00053   2.80412
   R10        2.65163  -0.00284   0.00000  -0.00622  -0.00622   2.64541
   R11        2.80867  -0.00097   0.00000  -0.00286  -0.00286   2.80581
   R12        2.04788  -0.00130   0.00000  -0.00366  -0.00366   2.04423
   R13        2.50106  -0.00360   0.00000  -0.00589  -0.00589   2.49517
   R14        2.33678  -0.01034   0.00000  -0.01170  -0.01170   2.32508
   R15        1.84251  -0.00268   0.00000  -0.00512  -0.00512   1.83739
   R16        1.93695  -0.00119   0.00000  -0.00274  -0.00274   1.93421
   R17        2.03080  -0.00116   0.00000  -0.00317  -0.00317   2.02763
   R18        1.93700  -0.00120   0.00000  -0.00276  -0.00276   1.93424
    A1        2.09921   0.00007   0.00000  -0.00001  -0.00001   2.09920
    A2        2.09521  -0.00009   0.00000  -0.00037  -0.00037   2.09484
    A3        2.08876   0.00003   0.00000   0.00038   0.00038   2.08914
    A4        2.09869   0.00007   0.00000  -0.00009  -0.00009   2.09859
    A5        2.09996  -0.00006   0.00000  -0.00008  -0.00008   2.09988
    A6        2.08454  -0.00002   0.00000   0.00017   0.00017   2.08472
    A7        2.07513   0.00025   0.00000   0.00097   0.00097   2.07609
    A8        2.09974  -0.00012   0.00000  -0.00045  -0.00045   2.09929
    A9        2.10832  -0.00013   0.00000  -0.00052  -0.00052   2.10780
   A10        2.13052  -0.00024   0.00000  -0.00075  -0.00075   2.12976
   A11        2.08684  -0.00073   0.00000  -0.00301  -0.00301   2.08383
   A12        2.06582   0.00097   0.00000   0.00377   0.00377   2.06959
   A13        2.06006  -0.00031   0.00000  -0.00092  -0.00092   2.05915
   A14        2.10386   0.00112   0.00000   0.00430   0.00430   2.10816
   A15        2.11926  -0.00081   0.00000  -0.00338  -0.00338   2.11588
   A16        2.10276   0.00016   0.00000   0.00081   0.00081   2.10357
   A17        2.10251  -0.00004   0.00000  -0.00017  -0.00017   2.10234
   A18        2.07791  -0.00012   0.00000  -0.00064  -0.00064   2.07727
   A19        1.99903  -0.00064   0.00000  -0.00256  -0.00256   1.99647
   A20        2.14860   0.00061   0.00000   0.00242   0.00242   2.15102
   A21        2.13555   0.00004   0.00000   0.00014   0.00014   2.13569
   A22        1.91196  -0.00038   0.00000  -0.00234  -0.00234   1.90962
   A23        1.95672  -0.00024   0.00000  -0.00165  -0.00165   1.95507
   A24        1.83793   0.00068   0.00000   0.00442   0.00442   1.84235
   A25        1.95651  -0.00024   0.00000  -0.00154  -0.00154   1.95496
   A26        1.91360  -0.00022   0.00000  -0.00129  -0.00129   1.91231
   A27        1.88576   0.00021   0.00000   0.00098   0.00098   1.88674
   A28        1.91283  -0.00019   0.00000  -0.00094  -0.00094   1.91190
    D1        0.00015  -0.00000   0.00000  -0.00006  -0.00006   0.00008
    D2       -3.14149  -0.00000   0.00000  -0.00003  -0.00003  -3.14152
    D3       -3.14145  -0.00000   0.00000  -0.00008  -0.00008  -3.14153
    D4        0.00009  -0.00000   0.00000  -0.00004  -0.00004   0.00005
    D5       -0.00016   0.00000   0.00000   0.00008   0.00008  -0.00008
    D6        3.14129   0.00000   0.00000   0.00018   0.00018   3.14147
    D7        3.14144   0.00000   0.00000   0.00009   0.00009   3.14153
    D8       -0.00029   0.00000   0.00000   0.00019   0.00019  -0.00010
    D9        0.00004  -0.00000   0.00000  -0.00004  -0.00004  -0.00000
   D10       -3.14151  -0.00000   0.00000  -0.00007  -0.00007  -3.14159
   D11       -3.14151  -0.00000   0.00000  -0.00008  -0.00008  -3.14159
   D12        0.00013  -0.00000   0.00000  -0.00011  -0.00011   0.00002
   D13       -0.00021   0.00000   0.00000   0.00013   0.00013  -0.00008
   D14        3.14122   0.00000   0.00000   0.00021   0.00021   3.14142
   D15        3.14134   0.00000   0.00000   0.00017   0.00017   3.14151
   D16       -0.00042   0.00001   0.00000   0.00024   0.00024  -0.00018
   D17        0.00020  -0.00000   0.00000  -0.00012  -0.00012   0.00008
   D18       -3.14135  -0.00000   0.00000  -0.00006  -0.00006  -3.14141
   D19       -3.14123  -0.00000   0.00000  -0.00019  -0.00019  -3.14142
   D20        0.00040  -0.00000   0.00000  -0.00013  -0.00013   0.00028
   D21        1.06144  -0.00003   0.00000  -0.00025  -0.00025   1.06120
   D22        3.14129  -0.00001   0.00000   0.00003   0.00003   3.14133
   D23       -1.06309   0.00004   0.00000   0.00080   0.00080  -1.06229
   D24       -2.08031  -0.00003   0.00000  -0.00018  -0.00018  -2.08048
   D25       -0.00046  -0.00001   0.00000   0.00010   0.00010  -0.00036
   D26        2.07835   0.00004   0.00000   0.00087   0.00087   2.07921
   D27       -0.00001   0.00000   0.00000   0.00001   0.00001   0.00000
   D28       -3.14146  -0.00000   0.00000  -0.00009  -0.00009  -3.14155
   D29        3.14154  -0.00000   0.00000  -0.00005  -0.00005   3.14149
   D30        0.00009  -0.00000   0.00000  -0.00015  -0.00015  -0.00007
   D31        3.14098   0.00000   0.00000   0.00052   0.00052   3.14150
   D32       -0.00058   0.00001   0.00000   0.00054   0.00054  -0.00004
   D33       -0.00057   0.00001   0.00000   0.00058   0.00058   0.00001
   D34        3.14106   0.00001   0.00000   0.00060   0.00060  -3.14152
   D35        3.14154   0.00000   0.00000   0.00003   0.00003   3.14157
   D36       -0.00009   0.00000   0.00000   0.00001   0.00001  -0.00008
         Item               Value     Threshold  Converged?
 Maximum Force            0.010344     0.000450     NO 
 RMS     Force            0.001577     0.000300     NO 
 Maximum Displacement     0.023709     0.001800     NO 
 RMS     Displacement     0.007396     0.001200     NO 
 Predicted change in Energy=-1.703906D-04
 GradGradGradGradGradGradGradGradGradGradGradGradGradGradGradGradGradGrad

                          Input orientation:                          
 ---------------------------------------------------------------------
 Center     Atomic      Atomic             Coordinates (Angstroms)
 Number     Number       Type             X           Y           Z
 ---------------------------------------------------------------------
      1          6           0       -1.933307   -1.471850   -0.000146
      2          6           0       -2.615764   -0.258427    0.000054
      3          6           0       -1.909296    0.945480    0.000147
      4          6           0       -0.527234    0.910411    0.000041
      5          6           0        0.187782   -0.299923   -0.000065
      6          6           0       -0.542549   -1.494205   -0.000156
      7          6           0        1.672543   -0.305519    0.000056
      8          8           0        2.213245   -1.510119    0.000051
      9          7           0        0.233645    2.184360   -0.000083
     10          8           0        2.350924    0.720948    0.000211
     11          1           0       -2.484781   -2.403603   -0.000276
     12          1           0       -3.698565   -0.240290    0.000130
     13          1           0       -2.440301    1.891154    0.000310
     14          1           0       -0.009304   -2.435400   -0.000200
     15          1           0        3.182196   -1.429425    0.000112
     16          1           0        0.033055    2.751185    0.828230
     17          1           0        1.268645    1.901424    0.000127
     18          1           0        0.033629    2.750570   -0.828974
 ---------------------------------------------------------------------
                    Distance matrix (angstroms):
                    1          2          3          4          5
     1  C    0.000000
     2  C    1.392173   0.000000
     3  C    2.417450   1.395883   0.000000
     4  C    2.766263   2.393354   1.382507   0.000000
     5  C    2.423309   2.803853   2.439009   1.405758   0.000000
     6  C    1.390937   2.413580   2.796437   2.404664   1.399890
     7  C    3.789787   4.288566   3.794017   2.513464   1.484772
     8  O    4.146728   4.988593   4.798469   3.656390   2.359465
     9  N    4.250124   3.753178   2.475282   1.483874   2.484707
    10  O    4.812795   5.062328   4.266133   2.884387   2.391937
    11  H    1.082722   2.149171   3.398167   3.848984   3.401185
    12  H    2.152412   1.082953   2.146517   3.373642   3.886804
    13  H    3.401006   2.156731   1.084558   2.149810   3.421643
    14  H    2.151794   3.396005   3.878186   3.385662   2.144553
    15  H    5.115679   5.915030   5.618137   4.385738   3.200358
    16  H    4.731470   4.093884   2.778312   2.094820   3.165324
    17  H    4.650965   4.444502   3.318605   2.051168   2.452386
    18  H    4.731240   4.093976   2.778624   2.094760   3.164864
                    6          7          8          9         10
     6  C    0.000000
     7  C    2.513883   0.000000
     8  O    2.755840   1.320386   0.000000
     9  N    3.759563   2.875747   4.191418   0.000000
    10  O    3.644048   1.230380   2.235311   2.573800   0.000000
    11  H    2.144591   4.656748   4.782234   5.332846   5.757331
    12  H    3.395989   5.371505   6.046649   4.619655   6.125382
    13  H    3.880995   4.662710   5.764039   2.689974   4.932061
    14  H    1.081758   2.713854   2.407461   4.626144   3.941219
    15  H    3.725308   1.882078   0.972306   4.664053   2.305453
    16  H    4.363585   3.566123   4.857758   1.023538   3.190610
    17  H    3.848470   2.243598   3.539900   1.072976   1.601516
    18  H    4.363145   3.565531   4.857106   1.023553   3.190105
                   11         12         13         14         15
    11  H    0.000000
    12  H    2.480563   0.000000
    13  H    4.294987   2.475133   0.000000
    14  H    2.475682   4.292920   4.962744   0.000000
    15  H    5.750100   6.982759   6.529833   3.346290   0.000000
    16  H    5.796357   4.853830   2.746379   5.252500   5.299091
    17  H    5.711520   5.409262   3.708961   4.521195   3.841384
    18  H    5.796087   4.854064   2.747115   5.251952   5.298416
                   16         17         18
    16  H    0.000000
    17  H    1.713047   0.000000
    18  H    1.657205   1.712811   0.000000
 Stoichiometry    C7H8NO2(1+)
 Framework group  C1[X(C7H8NO2)]
 Deg. of freedom    48
 Full point group                 C1      NOp   1
 Largest Abelian subgroup         C1      NOp   1
 Largest concise Abelian subgroup C1      NOp   1
                         Standard orientation:                         
 ---------------------------------------------------------------------
 Center     Atomic      Atomic             Coordinates (Angstroms)
 Number     Number       Type             X           Y           Z
 ---------------------------------------------------------------------
      1          6           0        1.927395   -1.478948    0.000153
      2          6           0        2.615009   -0.268439   -0.000046
      3          6           0        1.913669    0.938463   -0.000140
      4          6           0        0.531470    0.909273   -0.000033
      5          6           0       -0.188688   -0.298008    0.000073
      6          6           0        0.536555   -1.495385    0.000163
      7          6           0       -1.673460   -0.297286   -0.000048
      8          8           0       -2.219282   -1.499575   -0.000043
      9          7           0       -0.223982    2.186448    0.000091
     10          8           0       -2.347468    0.732057   -0.000203
     11          1           0        2.474900   -2.413038    0.000284
     12          1           0        3.697877   -0.254909   -0.000122
     13          1           0        2.448692    1.881869   -0.000302
     14          1           0       -0.000690   -2.434304    0.000207
     15          1           0       -3.187881   -1.414760   -0.000104
     16          1           0       -0.020983    2.752415   -0.828223
     17          1           0       -1.260177    1.907918   -0.000119
     18          1           0       -0.021559    2.751802    0.828982
 ---------------------------------------------------------------------
 Rotational constants (GHZ):      2.2381542      1.2084991      0.7881508
 Standard basis: 6-311+G(d,p) (5D, 7F)
 There are   278 symmetry adapted cartesian basis functions of A   symmetry.
 There are   268 symmetry adapted basis functions of A   symmetry.
   268 basis functions,   424 primitive gaussians,   278 cartesian basis functions
    36 alpha electrons       36 beta electrons
       nuclear repulsion energy       515.0884061713 Hartrees.
 NAtoms=   18 NActive=   18 NUniq=   18 SFac= 1.00D+00 NAtFMM=   60 NAOKFM=F Big=F
 Integral buffers will be    131072 words long.
 Raffenetti 2 integral format.
 Two-electron integral symmetry is turned on.
 One-electron integrals computed using PRISM.
 NBasis=   268 RedAO= T EigKep=  1.51D-06  NBF=   268
 NBsUse=   268 1.00D-06 EigRej= -1.00D+00 NBFU=   268
 Initial guess from the checkpoint file:  "m062x6311Anthranilicyang.chk"
 B after Tr=    -0.000000    0.000000    0.000000
         Rot=    0.999999    0.000015    0.000009    0.001687 Ang=   0.19 deg.
 ExpMin= 4.38D-02 ExpMax= 8.59D+03 ExpMxC= 1.30D+03 IAcc=2 IRadAn=         4 AccDes= 0.00D+00
 Harris functional with IExCor=  402 and IRadAn=       4 diagonalized for initial guess.
 HarFok:  IExCor=  402 AccDes= 0.00D+00 IRadAn=         4 IDoV= 1 UseB2=F ITyADJ=14
 ICtDFT=  3500011 ScaDFX=  1.000000  1.000000  1.000000  1.000000
 FoFCou: FMM=F IPFlag=           0 FMFlag=      100000 FMFlg1=           0
         NFxFlg=           0 DoJE=T BraDBF=F KetDBF=T FulRan=T
         wScrn=  0.000000 ICntrl=     500 IOpCl=  0 I1Cent=   200000004 NGrid=           0
         NMat0=    1 NMatS0=      1 NMatT0=    0 NMatD0=    1 NMtDS0=    0 NMtDT0=    0
 Petite list used in FoFCou.
 Keep R1 ints in memory in canonical form, NReq=660791231.
 Requested convergence on RMS density matrix=1.00D-08 within 128 cycles.
 Requested convergence on MAX density matrix=1.00D-06.
 Requested convergence on             energy=1.00D-06.
 No special actions if energy rises.
 SCF Done:  E(RB3LYP) =  -476.682183631     A.U. after   11 cycles
            NFock= 11  Conv=0.83D-08     -V/T= 2.0039
 Calling FoFJK, ICntrl=      2127 FMM=F ISym2X=0 I1Cent= 0 IOpClX= 0 NMat=1 NMatS=1 NMatT=0.
 ***** Axes restored to original set *****
 -------------------------------------------------------------------
 Center     Atomic                   Forces (Hartrees/Bohr)
 Number     Number              X              Y              Z
 -------------------------------------------------------------------
      1        6          -0.000178040   -0.000206070    0.000000204
      2        6          -0.000326546    0.000023993   -0.000000157
      3        6          -0.000073274    0.000262692    0.000000314
      4        6           0.000029470   -0.000857986   -0.000001155
      5        6          -0.000595045    0.000164568    0.000001584
      6        6          -0.000039869   -0.000053627    0.000001820
      7        6           0.002383790    0.002631440    0.000004024
      8        8           0.000275389   -0.000550636   -0.000003242
      9        7           0.002351429   -0.000546729   -0.000028011
     10        8          -0.002044961   -0.001117437   -0.000004990
     11        1          -0.000055601   -0.000062609    0.000002036
     12        1          -0.000067505    0.000015421   -0.000000405
     13        1          -0.000074681    0.000086004   -0.000002538
     14        1           0.000027351   -0.000002986   -0.000001937
     15        1          -0.000139704   -0.000197973    0.000001376
     16        1           0.000138137   -0.000043445    0.000104503
     17        1          -0.001733231    0.000495819    0.000018890
     18        1           0.000122891   -0.000040438   -0.000092314
 -------------------------------------------------------------------
 Cartesian Forces:  Max     0.002631440 RMS     0.000733025

 GradGradGradGradGradGradGradGradGradGradGradGradGradGradGradGradGradGrad
 Berny optimization.
 Using GEDIIS/GDIIS optimizer.
 FormGI is forming the generalized inverse of G from B-inverse, IUseBI=4.
 Internal  Forces:  Max     0.002060322 RMS     0.000557871
 Search for a local minimum.
 Step number   2 out of a maximum of   92
 All quantities printed in internal units (Hartrees-Bohrs-Radians)
 Mixed Optimization -- En-DIIS/RFO-DIIS
 Update second derivatives using D2CorX and points    1    2
 DE= -1.64D-04 DEPred=-1.70D-04 R= 9.63D-01
 TightC=F SS=  1.41D+00  RLast= 2.59D-02 DXNew= 5.0454D-01 7.7826D-02
 Trust test= 9.63D-01 RLast= 2.59D-02 DXMaxT set to 3.00D-01
 ITU=  1  0
 Use linear search instead of GDIIS.
     Eigenvalues ---    0.00579   0.00947   0.01524   0.01525   0.01686
     Eigenvalues ---    0.02028   0.02099   0.02114   0.02128   0.02148
     Eigenvalues ---    0.02162   0.02199   0.02704   0.06990   0.07682
     Eigenvalues ---    0.15868   0.16000   0.16000   0.16000   0.16000
     Eigenvalues ---    0.16000   0.16000   0.16053   0.21998   0.22534
     Eigenvalues ---    0.24186   0.24533   0.25000   0.25000   0.26052
     Eigenvalues ---    0.33754   0.34011   0.34602   0.35265   0.35418
     Eigenvalues ---    0.35510   0.36331   0.40777   0.41926   0.43550
     Eigenvalues ---    0.43641   0.45006   0.46192   0.46433   0.51506
     Eigenvalues ---    0.53894   0.65356   0.78959
 RFO step:  Lambda=-7.41205818D-05 EMin= 5.78599782D-03
 Quartic linear search produced a step of -0.03894.
 Iteration  1 RMS(Cart)=  0.00794908 RMS(Int)=  0.00001943
 Iteration  2 RMS(Cart)=  0.00002517 RMS(Int)=  0.00000016
 Iteration  3 RMS(Cart)=  0.00000000 RMS(Int)=  0.00000016
 Variable       Old X    -DE/DX   Delta X   Delta X   Delta X     New X
                                 (Linear)    (Quad)   (Total)
    R1        2.63083   0.00049   0.00030  -0.00086  -0.00056   2.63026
    R2        2.62849   0.00053   0.00029  -0.00073  -0.00044   2.62805
    R3        2.04605   0.00008   0.00015  -0.00074  -0.00059   2.04545
    R4        2.63784   0.00036   0.00028  -0.00107  -0.00079   2.63705
    R5        2.04648   0.00007   0.00015  -0.00078  -0.00063   2.04585
    R6        2.61256   0.00024   0.00027  -0.00135  -0.00108   2.61148
    R7        2.04952   0.00011   0.00015  -0.00068  -0.00053   2.04899
    R8        2.65650  -0.00120   0.00019  -0.00400  -0.00381   2.65269
    R9        2.80412   0.00034   0.00002   0.00081   0.00083   2.80495
   R10        2.64541   0.00022   0.00024  -0.00118  -0.00094   2.64447
   R11        2.80581   0.00047   0.00011   0.00060   0.00071   2.80652
   R12        2.04423   0.00002   0.00014  -0.00090  -0.00076   2.04347
   R13        2.49517   0.00074   0.00023  -0.00035  -0.00012   2.49505
   R14        2.32508  -0.00206   0.00046  -0.00524  -0.00479   2.32029
   R15        1.83739  -0.00016   0.00020  -0.00160  -0.00140   1.83599
   R16        1.93421   0.00003   0.00011  -0.00063  -0.00052   1.93368
   R17        2.02763  -0.00180   0.00012  -0.00554  -0.00542   2.02221
   R18        1.93424   0.00003   0.00011  -0.00065  -0.00054   1.93369
    A1        2.09920  -0.00003   0.00000   0.00027   0.00027   2.09947
    A2        2.09484  -0.00000   0.00001  -0.00034  -0.00032   2.09452
    A3        2.08914   0.00003  -0.00001   0.00006   0.00005   2.08919
    A4        2.09859  -0.00012   0.00000  -0.00016  -0.00015   2.09844
    A5        2.09988   0.00008   0.00000   0.00014   0.00014   2.10002
    A6        2.08472   0.00005  -0.00001   0.00002   0.00001   2.08473
    A7        2.07609  -0.00029  -0.00004  -0.00101  -0.00105   2.07505
    A8        2.09929   0.00012   0.00002   0.00038   0.00039   2.09968
    A9        2.10780   0.00017   0.00002   0.00063   0.00065   2.10845
   A10        2.12976   0.00051   0.00003   0.00149   0.00152   2.13128
   A11        2.08383   0.00101   0.00012   0.00323   0.00335   2.08718
   A12        2.06959  -0.00152  -0.00015  -0.00472  -0.00487   2.06472
   A13        2.05915   0.00018   0.00004   0.00018   0.00021   2.05936
   A14        2.10816  -0.00203  -0.00017  -0.00654  -0.00671   2.10145
   A15        2.11588   0.00185   0.00013   0.00636   0.00649   2.12237
   A16        2.10357  -0.00024  -0.00003  -0.00077  -0.00081   2.10277
   A17        2.10234   0.00014   0.00001   0.00058   0.00059   2.10292
   A18        2.07727   0.00010   0.00002   0.00019   0.00022   2.07749
   A19        1.99647   0.00031   0.00010   0.00053   0.00063   1.99710
   A20        2.15102  -0.00142  -0.00009  -0.00484  -0.00493   2.14609
   A21        2.13569   0.00111  -0.00001   0.00431   0.00430   2.14000
   A22        1.90962   0.00034   0.00009   0.00146   0.00155   1.91116
   A23        1.95507   0.00005   0.00006   0.00007   0.00014   1.95521
   A24        1.84235  -0.00004  -0.00017   0.00048   0.00031   1.84266
   A25        1.95496   0.00005   0.00006   0.00017   0.00023   1.95520
   A26        1.91231  -0.00009   0.00005  -0.00135  -0.00130   1.91101
   A27        1.88674   0.00008  -0.00004   0.00149   0.00145   1.88819
   A28        1.91190  -0.00007   0.00004  -0.00101  -0.00097   1.91093
    D1        0.00008  -0.00000   0.00000  -0.00008  -0.00008   0.00000
    D2       -3.14152  -0.00000   0.00000  -0.00005  -0.00005  -3.14157
    D3       -3.14153  -0.00000   0.00000  -0.00006  -0.00006  -3.14159
    D4        0.00005  -0.00000   0.00000  -0.00003  -0.00002   0.00003
    D5       -0.00008   0.00000  -0.00000   0.00008   0.00008  -0.00001
    D6        3.14147   0.00000  -0.00001   0.00015   0.00014  -3.14157
    D7        3.14153   0.00000  -0.00000   0.00006   0.00005   3.14158
    D8       -0.00010   0.00000  -0.00001   0.00012   0.00012   0.00002
    D9       -0.00000  -0.00000   0.00000  -0.00001  -0.00001  -0.00002
   D10       -3.14159   0.00000   0.00000   0.00000   0.00001  -3.14158
   D11       -3.14159  -0.00000   0.00000  -0.00005  -0.00005   3.14155
   D12        0.00002  -0.00000   0.00000  -0.00003  -0.00003  -0.00001
   D13       -0.00008   0.00000  -0.00001   0.00012   0.00011   0.00004
   D14        3.14142   0.00000  -0.00001   0.00023   0.00023  -3.14154
   D15        3.14151   0.00000  -0.00001   0.00010   0.00009  -3.14159
   D16       -0.00018   0.00000  -0.00001   0.00022   0.00021   0.00003
   D17        0.00008  -0.00000   0.00000  -0.00012  -0.00012  -0.00004
   D18       -3.14141  -0.00000   0.00000  -0.00017  -0.00017  -3.14158
   D19       -3.14142  -0.00000   0.00001  -0.00024  -0.00023   3.14153
   D20        0.00028  -0.00001   0.00000  -0.00028  -0.00028  -0.00000
   D21        1.06120   0.00009   0.00001   0.00104   0.00105   1.06225
   D22        3.14133  -0.00001  -0.00000  -0.00025  -0.00025   3.14107
   D23       -1.06229  -0.00008  -0.00003  -0.00107  -0.00111  -1.06339
   D24       -2.08048   0.00009   0.00001   0.00115   0.00116  -2.07932
   D25       -0.00036  -0.00001  -0.00000  -0.00014  -0.00015  -0.00050
   D26        2.07921  -0.00008  -0.00003  -0.00096  -0.00100   2.07822
   D27        0.00000   0.00000  -0.00000   0.00002   0.00002   0.00002
   D28       -3.14155  -0.00000   0.00000  -0.00005  -0.00004   3.14159
   D29        3.14149   0.00000   0.00000   0.00007   0.00007   3.14156
   D30       -0.00007   0.00000   0.00001   0.00000   0.00001  -0.00006
   D31        3.14150   0.00000  -0.00002   0.00018   0.00016  -3.14153
   D32       -0.00004  -0.00000  -0.00002  -0.00005  -0.00007  -0.00011
   D33        0.00001   0.00000  -0.00002   0.00013   0.00011   0.00012
   D34       -3.14152  -0.00000  -0.00002  -0.00010  -0.00012   3.14154
   D35        3.14157  -0.00000  -0.00000  -0.00006  -0.00007   3.14150
   D36       -0.00008   0.00000  -0.00000   0.00016   0.00016   0.00008
         Item               Value     Threshold  Converged?
 Maximum Force            0.002060     0.000450     NO 
 RMS     Force            0.000558     0.000300     NO 
 Maximum Displacement     0.028722     0.001800     NO 
 RMS     Displacement     0.007952     0.001200     NO 
 Predicted change in Energy=-3.732864D-05
 GradGradGradGradGradGradGradGradGradGradGradGradGradGradGradGradGradGrad

                          Input orientation:                          
 ---------------------------------------------------------------------
 Center     Atomic      Atomic             Coordinates (Angstroms)
 Number     Number       Type             X           Y           Z
 ---------------------------------------------------------------------
      1          6           0       -1.936354   -1.471861   -0.000015
      2          6           0       -2.617402   -0.257986   -0.000032
      3          6           0       -1.909705    0.944714   -0.000049
      4          6           0       -0.528296    0.906560   -0.000030
      5          6           0        0.184820   -0.302554   -0.000038
      6          6           0       -0.545860   -1.496041   -0.000015
      7          6           0        1.669965   -0.299261    0.000002
      8          8           0        2.218593   -1.500201   -0.000087
      9          7           0        0.239925    2.176610    0.000023
     10          8           0        2.335725    0.732421   -0.000070
     11          1           0       -2.488939   -2.402591   -0.000007
     12          1           0       -3.699846   -0.238572   -0.000010
     13          1           0       -2.439068    1.890988   -0.000049
     14          1           0       -0.013497   -2.437276   -0.000023
     15          1           0        3.186383   -1.414665   -0.000136
     16          1           0        0.043319    2.743972    0.828581
     17          1           0        1.270655    1.888982    0.000566
     18          1           0        0.044147    2.743534   -0.829040
 ---------------------------------------------------------------------
                    Distance matrix (angstroms):
                    1          2          3          4          5
     1  C    0.000000
     2  C    1.391876   0.000000
     3  C    2.416722   1.395465   0.000000
     4  C    2.763967   2.391763   1.381936   0.000000
     5  C    2.422118   2.802576   2.437768   1.403741   0.000000
     6  C    1.390703   2.413310   2.795954   2.402665   1.399394
     7  C    3.792166   4.287565   3.789658   2.507260   1.485149
     8  O    4.155043   4.992989   4.797964   3.652109   2.360210
     9  N    4.248238   3.753874   2.477595   1.484314   2.479776
    10  O    4.807236   5.051175   4.250735   2.869310   2.386958
    11  H    1.082408   2.148448   3.397052   3.846375   3.399873
    12  H    2.151955   1.082618   2.145873   3.371951   3.885193
    13  H    3.400217   2.156361   1.084278   2.149453   3.420002
    14  H    2.151604   3.395530   3.877301   3.383232   2.143915
    15  H    5.123056   5.917924   5.615763   4.380289   3.200965
    16  H    4.730637   4.096070   2.781773   2.095095   3.160371
    17  H    4.645446   4.441448   3.317579   2.049726   2.445785
    18  H    4.730668   4.096367   2.782178   2.095094   3.160013
                    6          7          8          9         10
     6  C    0.000000
     7  C    2.518365   0.000000
     8  O    2.764456   1.320322   0.000000
     9  N    3.755772   2.859187   4.175412   0.000000
    10  O    3.642743   1.227845   2.235692   2.545203   0.000000
    11  H    2.144152   4.660523   4.793241   5.330645   5.753753
    12  H    3.395417   5.370154   6.051415   4.621136   6.113178
    13  H    3.880232   4.656323   5.761421   2.694176   4.913342
    14  H    1.081358   2.721241   2.420813   4.620841   3.945355
    15  H    3.733131   1.882459   0.971563   4.645307   2.309458
    16  H    4.360207   3.548772   4.840610   1.023260   3.160399
    17  H    3.841628   2.224377   3.519254   1.070110   1.572262
    18  H    4.359975   3.548125   4.839903   1.023267   3.159603
                   11         12         13         14         15
    11  H    0.000000
    12  H    2.479773   0.000000
    13  H    4.293868   2.474790   0.000000
    14  H    2.475684   4.292257   4.961579   0.000000
    15  H    5.760666   6.985939   6.524802   3.359311   0.000000
    16  H    5.795342   4.857305   2.752536   5.247394   5.278246
    17  H    5.705448   5.406696   3.709724   4.512821   3.818914
    18  H    5.795379   4.857749   2.753256   5.247036   5.277437
                   16         17         18
    16  H    0.000000
    17  H    1.709669   0.000000
    18  H    1.657620   1.709627   0.000000
 Stoichiometry    C7H8NO2(1+)
 Framework group  C1[X(C7H8NO2)]
 Deg. of freedom    48
 Full point group                 C1      NOp   1
 Largest Abelian subgroup         C1      NOp   1
 Largest concise Abelian subgroup C1      NOp   1
                         Standard orientation:                         
 ---------------------------------------------------------------------
 Center     Atomic      Atomic             Coordinates (Angstroms)
 Number     Number       Type             X           Y           Z
 ---------------------------------------------------------------------
      1          6           0        1.937523   -1.469016   -0.000016
      2          6           0        2.616703   -0.254094    0.000001
      3          6           0        1.907156    0.947516    0.000018
      4          6           0        0.525807    0.907236   -0.000001
      5          6           0       -0.185447   -0.302974    0.000007
      6          6           0        0.547069   -1.495335   -0.000016
      7          6           0       -1.670595   -0.301967   -0.000033
      8          8           0       -2.217375   -1.503750    0.000056
      9          7           0       -0.244368    2.176102   -0.000054
     10          8           0       -2.337943    0.728689    0.000039
     11          1           0        2.491540   -2.398893   -0.000025
     12          1           0        3.699116   -0.233013   -0.000021
     13          1           0        2.435062    1.894603    0.000018
     14          1           0        0.016155   -2.437389   -0.000008
     15          1           0       -3.185295   -1.419704    0.000104
     16          1           0       -0.048636    2.743765   -0.828612
     17          1           0       -1.274654    1.886888   -0.000597
     18          1           0       -0.049463    2.743326    0.829008
 ---------------------------------------------------------------------
 Rotational constants (GHZ):      2.2471103      1.2097980      0.7898141
 Standard basis: 6-311+G(d,p) (5D, 7F)
 There are   278 symmetry adapted cartesian basis functions of A   symmetry.
 There are   268 symmetry adapted basis functions of A   symmetry.
   268 basis functions,   424 primitive gaussians,   278 cartesian basis functions
    36 alpha electrons       36 beta electrons
       nuclear repulsion energy       515.6192047288 Hartrees.
 NAtoms=   18 NActive=   18 NUniq=   18 SFac= 1.00D+00 NAtFMM=   60 NAOKFM=F Big=F
 Integral buffers will be    131072 words long.
 Raffenetti 2 integral format.
 Two-electron integral symmetry is turned on.
 One-electron integrals computed using PRISM.
 NBasis=   268 RedAO= T EigKep=  1.51D-06  NBF=   268
 NBsUse=   268 1.00D-06 EigRej= -1.00D+00 NBFU=   268
 Initial guess from the checkpoint file:  "m062x6311Anthranilicyang.chk"
 B after Tr=    -0.000000   -0.000000   -0.000000
         Rot=    0.999997   -0.000007   -0.000012   -0.002339 Ang=  -0.27 deg.
 ExpMin= 4.38D-02 ExpMax= 8.59D+03 ExpMxC= 1.30D+03 IAcc=2 IRadAn=         4 AccDes= 0.00D+00
 Harris functional with IExCor=  402 and IRadAn=       4 diagonalized for initial guess.
 HarFok:  IExCor=  402 AccDes= 0.00D+00 IRadAn=         4 IDoV= 1 UseB2=F ITyADJ=14
 ICtDFT=  3500011 ScaDFX=  1.000000  1.000000  1.000000  1.000000
 FoFCou: FMM=F IPFlag=           0 FMFlag=      100000 FMFlg1=           0
         NFxFlg=           0 DoJE=T BraDBF=F KetDBF=T FulRan=T
         wScrn=  0.000000 ICntrl=     500 IOpCl=  0 I1Cent=   200000004 NGrid=           0
         NMat0=    1 NMatS0=      1 NMatT0=    0 NMatD0=    1 NMtDS0=    0 NMtDT0=    0
 Petite list used in FoFCou.
 Keep R1 ints in memory in canonical form, NReq=660791231.
 Requested convergence on RMS density matrix=1.00D-08 within 128 cycles.
 Requested convergence on MAX density matrix=1.00D-06.
 Requested convergence on             energy=1.00D-06.
 No special actions if energy rises.
 SCF Done:  E(RB3LYP) =  -476.682145440     A.U. after   12 cycles
            NFock= 12  Conv=0.65D-08     -V/T= 2.0039
 Calling FoFJK, ICntrl=      2127 FMM=F ISym2X=0 I1Cent= 0 IOpClX= 0 NMat=1 NMatS=1 NMatT=0.
 ***** Axes restored to original set *****
 -------------------------------------------------------------------
 Center     Atomic                   Forces (Hartrees/Bohr)
 Number     Number              X              Y              Z
 -------------------------------------------------------------------
      1        6          -0.000108354   -0.000465127   -0.000000975
      2        6          -0.000392007    0.000085109    0.000000497
      3        6          -0.000327003    0.000542710    0.000001986
      4        6           0.000424439    0.000839739    0.000000805
      5        6           0.000137414   -0.000398140    0.000010312
      6        6           0.000281447   -0.000304584   -0.000003188
      7        6          -0.000828432   -0.001020476   -0.000024764
      8        8          -0.000281186   -0.000186682    0.000005349
      9        7          -0.002033759    0.001258207    0.000011432
     10        8           0.002931184   -0.000000083    0.000018429
     11        1          -0.000138080   -0.000269594    0.000000494
     12        1          -0.000300318   -0.000007734   -0.000001176
     13        1          -0.000132102    0.000236363   -0.000000006
     14        1           0.000153388   -0.000326722    0.000001153
     15        1           0.000603928   -0.000165657    0.000000456
     16        1          -0.000229582    0.000176630    0.000085251
     17        1           0.000460013   -0.000169253   -0.000022025
     18        1          -0.000220991    0.000175294   -0.000084030
 -------------------------------------------------------------------
 Cartesian Forces:  Max     0.002931184 RMS     0.000599002

 GradGradGradGradGradGradGradGradGradGradGradGradGradGradGradGradGradGrad
 Berny optimization.
 Using GEDIIS/GDIIS optimizer.
 FormGI is forming the generalized inverse of G from B-inverse, IUseBI=4.
 Internal  Forces:  Max     0.005388285 RMS     0.001240276
 Search for a local minimum.
 Step number   3 out of a maximum of   92
 All quantities printed in internal units (Hartrees-Bohrs-Radians)
 Mixed Optimization -- RFO/linear search
 Update second derivatives using D2CorX and points    1    3    2
 DE=  3.82D-05 DEPred=-3.73D-05 R=-1.02D+00
 Trust test=-1.02D+00 RLast= 1.61D-02 DXMaxT set to 1.50D-01
 ITU= -1  1  0
 Use linear search instead of GDIIS.
 Energy rises -- skip Quadratic/GDIIS search.
 Quartic linear search produced a step of -0.66583.
 Iteration  1 RMS(Cart)=  0.00528648 RMS(Int)=  0.00000828
 Iteration  2 RMS(Cart)=  0.00001411 RMS(Int)=  0.00000004
 Iteration  3 RMS(Cart)=  0.00000000 RMS(Int)=  0.00000004
 Variable       Old X    -DE/DX   Delta X   Delta X   Delta X     New X
                                 (Linear)    (Quad)   (Total)
    R1        2.63026   0.00026   0.00037   0.00000   0.00037   2.63064
    R2        2.62805   0.00039   0.00029   0.00000   0.00029   2.62834
    R3        2.04545   0.00030   0.00039   0.00000   0.00039   2.04585
    R4        2.63705   0.00039   0.00053   0.00000   0.00053   2.63757
    R5        2.04585   0.00030   0.00042   0.00000   0.00042   2.04627
    R6        2.61148   0.00102   0.00072   0.00000   0.00072   2.61220
    R7        2.04899   0.00027   0.00035   0.00000   0.00035   2.04934
    R8        2.65269   0.00384   0.00254   0.00000   0.00254   2.65522
    R9        2.80495   0.00019  -0.00055   0.00000  -0.00055   2.80439
   R10        2.64447   0.00096   0.00062   0.00000   0.00062   2.64510
   R11        2.80652   0.00242  -0.00047   0.00000  -0.00047   2.80605
   R12        2.04347   0.00036   0.00050   0.00000   0.00050   2.04397
   R13        2.49505   0.00046   0.00008   0.00000   0.00008   2.49513
   R14        2.32029   0.00159   0.00319   0.00000   0.00319   2.32348
   R15        1.83599   0.00059   0.00093   0.00000   0.00093   1.83692
   R16        1.93368   0.00021   0.00035   0.00000   0.00035   1.93403
   R17        2.02221   0.00049   0.00361   0.00000   0.00361   2.02582
   R18        1.93369   0.00021   0.00036   0.00000   0.00036   1.93405
    A1        2.09947   0.00007  -0.00018   0.00000  -0.00018   2.09929
    A2        2.09452  -0.00002   0.00021   0.00000   0.00021   2.09473
    A3        2.08919  -0.00005  -0.00003   0.00000  -0.00003   2.08916
    A4        2.09844   0.00000   0.00010   0.00000   0.00010   2.09854
    A5        2.10002  -0.00001  -0.00010   0.00000  -0.00010   2.09992
    A6        2.08473   0.00001  -0.00001   0.00000  -0.00001   2.08472
    A7        2.07505   0.00070   0.00070   0.00000   0.00070   2.07574
    A8        2.09968  -0.00035  -0.00026   0.00000  -0.00026   2.09942
    A9        2.10845  -0.00035  -0.00043   0.00000  -0.00043   2.10802
   A10        2.13128  -0.00062  -0.00101   0.00000  -0.00101   2.13027
   A11        2.08718  -0.00329  -0.00223   0.00000  -0.00223   2.08495
   A12        2.06472   0.00392   0.00324   0.00000   0.00324   2.06797
   A13        2.05936  -0.00114  -0.00014   0.00000  -0.00014   2.05922
   A14        2.10145   0.00539   0.00447   0.00000   0.00447   2.10592
   A15        2.12237  -0.00425  -0.00432   0.00000  -0.00432   2.11805
   A16        2.10277   0.00099   0.00054   0.00000   0.00054   2.10330
   A17        2.10292  -0.00052  -0.00039   0.00000  -0.00039   2.10253
   A18        2.07749  -0.00046  -0.00015   0.00000  -0.00015   2.07735
   A19        1.99710  -0.00193  -0.00042   0.00000  -0.00042   1.99668
   A20        2.14609   0.00383   0.00328   0.00000   0.00328   2.14937
   A21        2.14000  -0.00189  -0.00287   0.00000  -0.00287   2.13713
   A22        1.91116   0.00040  -0.00103   0.00000  -0.00103   1.91013
   A23        1.95521  -0.00008  -0.00009   0.00000  -0.00009   1.95512
   A24        1.84266   0.00003  -0.00021   0.00000  -0.00021   1.84245
   A25        1.95520  -0.00008  -0.00016   0.00000  -0.00016   1.95504
   A26        1.91101   0.00012   0.00087   0.00000   0.00087   1.91187
   A27        1.88819  -0.00008  -0.00097   0.00000  -0.00097   1.88723
   A28        1.91093   0.00010   0.00065   0.00000   0.00065   1.91157
    D1        0.00000   0.00000   0.00005   0.00000   0.00005   0.00005
    D2       -3.14157   0.00000   0.00003   0.00000   0.00003  -3.14154
    D3       -3.14159   0.00000   0.00004   0.00000   0.00004  -3.14155
    D4        0.00003  -0.00000   0.00002   0.00000   0.00002   0.00004
    D5       -0.00001  -0.00000  -0.00005   0.00000  -0.00005  -0.00006
    D6       -3.14157  -0.00000  -0.00009   0.00000  -0.00009   3.14152
    D7        3.14158   0.00000  -0.00004   0.00000  -0.00004   3.14155
    D8        0.00002  -0.00000  -0.00008   0.00000  -0.00008  -0.00006
    D9       -0.00002   0.00000   0.00001   0.00000   0.00001  -0.00001
   D10       -3.14158  -0.00000  -0.00000   0.00000  -0.00000  -3.14158
   D11        3.14155   0.00000   0.00003   0.00000   0.00003   3.14158
   D12       -0.00001  -0.00000   0.00002   0.00000   0.00002   0.00001
   D13        0.00004  -0.00000  -0.00008   0.00000  -0.00008  -0.00004
   D14       -3.14154  -0.00001  -0.00015   0.00000  -0.00015   3.14150
   D15       -3.14159  -0.00000  -0.00006   0.00000  -0.00006   3.14154
   D16        0.00003  -0.00000  -0.00014   0.00000  -0.00014  -0.00011
   D17       -0.00004   0.00000   0.00008   0.00000   0.00008   0.00004
   D18       -3.14158   0.00001   0.00011   0.00000   0.00011  -3.14147
   D19        3.14153   0.00001   0.00015   0.00000   0.00015  -3.14150
   D20       -0.00000   0.00001   0.00019   0.00000   0.00019   0.00018
   D21        1.06225  -0.00011  -0.00070   0.00000  -0.00070   1.06155
   D22        3.14107   0.00001   0.00017   0.00000   0.00017   3.14124
   D23       -1.06339   0.00011   0.00074   0.00000   0.00074  -1.06266
   D24       -2.07932  -0.00011  -0.00077   0.00000  -0.00077  -2.08010
   D25       -0.00050   0.00001   0.00010   0.00000   0.00010  -0.00041
   D26        2.07822   0.00011   0.00066   0.00000   0.00066   2.07888
   D27        0.00002  -0.00000  -0.00001   0.00000  -0.00001   0.00001
   D28        3.14159  -0.00000   0.00003   0.00000   0.00003  -3.14157
   D29        3.14156  -0.00000  -0.00005   0.00000  -0.00005   3.14151
   D30       -0.00006  -0.00000  -0.00000   0.00000  -0.00000  -0.00006
   D31       -3.14153  -0.00000  -0.00011   0.00000  -0.00011   3.14155
   D32       -0.00011   0.00001   0.00005   0.00000   0.00005  -0.00006
   D33        0.00012  -0.00000  -0.00007   0.00000  -0.00007   0.00005
   D34        3.14154   0.00002   0.00008   0.00000   0.00008  -3.14156
   D35        3.14150   0.00001   0.00004   0.00000   0.00004   3.14155
   D36        0.00008  -0.00001  -0.00011   0.00000  -0.00011  -0.00002
         Item               Value     Threshold  Converged?
 Maximum Force            0.005388     0.000450     NO 
 RMS     Force            0.001240     0.000300     NO 
 Maximum Displacement     0.019138     0.001800     NO 
 RMS     Displacement     0.005295     0.001200     NO 
 Predicted change in Energy=-1.336916D-05
 GradGradGradGradGradGradGradGradGradGradGradGradGradGradGradGradGradGrad

                          Input orientation:                          
 ---------------------------------------------------------------------
 Center     Atomic      Atomic             Coordinates (Angstroms)
 Number     Number       Type             X           Y           Z
 ---------------------------------------------------------------------
      1          6           0       -1.934328   -1.471855   -0.000102
      2          6           0       -2.616315   -0.258281    0.000026
      3          6           0       -1.909435    0.945223    0.000082
      4          6           0       -0.527591    0.909123    0.000017
[...]
 000008,0.0000004,-0.0583084,-0.2852052,-0.1195142,-0.0000022,-0.186497
 2,-0.0256166,-0.00001,0.0000045,-0.0000096,-0.0879757,0.4493157,0.1925
 054,0.0000221,-0.0103405,0.4236054,0.0000106,0.0000161,-0.0000079,-0.0
 424216,-0.7720268,-0.0352956,-0.0000058,0.0674492,-0.090492,-0.000001,
 -0.000036,0.0000012,0.0025795,0.1073479,-0.1235741,0.0000113,0.065297,
 0.0249986,-0.0000018,-0.0000378,-0.0000005,-0.0498044,2.0946818,-0.026
 9485,-0.0000027,-0.1968638,1.7859349,-0.0000635,-0.0000265,-0.0000915,
 0.3653155,-0.8816362,0.5129253,-0.0000177,0.5772169,-1.0435637,0.00002
 77,0.0000162,-0.0000533,-0.3227219,-0.4563931,0.1642173,-0.0000255,-0.
 0421887,-0.5005625,-0.0000138,-0.0000816,0.0000599,-0.0316479,-1.11605
 26,-0.2167568,0.0000156,-0.1376439,-1.2112648,0.0000007,0.0001233,0.00
 00589,-0.3429744,0.0692924,-0.0234894,-0.0000007,-0.0288096,0.0426407,
 0.0000014,0.0000007,-0.0000027,0.1423182,0.0360755,0.0029181,-0.000003
 5,0.0053263,0.0881033,0.0000008,-0.0000032,0.000002,0.1393074,0.093473
 6,0.0135578,-0.0000019,0.0195776,-0.0064338,0.0000024,0.0000014,-0.000
 0005,0.1492452,0.0949488,0.0148193,-0.0000023,0.0162057,0.0848481,0.00
 00018,0.0000046,0.0000004,0.1370669,0.439509,-0.1223794,0.0000014,-0.1
 357744,0.3174706,0.0000094,0.000007,0.0000087,0.3595656,0.1955441,-0.0
 110847,0.0126737,-0.014434,0.243612,0.048669,0.0200022,0.0766317,0.256
 3765,0.6392064,-0.3913899,-0.0000008,-0.2248249,0.5249182,0.0000445,0.
 0000091,0.0000484,0.1962614,0.195561,-0.0111017,-0.0126629,-0.0144389,
 0.243594,-0.048679,-0.0200022,-0.0766498,0.2563923\Polar=117.6730418,0
 .7539058,102.3768606,0.0000847,-0.0011316,49.3592271\PG=C01 [X(C7H8N1O
 2)]\NImag=0\\0.68426739,0.03931202,0.72816719,0.00001559,-0.00001300,0
 .13877988,-0.18152570,0.11809578,-0.00000719,0.74683387,0.05520655,-0.
 28863447,0.00000767,-0.00501114,0.65598906,-0.00000606,0.00001020,-0.0
 6425564,0.00002002,-0.00001298,0.14138069,0.06536365,-0.02211503,0.000
 00255,-0.18059498,-0.05344664,-0.00000206,0.68887750,0.01639343,-0.054
 27335,0.00000179,-0.11984284,-0.27649240,0.00000103,-0.03845583,0.7253
 4054,0.00000199,0.00000083,0.00613318,-0.00000135,0.00000268,-0.062301
 29,0.00002013,-0.00001148,0.12950281,-0.05289161,0.02971894,-0.0000024
 3,-0.02855194,-0.08491115,0.00000036,-0.33922078,0.06357398,-0.0000108
 8,0.69664933,0.03030880,-0.01812106,0.00000164,-0.02823987,0.03208142,
 -0.00000129,-0.01650494,-0.12261409,0.00000013,-0.04924265,0.59471042,
 -0.00000243,0.00000131,-0.00450096,-0.00000043,-0.00000347,0.00301150,
 -0.00001062,0.00000313,-0.06056904,0.00002144,-0.00000517,0.15682391,-
 0.02817295,-0.02740327,-0.00000110,0.00055267,0.00694137,0.00000028,-0
 .03484684,0.01983163,-0.00000241,-0.16723641,0.11089494,-0.00000526,0.
 63632172,-0.06862535,0.03301929,-0.00000280,-0.00239312,-0.06167299,0.
 00000092,0.07022191,0.02577374,0.00000289,0.05008051,-0.24356578,0.000
 00301,0.00746986,0.68402370,0.00000101,-0.00000266,0.00673513,0.000000
 17,0.00000147,-0.00518457,-0.00000295,0.00000089,0.00909360,-0.0000046
 1,0.00000691,-0.05597460,0.00000731,-0.00001035,0.13474023,-0.33741904
 ,-0.02996975,-0.00000655,-0.02431609,0.07290322,-0.00000241,-0.0485728
 0,-0.02052330,-0.00000116,0.06111875,-0.02893517,0.00000257,-0.1681486
 1,-0.05097078,-0.00000461,0.68939836,0.03354049,-0.13215158,0.00000270
 ,0.03420251,0.03249578,0.00000086,-0.02962579,-0.01318435,-0.00000128,
 0.02129394,-0.05773891,0.00000256,-0.10629005,-0.26945112,0.00000188,-
 0.04619627,0.71394795,-0.00000860,0.00000067,-0.06536208,-0.00000180,0
 .00000188,0.00624810,-0.00000091,-0.00000044,-0.00440858,0.00000147,-0
 .00000055,0.00370729,-0.00000232,0.00000352,-0.06198286,0.00001604,-0.
 00001221,0.14225794,0.00329639,-0.00269225,0.00000079,-0.00015710,-0.0
 0519810,0.00000012,0.01168380,0.00510677,0.00000107,-0.02359430,0.0290
 1403,-0.00000072,-0.18678962,0.00276217,-0.00000904,-0.02142111,-0.017
 52166,0.00000082,0.69606919,-0.00461166,-0.00608769,0.00000009,-0.0004
 8211,-0.00371610,0.00000003,0.00497850,-0.00668285,0.00000083,0.032540
 12,0.01442486,0.00000147,0.01132300,-0.10162795,-0.00000155,-0.0270982
 5,0.01108713,-0.00000154,0.10355855,0.85048521,-0.00000089,0.00000009,
 0.00864752,0.00000045,-0.00000019,-0.00140588,-0.00000036,0.00000072,0
 .00622393,-0.00000120,-0.00000252,-0.00171902,0.00000254,-0.00000260,-
 0.07661877,0.00000044,0.00000143,-0.00035783,-0.00006036,-0.00005599,0
 .20822006,0.00111502,0.00060688,0.00000009,-0.00013827,0.00223845,-0.0
 0000008,-0.00334270,0.00119906,-0.00000037,-0.00464214,-0.00857649,0.0
 0000005,-0.03223277,0.04492613,0.00000256,-0.00422272,0.00234112,-0.00
 000013,-0.17538129,0.10425068,0.00000843,0.66431334,0.00058967,0.00054
 561,0.00000012,-0.00020069,-0.00111814,-0.00000002,0.00202433,0.001912
 72,0.00000020,-0.00383337,0.00118221,-0.00000036,0.01901157,-0.0056828
 1,-0.00000208,-0.00245453,-0.00460880,0.00000064,0.06691727,-0.2840482
 6,-0.00000260,-0.05663987,0.44544891,0.00000011,0.00000009,-0.00054841
 ,-0.00000006,-0.00000010,-0.00004269,0.00000017,-0.00000019,-0.0006901
 4,0.00000008,0.00000053,0.00197658,-0.00000087,-0.00000106,0.01013670,
 0.00000050,-0.00000035,0.00026408,0.00000913,-0.00001157,-0.06519316,-
 0.00005158,-0.00000439,0.04122372,0.00095707,-0.00062925,0.00000028,-0
 .00708573,0.00564086,-0.00000033,-0.01997185,-0.04769014,-0.00000086,-
 0.11994595,-0.02213608,-0.00000147,0.01401757,0.00649921,0.00000057,-0
 .00044699,0.00098759,-0.00000050,-0.02223938,-0.01560972,0.00000449,0.
 00261984,0.00863099,-0.00000125,0.54831043,0.00200766,-0.00153205,0.00
 000001,0.00047651,0.00602866,-0.00000072,-0.00937146,-0.00902073,-0.00
 000088,-0.03255848,-0.15508402,-0.00000117,-0.02279556,-0.03051522,-0.
 00000123,0.00527880,-0.00388166,0.00000017,0.00154716,0.00604461,-0.00
 000081,-0.00001538,-0.00345203,0.00000043,-0.08923944,0.58620514,0.000
 00006,0.00000017,-0.00134415,-0.00000084,0.00000036,0.00712756,-0.0000
 0129,-0.00000300,0.00197775,-0.00000156,-0.00000145,-0.07202547,-0.000
 00041,-0.00000022,-0.00129595,0.00000038,-0.00000010,0.00761073,-0.000
 00116,-0.00000164,-0.00263278,-0.00000042,0.00000055,-0.00119112,-0.00
 003289,-0.00000253,0.69906773,-0.00217653,-0.00162713,-0.00000066,0.00
 022410,0.00017601,0.00000012,-0.00198266,-0.00148481,0.00000023,0.0056
 3866,-0.00434109,0.00000012,-0.03312371,-0.04351611,0.00000982,-0.0049
 7404,0.00747698,0.00000035,-0.28752553,-0.24052607,0.00005080,0.035808
 45,0.00578442,-0.00000076,-0.01678264,0.02188269,0.00000597,0.32672658
 ,-0.00156869,0.00157105,-0.00000048,0.00044514,0.00101248,-0.00000006,
 -0.00294458,0.00172051,-0.00000077,-0.00142685,-0.01883613,-0.00000045
 ,-0.03011996,-0.00536278,0.00000593,0.00111637,0.00450675,-0.00000027,
 -0.22422971,-0.44803053,0.00006545,-0.01771479,-0.11133414,0.00001272,
 0.04471766,-0.01700905,-0.00000140,0.26646550,0.56652193,0.00000020,0.
 00000046,-0.00187783,-0.00000022,-0.00000026,0.00030242,0.00000075,0.0
 0000048,-0.00053306,-0.00000097,0.00000010,-0.00025736,0.00000180,0.00
 000514,0.01974150,0.00000066,-0.00000097,0.00304659,0.00005857,0.00007
 350,-0.07566374,-0.00000072,0.00000352,0.02740999,0.00000678,-0.000005
 11,0.00952047,-0.00006219,-0.00008463,0.03744031,-0.13316794,-0.124882
 33,0.00000030,0.01220859,0.01567014,-0.00000017,-0.00082071,0.00349716
 ,-0.00000032,-0.00101294,0.00105188,-0.00000009,-0.00496722,0.00097036
 ,-0.00000055,-0.01193611,-0.02753846,0.00000015,0.00050170,-0.00150144
 ,-0.00000014,-0.00014506,0.00021653,0.00000005,0.00027774,-0.00010467,
 0.00000006,-0.00078815,-0.00028509,0.00000014,0.13792563,-0.12504496,-
 0.27049527,0.00000159,-0.01476702,-0.01777816,0.00000005,0.00308824,-0
 .00291970,0.00000035,0.00115142,0.00012253,0.00000005,0.00121183,0.001
 40321,0.00000025,0.00294797,0.00569564,0.00000004,0.00015199,0.0003104
 2,0.00000006,-0.00002994,-0.00000885,0.,-0.00025307,0.00003919,-0.0000
 0008,0.00013006,0.00004187,-0.00000004,0.13215017,0.28288454,0.0000002
 2,0.00000139,-0.04087259,0.00000067,0.00000123,0.00441387,-0.00000050,
 0.00000043,0.00733379,-0.00000007,-0.00000004,-0.00020036,-0.00000030,
 -0.00000012,0.00728740,-0.00000048,-0.00000084,0.00418184,-0.00000006,
 0.00000004,0.00030053,0.,0.,0.00001405,-0.00000002,0.00000007,-0.00106
 046,-0.00000006,0.00000005,-0.00027197,0.00000022,-0.00000202,0.027177
 42,-0.00886082,-0.00196715,-0.00000039,-0.34426342,0.00468742,-0.00000
 936,-0.00987292,0.00193507,-0.00000050,0.00092389,-0.00207488,-0.00000
 014,0.00092516,0.00018095,0.00000003,0.00023154,0.00239796,-0.00000025
 ,-0.00039489,0.00003864,0.00000003,0.00002253,-0.00005595,-0.00000001,
 -0.00065776,0.00010797,-0.00000007,0.00005211,0.00014167,0.00000002,0.
 00069036,0.00000491,0.00000013,0.36082193,0.02820723,0.00456521,0.0000
 0090,0.00517671,-0.05966872,0.00000069,-0.02855738,0.00345271,-0.00000
 083,-0.00166796,-0.00368581,0.00000021,-0.00001569,-0.00121567,0.00000
 003,0.00273405,-0.00469854,0.00000040,-0.00019113,-0.00034379,-0.00000
 001,0.00006636,0.00015950,0.,-0.00219311,-0.00030611,-0.00000018,0.000
 04953,0.00040073,0.00000002,-0.00035736,0.00089036,-0.00000014,-0.0049
 6884,0.05961551,-0.00000105,-0.00000025,0.00566625,-0.00000924,0.00000
 071,-0.04160137,0.00000031,0.00000010,0.00452148,-0.00000034,0.0000001
 6,0.00713343,0.00000022,0.00000002,-0.00098943,-0.00000051,0.00000034,
 0.00742224,-0.00000017,-0.00000005,-0.00111390,0.,-0.00000003,0.000191
 47,0.00000011,0.00000011,0.00014157,-0.00000003,0.00000009,0.00014387,
 0.00000014,-0.00000010,-0.00396066,0.00001036,-0.00000102,0.02691205,-
 0.00143406,-0.00336648,-0.00000014,0.01285937,-0.01554807,0.00000054,-
 0.12739572,0.11947408,-0.00000497,-0.01112066,0.02839525,-0.00000093,-
 0.00491056,-0.00196313,-0.00000043,-0.00044031,-0.00072073,0.00000001,
 0.00071141,0.00169540,-0.00000019,-0.00071015,-0.00006770,0.00000009,0
 .00316561,0.00019026,0.00000065,0.00006060,-0.00086800,-0.00000007,0.0
 0046319,-0.00074117,0.00000005,0.00068706,0.00030195,0.00000012,0.1305
 6986,-0.00372754,-0.00283465,0.00000007,0.01491606,-0.01826196,0.00000
 087,0.11981032,-0.26940426,0.00000736,-0.00316388,0.00236665,-0.000000
 13,-0.00065667,0.00144462,0.00000003,-0.00098013,-0.00003144,-0.000000
 08,-0.00060283,-0.00003912,0.00000006,-0.00001213,0.00005672,0.0000000
 1,-0.00015819,0.00145301,-0.00000014,0.00008579,0.00029857,-0.00000004
 ,0.00081327,-0.00079826,0.00000006,0.00004862,0.00101730,-0.00000008,-
 0.12720460,0.28418617,0.,-0.00000007,0.00682399,0.00000018,0.00000029,
 0.00404015,-0.00000519,0.00000707,-0.03604602,-0.00000031,0.00000041,0
 .00346714,-0.00000051,0.00000031,0.00610744,-0.00000016,-0.00000026,-0
 .00127303,-0.00000003,0.,0.00137468,-0.00000002,0.,-0.00023262,0.00000
 007,0.00000062,-0.00363760,0.,0.00000007,-0.00013595,0.00000001,-0.000
 00002,-0.00014025,0.00000014,-0.00000009,-0.00388565,0.00000555,-0.000
 00811,0.02476896,-0.00950579,0.02714017,-0.00000103,-0.00547393,-0.000
 51073,-0.00000030,-0.00086032,-0.00091613,-0.00000001,-0.00146461,-0.0
 0223701,-0.00000006,0.01152868,-0.01591233,0.00000059,-0.12697228,0.12
 412629,-0.00000422,0.00175554,-0.00183822,0.00000016,-0.00359026,-0.00
 017389,0.00000013,-0.00011261,-0.00155374,-0.00000019,0.00000986,0.001
 30465,-0.00000005,0.00102038,-0.00017073,0.00000009,-0.00041050,0.0012
 3829,-0.00000002,0.00004235,0.00007581,0.00000001,0.13342290,-0.002489
 30,0.00598124,-0.00000018,-0.00106746,0.00101999,0.00000004,-0.0002830
 9,0.00034831,-0.00000004,-0.00354462,-0.00127238,-0.00000002,0.0127632
 8,-0.01885501,0.00000073,0.12198694,-0.27832646,0.00000748,0.00150808,
 -0.00222664,-0.00000006,0.00077042,0.00114488,0.,0.00022006,-0.0009964
 7,-0.00000006,-0.00001991,0.00109408,-0.00000001,0.00012615,0.00062240
 ,-0.00000005,-0.00025164,0.00018882,-0.00000002,0.00007326,-0.00000139
 ,0.,-0.13013808,0.29116680,-0.00000034,0.00000097,0.00585495,-0.000000
 45,0.00000026,0.00724046,-0.00000008,-0.00000012,-0.00116578,0.0000000
 1,0.00000006,0.00576486,0.00000077,0.00000057,0.00351910,-0.00000443,0
 .00000624,-0.04048186,-0.00000057,-0.00000017,-0.00412730,0.00000005,-
 0.00000014,0.00038203,-0.00000021,0.00000010,0.00100470,0.00000017,0.0
 0000024,0.00063876,0.00000017,-0.00000015,-0.00411260,0.,0.00000003,-0
 .00056333,0.,-0.00000001,-0.00062166,0.00000486,-0.00000787,0.02681395
 ,-0.00010678,-0.00013548,-0.00000004,0.00004846,-0.00035105,0.00000004
 ,0.00060754,0.00052627,-0.00000004,-0.00113807,-0.00008968,0.00000008,
 0.00227672,0.00191261,0.00000080,0.00063602,-0.00011783,0.00000006,-0.
 02649238,0.01104604,0.00000135,-0.47699032,-0.02638654,0.00004181,0.00
 126004,-0.00049619,0.00000019,0.00165698,-0.01002079,-0.00000006,0.000
 01030,0.00000295,0.,-0.00000482,-0.00001552,0.,-0.00003712,-0.00000657
 ,-0.00000002,-0.00006865,-0.00011180,-0.00000003,0.49996919,-0.0000860
 9,0.00036024,-0.00000003,-0.00016325,0.00000011,0.,-0.00003503,-0.0005
 2956,0.00000003,0.00155785,0.00082209,0.00000003,0.00095872,-0.0059692
 4,0.00000017,-0.00083064,-0.00039232,0.,0.05589138,0.00265726,-0.00000
 537,-0.07375049,-0.05130889,0.00000522,-0.00141085,0.00066137,0.,-0.00
 698130,0.00292643,0.00000108,-0.00002018,0.00000914,0.,-0.00001138,0.0
 0003102,0.,0.00012667,0.00000994,0.,0.00027595,0.00070850,0.,0.0227207
 5,0.05168671,0.00000003,0.00000003,0.00002796,-0.00000002,0.00000008,0
 .00008818,-0.00000010,-0.00000010,-0.00028618,0.00000012,-0.00000002,0
 .00074248,-0.00000086,0.00000011,0.00492040,-0.00000016,0.,-0.00022688
 ,0.00000517,-0.00000160,0.00358045,0.00004100,0.00000205,-0.01624161,0
 .00000013,-0.00000005,0.00020647,-0.00000090,0.00000006,-0.00577223,0.
 ,0.,0.00002599,0.,0.,-0.00002352,0.,0.,-0.00015120,0.00000002,0.000000
 06,-0.00018781,-0.00004433,-0.00000068,0.01332117,0.00055912,-0.000488
 08,-0.00019615,-0.00008722,0.00056431,0.00067907,0.00057605,-0.0016242
 6,0.00026661,0.00483588,-0.01101493,-0.01606711,-0.00129345,-0.0001238
 2,-0.00109954,-0.00073701,-0.00058977,0.00080018,-0.00073581,-0.000707
 06,-0.00041113,0.00003805,0.00033767,0.00054850,-0.06880886,0.04067686
 ,0.06024016,-0.00267517,0.00255269,-0.00228257,-0.00002650,0.00006765,
 -0.00008433,-0.00001553,-0.00000582,-0.00000070,-0.00084525,0.00033240
 ,-0.00044579,-0.00006688,-0.00007978,0.00016609,0.00004156,-0.00003950
 ,-0.00000241,0.06485948,-0.00030370,0.00036098,-0.00023908,0.00008654,
 -0.00117895,0.00117344,0.00151145,0.00235141,0.00033237,0.00477930,-0.
 02066558,-0.01943774,-0.00280560,-0.00128731,-0.00105989,0.00066887,-0
 .00060388,0.00108393,-0.00036748,-0.00095318,-0.00062202,-0.00014276,0
 .00050915,-0.00008917,0.04039655,-0.15694543,-0.15593982,0.00032838,0.
 00085864,0.00050242,-0.00002446,0.00002511,-0.00019777,0.00002176,0.00
 008988,-0.00000645,-0.00032065,0.00027581,-0.00079512,-0.00017610,-0.0
 0016061,0.00020164,0.00011417,-0.00006174,0.00000360,-0.03947442,0.166
 93335,-0.00031220,0.00044661,0.00001306,-0.00001032,-0.00055316,0.0002
 6533,0.00080020,0.00115203,0.00041561,-0.00415588,-0.00129408,0.006578
 84,0.00036317,0.00140938,-0.00038377,0.00017759,0.00048014,-0.00018552
 ,0.00054980,-0.00078070,0.00035761,-0.00034670,0.00062268,-0.00001069,
 0.05645007,-0.14729549,-0.28818303,-0.00142116,0.00146962,-0.00057902,
 -0.00001239,0.00001730,-0.00005484,0.00004546,0.00007562,0.00002197,-0
 .00031406,-0.00010532,-0.00013390,0.00005895,0.00009530,0.00001991,0.0
 0010585,-0.00005855,0.00005451,-0.06381441,0.16218324,0.30278104,-0.00
 085650,0.00089034,-0.00000001,-0.00044534,0.00038430,-0.00000020,-0.00
 020174,0.00062410,-0.00000036,-0.02317397,-0.01525917,-0.00000286,-0.0
 0260705,-0.00139675,-0.00000068,-0.00104047,0.00282323,-0.00000031,0.0
 3144621,0.02364888,-0.00000580,-0.00255899,-0.01403678,0.00000276,-0.2
 4579169,0.04335527,-0.00004723,-0.01747651,-0.03011367,-0.00000681,-0.
 00020674,0.00003206,0.00000005,0.00014161,0.00020452,0.00000005,-0.000
 82050,0.00009803,0.00000003,0.00081293,0.00061718,0.00000001,-0.001710
 16,0.00183671,-0.00000010,0.00246470,0.00133158,0.00346644,0.25954879,
 0.00119503,-0.00080147,-0.00000005,-0.00131829,0.00107335,0.00000041,-
 0.00180636,-0.00812892,-0.00000046,-0.02911644,0.01653475,-0.00000617,
 0.00248481,0.00082837,0.00000011,-0.00034562,-0.00206029,0.00000054,-0
 .01528547,-0.03029888,0.00000188,0.00062530,0.01009277,-0.00000146,0.0
 3189801,-0.06478933,0.00001189,-0.00421111,0.01875991,0.00000759,0.000
 24278,-0.00006928,-0.00000008,-0.00025688,-0.00058222,0.00000006,0.000
 86416,-0.00001339,-0.00000012,-0.00035821,-0.00027549,0.,0.00129446,-0
 .00154927,0.00000009,0.01523307,-0.00451235,0.00012718,-0.01636863,0.0
 7030332,0.00000010,-0.00000005,0.00006668,0.00000008,0.00000015,0.0004
 0789,0.00000028,-0.00000009,0.00038269,-0.00000095,0.00000017,-0.00054
 359,0.00000062,0.00000071,0.00053192,0.00000011,-0.00000002,-0.0002743
 7,-0.00000261,-0.00000134,-0.00022973,0.00000091,0.00000253,0.00256256
 ,-0.00005331,0.00001575,-0.06701483,-0.00000156,0.00000208,-0.01257323
 ,0.00000003,0.,-0.00000633,0.,-0.00000001,-0.00003849,-0.00000002,0.00
 000005,-0.00019056,0.,0.,0.00000169,0.00000021,-0.00000038,-0.00013275
 ,0.03006198,-0.00507717,0.00265638,0.00006091,-0.00002046,0.07174970,0
 .00055908,-0.00048793,0.00019610,-0.00008733,0.00056425,-0.00067956,0.
 00057549,-0.00162424,-0.00026681,0.00482689,-0.01101295,0.01606785,-0.
 00129333,-0.00012231,0.00109957,-0.00073708,-0.00058955,-0.00080004,-0
 .00073282,-0.00070527,0.00041138,0.00003744,0.00033687,-0.00054879,-0.
 06876486,0.04061174,-0.06016141,-0.00267243,0.00254844,0.00228474,-0.0
 0002650,0.00006763,0.00008439,-0.00001553,-0.00000583,0.00000074,-0.00
 084512,0.00033224,0.00044604,-0.00006680,-0.00007969,-0.00016604,0.000
 04150,-0.00003932,0.00000240,0.00191683,-0.00562341,0.00836959,0.00247
 543,0.01522938,-0.03006679,0.06480912,-0.00030359,0.00036079,0.0002390
 5,0.00008654,-0.00117897,-0.00117350,0.00151137,0.00235027,-0.00033192
 ,0.00476933,-0.02066118,0.01944290,-0.00280422,-0.00128703,0.00105936,
 0.00066823,-0.00060389,-0.00108416,-0.00036878,-0.00095450,0.00062247,
 -0.00014253,0.00050944,0.00008929,0.04032892,-0.15689988,0.15593766,0.
 00032817,0.00085968,-0.00050322,-0.00002445,0.00002511,0.00019779,0.00
 002173,0.00008981,0.00000641,-0.00032050,0.00027570,0.00079504,-0.0001
 7599,-0.00016057,-0.00020163,0.00011419,-0.00006180,-0.00000361,-0.005
 61720,0.01496470,-0.01799181,0.00132881,-0.00451156,0.00507806,-0.0394
 0004,0.16688389,0.00031228,-0.00044680,0.00001307,0.00001032,0.0005533
 8,0.00026527,-0.00080034,-0.00115223,0.00041523,0.00415573,0.00129501,
 0.00658434,-0.00036265,-0.00140944,-0.00038347,-0.00017783,-0.00048013
 ,-0.00018579,-0.00055074,0.00078019,0.00035732,0.00034693,-0.00062267,
 -0.00001075,-0.05637165,0.14729075,-0.28827159,0.00141975,-0.00146826,
 -0.00057954,0.00001239,-0.00001727,-0.00005483,-0.00004546,-0.00007562
 ,0.00002201,0.00031378,0.00010540,-0.00013393,-0.00005895,-0.00009529,
 0.00001994,-0.00010587,0.00005851,0.00005454,-0.00835844,0.01798360,-0
 .02363351,-0.00346589,-0.00012095,0.00264436,0.06372663,-0.16217817,0.
 30287734\\-0.00000392,-0.00000109,0.00000115,-0.00000239,0.00000242,-0
 .00000010,0.00000333,0.00001294,-0.00000066,0.00001638,-0.00002457,-0.
 00000120,-0.00005672,-0.00002318,-0.00001099,0.00000302,0.00002096,0.0
 0000005,0.00007141,0.00005647,0.00003787,-0.00001995,0.00000876,-0.000
 01061,0.00003922,-0.00000218,-0.00001130,0.00002193,-0.00003974,-0.000
 02051,-0.00000241,-0.00000446,-0.00000004,-0.00000448,0.00000551,0.000
 00015,-0.00000496,0.00000749,0.00000015,0.00000353,-0.00000446,-0.0000
 0055,0.00001344,-0.00000623,0.00000001,0.00000098,0.00000281,0.0000125
 6,-0.00007281,-0.00001526,0.00001523,-0.00000562,0.00000380,-0.0000112
 1\\\@


 HEAVEN'S NET CASTS WIDE.
 THOUGH ITS MESHES ARE COARSE, NOTHING SLIPS THROUGH.

                                          -- LAO-TSU
 Job cpu time:       0 days  0 hours 33 minutes 37.8 seconds.
 File lengths (MBytes):  RWF=    125 Int=      0 D2E=      0 Chk=      6 Scr=      1
 Normal termination of Gaussian 09 at Sat Jun 22 17:10:34 2024.
