 Entering Gaussian System, Link 0=g09
 Input=m062x6311Anthranilic.gjf
 Output=m062x6311Anthranilic.log
 Initial command:
 /home/phzd/g09E/g09/l1.exe "/home/phzd/g09E/scratch/Gau-163579.inp" -scrdir="/home/phzd/g09E/scratch/"
 Default is to use a total of  18 processors:
                               18 via shared-memory
                                1 via Linda
 Entering Link 1 = /home/phzd/g09E/g09/l1.exe PID=    163581.
  
 Copyright (c) 1988,1990,1992,1993,1995,1998,2003,2009,2015,
            Gaussian, Inc.  All Rights Reserved.
  
 This is part of the Gaussian(R) 09 program.  It is based on
 the Gaussian(R) 03 system (copyright 2003, Gaussian, Inc.),
 the Gaussian(R) 98 system (copyright 1998, Gaussian, Inc.),
 the Gaussian(R) 94 system (copyright 1995, Gaussian, Inc.),
 the Gaussian 92(TM) system (copyright 1992, Gaussian, Inc.),
 the Gaussian 90(TM) system (copyright 1990, Gaussian, Inc.),
 the Gaussian 88(TM) system (copyright 1988, Gaussian, Inc.),
 the Gaussian 86(TM) system (copyright 1986, Carnegie Mellon
 University), and the Gaussian 82(TM) system (copyright 1983,
 Carnegie Mellon University). Gaussian is a federally registered
 trademark of Gaussian, Inc.
  
 This software contains proprietary and confidential information,
 including trade secrets, belonging to Gaussian, Inc.
  
 This software is provided under written license and may be
 used, copied, transmitted, or stored only in accord with that
 written license.
  
 The following legend is applicable only to US Government
 contracts under FAR:
  
                    RESTRICTED RIGHTS LEGEND
  
 Use, reproduction and disclosure by the US Government is
 subject to restrictions as set forth in subparagraphs (a)
 and (c) of the Commercial Computer Software - Restricted
 Rights clause in FAR 52.227-19.
  
 Gaussian, Inc.
 340 Quinnipiac St., Bldg. 40, Wallingford CT 06492
  
  
 ---------------------------------------------------------------
 Warning -- This program may not be used in any manner that
 competes with the business of Gaussian, Inc. or will provide
 assistance to any competitor of Gaussian, Inc.  The licensee
 of this program is prohibited from giving any competitor of
 Gaussian, Inc. access to this program.  By using this program,
 the user acknowledges that Gaussian, Inc. is engaged in the
 business of creating and licensing software in the field of
 computational chemistry and represents and warrants to the
 licensee that it is not a competitor of Gaussian, Inc. and that
 it will not use this program in any manner prohibited above.
 ---------------------------------------------------------------
  

 Cite this work as:
 Gaussian 09, Revision E.01,
 M. J. Frisch, G. W. Trucks, H. B. Schlegel, G. E. Scuseria, 
 M. A. Robb, J. R. Cheeseman, G. Scalmani, V. Barone, B. Mennucci, 
 G. A. Petersson, H. Nakatsuji, M. Caricato, X. Li, H. P. Hratchian, 
 A. F. Izmaylov, J. Bloino, G. Zheng, J. L. Sonnenberg, M. Hada, 
 M. Ehara, K. Toyota, R. Fukuda, J. Hasegawa, M. Ishida, T. Nakajima, 
 Y. Honda, O. Kitao, H. Nakai, T. Vreven, J. A. Montgomery, Jr., 
 J. E. Peralta, F. Ogliaro, M. Bearpark, J. J. Heyd, E. Brothers, 
 K. N. Kudin, V. N. Staroverov, T. Keith, R. Kobayashi, J. Normand, 
 K. Raghavachari, A. Rendell, J. C. Burant, S. S. Iyengar, J. Tomasi, 
 M. Cossi, N. Rega, J. M. Millam, M. Klene, J. E. Knox, J. B. Cross, 
 V. Bakken, C. Adamo, J. Jaramillo, R. Gomperts, R. E. Stratmann, 
 O. Yazyev, A. J. Austin, R. Cammi, C. Pomelli, J. W. Ochterski, 
 R. L. Martin, K. Morokuma, V. G. Zakrzewski, G. A. Voth, 
 P. Salvador, J. J. Dannenberg, S. Dapprich, A. D. Daniels, 
 O. Farkas, J. B. Foresman, J. V. Ortiz, J. Cioslowski, 
 and D. J. Fox, Gaussian, Inc., Wallingford CT, 2013.
 
 ******************************************
 Gaussian 09:  ES64L-G09RevE.01 30-Nov-2015
                22-Jun-2024 
 ******************************************
 %chk=m062x6311Anthranilic.chk
 -----------------------------
 # opt freq b3lyp/6-311+g(d,p)
 -----------------------------
 1/14=-1,18=20,19=15,26=3,38=1/1,3;
 2/9=110,12=2,17=6,18=5,40=1/2;
 3/5=4,6=6,7=111,11=2,16=1,25=1,30=1,71=1,74=-5/1,2,3;
 4//1;
 5/5=2,38=5/2;
 6/7=2,8=2,9=2,10=2,28=1/1;
 7//1,2,3,16;
 1/14=-1,18=20,19=15,26=3/3(2);
 2/9=110/2;
 99//99;
 2/9=110/2;
 3/5=4,6=6,7=111,11=2,16=1,25=1,30=1,71=1,74=-5/1,2,3;
 4/5=5,16=3,69=1/1;
 5/5=2,38=5/2;
 7//1,2,3,16;
 1/14=-1,18=20,19=15,26=3/3(-5);
 2/9=110/2;
 6/7=2,8=2,9=2,10=2,19=2,28=1/1;
 99/9=1/99;
 ----------
 [No Title]
 ----------
 Symbolic Z-matrix:
 Charge =  0 Multiplicity = 1
 C                    -1.85922  -1.52339  -0.00002 
 C                    -2.58942  -0.32163   0.00022 
 C                    -1.94402   0.90306   0.0002 
 C                    -0.52993   0.98772  -0.00006 
 C                     0.2135   -0.23165  -0.00031 
 C                    -0.47524  -1.46411  -0.00026 
 C                     1.67932  -0.20226  -0.00059 
 O                     2.26063  -1.43192   0.00033 
 N                     0.07582   2.20817  -0.00011 
 O                     2.38053   0.80802   0.00027 
 H                    -2.36991  -2.48036  -0.00001 
 H                    -3.67574  -0.34762   0.00042 
 H                    -2.52086   1.82439   0.00038 
 H                     0.10944  -2.37662  -0.00044 
 H                     3.21937  -1.27704   0.00085 
 H                     1.08639   2.25698  -0.0004 
 H                    -0.47851   3.04778   0.00005 
 

 GradGradGradGradGradGradGradGradGradGradGradGradGradGradGradGradGradGrad
 Berny optimization.
 Initialization pass.
                           ----------------------------
                           !    Initial Parameters    !
                           ! (Angstroms and Degrees)  !
 --------------------------                            --------------------------
 ! Name  Definition              Value          Derivative Info.                !
 --------------------------------------------------------------------------------
 ! R1    R(1,2)                  1.4062         estimate D2E/DX2                !
 ! R2    R(1,6)                  1.3852         estimate D2E/DX2                !
 ! R3    R(1,11)                 1.0847         estimate D2E/DX2                !
 ! R4    R(2,3)                  1.3843         estimate D2E/DX2                !
 ! R5    R(2,12)                 1.0866         estimate D2E/DX2                !
 ! R6    R(3,4)                  1.4166         estimate D2E/DX2                !
 ! R7    R(3,13)                 1.087          estimate D2E/DX2                !
 ! R8    R(4,5)                  1.4281         estimate D2E/DX2                !
 ! R9    R(4,9)                  1.3625         estimate D2E/DX2                !
 ! R10   R(5,6)                  1.4119         estimate D2E/DX2                !
 ! R11   R(5,7)                  1.4661         estimate D2E/DX2                !
 ! R12   R(6,14)                 1.0838         estimate D2E/DX2                !
 ! R13   R(7,8)                  1.3601         estimate D2E/DX2                !
 ! R14   R(7,10)                 1.2298         estimate D2E/DX2                !
 ! R15   R(8,15)                 0.9712         estimate D2E/DX2                !
 ! R16   R(9,16)                 1.0118         estimate D2E/DX2                !
 ! R17   R(9,17)                 1.0061         estimate D2E/DX2                !
 ! A1    A(2,1,6)              118.8307         estimate D2E/DX2                !
 ! A2    A(2,1,11)             120.6302         estimate D2E/DX2                !
 ! A3    A(6,1,11)             120.5391         estimate D2E/DX2                !
 ! A4    A(1,2,3)              120.9276         estimate D2E/DX2                !
 ! A5    A(1,2,12)             119.9125         estimate D2E/DX2                !
 ! A6    A(3,2,12)             119.1599         estimate D2E/DX2                !
 ! A7    A(2,3,4)              121.2151         estimate D2E/DX2                !
 ! A8    A(2,3,13)             120.1599         estimate D2E/DX2                !
 ! A9    A(4,3,13)             118.625          estimate D2E/DX2                !
 ! A10   A(3,4,5)              117.9442         estimate D2E/DX2                !
 ! A11   A(3,4,9)              119.8226         estimate D2E/DX2                !
 ! A12   A(5,4,9)              122.2332         estimate D2E/DX2                !
 ! A13   A(4,5,6)              119.4319         estimate D2E/DX2                !
 ! A14   A(4,5,7)              120.2215         estimate D2E/DX2                !
 ! A15   A(6,5,7)              120.3466         estimate D2E/DX2                !
 ! A16   A(1,6,5)              121.6505         estimate D2E/DX2                !
 ! A17   A(1,6,14)             120.1971         estimate D2E/DX2                !
 ! A18   A(5,6,14)             118.1524         estimate D2E/DX2                !
 ! A19   A(5,7,8)              114.1529         estimate D2E/DX2                !
 ! A20   A(5,7,10)             125.9119         estimate D2E/DX2                !
 ! A21   A(8,7,10)             119.9351         estimate D2E/DX2                !
 ! A22   A(7,8,15)             106.1252         estimate D2E/DX2                !
 ! A23   A(4,9,16)             119.1615         estimate D2E/DX2                !
 ! A24   A(4,9,17)             120.1696         estimate D2E/DX2                !
 ! A25   A(16,9,17)            120.6689         estimate D2E/DX2                !
 ! D1    D(6,1,2,3)              0.0008         estimate D2E/DX2                !
 ! D2    D(6,1,2,12)          -179.9993         estimate D2E/DX2                !
 ! D3    D(11,1,2,3)          -179.9997         estimate D2E/DX2                !
 ! D4    D(11,1,2,12)            0.0002         estimate D2E/DX2                !
 ! D5    D(2,1,6,5)             -0.0023         estimate D2E/DX2                !
 ! D6    D(2,1,6,14)           179.9993         estimate D2E/DX2                !
 ! D7    D(11,1,6,5)           179.9983         estimate D2E/DX2                !
 ! D8    D(11,1,6,14)           -0.0002         estimate D2E/DX2                !
 ! D9    D(1,2,3,4)              0.0001         estimate D2E/DX2                !
 ! D10   D(1,2,3,13)           179.9994         estimate D2E/DX2                !
 ! D11   D(12,2,3,4)          -179.9998         estimate D2E/DX2                !
 ! D12   D(12,2,3,13)           -0.0005         estimate D2E/DX2                !
 ! D13   D(2,3,4,5)              0.0003         estimate D2E/DX2                !
 ! D14   D(2,3,4,9)            179.9982         estimate D2E/DX2                !
 ! D15   D(13,3,4,5)          -179.999          estimate D2E/DX2                !
 ! D16   D(13,3,4,9)            -0.0011         estimate D2E/DX2                !
 ! D17   D(3,4,5,6)             -0.0016         estimate D2E/DX2                !
 ! D18   D(3,4,5,7)            179.9999         estimate D2E/DX2                !
 ! D19   D(9,4,5,6)           -179.9995         estimate D2E/DX2                !
 ! D20   D(9,4,5,7)              0.002          estimate D2E/DX2                !
 ! D21   D(3,4,9,16)          -179.9928         estimate D2E/DX2                !
 ! D22   D(3,4,9,17)             0.0001         estimate D2E/DX2                !
 ! D23   D(5,4,9,16)             0.005          estimate D2E/DX2                !
 ! D24   D(5,4,9,17)           179.9978         estimate D2E/DX2                !
 ! D25   D(4,5,6,1)              0.0027         estimate D2E/DX2                !
 ! D26   D(4,5,6,14)          -179.9988         estimate D2E/DX2                !
 ! D27   D(7,5,6,1)           -179.9988         estimate D2E/DX2                !
 ! D28   D(7,5,6,14)            -0.0003         estimate D2E/DX2                !
 ! D29   D(4,5,7,8)            179.947          estimate D2E/DX2                !
 ! D30   D(4,5,7,10)             0.0521         estimate D2E/DX2                !
 ! D31   D(6,5,7,8)             -0.0515         estimate D2E/DX2                !
 ! D32   D(6,5,7,10)          -179.9464         estimate D2E/DX2                !
 ! D33   D(5,7,8,15)          -179.9503         estimate D2E/DX2                !
 ! D34   D(10,7,8,15)           -0.0485         estimate D2E/DX2                !
 --------------------------------------------------------------------------------
 Trust Radius=3.00D-01 FncErr=1.00D-07 GrdErr=1.00D-06
 Number of steps in this run=     86 maximum allowed number of steps=    102.
 GradGradGradGradGradGradGradGradGradGradGradGradGradGradGradGradGradGrad

                          Input orientation:                          
 ---------------------------------------------------------------------
 Center     Atomic      Atomic             Coordinates (Angstroms)
 Number     Number       Type             X           Y           Z
 ---------------------------------------------------------------------
      1          6           0       -1.859221   -1.523389   -0.000022
      2          6           0       -2.589424   -0.321626    0.000218
      3          6           0       -1.944016    0.903063    0.000202
      4          6           0       -0.529934    0.987718   -0.000059
      5          6           0        0.213499   -0.231649   -0.000312
      6          6           0       -0.475244   -1.464112   -0.000259
      7          6           0        1.679323   -0.202258   -0.000591
      8          8           0        2.260625   -1.431921    0.000334
      9          7           0        0.075816    2.208172   -0.000106
     10          8           0        2.380526    0.808024    0.000272
     11          1           0       -2.369909   -2.480363   -0.000013
     12          1           0       -3.675740   -0.347621    0.000418
     13          1           0       -2.520863    1.824385    0.000379
     14          1           0        0.109444   -2.376621   -0.000435
     15          1           0        3.219372   -1.277043    0.000848
     16          1           0        1.086391    2.256975   -0.000404
     17          1           0       -0.478512    3.047779    0.000045
 ---------------------------------------------------------------------
                    Distance matrix (angstroms):
                    1          2          3          4          5
     1  C    0.000000
     2  C    1.406212   0.000000
     3  C    2.427933   1.384346   0.000000
     4  C    2.841243   2.440467   1.416614   0.000000
     5  C    2.442286   2.804367   2.437713   1.428128   0.000000
     6  C    1.385246   2.403130   2.785823   2.452440   1.411854
     7  C    3.777126   4.270416   3.788182   2.509354   1.466119
     8  O    4.120861   4.975513   4.809486   3.693491   2.373052
     9  N    4.203441   3.674695   2.404793   1.362513   2.443703
    10  O    4.838485   5.096716   4.325586   2.916002   2.403524
    11  H    1.084713   2.169869   3.410126   3.925951   3.425013
    12  H    2.163833   1.086627   2.136136   3.417488   3.890968
    13  H    3.412530   2.147106   1.087008   2.159586   3.421113
    14  H    2.145611   3.392181   3.869499   3.424556   2.147494
    15  H    5.084564   5.886844   5.604769   4.380233   3.182471
    16  H    4.792471   4.490078   3.319103   2.055120   2.637269
    17  H    4.775137   3.976033   2.597597   2.060703   3.351645
                    6          7          8          9         10
     6  C    0.000000
     7  C    2.496885   0.000000
     8  O    2.736058   1.360141   0.000000
     9  N    3.713400   2.895066   4.245429   0.000000
    10  O    3.649387   1.229779   2.243152   2.696684   0.000000
    11  H    2.150005   4.646078   4.747744   5.288093   5.777553
    12  H    3.389650   5.357036   6.034578   4.539411   6.165539
    13  H    3.872825   4.663566   5.784994   2.624888   5.005657
    14  H    1.083759   2.681860   2.349476   4.584916   3.911493
    15  H    3.699349   1.878008   0.971176   4.693471   2.247480
    16  H    4.035492   2.529703   3.871276   1.011753   1.942742
    17  H    4.511892   3.901153   5.250770   1.006091   3.631887
                   11         12         13         14         15
    11  H    0.000000
    12  H    2.500757   0.000000
    13  H    4.307394   2.459949   0.000000
    14  H    2.481522   4.294701   4.956508   0.000000
    15  H    5.717346   6.957470   6.524504   3.298594   0.000000
    16  H    5.864161   5.427874   3.633100   4.735466   4.127819
    17  H    5.842751   4.663798   2.380733   5.456172   5.690205
                   16         17
    16  H    0.000000
    17  H    1.753366   0.000000
 Stoichiometry    C7H7NO2
 Framework group  C1[X(C7H7NO2)]
 Deg. of freedom    45
 Full point group                 C1      NOp   1
 Largest Abelian subgroup         C1      NOp   1
 Largest concise Abelian subgroup C1      NOp   1
                         Standard orientation:                         
 ---------------------------------------------------------------------
 Center     Atomic      Atomic             Coordinates (Angstroms)
 Number     Number       Type             X           Y           Z
 ---------------------------------------------------------------------
      1          6           0       -1.859221   -1.523389   -0.000022
      2          6           0       -2.589424   -0.321626    0.000218
      3          6           0       -1.944016    0.903063    0.000202
      4          6           0       -0.529934    0.987718   -0.000059
      5          6           0        0.213499   -0.231649   -0.000312
      6          6           0       -0.475244   -1.464112   -0.000259
      7          6           0        1.679323   -0.202258   -0.000591
      8          8           0        2.260625   -1.431921    0.000334
      9          7           0        0.075816    2.208172   -0.000106
     10          8           0        2.380526    0.808024    0.000272
     11          1           0       -2.369909   -2.480363   -0.000013
     12          1           0       -3.675740   -0.347621    0.000418
     13          1           0       -2.520863    1.824385    0.000379
     14          1           0        0.109444   -2.376621   -0.000435
     15          1           0        3.219372   -1.277043    0.000848
     16          1           0        1.086391    2.256975   -0.000404
     17          1           0       -0.478512    3.047779    0.000045
 ---------------------------------------------------------------------
 Rotational constants (GHZ):      2.2923684      1.2100986      0.7920109
 Standard basis: 6-311+G(d,p) (5D, 7F)
 There are   272 symmetry adapted cartesian basis functions of A   symmetry.
 There are   262 symmetry adapted basis functions of A   symmetry.
   262 basis functions,   416 primitive gaussians,   272 cartesian basis functions
    36 alpha electrons       36 beta electrons
       nuclear repulsion energy       500.0782038866 Hartrees.
 NAtoms=   17 NActive=   17 NUniq=   17 SFac= 1.00D+00 NAtFMM=   60 NAOKFM=F Big=F
 Integral buffers will be    131072 words long.
 Raffenetti 2 integral format.
 Two-electron integral symmetry is turned on.
 One-electron integrals computed using PRISM.
 NBasis=   262 RedAO= T EigKep=  1.88D-06  NBF=   262
 NBsUse=   262 1.00D-06 EigRej= -1.00D+00 NBFU=   262
 ExpMin= 4.38D-02 ExpMax= 8.59D+03 ExpMxC= 1.30D+03 IAcc=2 IRadAn=         4 AccDes= 0.00D+00
 Harris functional with IExCor=  402 and IRadAn=       4 diagonalized for initial guess.
 HarFok:  IExCor=  402 AccDes= 0.00D+00 IRadAn=         4 IDoV= 1 UseB2=F ITyADJ=14
 ICtDFT=  3500011 ScaDFX=  1.000000  1.000000  1.000000  1.000000
 FoFCou: FMM=F IPFlag=           0 FMFlag=      100000 FMFlg1=           0
         NFxFlg=           0 DoJE=T BraDBF=F KetDBF=T FulRan=T
         wScrn=  0.000000 ICntrl=     500 IOpCl=  0 I1Cent=   200000004 NGrid=           0
         NMat0=    1 NMatS0=      1 NMatT0=    0 NMatD0=    1 NMtDS0=    0 NMtDT0=    0
 Petite list used in FoFCou.
 Keep R1 ints in memory in canonical form, NReq=603942317.
 Requested convergence on RMS density matrix=1.00D-08 within 128 cycles.
 Requested convergence on MAX density matrix=1.00D-06.
 Requested convergence on             energy=1.00D-06.
 No special actions if energy rises.
 SCF Done:  E(RB3LYP) =  -476.330978154     A.U. after   15 cycles
            NFock= 15  Conv=0.19D-08     -V/T= 2.0042

 **********************************************************************

            Population analysis using the SCF density.

 **********************************************************************

 Orbital symmetries:
       Occupied  (A) (A) (A) (A) (A) (A) (A) (A) (A) (A) (A) (A)
                 (A) (A) (A) (A) (A) (A) (A) (A) (A) (A) (A) (A)
                 (A) (A) (A) (A) (A) (A) (A) (A) (A) (A) (A) (A)
       Virtual   (A) (A) (A) (A) (A) (A) (A) (A) (A) (A) (A) (A)
                 (A) (A) (A) (A) (A) (A) (A) (A) (A) (A) (A) (A)
                 (A) (A) (A) (A) (A) (A) (A) (A) (A) (A) (A) (A)
                 (A) (A) (A) (A) (A) (A) (A) (A) (A) (A) (A) (A)
                 (A) (A) (A) (A) (A) (A) (A) (A) (A) (A) (A) (A)
                 (A) (A) (A) (A) (A) (A) (A) (A) (A) (A) (A) (A)
                 (A) (A) (A) (A) (A) (A) (A) (A) (A) (A) (A) (A)
                 (A) (A) (A) (A) (A) (A) (A) (A) (A) (A) (A) (A)
                 (A) (A) (A) (A) (A) (A) (A) (A) (A) (A) (A) (A)
                 (A) (A) (A) (A) (A) (A) (A) (A) (A) (A) (A) (A)
                 (A) (A) (A) (A) (A) (A) (A) (A) (A) (A) (A) (A)
                 (A) (A) (A) (A) (A) (A) (A) (A) (A) (A) (A) (A)
                 (A) (A) (A) (A) (A) (A) (A) (A) (A) (A) (A) (A)
                 (A) (A) (A) (A) (A) (A) (A) (A) (A) (A) (A) (A)
                 (A) (A) (A) (A) (A) (A) (A) (A) (A) (A) (A) (A)
                 (A) (A) (A) (A) (A) (A) (A) (A) (A) (A) (A) (A)
                 (A) (A) (A) (A) (A) (A) (A) (A) (A) (A) (A) (A)
                 (A) (A) (A) (A) (A) (A) (A) (A) (A) (A) (A) (A)
                 (A) (A) (A) (A) (A) (A) (A) (A) (A) (A)
 The electronic state is 1-A.
 Alpha  occ. eigenvalues --  -19.17439 -19.11918 -14.33089 -10.31425 -10.24108
 Alpha  occ. eigenvalues --  -10.19323 -10.19127 -10.18837 -10.18193 -10.17437
 Alpha  occ. eigenvalues --   -1.11468  -1.02211  -0.93847  -0.85337  -0.77807
 Alpha  occ. eigenvalues --   -0.74273  -0.66882  -0.62961  -0.60110  -0.54379
 Alpha  occ. eigenvalues --   -0.53155  -0.51561  -0.49635  -0.46442  -0.45954
 Alpha  occ. eigenvalues --   -0.44652  -0.43776  -0.41062  -0.39631  -0.38085
 Alpha  occ. eigenvalues --   -0.36294  -0.33460  -0.32513  -0.29173  -0.27026
 Alpha  occ. eigenvalues --   -0.21908
 Alpha virt. eigenvalues --   -0.05858  -0.00919  -0.00351   0.00662   0.01425
 Alpha virt. eigenvalues --    0.03032   0.03746   0.04375   0.05138   0.05147
 Alpha virt. eigenvalues --    0.06677   0.07236   0.07875   0.08975   0.09517
 Alpha virt. eigenvalues --    0.11249   0.12232   0.12319   0.12968   0.13277
 Alpha virt. eigenvalues --    0.14147   0.15178   0.15930   0.16536   0.16728
 Alpha virt. eigenvalues --    0.16742   0.17610   0.18568   0.18729   0.19006
 Alpha virt. eigenvalues --    0.19584   0.20568   0.21156   0.21758   0.22258
 Alpha virt. eigenvalues --    0.22502   0.23163   0.23847   0.24480   0.24641
 Alpha virt. eigenvalues --    0.25512   0.26235   0.26723   0.27279   0.28179
 Alpha virt. eigenvalues --    0.28380   0.28589   0.30494   0.30898   0.31910
 Alpha virt. eigenvalues --    0.33138   0.34253   0.37186   0.38214   0.39618
 Alpha virt. eigenvalues --    0.41532   0.44234   0.44836   0.47045   0.49106
 Alpha virt. eigenvalues --    0.51680   0.52689   0.53188   0.54095   0.54932
 Alpha virt. eigenvalues --    0.57098   0.58277   0.58464   0.58613   0.60380
 Alpha virt. eigenvalues --    0.61231   0.62209   0.64170   0.64482   0.66612
 Alpha virt. eigenvalues --    0.68809   0.69912   0.69930   0.71981   0.72565
 Alpha virt. eigenvalues --    0.74985   0.77274   0.79985   0.81600   0.83089
 Alpha virt. eigenvalues --    0.83511   0.84713   0.84977   0.86591   0.87430
 Alpha virt. eigenvalues --    0.88021   0.89357   0.95712   0.96747   0.98904
 Alpha virt. eigenvalues --    0.99330   1.00643   1.03468   1.04927   1.06505
 Alpha virt. eigenvalues --    1.06535   1.08375   1.11263   1.11751   1.15017
 Alpha virt. eigenvalues --    1.15441   1.15891   1.18691   1.19396   1.22102
 Alpha virt. eigenvalues --    1.25183   1.26561   1.30967   1.37779   1.42726
 Alpha virt. eigenvalues --    1.43214   1.48561   1.50090   1.50108   1.51368
 Alpha virt. eigenvalues --    1.52938   1.55948   1.56515   1.56624   1.57804
 Alpha virt. eigenvalues --    1.62994   1.65183   1.67192   1.69413   1.70654
 Alpha virt. eigenvalues --    1.73744   1.75049   1.75719   1.78931   1.81251
 Alpha virt. eigenvalues --    1.84531   1.87932   1.88116   1.91603   1.92336
 Alpha virt. eigenvalues --    1.92403   1.93646   1.94533   1.96074   2.00449
 Alpha virt. eigenvalues --    2.02439   2.04833   2.05154   2.09754   2.17344
 Alpha virt. eigenvalues --    2.21064   2.22687   2.26819   2.27576   2.38339
 Alpha virt. eigenvalues --    2.39751   2.40064   2.46839   2.49777   2.51790
 Alpha virt. eigenvalues --    2.54870   2.58493   2.61949   2.62666   2.65831
 Alpha virt. eigenvalues --    2.68222   2.69381   2.72981   2.73881   2.75278
 Alpha virt. eigenvalues --    2.76600   2.78910   2.79542   2.79879   2.84753
 Alpha virt. eigenvalues --    2.85393   2.88739   2.90603   2.92906   2.93021
 Alpha virt. eigenvalues --    2.96303   3.04958   3.05702   3.07316   3.13279
 Alpha virt. eigenvalues --    3.16158   3.16374   3.18725   3.23099   3.33365
 Alpha virt. eigenvalues --    3.34344   3.35337   3.43061   3.48032   3.51699
 Alpha virt. eigenvalues --    3.53123   3.58364   3.65887   3.72309   3.84694
 Alpha virt. eigenvalues --    3.87005   3.89616   4.02471   4.08235   4.10040
 Alpha virt. eigenvalues --    4.16727   4.32412   4.79366   4.82331   4.94859
 Alpha virt. eigenvalues --    5.03268   5.03415   5.22878   5.42722   5.61641
 Alpha virt. eigenvalues --    5.86402  23.58624  23.82385  23.90844  23.92074
 Alpha virt. eigenvalues --   23.99850  24.09006  24.17417  35.67521  49.86276
 Alpha virt. eigenvalues --   50.03325
          Condensed to atoms (all electrons):
               1          2          3          4          5          6
     1  C    8.185439   0.218981   0.586086   0.190713   0.573009  -3.459119
     2  C    0.218981   5.732246  -0.208418   1.058684  -1.410833   0.683297
     3  C    0.586086  -0.208418   8.607255  -2.095561  -0.024569  -2.006154
     4  C    0.190713   1.058684  -2.095561  16.152452  -5.244934  -1.172117
     5  C    0.573009  -1.410833  -0.024569  -5.244934  12.013168  -0.612132
     6  C   -3.459119   0.683297  -2.006154  -1.172117  -0.612132  13.148580
     7  C   -0.741318  -0.069779   0.473886  -1.460243  -0.797625   0.030403
     8  O    0.103534  -0.015666   0.051885   0.051113  -0.014463  -0.253167
     9  N    0.001961   0.037780  -0.209116   0.067539  -0.005172   0.092634
    10  O    0.076657  -0.013888   0.058917  -0.209633   0.061693   0.006823
    11  H    0.364259  -0.014644   0.000640  -0.017103   0.009323  -0.003943
    12  H    0.003773   0.349021  -0.004101  -0.025833   0.052972  -0.031673
    13  H   -0.011258   0.055038   0.415267  -0.103396  -0.003671  -0.005585
    14  H   -0.019860  -0.003718   0.015449  -0.021490  -0.014095   0.361894
    15  H   -0.031857   0.000149   0.001034  -0.025490  -0.026332  -0.008159
    16  H   -0.003077   0.001565   0.041974  -0.001310  -0.047554  -0.005046
    17  H   -0.001744   0.006083   0.042466  -0.122750   0.063179   0.005671
               7          8          9         10         11         12
     1  C   -0.741318   0.103534   0.001961   0.076657   0.364259   0.003773
     2  C   -0.069779  -0.015666   0.037780  -0.013888  -0.014644   0.349021
     3  C    0.473886   0.051885  -0.209116   0.058917   0.000640  -0.004101
     4  C   -1.460243   0.051113   0.067539  -0.209633  -0.017103  -0.025833
     5  C   -0.797625  -0.014463  -0.005172   0.061693   0.009323   0.052972
     6  C    0.030403  -0.253167   0.092634   0.006823  -0.003943  -0.031673
     7  C    7.727678   0.163596  -0.053373   0.294010   0.011773   0.003671
     8  O    0.163596   8.043499  -0.002521  -0.101159   0.000220   0.000013
     9  N   -0.053373  -0.002521   6.818183  -0.023843   0.000425  -0.001181
    10  O    0.294010  -0.101159  -0.023843   8.214825  -0.000004  -0.000000
    11  H    0.011773   0.000220   0.000425  -0.000004   0.540920  -0.007327
    12  H    0.003671   0.000013  -0.001181  -0.000000  -0.007327   0.540237
    13  H    0.012082   0.000040  -0.017419   0.000080  -0.000263  -0.008231
    14  H    0.025304   0.009547  -0.000528  -0.000502  -0.007588  -0.000282
    15  H    0.145889   0.184151   0.001215  -0.016001   0.000002   0.000000
    16  H    0.008736   0.001084   0.360894   0.017997  -0.000003  -0.000001
    17  H   -0.000067   0.000235   0.345450   0.004292  -0.000004   0.000004
              13         14         15         16         17
     1  C   -0.011258  -0.019860  -0.031857  -0.003077  -0.001744
     2  C    0.055038  -0.003718   0.000149   0.001565   0.006083
     3  C    0.415267   0.015449   0.001034   0.041974   0.042466
     4  C   -0.103396  -0.021490  -0.025490  -0.001310  -0.122750
     5  C   -0.003671  -0.014095  -0.026332  -0.047554   0.063179
     6  C   -0.005585   0.361894  -0.008159  -0.005046   0.005671
     7  C    0.012082   0.025304   0.145889   0.008736  -0.000067
     8  O    0.000040   0.009547   0.184151   0.001084   0.000235
     9  N   -0.017419  -0.000528   0.001215   0.360894   0.345450
    10  O    0.000080  -0.000502  -0.016001   0.017997   0.004292
    11  H   -0.000263  -0.007588   0.000002  -0.000003  -0.000004
    12  H   -0.008231  -0.000282   0.000000  -0.000001   0.000004
    13  H    0.556246   0.000034  -0.000000   0.000292   0.006041
    14  H    0.000034   0.511726  -0.000856   0.000014   0.000003
    15  H   -0.000000  -0.000856   0.497249   0.000183  -0.000002
    16  H    0.000292   0.000014   0.000183   0.340440  -0.017118
    17  H    0.006041   0.000003  -0.000002  -0.017118   0.416339
 Mulliken charges:
               1
     1  C   -0.036179
     2  C   -0.405898
     3  C    0.253059
     4  C   -1.020638
     5  C    1.428037
     6  C   -0.772208
     7  C    0.225377
     8  O   -0.221940
     9  N   -0.412926
    10  O   -0.370265
    11  H    0.123317
    12  H    0.128938
    13  H    0.104702
    14  H    0.144949
    15  H    0.278825
    16  H    0.300929
    17  H    0.251922
 Sum of Mulliken charges =  -0.00000
 Mulliken charges with hydrogens summed into heavy atoms:
               1
     1  C    0.087138
     2  C   -0.276960
     3  C    0.357761
     4  C   -1.020638
     5  C    1.428037
     6  C   -0.627259
     7  C    0.225377
     8  O    0.056885
     9  N    0.139925
    10  O   -0.370265
 Electronic spatial extent (au):  <R**2>=           1384.5387
 Charge=             -0.0000 electrons
 Dipole moment (field-independent basis, Debye):
    X=             -1.2522    Y=              0.5469    Z=             -0.0007  Tot=              1.3664
 Quadrupole moment (field-independent basis, Debye-Ang):
   XX=            -52.6529   YY=            -50.8296   ZZ=            -62.5178
   XY=             -5.2672   XZ=             -0.0016   YZ=             -0.0011
 Traceless Quadrupole moment (field-independent basis, Debye-Ang):
   XX=              2.6805   YY=              4.5038   ZZ=             -7.1843
   XY=             -5.2672   XZ=             -0.0016   YZ=             -0.0011
 Octapole moment (field-independent basis, Debye-Ang**2):
  XXX=             18.9786  YYY=             25.2490  ZZZ=              0.0033  XYY=             -3.3970
  XXY=            -16.5914  XXZ=              0.0124  XZZ=             12.2751  YZZ=              0.3592
  YYZ=              0.0015  XYZ=             -0.0080
 Hexadecapole moment (field-independent basis, Debye-Ang**3):
 XXXX=           -968.4208 YYYY=           -532.5022 ZZZZ=            -69.6242 XXXY=            -77.4005
 XXXZ=              0.0299 YYYX=            -10.4560 YYYZ=             -0.0007 ZZZX=              0.0081
 ZZZY=             -0.0028 XXYY=           -270.4541 XXZZ=           -211.0567 YYZZ=           -131.6752
 XXYZ=             -0.0234 YYXZ=              0.0031 ZZXY=             -5.0169
 N-N= 5.000782038866D+02 E-N=-2.112820947809D+03  KE= 4.743597513920D+02
 Calling FoFJK, ICntrl=      2127 FMM=F ISym2X=0 I1Cent= 0 IOpClX= 0 NMat=1 NMatS=1 NMatT=0.
 ***** Axes restored to original set *****
 -------------------------------------------------------------------
 Center     Atomic                   Forces (Hartrees/Bohr)
 Number     Number              X              Y              Z
 -------------------------------------------------------------------
      1        6           0.001341449    0.001533561    0.000005225
      2        6           0.002041588    0.000578694   -0.000000582
      3        6           0.000205549   -0.001986801    0.000004217
      4        6          -0.000408172   -0.000257407   -0.000012061
      5        6          -0.001059661   -0.000562308   -0.000066738
      6        6          -0.001647021    0.001058488   -0.000010476
      7        6           0.005681026    0.006645010    0.000261110
      8        8           0.001775872    0.002174153   -0.000075311
      9        7          -0.000360773   -0.000556762   -0.000003241
     10        8          -0.005985831   -0.008407151   -0.000107068
     11        1           0.000635643    0.001266866    0.000001612
     12        1           0.001335564    0.000003243   -0.000001189
     13        1           0.000653952   -0.001128837    0.000000311
     14        1          -0.000694622    0.001129081   -0.000000691
     15        1          -0.003011543   -0.000358562   -0.000002139
     16        1          -0.001149673    0.000025042    0.000008000
     17        1           0.000646653   -0.001156311   -0.000000977
 -------------------------------------------------------------------
 Cartesian Forces:  Max     0.008407151 RMS     0.002119138

 GradGradGradGradGradGradGradGradGradGradGradGradGradGradGradGradGradGrad
 Berny optimization.
 FormGI is forming the generalized inverse of G from B-inverse, IUseBI=4.
 Internal  Forces:  Max     0.010319499 RMS     0.001590803
 Search for a local minimum.
 Step number   1 out of a maximum of   86
 All quantities printed in internal units (Hartrees-Bohrs-Radians)
 Mixed Optimization -- RFO/linear search
 Second derivative matrix not updated -- first step.
 ITU=  0
     Eigenvalues ---    0.01214   0.01520   0.01648   0.01802   0.01930
     Eigenvalues ---    0.02040   0.02056   0.02100   0.02139   0.02161
     Eigenvalues ---    0.02188   0.02188   0.02209   0.02219   0.16000
     Eigenvalues ---    0.16000   0.16000   0.16000   0.16000   0.16000
     Eigenvalues ---    0.16000   0.22000   0.22477   0.24467   0.25000
     Eigenvalues ---    0.25000   0.25000   0.25000   0.35161   0.35205
     Eigenvalues ---    0.35431   0.35544   0.36209   0.39381   0.40635
     Eigenvalues ---    0.42777   0.44008   0.45680   0.46633   0.46772
     Eigenvalues ---    0.47813   0.52443   0.52919   0.53137   0.91179
 RFO step:  Lambda=-3.08267784D-04 EMin= 1.21413269D-02
 Linear search not attempted -- first point.
 Iteration  1 RMS(Cart)=  0.00533357 RMS(Int)=  0.00000535
 Iteration  2 RMS(Cart)=  0.00000604 RMS(Int)=  0.00000195
 Iteration  3 RMS(Cart)=  0.00000000 RMS(Int)=  0.00000195
 Variable       Old X    -DE/DX   Delta X   Delta X   Delta X     New X
                                 (Linear)    (Quad)   (Total)
    R1        2.65735  -0.00306   0.00000  -0.00701  -0.00701   2.65035
    R2        2.61774  -0.00361   0.00000  -0.00757  -0.00757   2.61017
    R3        2.04981  -0.00142   0.00000  -0.00400  -0.00400   2.04581
    R4        2.61604  -0.00362   0.00000  -0.00756  -0.00756   2.60848
    R5        2.05343  -0.00134   0.00000  -0.00379  -0.00379   2.04964
    R6        2.67701  -0.00261   0.00000  -0.00598  -0.00598   2.67103
    R7        2.05415  -0.00130   0.00000  -0.00371  -0.00371   2.05044
    R8        2.69877  -0.00231   0.00000  -0.00543  -0.00543   2.69334
    R9        2.57478  -0.00190   0.00000  -0.00361  -0.00361   2.57116
   R10        2.66802  -0.00271   0.00000  -0.00612  -0.00612   2.66189
   R11        2.77056  -0.00154   0.00000  -0.00425  -0.00425   2.76632
   R12        2.04801  -0.00133   0.00000  -0.00373  -0.00373   2.04428
   R13        2.57029  -0.00217   0.00000  -0.00410  -0.00410   2.56620
   R14        2.32395  -0.01032   0.00000  -0.01131  -0.01131   2.31263
   R15        1.83526  -0.00303   0.00000  -0.00570  -0.00570   1.82956
   R16        1.91194  -0.00115   0.00000  -0.00251  -0.00251   1.90943
   R17        1.90124  -0.00132   0.00000  -0.00283  -0.00283   1.89841
    A1        2.07399   0.00013   0.00000   0.00008   0.00008   2.07407
    A2        2.10539  -0.00010   0.00000  -0.00027  -0.00027   2.10513
    A3        2.10380  -0.00003   0.00000   0.00018   0.00018   2.10399
    A4        2.11058   0.00022   0.00000   0.00050   0.00050   2.11108
    A5        2.09287  -0.00014   0.00000  -0.00043  -0.00043   2.09243
    A6        2.07973  -0.00008   0.00000  -0.00006  -0.00006   2.07967
    A7        2.11560   0.00005   0.00000   0.00019   0.00019   2.11579
    A8        2.09719  -0.00007   0.00000  -0.00039  -0.00039   2.09680
    A9        2.07040   0.00002   0.00000   0.00019   0.00019   2.07059
   A10        2.05851  -0.00030   0.00000  -0.00079  -0.00079   2.05773
   A11        2.09130  -0.00005   0.00000  -0.00041  -0.00041   2.09089
   A12        2.13337   0.00035   0.00000   0.00120   0.00120   2.13457
   A13        2.08448  -0.00012   0.00000  -0.00006  -0.00006   2.08442
   A14        2.09826   0.00012   0.00000   0.00026   0.00026   2.09852
   A15        2.10045   0.00000   0.00000  -0.00020  -0.00020   2.10024
   A16        2.12320   0.00002   0.00000   0.00008   0.00008   2.12328
   A17        2.09784   0.00001   0.00000   0.00012   0.00012   2.09795
   A18        2.06215  -0.00004   0.00000  -0.00019  -0.00019   2.06195
   A19        1.99234  -0.00033   0.00000  -0.00132  -0.00133   1.99101
   A20        2.19758   0.00002   0.00000   0.00009   0.00008   2.19766
   A21        2.09326   0.00031   0.00000   0.00124   0.00123   2.09450
   A22        1.85223  -0.00023   0.00000  -0.00145  -0.00145   1.85078
   A23        2.07976   0.00016   0.00000   0.00103   0.00103   2.08079
   A24        2.09736  -0.00018   0.00000  -0.00109  -0.00109   2.09626
   A25        2.10607   0.00001   0.00000   0.00007   0.00007   2.10614
    D1        0.00001  -0.00000   0.00000  -0.00005  -0.00005  -0.00004
    D2       -3.14158  -0.00000   0.00000  -0.00005  -0.00005   3.14156
    D3       -3.14159  -0.00000   0.00000  -0.00001  -0.00001   3.14159
    D4        0.00000  -0.00000   0.00000  -0.00001  -0.00001  -0.00001
    D5       -0.00004   0.00000   0.00000   0.00014   0.00014   0.00010
    D6        3.14158   0.00000   0.00000   0.00004   0.00004  -3.14156
    D7        3.14156   0.00000   0.00000   0.00010   0.00010  -3.14152
    D8       -0.00000   0.00000   0.00000   0.00000   0.00000  -0.00000
    D9        0.00000  -0.00000   0.00000  -0.00001  -0.00001  -0.00001
   D10        3.14158   0.00000   0.00000   0.00004   0.00004  -3.14156
   D11       -3.14159  -0.00000   0.00000  -0.00002  -0.00002   3.14158
   D12       -0.00001   0.00000   0.00000   0.00004   0.00004   0.00003
   D13        0.00000  -0.00000   0.00000  -0.00001  -0.00001  -0.00001
   D14        3.14156   0.00000   0.00000   0.00016   0.00016  -3.14146
   D15       -3.14157  -0.00000   0.00000  -0.00007  -0.00007   3.14154
   D16       -0.00002   0.00000   0.00000   0.00011   0.00011   0.00009
   D17       -0.00003   0.00000   0.00000   0.00010   0.00010   0.00008
   D18        3.14159   0.00000   0.00000  -0.00000  -0.00000   3.14159
   D19       -3.14158  -0.00000   0.00000  -0.00008  -0.00008   3.14152
   D20        0.00004  -0.00000   0.00000  -0.00019  -0.00019  -0.00015
   D21       -3.14147  -0.00001   0.00000  -0.00038  -0.00038   3.14134
   D22        0.00000  -0.00000   0.00000  -0.00012  -0.00012  -0.00012
   D23        0.00009  -0.00000   0.00000  -0.00020  -0.00020  -0.00011
   D24        3.14156   0.00000   0.00000   0.00006   0.00006  -3.14157
   D25        0.00005  -0.00000   0.00000  -0.00017  -0.00017  -0.00013
   D26       -3.14157  -0.00000   0.00000  -0.00007  -0.00007   3.14154
   D27       -3.14157  -0.00000   0.00000  -0.00006  -0.00006   3.14155
   D28       -0.00001   0.00000   0.00000   0.00004   0.00004   0.00003
   D29        3.14067   0.00006   0.00000   0.00397   0.00397  -3.13855
   D30        0.00091  -0.00007   0.00000  -0.00425  -0.00425  -0.00334
   D31       -0.00090   0.00006   0.00000   0.00386   0.00386   0.00296
   D32       -3.14066  -0.00007   0.00000  -0.00436  -0.00436   3.13817
   D33       -3.14072  -0.00006   0.00000  -0.00386  -0.00386   3.13860
   D34       -0.00085   0.00006   0.00000   0.00382   0.00382   0.00298
         Item               Value     Threshold  Converged?
 Maximum Force            0.010319     0.000450     NO 
 RMS     Force            0.001591     0.000300     NO 
 Maximum Displacement     0.017254     0.001800     NO 
 RMS     Displacement     0.005335     0.001200     NO 
 Predicted change in Energy=-1.542354D-04
 GradGradGradGradGradGradGradGradGradGradGradGradGradGradGradGradGradGrad

                          Input orientation:                          
 ---------------------------------------------------------------------
 Center     Atomic      Atomic             Coordinates (Angstroms)
 Number     Number       Type             X           Y           Z
 ---------------------------------------------------------------------
      1          6           0       -1.854781   -1.519471    0.000251
      2          6           0       -2.583076   -0.320886   -0.000530
      3          6           0       -1.940155    0.900593   -0.000482
      4          6           0       -0.529293    0.986050    0.000367
      5          6           0        0.212541   -0.230928    0.001187
      6          6           0       -0.474801   -1.460463    0.001033
      7          6           0        1.676128   -0.202094    0.002079
      8          8           0        2.254438   -1.430767   -0.000969
      9          7           0        0.074251    2.205463    0.000547
     10          8           0        2.374354    0.802961   -0.001103
     11          1           0       -2.364717   -2.474450    0.000214
     12          1           0       -3.667375   -0.347319   -0.001184
     13          1           0       -2.516784    1.819738   -0.001066
     14          1           0        0.108867   -2.371283    0.001618
     15          1           0        3.210241   -1.276588   -0.002800
     16          1           0        1.083392    2.256361    0.001381
     17          1           0       -0.481099    3.042596   -0.000028
 ---------------------------------------------------------------------
                    Distance matrix (angstroms):
                    1          2          3          4          5
     1  C    0.000000
     2  C    1.402505   0.000000
     3  C    2.421569   1.380347   0.000000
     4  C    2.834528   2.434359   1.413448   0.000000
     5  C    2.436014   2.797064   2.431963   1.425256   0.000000
     6  C    1.381242   2.396552   2.778821   2.447119   1.408614
     7  C    3.768661   4.260861   3.780665   2.505109   1.463872
     8  O    4.110177   4.963202   4.798943   3.686484   2.368325
     9  N    4.194794   3.666582   2.400107   1.360600   2.440313
    10  O    4.824860   5.083221   4.315613   2.909414   2.396324
    11  H    1.082598   2.164606   3.401642   3.917121   3.416964
    12  H    2.158573   1.084622   2.130862   3.409609   3.881662
    13  H    3.404198   2.141650   1.085047   2.155263   3.413861
    14  H    2.140445   3.383887   3.860527   3.417446   2.142864
    15  H    5.070844   5.871618   5.591664   4.370773   3.174843
    16  H    4.784326   4.481651   3.313600   2.052912   2.635335
    17  H    4.764395   3.966272   2.591722   2.057111   3.346207
                    6          7          8          9         10
     6  C    0.000000
     7  C    2.491985   0.000000
     8  O    2.729401   1.357972   0.000000
     9  N    3.706813   2.891772   4.239739   0.000000
    10  O    3.638788   1.223792   2.236945   2.693972   0.000000
    11  H    2.144750   4.635950   4.735595   5.277323   5.761963
    12  H    3.381068   5.345477   6.020110   4.529510   6.150255
    13  H    3.863860   4.654925   5.773243   2.619589   4.995704
    14  H    1.081787   2.676133   2.342659   4.576877   3.899778
    15  H    3.689629   1.872982   0.968161   4.686056   2.241257
    16  H    4.030229   2.528901   3.868626   1.010424   1.943954
    17  H    4.503064   3.896364   5.243486   1.004593   3.628991
                   11         12         13         14         15
    11  H    0.000000
    12  H    2.494315   0.000000
    13  H    4.296879   2.453567   0.000000
    14  H    2.475735   4.284442   4.945575   0.000000
    15  H    5.702196   6.940112   6.510457   3.288905   0.000000
    16  H    5.854061   5.417467   3.626557   4.729143   4.123740
    17  H    5.829735   4.652298   2.374741   5.445930   5.681668
                   16         17
    16  H    0.000000
    17  H    1.750943   0.000000
 Stoichiometry    C7H7NO2
 Framework group  C1[X(C7H7NO2)]
 Deg. of freedom    45
 Full point group                 C1      NOp   1
 Largest Abelian subgroup         C1      NOp   1
 Largest concise Abelian subgroup C1      NOp   1
                         Standard orientation:                         
 ---------------------------------------------------------------------
 Center     Atomic      Atomic             Coordinates (Angstroms)
 Number     Number       Type             X           Y           Z
 ---------------------------------------------------------------------
      1          6           0       -1.852220   -1.521694    0.000129
      2          6           0       -2.582117   -0.324084   -0.000653
      3          6           0       -1.940830    0.898253   -0.000604
      4          6           0       -0.530084    0.985596    0.000245
      5          6           0        0.213377   -0.230389    0.001065
      6          6           0       -0.472320   -1.460841    0.000910
      7          6           0        1.676924   -0.199597    0.001956
      8          8           0        2.256877   -1.427496   -0.001092
      9          7           0        0.071829    2.205815    0.000424
     10          8           0        2.373806    0.806391   -0.001225
     11          1           0       -2.360878   -2.477354    0.000092
     12          1           0       -3.666380   -0.351967   -0.001306
     13          1           0       -2.518688    1.816626   -0.001188
     14          1           0        0.112566   -2.370880    0.001495
     15          1           0        3.212473   -1.272038   -0.002923
     16          1           0        1.080902    2.258063    0.001259
     17          1           0       -0.484640    3.042206   -0.000150
 ---------------------------------------------------------------------
 Rotational constants (GHZ):      2.3010507      1.2159374      0.7955486
 Standard basis: 6-311+G(d,p) (5D, 7F)
 There are   272 symmetry adapted cartesian basis functions of A   symmetry.
 There are   262 symmetry adapted basis functions of A   symmetry.
   262 basis functions,   416 primitive gaussians,   272 cartesian basis functions
    36 alpha electrons       36 beta electrons
       nuclear repulsion energy       501.2125641082 Hartrees.
 NAtoms=   17 NActive=   17 NUniq=   17 SFac= 1.00D+00 NAtFMM=   60 NAOKFM=F Big=F
 Integral buffers will be    131072 words long.
 Raffenetti 2 integral format.
 Two-electron integral symmetry is turned on.
 One-electron integrals computed using PRISM.
 NBasis=   262 RedAO= T EigKep=  1.84D-06  NBF=   262
 NBsUse=   262 1.00D-06 EigRej= -1.00D+00 NBFU=   262
 Initial guess from the checkpoint file:  "m062x6311Anthranilic.chk"
 B after Tr=    -0.000000   -0.000000   -0.000000
         Rot=    1.000000    0.000007   -0.000021   -0.000562 Ang=   0.06 deg.
 Keep R1 ints in memory in canonical form, NReq=603942317.
 Requested convergence on RMS density matrix=1.00D-08 within 128 cycles.
 Requested convergence on MAX density matrix=1.00D-06.
 Requested convergence on             energy=1.00D-06.
 No special actions if energy rises.
 SCF Done:  E(RB3LYP) =  -476.331129720     A.U. after   11 cycles
            NFock= 11  Conv=0.75D-08     -V/T= 2.0039
 Calling FoFJK, ICntrl=      2127 FMM=F ISym2X=0 I1Cent= 0 IOpClX= 0 NMat=1 NMatS=1 NMatT=0.
 ***** Axes restored to original set *****
 -------------------------------------------------------------------
 Center     Atomic                   Forces (Hartrees/Bohr)
 Number     Number              X              Y              Z
 -------------------------------------------------------------------
      1        6          -0.000127720   -0.000230981   -0.000017583
      2        6          -0.000248740    0.000031049    0.000000024
      3        6          -0.000113925    0.000071402   -0.000014901
      4        6           0.000108316   -0.000065676    0.000038632
      5        6          -0.000510578   -0.000162477    0.000238623
      6        6          -0.000007498   -0.000100089    0.000036455
      7        6           0.001653717    0.001943647   -0.000891312
      8        8           0.000368101   -0.000240935    0.000264575
      9        7           0.000283988    0.000159534    0.000012079
     10        8          -0.000963808   -0.001346058    0.000358196
     11        1          -0.000066468   -0.000063693   -0.000005056
     12        1          -0.000091378   -0.000021339    0.000002987
     13        1          -0.000043143    0.000076231   -0.000001396
     14        1           0.000024811   -0.000034589    0.000002890
     15        1          -0.000080275   -0.000261255    0.000000284
     16        1          -0.000206785    0.000181958   -0.000026485
     17        1           0.000021387    0.000063270    0.000001989
 -------------------------------------------------------------------
 Cartesian Forces:  Max     0.001943647 RMS     0.000469720

 GradGradGradGradGradGradGradGradGradGradGradGradGradGradGradGradGradGrad
 Berny optimization.
 Using GEDIIS/GDIIS optimizer.
 FormGI is forming the generalized inverse of G from B-inverse, IUseBI=4.
 Internal  Forces:  Max     0.001656144 RMS     0.000274754
 Search for a local minimum.
 Step number   2 out of a maximum of   86
 All quantities printed in internal units (Hartrees-Bohrs-Radians)
 Mixed Optimization -- En-DIIS/RFO-DIIS
 Update second derivatives using D2CorX and points    1    2
 DE= -1.52D-04 DEPred=-1.54D-04 R= 9.83D-01
 TightC=F SS=  1.41D+00  RLast= 2.56D-02 DXNew= 5.0454D-01 7.6792D-02
 Trust test= 9.83D-01 RLast= 2.56D-02 DXMaxT set to 3.00D-01
 ITU=  1  0
 Use linear search instead of GDIIS.
     Eigenvalues ---    0.01214   0.01570   0.01648   0.01802   0.01930
     Eigenvalues ---    0.02040   0.02056   0.02100   0.02139   0.02161
     Eigenvalues ---    0.02188   0.02188   0.02209   0.02219   0.15943
     Eigenvalues ---    0.16000   0.16000   0.16000   0.16000   0.16000
     Eigenvalues ---    0.16055   0.22001   0.22447   0.24473   0.24805
     Eigenvalues ---    0.25000   0.25000   0.25005   0.35048   0.35185
     Eigenvalues ---    0.35361   0.35504   0.36883   0.39539   0.40623
     Eigenvalues ---    0.42762   0.45261   0.45506   0.46649   0.46777
     Eigenvalues ---    0.49213   0.52601   0.52642   0.55767   0.81064
 RFO step:  Lambda=-2.86596035D-05 EMin= 1.21418155D-02
 Quartic linear search produced a step of -0.02014.
 Iteration  1 RMS(Cart)=  0.00505050 RMS(Int)=  0.00003648
 Iteration  2 RMS(Cart)=  0.00004334 RMS(Int)=  0.00002209
 Iteration  3 RMS(Cart)=  0.00000000 RMS(Int)=  0.00002209
 Variable       Old X    -DE/DX   Delta X   Delta X   Delta X     New X
                                 (Linear)    (Quad)   (Total)
    R1        2.65035   0.00022   0.00014  -0.00032  -0.00018   2.65017
    R2        2.61017   0.00033   0.00015  -0.00019  -0.00004   2.61013
    R3        2.04581   0.00009   0.00008  -0.00021  -0.00013   2.04568
    R4        2.60848   0.00025   0.00015  -0.00037  -0.00021   2.60826
    R5        2.04964   0.00009   0.00008  -0.00018  -0.00010   2.04954
    R6        2.67103   0.00037   0.00012   0.00016   0.00028   2.67131
    R7        2.05044   0.00009   0.00007  -0.00018  -0.00010   2.05034
    R8        2.69334   0.00036   0.00011   0.00024   0.00034   2.69369
    R9        2.57116   0.00041   0.00007   0.00035   0.00042   2.57158
   R10        2.66189   0.00037   0.00012   0.00014   0.00026   2.66215
   R11        2.76632   0.00098   0.00009   0.00217   0.00225   2.76857
   R12        2.04428   0.00004   0.00008  -0.00031  -0.00023   2.04405
   R13        2.56620   0.00058   0.00008   0.00060   0.00068   2.56688
   R14        2.31263  -0.00166   0.00023  -0.00307  -0.00284   2.30979
   R15        1.82956  -0.00012   0.00011  -0.00087  -0.00076   1.82880
   R16        1.90943  -0.00020   0.00005  -0.00071  -0.00066   1.90877
   R17        1.89841   0.00004   0.00006  -0.00024  -0.00018   1.89823
    A1        2.07407  -0.00003  -0.00000  -0.00014  -0.00015   2.07393
    A2        2.10513  -0.00001   0.00001  -0.00013  -0.00013   2.10500
    A3        2.10399   0.00004  -0.00000   0.00028   0.00027   2.10426
    A4        2.11108  -0.00006  -0.00001  -0.00023  -0.00024   2.11084
    A5        2.09243   0.00001   0.00001  -0.00003  -0.00002   2.09241
    A6        2.07967   0.00005   0.00000   0.00026   0.00026   2.07993
    A7        2.11579   0.00012  -0.00000   0.00055   0.00054   2.11634
    A8        2.09680  -0.00006   0.00001  -0.00028  -0.00027   2.09653
    A9        2.07059  -0.00007  -0.00000  -0.00026  -0.00027   2.07032
   A10        2.05773  -0.00004   0.00002  -0.00024  -0.00023   2.05750
   A11        2.09089  -0.00023   0.00001  -0.00096  -0.00095   2.08994
   A12        2.13457   0.00027  -0.00002   0.00120   0.00118   2.13574
   A13        2.08442  -0.00014   0.00000  -0.00054  -0.00054   2.08388
   A14        2.09852   0.00010  -0.00001   0.00041   0.00041   2.09893
   A15        2.10024   0.00004   0.00000   0.00013   0.00013   2.10037
   A16        2.12328   0.00013  -0.00000   0.00061   0.00060   2.12388
   A17        2.09795  -0.00006  -0.00000  -0.00027  -0.00027   2.09768
   A18        2.06195  -0.00007   0.00000  -0.00034  -0.00033   2.06162
   A19        1.99101  -0.00020   0.00003  -0.00088  -0.00097   1.99004
   A20        2.19766   0.00007  -0.00000   0.00034   0.00023   2.19789
   A21        2.09450   0.00013  -0.00002   0.00069   0.00056   2.09505
   A22        1.85078   0.00045   0.00003   0.00258   0.00261   1.85339
   A23        2.08079   0.00021  -0.00002   0.00141   0.00139   2.08218
   A24        2.09626  -0.00006   0.00002  -0.00047  -0.00044   2.09582
   A25        2.10614  -0.00016  -0.00000  -0.00095  -0.00095   2.10519
    D1       -0.00004   0.00000   0.00000   0.00015   0.00015   0.00012
    D2        3.14156   0.00000   0.00000   0.00015   0.00015  -3.14147
    D3        3.14159   0.00000   0.00000   0.00003   0.00003  -3.14157
    D4       -0.00001   0.00000   0.00000   0.00003   0.00003   0.00002
    D5        0.00010  -0.00001  -0.00000  -0.00045  -0.00045  -0.00035
    D6       -3.14156  -0.00000  -0.00000  -0.00012  -0.00012   3.14150
    D7       -3.14152  -0.00001  -0.00000  -0.00032  -0.00032   3.14134
    D8       -0.00000   0.00000  -0.00000   0.00000   0.00000   0.00000
    D9       -0.00001   0.00000   0.00000   0.00005   0.00005   0.00004
   D10       -3.14156  -0.00000  -0.00000  -0.00012  -0.00012   3.14150
   D11        3.14158   0.00000   0.00000   0.00005   0.00005  -3.14155
   D12        0.00003  -0.00000  -0.00000  -0.00012  -0.00012  -0.00009
   D13       -0.00001   0.00000   0.00000   0.00004   0.00004   0.00003
   D14       -3.14146  -0.00001  -0.00000  -0.00054  -0.00054   3.14118
   D15        3.14154   0.00000   0.00000   0.00020   0.00020  -3.14144
   D16        0.00009  -0.00001  -0.00000  -0.00037  -0.00038  -0.00028
   D17        0.00008  -0.00001  -0.00000  -0.00032  -0.00032  -0.00025
   D18        3.14159  -0.00000   0.00000   0.00001   0.00001   3.14159
   D19        3.14152   0.00001   0.00000   0.00027   0.00027  -3.14139
   D20       -0.00015   0.00001   0.00000   0.00060   0.00060   0.00045
   D21        3.14134   0.00003   0.00001   0.00125   0.00125  -3.14059
   D22       -0.00012   0.00001   0.00000   0.00037   0.00037   0.00025
   D23       -0.00011   0.00002   0.00000   0.00065   0.00065   0.00054
   D24       -3.14157  -0.00000  -0.00000  -0.00023  -0.00023   3.14138
   D25       -0.00013   0.00001   0.00000   0.00054   0.00054   0.00041
   D26        3.14154   0.00000   0.00000   0.00022   0.00022  -3.14142
   D27        3.14155   0.00001   0.00000   0.00021   0.00021  -3.14142
   D28        0.00003  -0.00000  -0.00000  -0.00011  -0.00011  -0.00008
   D29       -3.13855  -0.00022  -0.00008  -0.01332  -0.01340   3.13124
   D30       -0.00334   0.00023   0.00009   0.01449   0.01457   0.01123
   D31        0.00296  -0.00021  -0.00008  -0.01299  -0.01307  -0.01011
   D32        3.13817   0.00024   0.00009   0.01481   0.01490  -3.13011
   D33        3.13860   0.00021   0.00008   0.01302   0.01310  -3.13149
   D34        0.00298  -0.00021  -0.00008  -0.01298  -0.01306  -0.01009
         Item               Value     Threshold  Converged?
 Maximum Force            0.001656     0.000450     NO 
 RMS     Force            0.000275     0.000300     YES
 Maximum Displacement     0.023326     0.001800     NO 
 RMS     Displacement     0.005050     0.001200     NO 
 Predicted change in Energy=-1.444428D-05
 GradGradGradGradGradGradGradGradGradGradGradGradGradGradGradGradGradGrad

                          Input orientation:                          
 ---------------------------------------------------------------------
 Center     Atomic      Atomic             Coordinates (Angstroms)
 Number     Number       Type             X           Y           Z
 ---------------------------------------------------------------------
      1          6           0       -1.854683   -1.519333   -0.000666
      2          6           0       -2.583033   -0.320898    0.002005
      3          6           0       -1.939987    0.900388    0.001827
      4          6           0       -0.529014    0.986413   -0.001092
      5          6           0        0.213117   -0.230594   -0.003891
      6          6           0       -0.474741   -1.459997   -0.003356
      7          6           0        1.677900   -0.202083   -0.006983
      8          8           0        2.254903   -1.431729    0.003404
      9          7           0        0.072987    2.206836   -0.001669
     10          8           0        2.375761    0.801346    0.003651
     11          1           0       -2.364618   -2.474233   -0.000531
     12          1           0       -3.667275   -0.347452    0.004250
     13          1           0       -2.516704    1.819410    0.003829
     14          1           0        0.108827   -2.370734   -0.005356
     15          1           0        3.210865   -1.281199    0.009544
     16          1           0        1.081633    2.260478   -0.004641
     17          1           0       -0.483806    3.042895    0.000191
 ---------------------------------------------------------------------
                    Distance matrix (angstroms):
                    1          2          3          4          5
     1  C    0.000000
     2  C    1.402408   0.000000
     3  C    2.421225   1.380234   0.000000
     4  C    2.834812   2.434762   1.413596   0.000000
     5  C    2.436525   2.797615   2.432080   1.425438   0.000000
     6  C    1.381219   2.396345   2.778199   2.447013   1.408752
     7  C    3.770190   4.262599   3.782146   2.506597   1.465064
     8  O    4.110522   4.963827   4.799570   3.687496   2.368896
     9  N    4.195265   3.666592   2.399768   1.360823   2.441456
    10  O    4.825166   5.084199   4.316886   2.910669   2.396244
    11  H    1.082528   2.164385   3.401232   3.917334   3.417403
    12  H    2.158429   1.084569   2.130876   3.409971   3.882160
    13  H    3.403748   2.141337   1.084993   2.155184   3.413869
    14  H    2.140158   3.383489   3.859784   3.417206   2.142680
    15  H    5.071152   5.872946   5.593805   4.373657   3.176545
    16  H    4.786329   4.482558   3.313621   2.053641   2.638137
    17  H    4.763741   3.965081   2.590523   2.056980   3.346857
                    6          7          8          9         10
     6  C    0.000000
     7  C    2.493236   0.000000
     8  O    2.729799   1.358334   0.000000
     9  N    3.707516   2.894592   4.242633   0.000000
    10  O    3.638556   1.222290   2.236343   2.697814   0.000000
    11  H    2.144835   4.637312   4.735695   5.277720   5.761999
    12  H    3.380840   5.347163   6.020618   4.529237   6.151262
    13  H    3.863182   4.656313   5.773919   2.618517   4.997267
    14  H    1.081665   2.676759   2.342530   4.577712   3.898866
    15  H    3.689963   1.874766   0.967760   4.691779   2.243752
    16  H    4.032895   2.533722   3.874148   1.010076   1.950360
    17  H    4.502903   3.899090   5.246218   1.004498   3.633412
                   11         12         13         14         15
    11  H    0.000000
    12  H    2.494019   0.000000
    13  H    4.296338   2.453387   0.000000
    14  H    2.475615   4.284006   4.944776   0.000000
    15  H    5.701705   6.941233   6.512976   3.287848   0.000000
    16  H    5.856121   5.417888   3.625279   4.732281   4.132470
    17  H    5.828907   4.650693   2.372679   5.445973   5.687571
                   16         17
    16  H    0.000000
    17  H    1.750085   0.000000
 Stoichiometry    C7H7NO2
 Framework group  C1[X(C7H7NO2)]
 Deg. of freedom    45
 Full point group                 C1      NOp   1
 Largest Abelian subgroup         C1      NOp   1
 Largest concise Abelian subgroup C1      NOp   1
                         Standard orientation:                         
 ---------------------------------------------------------------------
 Center     Atomic      Atomic             Coordinates (Angstroms)
 Number     Number       Type             X           Y           Z
 ---------------------------------------------------------------------
      1          6           0       -1.851073   -1.523119   -0.000376
      2          6           0       -2.582074   -0.326299    0.002295
      3          6           0       -1.941733    0.896407    0.002117
      4          6           0       -0.530954    0.985555   -0.000802
      5          6           0        0.213869   -0.229807   -0.003601
      6          6           0       -0.471267   -1.460729   -0.003066
      7          6           0        1.678586   -0.198053   -0.006693
      8          8           0        2.258309   -1.426420    0.003694
      9          7           0        0.068345    2.207308   -0.001379
     10          8           0        2.374225    0.806917    0.003941
     11          1           0       -2.358894   -2.479144   -0.000241
     12          1           0       -3.666254   -0.355252    0.004540
     13          1           0       -2.520482    1.814151    0.004119
     14          1           0        0.114316   -2.370172   -0.005066
     15          1           0        3.213935   -1.273774    0.009834
     16          1           0        1.076870    2.263182   -0.004350
     17          1           0       -0.490297    3.042133    0.000481
 ---------------------------------------------------------------------
 Rotational constants (GHZ):      2.3000217      1.2153758      0.7951888
 Standard basis: 6-311+G(d,p) (5D, 7F)
 There are   272 symmetry adapted cartesian basis functions of A   symmetry.
 There are   262 symmetry adapted basis functions of A   symmetry.
   262 basis functions,   416 primitive gaussians,   272 cartesian basis functions
    36 alpha electrons       36 beta electrons
       nuclear repulsion energy       501.1428589894 Hartrees.
 NAtoms=   17 NActive=   17 NUniq=   17 SFac= 1.00D+00 NAtFMM=   60 NAOKFM=F Big=F
 Integral buffers will be    131072 words long.
 Raffenetti 2 integral format.
 Two-electron integral symmetry is turned on.
 One-electron integrals computed using PRISM.
 NBasis=   262 RedAO= T EigKep=  1.84D-06  NBF=   262
 NBsUse=   262 1.00D-06 EigRej= -1.00D+00 NBFU=   262
 Initial guess from the checkpoint file:  "m062x6311Anthranilic.chk"
 B after Tr=     0.000000   -0.000000    0.000000
         Rot=    1.000000   -0.000027    0.000074   -0.000399 Ang=  -0.05 deg.
 ExpMin= 4.38D-02 ExpMax= 8.59D+03 ExpMxC= 1.30D+03 IAcc=2 IRadAn=         4 AccDes= 0.00D+00
 Harris functional with IExCor=  402 and IRadAn=       4 diagonalized for initial guess.
 HarFok:  IExCor=  402 AccDes= 0.00D+00 IRadAn=         4 IDoV= 1 UseB2=F ITyADJ=14
 ICtDFT=  3500011 ScaDFX=  1.000000  1.000000  1.000000  1.000000
 FoFCou: FMM=F IPFlag=           0 FMFlag=      100000 FMFlg1=           0
         NFxFlg=           0 DoJE=T BraDBF=F KetDBF=T FulRan=T
         wScrn=  0.000000 ICntrl=     500 IOpCl=  0 I1Cent=   200000004 NGrid=           0
         NMat0=    1 NMatS0=      1 NMatT0=    0 NMatD0=    1 NMtDS0=    0 NMtDT0=    0
 Petite list used in FoFCou.
 Keep R1 ints in memory in canonical form, NReq=603942317.
 Requested convergence on RMS density matrix=1.00D-08 within 128 cycles.
 Requested convergence on MAX density matrix=1.00D-06.
 Requested convergence on             energy=1.00D-06.
 No special actions if energy rises.
 SCF Done:  E(RB3LYP) =  -476.331113719     A.U. after   11 cycles
            NFock= 11  Conv=0.62D-08     -V/T= 2.0039
 Calling FoFJK, ICntrl=      2127 FMM=F ISym2X=0 I1Cent= 0 IOpClX= 0 NMat=1 NMatS=1 NMatT=0.
 ***** Axes restored to original set *****
 -------------------------------------------------------------------
 Center     Atomic                   Forces (Hartrees/Bohr)
 Number     Number              X              Y              Z
 -------------------------------------------------------------------
      1        6          -0.000132518   -0.000152038    0.000059138
      2        6          -0.000228525   -0.000044353   -0.000000153
      3        6           0.000009281    0.000179302    0.000050198
      4        6           0.000098480   -0.000222797   -0.000129436
      5        6          -0.000321982   -0.000074852   -0.000808917
      6        6           0.000173683   -0.000022479   -0.000122039
      7        6           0.000390898    0.000478629    0.003005290
      8        8          -0.000167979   -0.000503660   -0.000897879
      9        7           0.000258887   -0.000018294   -0.000039672
     10        8          -0.000085566    0.000245974   -0.001197779
     11        1          -0.000056188   -0.000121628    0.000016967
     12        1          -0.000125549    0.000002002   -0.000009985
     13        1          -0.000059864    0.000124069    0.000004783
     14        1           0.000080215   -0.000106834   -0.000010205
     15        1           0.000187165    0.000015336   -0.000000936
     16        1          -0.000004267    0.000085259    0.000087684
     17        1          -0.000016171    0.000136363   -0.000007058
 -------------------------------------------------------------------
 Cartesian Forces:  Max     0.003005290 RMS     0.000509359

 GradGradGradGradGradGradGradGradGradGradGradGradGradGradGradGradGradGrad
 Berny optimization.
 Using GEDIIS/GDIIS optimizer.
 FormGI is forming the generalized inverse of G from B-inverse, IUseBI=4.
 Internal  Forces:  Max     0.000799993 RMS     0.000249929
 Search for a local minimum.
 Step number   3 out of a maximum of   86
 All quantities printed in internal units (Hartrees-Bohrs-Radians)
 Mixed Optimization -- En-DIIS/RFO-DIIS
 Swapping is turned off.
 Update second derivatives using D2CorX and points    1    2    3
 DE=  1.60D-05 DEPred=-1.44D-05 R=-1.11D+00
 Trust test=-1.11D+00 RLast= 3.41D-02 DXMaxT set to 1.50D-01
 ITU= -1  1  0
     Eigenvalues ---    0.01214   0.01648   0.01802   0.01929   0.02040
     Eigenvalues ---    0.02056   0.02100   0.02139   0.02160   0.02185
     Eigenvalues ---    0.02188   0.02209   0.02219   0.06362   0.14573
     Eigenvalues ---    0.16000   0.16000   0.16000   0.16000   0.16011
     Eigenvalues ---    0.16031   0.21771   0.22003   0.23461   0.24476
     Eigenvalues ---    0.24998   0.25002   0.25669   0.32206   0.35180
     Eigenvalues ---    0.35302   0.35492   0.36309   0.39698   0.40629
     Eigenvalues ---    0.42534   0.43956   0.45381   0.46578   0.46777
     Eigenvalues ---    0.47850   0.51503   0.52601   0.56500   0.65634
 En-DIIS/RFO-DIIS IScMMF=        0 using points:     3    2
 RFO step:  Lambda=-1.44115110D-05.
 DidBck=T Rises=F RFO-DIIS coefs:    0.32157    0.67843
 Iteration  1 RMS(Cart)=  0.00381681 RMS(Int)=  0.00001775
 Iteration  2 RMS(Cart)=  0.00002650 RMS(Int)=  0.00000115
 Iteration  3 RMS(Cart)=  0.00000000 RMS(Int)=  0.00000115
 Variable       Old X    -DE/DX   Delta X   Delta X   Delta X     New X
                                 (Linear)    (Quad)   (Total)
    R1        2.65017   0.00033   0.00012   0.00001   0.00014   2.65030
    R2        2.61013   0.00037   0.00003   0.00015   0.00018   2.61031
    R3        2.04568   0.00013   0.00009  -0.00004   0.00005   2.04573
    R4        2.60826   0.00036   0.00014  -0.00002   0.00012   2.60839
    R5        2.04954   0.00013   0.00007  -0.00001   0.00005   2.04959
    R6        2.67131   0.00022  -0.00019   0.00039   0.00020   2.67151
    R7        2.05034   0.00014   0.00007  -0.00001   0.00006   2.05040
    R8        2.69369  -0.00009  -0.00023   0.00022  -0.00001   2.69368
    R9        2.57158   0.00029  -0.00029   0.00056   0.00027   2.57186
   R10        2.66215   0.00017  -0.00018   0.00033   0.00015   2.66231
   R11        2.76857   0.00033  -0.00153   0.00246   0.00093   2.76950
   R12        2.04405   0.00013   0.00016  -0.00014   0.00002   2.04407
   R13        2.56688   0.00044  -0.00046   0.00090   0.00044   2.56732
   R14        2.30979   0.00014   0.00193  -0.00281  -0.00089   2.30891
   R15        1.82880   0.00019   0.00051  -0.00067  -0.00016   1.82864
   R16        1.90877  -0.00000   0.00045  -0.00066  -0.00022   1.90855
   R17        1.89823   0.00012   0.00012  -0.00011   0.00001   1.89823
    A1        2.07393  -0.00003   0.00010  -0.00015  -0.00005   2.07388
    A2        2.10500   0.00002   0.00009  -0.00011  -0.00002   2.10498
    A3        2.10426   0.00001  -0.00018   0.00025   0.00007   2.10433
    A4        2.11084  -0.00006   0.00016  -0.00027  -0.00011   2.11074
    A5        2.09241   0.00003   0.00001   0.00000   0.00002   2.09243
    A6        2.07993   0.00002  -0.00017   0.00026   0.00009   2.08001
    A7        2.11634  -0.00003  -0.00037   0.00049   0.00012   2.11646
    A8        2.09653   0.00003   0.00019  -0.00022  -0.00003   2.09649
    A9        2.07032   0.00000   0.00018  -0.00027  -0.00009   2.07023
   A10        2.05750   0.00007   0.00015  -0.00017  -0.00002   2.05748
   A11        2.08994   0.00010   0.00064  -0.00079  -0.00015   2.08979
   A12        2.13574  -0.00017  -0.00080   0.00097   0.00017   2.13591
   A13        2.08388   0.00010   0.00036  -0.00044  -0.00007   2.08381
   A14        2.09893  -0.00036  -0.00028  -0.00002  -0.00030   2.09863
   A15        2.10037   0.00026  -0.00009   0.00046   0.00037   2.10074
   A16        2.12388  -0.00005  -0.00041   0.00053   0.00012   2.12400
   A17        2.09768   0.00003   0.00018  -0.00021  -0.00003   2.09765
   A18        2.06162   0.00001   0.00023  -0.00032  -0.00009   2.06153
   A19        1.99004  -0.00017   0.00066  -0.00110  -0.00044   1.98961
   A20        2.19789  -0.00014  -0.00016   0.00012  -0.00003   2.19786
   A21        2.09505   0.00034  -0.00038   0.00104   0.00067   2.09572
   A22        1.85339   0.00003  -0.00177   0.00260   0.00083   1.85422
   A23        2.08218   0.00007  -0.00094   0.00151   0.00056   2.08274
   A24        2.09582   0.00002   0.00030  -0.00040  -0.00010   2.09572
   A25        2.10519  -0.00009   0.00064  -0.00111  -0.00047   2.10472
    D1        0.00012  -0.00001  -0.00010  -0.00002  -0.00012  -0.00000
    D2       -3.14147  -0.00001  -0.00010  -0.00002  -0.00012   3.14159
    D3       -3.14157  -0.00000  -0.00002  -0.00000  -0.00002   3.14159
    D4        0.00002  -0.00000  -0.00002  -0.00000  -0.00002  -0.00000
    D5       -0.00035   0.00003   0.00031   0.00005   0.00036   0.00001
    D6        3.14150   0.00001   0.00008   0.00001   0.00010  -3.14159
    D7        3.14134   0.00002   0.00022   0.00004   0.00026  -3.14159
    D8        0.00000  -0.00000  -0.00000   0.00000  -0.00000  -0.00000
    D9        0.00004  -0.00000  -0.00003  -0.00000  -0.00004   0.00000
   D10        3.14150   0.00001   0.00008   0.00001   0.00009  -3.14159
   D11       -3.14155  -0.00000  -0.00003  -0.00000  -0.00004  -3.14159
   D12       -0.00009   0.00001   0.00008   0.00001   0.00009   0.00000
   D13        0.00003  -0.00000  -0.00002  -0.00001  -0.00003  -0.00000
   D14        3.14118   0.00004   0.00037   0.00006   0.00043  -3.14158
   D15       -3.14144  -0.00001  -0.00014  -0.00002  -0.00016   3.14159
   D16       -0.00028   0.00002   0.00026   0.00004   0.00030   0.00001
   D17       -0.00025   0.00002   0.00022   0.00004   0.00026   0.00001
   D18        3.14159   0.00000  -0.00000   0.00001   0.00001  -3.14159
   D19       -3.14139  -0.00002  -0.00019  -0.00003  -0.00021   3.14158
   D20        0.00045  -0.00004  -0.00041  -0.00006  -0.00046  -0.00001
   D21       -3.14059  -0.00009  -0.00085  -0.00013  -0.00099  -3.14158
   D22        0.00025  -0.00003  -0.00025  -0.00005  -0.00030  -0.00005
   D23        0.00054  -0.00005  -0.00044  -0.00007  -0.00051   0.00003
   D24        3.14138   0.00001   0.00016   0.00002   0.00018   3.14156
   D25        0.00041  -0.00004  -0.00037  -0.00006  -0.00043  -0.00001
   D26       -3.14142  -0.00001  -0.00015  -0.00003  -0.00017   3.14159
   D27       -3.14142  -0.00002  -0.00014  -0.00003  -0.00018   3.14158
   D28       -0.00008   0.00000   0.00007   0.00000   0.00008  -0.00000
   D29        3.13124   0.00074   0.00909   0.00164   0.01073  -3.14122
   D30        0.01123  -0.00078  -0.00989  -0.00177  -0.01165  -0.00042
   D31       -0.01011   0.00072   0.00887   0.00161   0.01047   0.00037
   D32       -3.13011  -0.00080  -0.01011  -0.00180  -0.01190   3.14117
   D33       -3.13149  -0.00071  -0.00889  -0.00160  -0.01049   3.14121
   D34       -0.01009   0.00070   0.00886   0.00158   0.01044   0.00036
         Item               Value     Threshold  Converged?
 Maximum Force            0.000800     0.000450     NO 
 RMS     Force            0.000250     0.000300     YES
 Maximum Displacement     0.018677     0.001800     NO 
 RMS     Displacement     0.003817     0.001200     NO 
 Predicted change in Energy=-2.513309D-05
 GradGradGradGradGradGradGradGradGradGradGradGradGradGradGradGradGradGrad

                          Input orientation:                          
 ---------------------------------------------------------------------
 Center     Atomic      Atomic             Coordinates (Angstroms)
 Number     Number       Type             X           Y           Z
 ---------------------------------------------------------------------
      1          6           0       -1.854887   -1.519441    0.000068
      2          6           0       -2.583248   -0.320924   -0.000021
      3          6           0       -1.940012    0.900334   -0.000017
      4          6           0       -0.528930    0.986354    0.000077
      5          6           0        0.213170   -0.230669    0.000172
      6          6           0       -0.474850   -1.460073    0.000157
      7          6           0        1.678442   -0.201748    0.000279
      8          8           0        2.255318   -1.431754   -0.000098
      9          7           0        0.072964    2.206992    0.000096
     10          8           0        2.375703    0.801582   -0.000121
     11          1           0       -2.364881   -2.474340    0.000065
     12          1           0       -3.667522   -0.347430   -0.000095
     13          1           0       -2.516661    1.819442   -0.000084
     14          1           0        0.108719   -2.370825    0.000225
     15          1           0        3.211376   -1.282248   -0.000340
     16          1           0        1.081462    2.261337    0.000151
     17          1           0       -0.484031    3.042924    0.000001
 ---------------------------------------------------------------------
                    Distance matrix (angstroms):
                    1          2          3          4          5
     1  C    0.000000
     2  C    1.402481   0.000000
     3  C    2.421272   1.380299   0.000000
     4  C    2.834992   2.434995   1.413702   0.000000
     5  C    2.436760   2.797874   2.432152   1.425432   0.000000
     6  C    1.381314   2.396456   2.778169   2.447025   1.408832
     7  C    3.771039   4.263356   3.782565   2.506806   1.465557
     8  O    4.111141   4.964440   4.799941   3.687721   2.369172
     9  N    4.195583   3.666855   2.399881   1.360967   2.441690
    10  O    4.825458   5.084409   4.316845   2.910504   2.396266
    11  H    1.082555   2.164459   3.401314   3.917540   3.417661
    12  H    2.158530   1.084598   2.131010   3.410241   3.882448
    13  H    3.403834   2.141402   1.085027   2.155252   3.413932
    14  H    2.140235   3.383604   3.859765   3.417199   2.142704
    15  H    5.071813   5.873824   5.594682   4.374522   3.177272
    16  H    4.787111   4.483099   3.313855   2.054007   2.638944
    17  H    4.763866   3.965121   2.590477   2.057059   3.347013
                    6          7          8          9         10
     6  C    0.000000
     7  C    2.494002   0.000000
     8  O    2.730315   1.358565   0.000000
     9  N    3.707758   2.894752   4.243011   0.000000
    10  O    3.638782   1.221820   2.236578   2.697737   0.000000
    11  H    2.144984   4.638226   4.736373   5.278064   5.762361
    12  H    3.380995   5.347948   6.021278   4.529493   6.151487
    13  H    3.863186   4.656619   5.774258   2.618464   4.997125
    14  H    1.081676   2.677485   2.343020   4.577957   3.899152
    15  H    3.690513   1.875464   0.967677   4.693019   2.245150
    16  H    4.033733   2.534398   3.875159   1.009961   1.950883
    17  H    4.503006   3.899255   5.246597   1.004503   3.633413
                   11         12         13         14         15
    11  H    0.000000
    12  H    2.494117   0.000000
    13  H    4.296463   2.453531   0.000000
    14  H    2.475765   4.284171   4.944791   0.000000
    15  H    5.702256   6.942126   6.513899   3.288082   0.000000
    16  H    5.856955   5.418350   3.625157   4.733197   4.134432
    17  H    5.829048   4.650711   2.372444   5.446102   5.688862
                   16         17
    16  H    0.000000
    17  H    1.749756   0.000000
 Stoichiometry    C7H7NO2
 Framework group  C1[X(C7H7NO2)]
 Deg. of freedom    45
 Full point group                 C1      NOp   1
 Largest Abelian subgroup         C1      NOp   1
 Largest concise Abelian subgroup C1      NOp   1
                         Standard orientation:                         
 ---------------------------------------------------------------------
 Center     Atomic      Atomic             Coordinates (Angstroms)
 Number     Number       Type             X           Y           Z
 ---------------------------------------------------------------------
[...]
 ! D24   D(5,4,9,17)           179.9974         -DE/DX =    0.0                 !
 ! D25   D(4,5,6,1)             -0.0001         -DE/DX =    0.0                 !
 ! D26   D(4,5,6,14)          -180.0001         -DE/DX =    0.0                 !
 ! D27   D(7,5,6,1)           -179.9997         -DE/DX =    0.0                 !
 ! D28   D(7,5,6,14)             0.0003         -DE/DX =    0.0                 !
 ! D29   D(4,5,7,8)            180.002          -DE/DX =    0.0                 !
 ! D30   D(4,5,7,10)            -0.0031         -DE/DX =    0.0                 !
 ! D31   D(6,5,7,8)              0.0016         -DE/DX =    0.0                 !
 ! D32   D(6,5,7,10)           179.9966         -DE/DX =    0.0                 !
 ! D33   D(5,7,8,15)           179.9975         -DE/DX =    0.0                 !
 ! D34   D(10,7,8,15)            0.0022         -DE/DX =    0.0                 !
 --------------------------------------------------------------------------------
 GradGradGradGradGradGradGradGradGradGradGradGradGradGradGradGradGradGrad

 1\1\ WCSS.PL-BEM-QINLAB\Freq\RB3LYP\6-311+G(d,p)\C7H7N1O2\PHZD\22-Jun-
 2024\0\\#N Geom=AllCheck Guess=TCheck SCRF=Check GenChk RB3LYP/6-311+G
 (d,p) Freq\\[No Title]\\0,1\C,-1.8550551506,-1.5197624962,0.0000481249
 \C,-2.5836412251,-0.3209947016,0.0000400605\C,-1.9402342809,0.90055787
 01,0.0000361619\C,-0.5289693759,0.9862346404,0.0000406449\C,0.21305907
 13,-0.2308011013,0.000047745\C,-0.4746855022,-1.4604108077,0.000050548
 3\C,1.6785672031,-0.2012968807,0.0000439182\O,2.2549877396,-1.43188121
 59,0.000008012\N,0.0732462475,2.2069234266,0.0000477177\O,2.375972098,
 0.8024333317,-0.0000178884\H,-2.3649969481,-2.4749011517,0.0000511741\
 H,-3.6680838418,-0.3474384815,0.0000367426\H,-2.516796692,1.8199434581
 ,0.0000314746\H,0.1091376584,-2.3712541606,0.000055043\H,3.2113399339,
 -1.2822439994,-0.0000312876\H,1.0818226217,2.2612113932,0.0000237346\H
 ,-0.4835365569,3.0431938765,0.0000030738\\Version=ES64L-G09RevE.01\Sta
 te=1-A\HF=-476.331139\RMSD=6.025e-09\RMSF=2.517e-05\ZeroPoint=0.131333
 6\Thermal=0.1392829\Dipole=-0.4773688,0.2235969,-0.0000187\DipoleDeriv
 =-0.558001,0.2681614,0.0000059,0.1933232,-0.1787317,-0.0000186,-0.0000
 066,0.0000189,-0.1928904,0.1693979,0.0064055,0.0000093,-0.262803,0.492
 9887,0.0000002,0.0000181,-0.0000441,-0.0976943,-0.1335064,-0.6410017,0
 .0000087,-0.030871,-0.2287359,-0.0000094,-0.0000044,0.0000261,-0.19095
 53,0.3686415,0.7874169,0.0000117,0.2843539,1.3028601,-0.0000017,-0.000
 0248,0.0000243,0.1063294,-0.9936579,0.2965891,0.0000078,-0.3148055,-0.
 3599481,0.0000103,0.000029,-0.0000337,-0.0655897,0.5390282,-0.104158,-
 0.0000131,0.4290413,0.0289864,0.000005,-0.0000196,0.0000125,-0.0875098
 ,2.3510763,-0.2924154,-0.000021,-0.0986264,1.5784798,-0.0000182,-0.000
 0703,0.0000338,0.3112032,-0.8766577,0.5472149,0.0000051,0.6413804,-1.0
 786814,0.0000004,0.0000185,-0.0000251,-0.3734201,-0.4166278,-0.5439997
 ,0.0000006,-0.3230717,-1.2912611,-0.0000308,0.0000121,-0.000077,-0.542
 5622,-1.2327888,-0.2837267,0.0000044,-0.417522,-0.9259982,0.0000091,0.
 000049,0.0000072,-0.3764036,0.0194037,-0.0619072,0.0000065,-0.0721059,
 -0.0634011,0.000013,0.0000024,-0.0000029,0.1540408,-0.1045665,-0.00484
 58,-0.0000061,-0.0037102,0.0845983,0.0000009,-0.0000046,0.0000073,0.13
 01161,0.021107,0.0495861,-0.00001,0.0800166,-0.0893244,0.000017,-0.000
 0015,0.0000033,0.1454348,0.0822062,0.0484827,0.0000005,0.0442159,0.008
 0374,-0.0000006,-0.0000016,0.0000035,0.1292237,0.3169571,-0.0764484,-0
 .0000033,-0.1338554,0.2766336,0.0000055,0.0000108,-0.000011,0.3345321,
 0.3300988,-0.0175851,0.000002,-0.0157825,0.2173362,0.0000013,-0.000003
 2,0.0000332,0.2981513,0.1178894,0.0222314,-0.0000088,0.0008222,0.22616
 13,0.0000168,-0.0000032,0.0000237,0.3179941\Polar=128.3453524,4.182818
 ,115.4933865,-0.0006957,0.0010151,54.2036468\PG=C01 [X(C7H7N1O2)]\NIma
 g=1\\0.68702669,0.04758199,0.70947492,0.00000094,-0.00000232,0.1213640
 4,-0.17490931,0.11329408,-0.00000095,0.73116498,0.04992327,-0.26276013
 ,0.00000106,0.01896347,0.66924708,-0.00000036,0.00000103,-0.06203730,0
 .00000182,-0.00000265,0.13908402,0.05935726,-0.01701328,0.00000029,-0.
 18018727,-0.06903214,-0.00000011,0.64834292,0.02455314,-0.05753824,0.0
 0000035,-0.12865423,-0.31520344,0.00000107,-0.00063547,0.75188541,-0.0
 0000027,0.00000062,0.00897046,0.00000016,0.00000095,-0.05611406,0.0000
 0177,-0.00000244,0.11840908,-0.05447225,0.03056407,-0.00000048,-0.0192
 7048,-0.07986807,0.00000071,-0.27976095,0.03734096,-0.00000093,0.66823
 136,0.02365127,-0.00391392,0.00000030,-0.03747807,0.02070364,-0.000000
 59,-0.01746506,-0.12293494,0.00000071,0.03289698,0.70926864,-0.0000003
 1,0.00000016,-0.00488394,0.00000003,-0.00000043,0.00097671,-0.00000055
 ,0.00000021,-0.06795926,0.00000192,-0.00000253,0.16234231,-0.03843564,
 -0.02330050,-0.00000025,-0.00149868,-0.01290106,0.00000027,-0.01446612
 ,0.02564701,-0.00000048,-0.17878906,0.07115052,-0.00000126,0.62262370,
 -0.06466400,0.02001669,-0.00000026,0.00578506,-0.05112235,0.00000011,0
 .04879519,0.02896781,0.00000007,0.04074048,-0.21972155,0.00000112,0.01
 510988,0.67224560,0.00000065,-0.00000052,0.00899954,-0.00000002,0.0000
 0017,-0.00501135,-0.00000029,0.00000024,0.00703463,-0.00000056,0.00000
 075,-0.06522346,-0.00000212,-0.00000229,0.12934057,-0.35546602,-0.0417
 7848,-0.00000016,-0.03395736,0.07518703,-0.00000060,-0.04444389,-0.028
 16338,0.00000030,0.06789314,-0.00872403,0.00000037,-0.14872289,-0.0509
 0654,-0.00000086,0.71788070,0.02004032,-0.12666662,0.00000030,0.028448
 15,0.03260254,0.00000018,-0.02259679,-0.01722899,-0.00000011,0.0241388
 6,-0.05215140,0.00000045,-0.09019571,-0.26487489,0.00000050,-0.0467514
 9,0.68516061,-0.00000089,0.00000024,-0.06297008,-0.00000024,0.00000009
 ,0.00704206,0.00000010,-0.00000006,-0.00343524,-0.00000007,0.00000006,
 0.00116805,-0.00000028,0.00000054,-0.05694979,0.00000151,-0.00000211,0
 .14112263,0.01992618,-0.00788904,0.00000031,0.00098319,0.01385783,-0.0
 0000014,-0.00844735,-0.00083222,0.00000028,-0.00957254,0.04089203,0.00
 000002,-0.19716201,0.00434163,-0.00000095,-0.03561028,-0.02787083,0.00
 000019,0.71828863,-0.00202636,-0.00830779,0.00000015,0.00024547,-0.000
 32820,-0.00000026,0.00102066,-0.00642249,0.00000037,0.03353258,0.02136
 426,0.00000007,0.01698429,-0.10375591,-0.00000039,-0.03178409,0.007755
 09,-0.00000015,0.15721862,0.76337383,-0.00000066,0.00000030,0.00755496
 ,0.00000006,-0.00000029,-0.00085183,0.00000013,0.00000024,0.00583393,-
 0.00000044,-0.00000095,-0.00023804,0.00000185,-0.00000030,-0.07669391,
 0.00000062,0.00000063,-0.00348447,-0.00002288,-0.00001645,0.20916490,-
 0.00198569,0.00173221,-0.00000012,-0.00067350,-0.00091355,0.00000034,-
 0.00012335,0.00194848,-0.00000030,-0.00622926,-0.00996773,0.00000008,-
 0.03331641,0.04247404,0.00000178,-0.00284709,0.00328900,-0.00000005,-0
 .15385592,0.06977991,0.00000350,0.64693359,0.00365340,0.00035189,0.,-0
 .00002916,0.00152147,0.00000010,-0.00026376,0.00086239,-0.00000008,-0.
 00215693,0.00189448,0.00000004,0.02047538,-0.00373955,-0.00000088,-0.0
 0472233,-0.00667269,0.00000023,0.03121515,-0.20806378,-0.00000128,0.00
 927617,0.38119255,0.00000009,0.00000003,-0.00043723,0.,0.00000014,-0.0
 0017116,0.00000001,-0.00000018,-0.00075990,0.00000008,0.00000039,0.002
 39171,0.00000037,-0.00000089,0.01183615,0.00000008,-0.00000024,0.00040
 967,0.00000371,-0.00000442,-0.06299594,-0.00002414,-0.00000075,0.03425
 602,0.00922351,-0.00851162,0.00000012,-0.00420802,0.01651328,-0.000000
 40,-0.03961948,-0.05757724,-0.00000056,-0.17647355,-0.08253432,-0.0000
 0132,0.03044069,0.01712125,-0.00000004,-0.01396169,-0.00183487,0.00000
 025,-0.01935304,-0.00982987,0.00000067,0.00213421,0.00319011,0.0000000
 3,0.85251457,0.00097809,-0.00812810,0.00000014,0.00567291,0.00850748,-
 0.00000011,-0.02854559,-0.01054328,-0.00000022,-0.08803868,-0.30949285
 ,-0.00000089,0.00366911,-0.04953675,-0.00000038,0.00046476,0.00044695,
 0.00000018,-0.02178696,-0.00590417,0.00000065,0.00351471,-0.00261661,-
 0.00000012,-0.05369430,0.78425214,0.00000014,-0.00000036,-0.00098753,0
 .00000015,0.00000051,0.00426998,-0.00000094,-0.00000032,0.00987921,0.0
 0000079,0.00000358,-0.03513581,0.00000130,-0.00000034,0.00588962,-0.00
 000037,0.00000017,0.00403011,-0.00000076,-0.00000026,-0.00122019,0.000
 00017,-0.00000031,-0.00014326,0.00000022,-0.00002193,0.00959440,-0.006
 19299,-0.00002607,-0.00000009,-0.00003797,-0.00460443,-0.00000016,0.00
 294564,0.00063716,0.00000014,0.00036602,-0.01107825,-0.00000011,-0.038
 77064,-0.04576208,0.00000289,-0.00191906,0.00978758,0.00000019,-0.2979
 1168,-0.24956468,0.00001618,0.03565562,0.00131247,-0.00000011,0.000634
 42,0.01549068,0.00000006,0.31751374,-0.00759546,0.00423384,-0.00000017
 ,0.00018901,-0.00729402,0.00000013,0.00612959,0.00351410,-0.00000015,-
 0.00668612,-0.02349718,-0.00000023,-0.04125381,-0.00480907,0.00000175,
 0.00658787,0.00691945,0.,-0.23872718,-0.44987483,0.00002020,-0.0166810
 8,-0.10975399,0.00000260,0.02037870,0.00459499,0.00000042,0.29040995,0
 .56479707,0.00000045,-0.00000013,-0.00168020,-0.00000002,0.00000018,0.
 00026020,-0.00000013,-0.00000005,-0.00051116,0.00000019,0.00000073,-0.
 00107226,0.00000121,0.00000188,0.02021263,0.00000008,-0.00000045,0.004
 31672,0.00001762,0.00002157,-0.07736949,-0.00000015,0.00000094,0.02694
 302,-0.00000053,-0.00000086,0.00256580,-0.00001883,-0.00002447,0.03574
 263,-0.11977916,-0.11634128,0.00000030,0.01146449,0.01665365,0.0000000
 6,-0.00130483,0.00295731,-0.00000011,-0.00096292,0.00077665,0.,-0.0049
 2193,0.00167537,0.,-0.01096036,-0.02964858,0.00000006,0.00079236,-0.00
 161798,-0.00000015,-0.00023842,0.00030229,0.,0.00038843,-0.00010165,0.
 ,-0.00100244,-0.00025273,0.00000012,0.12447699,-0.11662998,-0.27670630
 ,0.00000068,-0.01487231,-0.01854164,0.00000024,0.00411316,-0.00224894,
 -0.00000013,0.00083612,0.00003838,0.00000002,0.00045862,0.00177047,0.0
 0000018,0.00184882,0.00283696,-0.00000003,0.00044517,0.00000701,-0.000
 00019,-0.00019063,0.00011247,-0.00000001,-0.00022288,0.00014007,0.,-0.
 00014689,0.00000027,0.00000011,0.12502713,0.29197699,0.00000037,0.0000
 0073,-0.03124190,0.00000010,0.00000020,0.00106342,-0.00000009,0.000000
 02,0.00554613,0.00000004,0.00000002,-0.00048062,0.,0.,0.00704940,-0.00
 000006,-0.00000007,0.00165231,0.,-0.00000002,0.00133571,0.00000002,-0.
 00000001,-0.00001812,-0.00000002,-0.00000007,-0.00053775,-0.00000003,0
 .00000002,-0.00059093,-0.00000031,-0.00000085,0.02371298,-0.01170294,-
 0.00350134,0.00000002,-0.33405230,-0.00689293,-0.00000098,-0.01095527,
 0.00206600,0.00000003,0.00129585,-0.00220909,-0.00000003,0.00069943,-0
 .00002483,-0.00000008,0.00016909,0.00357996,-0.00000002,0.00018363,0.0
 0005649,0.00000009,-0.00018937,0.00005758,0.00000002,-0.00096960,-0.00
 004647,0.,-0.00017113,-0.00006500,-0.00000005,0.00076690,0.00025316,0.
 ,0.35458358,0.02699314,0.00621572,0.00000006,-0.00602295,-0.05989031,0
 .00000012,-0.02862033,0.00321094,-0.00000008,-0.00221025,-0.00485337,0
 .00000003,-0.00048787,-0.00102855,0.00000002,0.00301203,-0.00457696,0.
 00000005,0.00038054,-0.00019473,-0.00000003,-0.00001790,0.00022122,0.,
 -0.00132215,0.00059807,0.00000003,-0.00004837,0.00004258,0.,-0.0006357
 3,0.00089044,-0.00000002,0.00743597,0.05860134,-0.00000018,-0.00000003
 ,0.00448805,-0.00000091,0.00000014,-0.03980497,0.00000018,-0.00000002,
 0.00449379,-0.00000013,0.00000013,0.00847520,0.,0.00000004,-0.00077293
 ,-0.00000007,0.,0.00626690,-0.00000002,0.00000002,-0.00109924,-0.00000
 006,-0.00000002,0.00018391,0.00000009,0.00000002,-0.00017584,0.0000000
 3,0.,0.00013928,0.,-0.00000004,-0.00331352,0.00000099,-0.00000015,0.02
 620587,-0.00034035,-0.00306894,0.00000007,0.01155097,-0.01407732,-0.00
 000001,-0.13721365,0.12336757,-0.00000060,-0.01257954,0.02863055,-0.00
 000010,-0.00485250,-0.00198416,-0.00000014,-0.00102609,-0.00113217,0.,
 0.00038981,0.00162293,0.00000007,-0.00080449,0.00006490,0.00000003,0.0
 0206681,0.00099581,-0.00000013,-0.00013255,-0.00037426,-0.00000004,0.0
 0037143,-0.00070833,0.,0.00088782,0.00036071,0.00000001,0.14256774,-0.
 00428819,-0.00260773,-0.00000009,0.01731959,-0.02002262,0.00000028,0.1
 2399018,-0.25171360,0.00000093,-0.00357998,0.00126093,0.00000007,-0.00
 022691,0.00139616,0.00000009,-0.00075552,0.00009349,0.,-0.00102924,-0.
 00018219,-0.00000017,0.00017206,-0.00004771,0.,-0.00106460,0.00217701,
 -0.00000006,0.00032395,0.00041215,0.00000007,0.00084464,-0.00101816,0.
 00000004,-0.00025044,0.00093832,-0.00000003,-0.13247241,0.26887480,0.,
 0.00000001,0.00723351,-0.00000004,0.00000013,0.00234361,-0.00000070,0.
 00000097,-0.03195859,-0.00000005,0.00000010,0.00372868,-0.00000005,0.0
 0000008,0.00482352,-0.00000002,-0.00000004,-0.00078692,0.,0.,0.0000590
 0,-0.00000003,0.,-0.00005430,0.00000015,-0.00000007,-0.00262179,0.0000
 0002,0.,0.00000410,0.,0.,0.00058803,0.00000002,-0.00000002,-0.00462381
 ,0.00000074,-0.00000121,0.02220734,-0.01086896,0.02698147,-0.00000013,
 -0.00556785,-0.00112083,-0.00000018,-0.00045442,-0.00093569,0.00000009
 ,-0.00137131,-0.00318485,0.00000003,0.01096636,-0.01295600,-0.00000003
 ,-0.13887107,0.12990890,-0.00000069,0.00152098,-0.00167104,0.00000001,
 -0.00454030,-0.00062205,0.00000018,0.00051990,-0.00071565,0.00000003,0
 .00018601,0.00093594,-0.00000008,0.00104800,-0.00034327,0.00000001,-0.
 00064487,0.00127682,0.00000003,0.00003607,0.00008078,0.00000002,0.1479
 7697,-0.00313034,0.00602568,-0.00000012,-0.00095203,0.00119712,0.00000
 033,-0.00043514,0.00025709,-0.00000018,-0.00407541,-0.00247469,-0.0000
 0007,0.01502087,-0.01898839,0.00000038,0.12680880,-0.26110832,0.000001
 02,0.00269876,-0.00272359,-0.00000023,0.00056590,0.00172358,-0.0000000
 8,0.00111526,-0.00084284,0.00000006,-0.00033623,0.00091369,0.00000013,
 0.00034060,0.00072044,0.,-0.00026513,0.00015512,-0.00000006,0.00009082
 ,-0.00001733,-0.00000003,-0.13742140,0.27474170,-0.00000004,0.00000011
 ,0.00552010,-0.00000004,0.00000006,0.00770482,0.,-0.00000004,-0.000961
 95,0.,0.00000004,0.00556541,0.00000013,0.00000019,0.00321011,-0.000000
 78,0.00000089,-0.03912828,-0.00000018,0.00000001,-0.00348140,0.0000000
 7,-0.00000004,0.00051488,0.00000002,0.,0.00031983,0.00000007,0.0000000
 2,0.00055153,0.00000001,-0.00000003,-0.00464953,0.,0.,-0.00023276,0.,0
 .,-0.00073888,0.00000077,-0.00000121,0.02616999,0.00047835,-0.00025764
 ,0.00000013,0.00007400,0.00030345,-0.00000033,-0.00010900,0.00034379,0
 .00000019,-0.00083862,-0.00001495,0.00000011,0.00261231,0.00290817,-0.
 00000004,0.00033127,-0.00026885,0.00000011,-0.03275368,0.00733870,0.00
 000139,-0.47883759,-0.05793312,0.00001951,0.00039530,-0.00059303,-0.00
 000006,0.00273457,-0.00878102,-0.00000033,0.00001015,0.00002078,-0.000
 00001,0.00002993,0.00000009,0.00000006,-0.00006039,-0.00002900,0.00000
 002,-0.00008833,-0.00001699,0.,0.50646981,-0.00029279,0.00045959,-0.00
 000002,-0.00016791,-0.00018069,0.,0.00010914,-0.00043743,0.,0.00149312
 ,0.00079228,0.00000001,0.00101647,-0.00667733,-0.00000004,-0.00080161,
 -0.00065632,0.00000002,0.05504435,0.00770793,-0.00000245,-0.10531915,-
 0.06162765,0.00000358,-0.00045196,0.00024358,0.,-0.00771785,0.00154615
 ,0.00000046,-0.00003328,-0.00002053,0.,-0.00004007,0.00003845,0.,0.000
 13291,0.00001766,0.,0.00016029,0.00076436,0.,0.05639320,0.05864037,0.0
 0000010,-0.00000006,0.00012929,0.,-0.00000005,0.00005908,-0.00000006,0
 .00000003,-0.00024294,0.00000020,-0.00000010,0.00086238,-0.00000023,-0
 .00000016,0.00342341,-0.00000014,0.00000003,-0.00021624,0.00000264,-0.
 00000048,0.00376700,0.00001895,0.00000185,-0.01265731,-0.00000010,-0.0
 0000003,-0.00003490,-0.00000052,0.00000026,-0.00554291,0.00000003,0.00
 000005,-0.00001314,-0.00000003,0.,-0.00002378,-0.00000001,0.00000003,-
 0.00002228,-0.00000006,0.00000014,-0.00038413,-0.00002082,-0.00000155,
 0.01082427,-0.00220082,0.00215406,-0.00000004,-0.00063674,-0.00318210,
 0.00000014,0.00569623,0.00133703,0.00000010,-0.01280780,-0.01271277,0.
 00000027,-0.00607798,0.00145384,-0.00000007,0.00127497,0.00151403,-0.0
 0000014,0.01590306,0.01146315,-0.00000069,-0.00146057,-0.00468850,0.00
 000014,-0.44152761,-0.02216922,0.00000943,-0.01221395,-0.00870033,0.00
 000047,-0.00009177,0.00002234,0.00000001,0.00008405,-0.00009720,-0.000
 00004,-0.00010054,0.00010085,0.,0.00024804,0.00021783,-0.00000002,-0.0
 0051778,0.00061758,0.00000007,0.45591699,0.00191911,-0.00110749,0.0000
 0004,-0.00150521,0.00279580,-0.00000010,-0.00254062,-0.00717200,0.0000
 0005,-0.03326584,0.00893011,0.00000078,0.00434523,0.00065206,0.,-0.001
 53267,-0.00135647,0.00000001,-0.00836559,-0.01392684,0.00000052,0.0004
 9336,0.00404136,0.,-0.02331611,-0.07571794,0.00000238,0.00203747,0.007
 38168,-0.00000030,0.00012033,-0.00001925,-0.00000001,-0.00021206,-0.00
 040765,0.00000003,-0.00012095,0.00019656,0.,-0.00008036,-0.00004685,0.
 ,0.00047818,-0.00054422,-0.00000004,0.03587105,0.06900921,-0.00000015,
 0.00000015,0.00005945,-0.00000008,-0.00000014,0.00209588,0.00000021,-0
 .00000009,0.00372481,-0.00000130,-0.00000075,-0.00480526,-0.00000011,0
 .00000020,-0.00099163,0.00000012,0.,-0.00055138,-0.00000012,0.00000011
 ,-0.00022045,0.,0.00000014,0.00124260,0.00001310,0.00000343,-0.0003850
 5,0.00000012,-0.00000014,-0.00466659,-0.00000001,-0.00000003,-0.000145
 03,0.00000001,-0.00000002,-0.00037524,0.00000005,-0.00000001,-0.000780
 82,0.00000004,-0.00000008,-0.00002595,0.00000010,-0.00000002,0.0000944
 5,-0.00000990,-0.00000213,0.01142122,0.00034214,-0.00061968,0.00000007
 ,-0.00023818,0.00119046,-0.00000004,0.00074352,-0.00340022,0.00000019,
 0.01534191,-0.01262887,0.00000085,-0.00032864,-0.00410730,-0.00000011,
 0.00023663,-0.00040751,-0.00000003,-0.00332133,-0.00276878,0.00000024,
 0.00037852,0.00086841,-0.00000002,-0.20220486,0.18490548,-0.00001004,-
 0.00168361,0.00448591,0.00000001,-0.00005694,0.00008900,-0.00000003,-0
 .00001481,0.00000346,0.,-0.00076056,0.00086421,-0.00000006,-0.00009524
 ,-0.00022618,0.,0.00006970,-0.00014245,-0.00000003,-0.00148776,0.02567
 468,-0.00000208,0.19307951,-0.00066661,0.00095801,-0.00000011,-0.00023
 590,-0.00123173,0.00000013,0.00299027,0.00274563,-0.00000031,0.0183381
 2,-0.02521286,0.00000119,-0.00551153,-0.00079444,0.00000043,0.00201084
 ,-0.00052244,-0.00000010,0.00040698,-0.00052361,-0.00000019,-0.0001558
 0,0.00060055,-0.00000004,0.18204132,-0.33817775,0.00001640,-0.00071441
 ,0.00087312,0.00000018,-0.00006674,0.00006133,0.00000004,0.00005822,0.
 00003937,-0.00000003,-0.00132768,0.00024224,0.00000009,-0.00029305,-0.
 00029676,-0.00000001,0.00010824,-0.00006621,0.00000007,-0.00320164,0.0
 0729192,-0.00000063,-0.19378063,0.35401365,0.00000010,0.00000004,-0.00
 008122,-0.00000001,-0.00000009,-0.00090912,0.00000019,0.00000005,-0.00
 194894,0.00000003,-0.00000186,-0.00571182,-0.00000035,0.00000003,0.003
 82349,-0.00000002,-0.00000013,0.00151394,0.00000028,0.00000011,-0.0000
 6055,-0.00000005,0.00000005,-0.00054075,-0.00001166,0.00002026,0.00469
 318,0.00000014,-0.00000024,0.00069762,0.00000002,0.00000003,0.00004256
 ,-0.00000002,0.,0.00016910,0.00000008,0.00000005,0.00059959,-0.0000000
 4,0.00000002,0.00004621,-0.00000003,0.,-0.00002225,0.00000027,-0.00000
 122,-0.00569101,0.00001108,-0.00001709,0.00337999\\0.00000221,-0.00003
 017,0.00000025,-0.00002540,0.00001174,0.00000002,0.00000032,0.00001921
 ,0.00000014,0.00001828,0.00002223,-0.00000039,0.00000064,-0.00003419,-
 0.00000317,0.00001806,0.00000859,-0.00000059,0.00000571,-0.00007431,0.
 00001212,-0.00006955,-0.00001932,-0.00000358,-0.00003154,0.00001674,-0
 .00000037,0.00007890,0.00007597,-0.00000487,-0.00000732,-0.00001673,0.
 00000007,-0.00001693,0.00000173,-0.00000004,-0.00000960,0.00001911,0.0
 0000001,0.00002294,-0.00002219,-0.00000004,0.00002603,0.00000657,-0.00
 000002,0.00000674,-0.00000409,0.00000042,-0.00001949,0.00001912,0.0000
 0005\\\@


 The chemist is a guest at the physicist's table and
 frequently dines well.
                   -- Richard Bersohn
 Job cpu time:       0 days  0 hours 33 minutes 22.6 seconds.
 File lengths (MBytes):  RWF=    115 Int=      0 D2E=      0 Chk=      6 Scr=      1
 Normal termination of Gaussian 09 at Sat Jun 22 17:09:12 2024.
