 Entering Gaussian System, Link 0=g09
 Input=pvdzFAyang.gjf
 Output=pvdzFAyang.log
 Initial command:
 /home/c612/g09E/g09/l1.exe "/mnt/ja_sm883/scratch/Gau-3903864.inp" -scrdir="/mnt/ja_sm883/scratch/"
 Default is to use a total of  18 processors:
                               18 via shared-memory
                                1 via Linda
 Entering Link 1 = /home/c612/g09E/g09/l1.exe PID=   3903866.
  
 Copyright (c) 1988,1990,1992,1993,1995,1998,2003,2009,2015,
            Gaussian, Inc.  All Rights Reserved.
  
 This is part of the Gaussian(R) 09 program.  It is based on
 the Gaussian(R) 03 system (copyright 2003, Gaussian, Inc.),
 the Gaussian(R) 98 system (copyright 1998, Gaussian, Inc.),
 the Gaussian(R) 94 system (copyright 1995, Gaussian, Inc.),
 the Gaussian 92(TM) system (copyright 1992, Gaussian, Inc.),
 the Gaussian 90(TM) system (copyright 1990, Gaussian, Inc.),
 the Gaussian 88(TM) system (copyright 1988, Gaussian, Inc.),
 the Gaussian 86(TM) system (copyright 1986, Carnegie Mellon
 University), and the Gaussian 82(TM) system (copyright 1983,
 Carnegie Mellon University). Gaussian is a federally registered
 trademark of Gaussian, Inc.
  
 This software contains proprietary and confidential information,
 including trade secrets, belonging to Gaussian, Inc.
  
 This software is provided under written license and may be
 used, copied, transmitted, or stored only in accord with that
 written license.
  
 The following legend is applicable only to US Government
 contracts under FAR:
  
                    RESTRICTED RIGHTS LEGEND
  
 Use, reproduction and disclosure by the US Government is
 subject to restrictions as set forth in subparagraphs (a)
 and (c) of the Commercial Computer Software - Restricted
 Rights clause in FAR 52.227-19.
  
 Gaussian, Inc.
 340 Quinnipiac St., Bldg. 40, Wallingford CT 06492
  
  
 ---------------------------------------------------------------
 Warning -- This program may not be used in any manner that
 competes with the business of Gaussian, Inc. or will provide
 assistance to any competitor of Gaussian, Inc.  The licensee
 of this program is prohibited from giving any competitor of
 Gaussian, Inc. access to this program.  By using this program,
 the user acknowledges that Gaussian, Inc. is engaged in the
 business of creating and licensing software in the field of
 computational chemistry and represents and warrants to the
 licensee that it is not a competitor of Gaussian, Inc. and that
 it will not use this program in any manner prohibited above.
 ---------------------------------------------------------------
  

 Cite this work as:
 Gaussian 09, Revision E.01,
 M. J. Frisch, G. W. Trucks, H. B. Schlegel, G. E. Scuseria, 
 M. A. Robb, J. R. Cheeseman, G. Scalmani, V. Barone, B. Mennucci, 
 G. A. Petersson, H. Nakatsuji, M. Caricato, X. Li, H. P. Hratchian, 
 A. F. Izmaylov, J. Bloino, G. Zheng, J. L. Sonnenberg, M. Hada, 
 M. Ehara, K. Toyota, R. Fukuda, J. Hasegawa, M. Ishida, T. Nakajima, 
 Y. Honda, O. Kitao, H. Nakai, T. Vreven, J. A. Montgomery, Jr., 
 J. E. Peralta, F. Ogliaro, M. Bearpark, J. J. Heyd, E. Brothers, 
 K. N. Kudin, V. N. Staroverov, T. Keith, R. Kobayashi, J. Normand, 
 K. Raghavachari, A. Rendell, J. C. Burant, S. S. Iyengar, J. Tomasi, 
 M. Cossi, N. Rega, J. M. Millam, M. Klene, J. E. Knox, J. B. Cross, 
 V. Bakken, C. Adamo, J. Jaramillo, R. Gomperts, R. E. Stratmann, 
 O. Yazyev, A. J. Austin, R. Cammi, C. Pomelli, J. W. Ochterski, 
 R. L. Martin, K. Morokuma, V. G. Zakrzewski, G. A. Voth, 
 P. Salvador, J. J. Dannenberg, S. Dapprich, A. D. Daniels, 
 O. Farkas, J. B. Foresman, J. V. Ortiz, J. Cioslowski, 
 and D. J. Fox, Gaussian, Inc., Wallingford CT, 2013.
 
 ******************************************
 Gaussian 09:  ES64L-G09RevE.01 30-Nov-2015
                15-Dec-2024 
 ******************************************
 %chk=pvdzFAyang.chk
 ----------------------------
 # opt freq m062x/aug-cc-pvdz
 ----------------------------
 1/14=-1,18=20,19=15,26=3,38=1/1,3;
 2/9=110,12=2,17=6,18=5,40=1/2;
 3/5=16,7=10,11=2,16=1,25=1,30=1,71=1,74=-55/1,2,3;
 4//1;
 5/5=2,38=5/2;
 6/7=2,8=2,9=2,10=2,28=1/1;
 7//1,2,3,16;
 1/14=-1,18=20,19=15,26=3/3(2);
 2/9=110/2;
 99//99;
 2/9=110/2;
 3/5=16,7=10,11=2,16=1,25=1,30=1,71=1,74=-55/1,2,3;
 4/5=5,16=3,69=1/1;
 5/5=2,38=5/2;
 7//1,2,3,16;
 1/14=-1,18=20,19=15,26=3/3(-5);
 2/9=110/2;
 6/7=2,8=2,9=2,10=2,19=2,28=1/1;
 99/9=1/99;
 ----------
 [No Title]
 ----------
 Symbolic Z-matrix:
 Charge =  1 Multiplicity = 1
 C                     1.47619  -2.0263   -0.02345 
 C                     2.51082  -1.08163  -0.01096 
 C                     2.22387   0.31173   0.00374 
 C                     0.91642   0.73466   0.00798 
 C                    -0.14343  -0.21748  -0.00073 
 C                     0.16706  -1.59937  -0.02024 
 O                     3.76741  -1.49578  -0.0148 
 C                    -1.47283   0.26456   0.00642 
 C                    -2.63645  -0.48737   0.02181 
 C                    -3.87986   0.13209   0.00113 
 O                    -4.95225  -0.61816   0.09991 
 O                    -3.98348   1.439    -0.12361 
 O                     3.33399   1.08129   0.01249 
 C                     3.16718   2.49507   0.03211 
 H                     1.73944  -3.07773  -0.03775 
 H                     0.67908   1.79328   0.01942 
 H                    -0.62633  -2.33853  -0.03392 
 H                     4.37186  -0.73448  -0.0058 
 H                    -1.59221   1.34767  -0.0003 
 H                    -2.65138  -1.56891   0.05087 
 H                    -5.79495  -0.17686  -0.08396 
 H                    -4.85654   1.80487   0.08173 
 H                     4.17047   2.91546   0.03853 
 H                     2.63124   2.82682  -0.86298 
 H                     2.63014   2.80178   0.93541 
 

 GradGradGradGradGradGradGradGradGradGradGradGradGradGradGradGradGradGrad
 Berny optimization.
 Initialization pass.
                           ----------------------------
                           !    Initial Parameters    !
                           ! (Angstroms and Degrees)  !
 --------------------------                            --------------------------
 ! Name  Definition              Value          Derivative Info.                !
 --------------------------------------------------------------------------------
 ! R1    R(1,2)                  1.4011         estimate D2E/DX2                !
 ! R2    R(1,6)                  1.377          estimate D2E/DX2                !
 ! R3    R(1,15)                 1.084          estimate D2E/DX2                !
 ! R4    R(2,3)                  1.4227         estimate D2E/DX2                !
 ! R5    R(2,7)                  1.3231         estimate D2E/DX2                !
 ! R6    R(3,4)                  1.3742         estimate D2E/DX2                !
 ! R7    R(3,13)                 1.3508         estimate D2E/DX2                !
 ! R8    R(4,5)                  1.4248         estimate D2E/DX2                !
 ! R9    R(4,16)                 1.085          estimate D2E/DX2                !
 ! R10   R(5,6)                  1.4165         estimate D2E/DX2                !
 ! R11   R(5,8)                  1.4141         estimate D2E/DX2                !
 ! R12   R(6,17)                 1.0844         estimate D2E/DX2                !
 ! R13   R(7,18)                 0.9721         estimate D2E/DX2                !
 ! R14   R(8,9)                  1.3855         estimate D2E/DX2                !
 ! R15   R(8,19)                 1.0897         estimate D2E/DX2                !
 ! R16   R(9,10)                 1.3893         estimate D2E/DX2                !
 ! R17   R(9,20)                 1.082          estimate D2E/DX2                !
 ! R18   R(10,11)                1.3125         estimate D2E/DX2                !
 ! R19   R(10,12)                1.3169         estimate D2E/DX2                !
 ! R20   R(11,21)                0.9689         estimate D2E/DX2                !
 ! R21   R(12,22)                0.9686         estimate D2E/DX2                !
 ! R22   R(13,14)                1.4237         estimate D2E/DX2                !
 ! R23   R(14,23)                1.0878         estimate D2E/DX2                !
 ! R24   R(14,24)                1.0948         estimate D2E/DX2                !
 ! R25   R(14,25)                1.0947         estimate D2E/DX2                !
 ! A1    A(2,1,6)              119.5376         estimate D2E/DX2                !
 ! A2    A(2,1,15)             118.3447         estimate D2E/DX2                !
 ! A3    A(6,1,15)             122.1175         estimate D2E/DX2                !
 ! A4    A(1,2,3)              120.7633         estimate D2E/DX2                !
 ! A5    A(1,2,7)              119.3577         estimate D2E/DX2                !
 ! A6    A(3,2,7)              119.879          estimate D2E/DX2                !
 ! A7    A(2,3,4)              119.5627         estimate D2E/DX2                !
 ! A8    A(2,3,13)             113.0955         estimate D2E/DX2                !
 ! A9    A(4,3,13)             127.3418         estimate D2E/DX2                !
 ! A10   A(3,4,5)              120.1371         estimate D2E/DX2                !
 ! A11   A(3,4,16)             120.562          estimate D2E/DX2                !
 ! A12   A(5,4,16)             119.3009         estimate D2E/DX2                !
 ! A13   A(4,5,6)              119.2742         estimate D2E/DX2                !
 ! A14   A(4,5,8)              118.1307         estimate D2E/DX2                !
 ! A15   A(6,5,8)              122.5948         estimate D2E/DX2                !
 ! A16   A(1,6,5)              120.7242         estimate D2E/DX2                !
 ! A17   A(1,6,17)             118.9598         estimate D2E/DX2                !
 ! A18   A(5,6,17)             120.316          estimate D2E/DX2                !
 ! A19   A(2,7,18)             110.2045         estimate D2E/DX2                !
 ! A20   A(5,8,9)              127.1995         estimate D2E/DX2                !
 ! A21   A(5,8,19)             116.2171         estimate D2E/DX2                !
 ! A22   A(9,8,19)             116.5834         estimate D2E/DX2                !
 ! A23   A(8,9,10)             120.6307         estimate D2E/DX2                !
 ! A24   A(8,9,20)             123.6657         estimate D2E/DX2                !
 ! A25   A(10,9,20)            115.7036         estimate D2E/DX2                !
 ! A26   A(9,10,11)            118.3766         estimate D2E/DX2                !
 ! A27   A(9,10,12)            120.9505         estimate D2E/DX2                !
 ! A28   A(11,10,12)           120.6713         estimate D2E/DX2                !
 ! A29   A(10,11,21)           115.8501         estimate D2E/DX2                !
 ! A30   A(10,12,22)           115.1933         estimate D2E/DX2                !
 ! A31   A(3,13,14)            118.0037         estimate D2E/DX2                !
 ! A32   A(13,14,23)           106.0081         estimate D2E/DX2                !
 ! A33   A(13,14,24)           110.3047         estimate D2E/DX2                !
 ! A34   A(13,14,25)           110.3073         estimate D2E/DX2                !
 ! A35   A(23,14,24)           109.8307         estimate D2E/DX2                !
 ! A36   A(23,14,25)           109.8344         estimate D2E/DX2                !
 ! A37   A(24,14,25)           110.4618         estimate D2E/DX2                !
 ! D1    D(6,1,2,3)             -0.0583         estimate D2E/DX2                !
 ! D2    D(6,1,2,7)           -179.9647         estimate D2E/DX2                !
 ! D3    D(15,1,2,3)           179.8016         estimate D2E/DX2                !
 ! D4    D(15,1,2,7)            -0.1048         estimate D2E/DX2                !
 ! D5    D(2,1,6,5)             -0.1762         estimate D2E/DX2                !
 ! D6    D(2,1,6,17)           179.7628         estimate D2E/DX2                !
 ! D7    D(15,1,6,5)           179.9694         estimate D2E/DX2                !
 ! D8    D(15,1,6,17)           -0.0916         estimate D2E/DX2                !
 ! D9    D(1,2,3,4)              0.11           estimate D2E/DX2                !
 ! D10   D(1,2,3,13)          -179.909          estimate D2E/DX2                !
 ! D11   D(7,2,3,4)           -179.984          estimate D2E/DX2                !
 ! D12   D(7,2,3,13)            -0.003          estimate D2E/DX2                !
 ! D13   D(1,2,7,18)           179.9465         estimate D2E/DX2                !
 ! D14   D(3,2,7,18)             0.0392         estimate D2E/DX2                !
 ! D15   D(2,3,4,5)              0.0724         estimate D2E/DX2                !
 ! D16   D(2,3,4,16)           179.983          estimate D2E/DX2                !
 ! D17   D(13,3,4,5)          -179.9056         estimate D2E/DX2                !
 ! D18   D(13,3,4,16)            0.0051         estimate D2E/DX2                !
 ! D19   D(2,3,13,14)         -179.7883         estimate D2E/DX2                !
 ! D20   D(4,3,13,14)            0.1909         estimate D2E/DX2                !
 ! D21   D(3,4,5,6)             -0.3008         estimate D2E/DX2                !
 ! D22   D(3,4,5,8)            179.8921         estimate D2E/DX2                !
 ! D23   D(16,4,5,6)           179.7874         estimate D2E/DX2                !
 ! D24   D(16,4,5,8)            -0.0197         estimate D2E/DX2                !
 ! D25   D(4,5,6,1)              0.355          estimate D2E/DX2                !
 ! D26   D(4,5,6,17)          -179.5832         estimate D2E/DX2                !
 ! D27   D(8,5,6,1)           -179.8469         estimate D2E/DX2                !
 ! D28   D(8,5,6,17)             0.2149         estimate D2E/DX2                !
 ! D29   D(4,5,8,9)           -178.869          estimate D2E/DX2                !
 ! D30   D(4,5,8,19)             1.0886         estimate D2E/DX2                !
 ! D31   D(6,5,8,9)              1.3308         estimate D2E/DX2                !
 ! D32   D(6,5,8,19)          -178.7116         estimate D2E/DX2                !
 ! D33   D(5,8,9,10)          -178.7511         estimate D2E/DX2                !
 ! D34   D(5,8,9,20)             1.3055         estimate D2E/DX2                !
 ! D35   D(19,8,9,10)            1.2914         estimate D2E/DX2                !
 ! D36   D(19,8,9,20)         -178.6519         estimate D2E/DX2                !
 ! D37   D(8,9,10,11)         -175.8748         estimate D2E/DX2                !
 ! D38   D(8,9,10,12)            4.5824         estimate D2E/DX2                !
 ! D39   D(20,9,10,11)           4.0729         estimate D2E/DX2                !
 ! D40   D(20,9,10,12)        -175.47           estimate D2E/DX2                !
 ! D41   D(9,10,11,21)        -168.9477         estimate D2E/DX2                !
 ! D42   D(12,10,11,21)         10.5965         estimate D2E/DX2                !
 ! D43   D(9,10,12,22)        -166.0058         estimate D2E/DX2                !
 ! D44   D(11,10,12,22)         14.4618         estimate D2E/DX2                !
 ! D45   D(3,13,14,23)         179.875          estimate D2E/DX2                !
 ! D46   D(3,13,14,24)         -61.2785         estimate D2E/DX2                !
 ! D47   D(3,13,14,25)          61.0227         estimate D2E/DX2                !
 --------------------------------------------------------------------------------
 Trust Radius=3.00D-01 FncErr=1.00D-07 GrdErr=1.00D-06
 Number of steps in this run=    119 maximum allowed number of steps=    150.
 GradGradGradGradGradGradGradGradGradGradGradGradGradGradGradGradGradGrad

                          Input orientation:                          
 ---------------------------------------------------------------------
 Center     Atomic      Atomic             Coordinates (Angstroms)
 Number     Number       Type             X           Y           Z
 ---------------------------------------------------------------------
      1          6           0        1.476187   -2.026296   -0.023451
      2          6           0        2.510824   -1.081625   -0.010959
      3          6           0        2.223866    0.311730    0.003735
      4          6           0        0.916424    0.734659    0.007979
      5          6           0       -0.143429   -0.217482   -0.000728
      6          6           0        0.167061   -1.599366   -0.020243
      7          8           0        3.767408   -1.495782   -0.014799
      8          6           0       -1.472834    0.264563    0.006423
      9          6           0       -2.636451   -0.487367    0.021812
     10          6           0       -3.879863    0.132085    0.001132
     11          8           0       -4.952249   -0.618159    0.099909
     12          8           0       -3.983476    1.439002   -0.123605
     13          8           0        3.333988    1.081286    0.012488
     14          6           0        3.167183    2.495073    0.032105
     15          1           0        1.739440   -3.077726   -0.037746
     16          1           0        0.679084    1.793281    0.019416
     17          1           0       -0.626329   -2.338529   -0.033923
     18          1           0        4.371864   -0.734481   -0.005804
     19          1           0       -1.592205    1.347673   -0.000299
     20          1           0       -2.651378   -1.568913    0.050866
     21          1           0       -5.794951   -0.176855   -0.083964
     22          1           0       -4.856540    1.804868    0.081727
     23          1           0        4.170468    2.915455    0.038531
     24          1           0        2.631235    2.826823   -0.862983
     25          1           0        2.630142    2.801781    0.935411
 ---------------------------------------------------------------------
                    Distance matrix (angstroms):
                    1          2          3          4          5
     1  C    0.000000
     2  C    1.401083   0.000000
     3  C    2.454817   1.422673   0.000000
     4  C    2.817303   2.416890   1.374151   0.000000
     5  C    2.428061   2.791399   2.425731   1.424758   0.000000
     6  C    1.376986   2.400285   2.807723   2.451533   1.416470
     7  O    2.351853   1.323081   2.376966   3.619875   4.114474
     8  C    3.734388   4.205004   3.697002   2.435066   1.414120
     9  C    4.391371   5.181569   4.925603   3.757188   2.507689
    10  C    5.774642   6.504930   6.106373   4.833995   3.752751
    11  O    6.582010   7.478272   7.236751   6.023279   4.826533
    12  O    6.467321   6.967222   6.310155   4.952013   4.183898
    13  O    3.620743   2.314375   1.350801   2.442291   3.712062
    14  C    4.827560   3.636678   2.378579   2.857544   4.280092
    15  H    1.083979   2.140133   3.424150   3.900478   3.424553
    16  H    3.902099   3.409000   2.140465   1.084962   2.172579
    17  H    2.125599   3.379654   3.892159   3.438943   2.175577
    18  H    3.170811   1.893147   2.389256   3.754814   4.544798
    19  H    4.560618   4.768275   3.954187   2.582455   2.132759
    20  H    4.153494   5.185518   5.225614   4.247057   2.849357
    21  H    7.502902   8.355228   8.034167   6.773615   5.652281
    22  H    7.402183   7.913184   7.236553   5.871788   5.129339
    23  H    5.628845   4.328223   3.251131   3.917347   5.331655
    24  H    5.058825   4.002051   2.691253   2.841883   4.208329
    25  H    5.055824   3.998837   2.689504   2.840766   4.205354
                    6          7          8          9         10
     6  C    0.000000
     7  O    3.601841   0.000000
     8  C    2.482780   5.528056   0.000000
     9  C    3.016287   6.482874   1.385511   0.000000
    10  C    4.401815   7.818629   2.410678   1.389324   0.000000
    11  O    5.213879   8.764462   3.590859   2.320803   1.312492
    12  O    5.144834   8.288607   2.774804   2.355105   1.316939
    13  O    4.149264   2.613403   4.875716   6.173079   7.276040
    14  C    5.076210   4.036012   5.148358   6.525122   7.432734
    15  H    2.158293   2.572106   4.635898   5.085463   6.471550
    16  H    3.431296   4.511857   2.639678   4.024194   4.852206
    17  H    1.084443   4.473870   2.737569   2.733221   4.085419
    18  H    4.292855   0.972125   5.929480   7.012725   8.297107
    19  H    3.432267   6.067199   1.089689   2.111471   2.590567
    20  H    2.819500   6.419538   2.180040   1.082039   2.098819
    21  H    6.129697   9.653137   4.345540   3.175489   1.941712
    22  H    6.069248   9.234505   3.718558   3.191665   1.938710
    23  H    6.034429   4.429934   6.234991   7.610100   8.518003
    24  H    5.135515   4.549200   4.915732   6.286114   7.099486
    25  H    5.133238   4.545913   4.912729   6.276158   7.097909
                   11         12         13         14         15
    11  O    0.000000
    12  O    2.284818   0.000000
    13  O    8.459165   7.327466   0.000000
    14  C    8.696090   7.229900   1.423728   0.000000
    15  H    7.130717   7.291088   4.454491   5.753209   0.000000
    16  H    6.126454   4.678187   2.748727   2.585210   4.985412
    17  H    4.657378   5.054525   5.232724   6.144819   2.478566
    18  H    9.325438   8.634212   2.091538   3.447131   3.524411
    19  H    3.894154   2.396189   4.933407   4.895850   5.539442
    20  H    2.490049   3.294310   6.545963   7.097322   4.643668
    21  H    0.968868   2.427758   9.215734   9.352674   8.073676
    22  H    2.424985   0.968638   8.222719   8.053507   8.207372
    23  H    9.783361   8.288124   2.016074   1.087816   6.467916
    24  H    8.384765   6.799054   2.075382   1.094752   6.028268
    25  H    8.359827   6.835102   2.075401   1.094735   6.025694
                   16         17         18         19         20
    16  H    0.000000
    17  H    4.333452   0.000000
    18  H    4.475136   5.249352   0.000000
    19  H    2.314673   3.810792   6.317081   0.000000
    20  H    4.732580   2.168022   7.072865   3.103375   0.000000
    21  H    6.767958   5.602677  10.182396   4.471494   3.440648
    22  H    5.535987   5.922482   9.571802   3.297217   4.030644
    23  H    3.667343   7.114693   3.655757   5.972257   8.163779
    24  H    2.378598   6.162785   4.055543   4.557363   6.932793
    25  H    2.379653   6.161737   4.052731   4.562696   6.912296
                   21         22         23         24         25
    21  H    0.000000
    22  H    2.198930   0.000000
    23  H   10.434892   9.095171   0.000000
    24  H    8.979397   7.616012   1.786007   0.000000
    25  H    8.994086   7.600856   1.786035   1.798569   0.000000
 Stoichiometry    C10H11O4(1+)
 Framework group  C1[X(C10H11O4)]
 Deg. of freedom    69
 Full point group                 C1      NOp   1
 Largest Abelian subgroup         C1      NOp   1
 Largest concise Abelian subgroup C1      NOp   1
                         Standard orientation:                         
 ---------------------------------------------------------------------
 Center     Atomic      Atomic             Coordinates (Angstroms)
 Number     Number       Type             X           Y           Z
 ---------------------------------------------------------------------
      1          6           0        1.476187   -2.026296   -0.023451
      2          6           0        2.510824   -1.081625   -0.010959
      3          6           0        2.223866    0.311730    0.003735
      4          6           0        0.916424    0.734659    0.007979
      5          6           0       -0.143429   -0.217482   -0.000728
      6          6           0        0.167061   -1.599366   -0.020243
      7          8           0        3.767408   -1.495782   -0.014799
      8          6           0       -1.472834    0.264563    0.006423
      9          6           0       -2.636451   -0.487367    0.021812
     10          6           0       -3.879863    0.132085    0.001132
     11          8           0       -4.952249   -0.618159    0.099909
     12          8           0       -3.983476    1.439002   -0.123605
     13          8           0        3.333988    1.081286    0.012488
     14          6           0        3.167183    2.495073    0.032105
     15          1           0        1.739440   -3.077726   -0.037746
     16          1           0        0.679084    1.793281    0.019416
     17          1           0       -0.626329   -2.338529   -0.033923
     18          1           0        4.371864   -0.734481   -0.005804
     19          1           0       -1.592205    1.347673   -0.000299
     20          1           0       -2.651378   -1.568913    0.050866
     21          1           0       -5.794951   -0.176855   -0.083964
     22          1           0       -4.856540    1.804868    0.081727
     23          1           0        4.170468    2.915455    0.038531
     24          1           0        2.631235    2.826823   -0.862983
     25          1           0        2.630142    2.801781    0.935411
 ---------------------------------------------------------------------
 Rotational constants (GHZ):      1.5440121      0.2875861      0.2429193
 Standard basis: Aug-CC-pVDZ (5D, 7F)
 There are   449 symmetry adapted cartesian basis functions of A   symmetry.
 There are   421 symmetry adapted basis functions of A   symmetry.
   421 basis functions,   723 primitive gaussians,   449 cartesian basis functions
    51 alpha electrons       51 beta electrons
       nuclear repulsion energy       841.7082738250 Hartrees.
 NAtoms=   25 NActive=   25 NUniq=   25 SFac= 1.00D+00 NAtFMM=   60 NAOKFM=F Big=F
 Integral buffers will be    131072 words long.
 Raffenetti 2 integral format.
 Two-electron integral symmetry is turned on.
 One-electron integrals computed using PRISM.
 NBasis=   421 RedAO= T EigKep=  1.90D-06  NBF=   421
 NBsUse=   420 1.00D-06 EigRej=  9.59D-07 NBFU=   420
 ExpMin= 2.97D-02 ExpMax= 1.17D+04 ExpMxC= 4.01D+02 IAcc=3 IRadAn=         5 AccDes= 0.00D+00
 Harris functional with IExCor= 1009 and IRadAn=       5 diagonalized for initial guess.
 HarFok:  IExCor= 1009 AccDes= 0.00D+00 IRadAn=         5 IDoV= 1 UseB2=F ITyADJ=14
 ICtDFT=  3500011 ScaDFX=  1.000000  1.000000  1.000000  1.000000
 FoFCou: FMM=F IPFlag=           0 FMFlag=      100000 FMFlg1=           0
         NFxFlg=           0 DoJE=T BraDBF=F KetDBF=T FulRan=T
         wScrn=  0.000000 ICntrl=     500 IOpCl=  0 I1Cent=   200000004 NGrid=           0
         NMat0=    1 NMatS0=      1 NMatT0=    0 NMatD0=    1 NMtDS0=    0 NMtDT0=    0
 Petite list used in FoFCou.
 Requested convergence on RMS density matrix=1.00D-08 within 128 cycles.
 Requested convergence on MAX density matrix=1.00D-06.
 Requested convergence on             energy=1.00D-06.
 No special actions if energy rises.
 Restarting incremental Fock formation.
 SCF Done:  E(RM062X) =  -688.158321635     A.U. after   21 cycles
            NFock= 21  Conv=0.89D-09     -V/T= 2.0057

 **********************************************************************

            Population analysis using the SCF density.

 **********************************************************************

 Orbital symmetries:
       Occupied  (A) (A) (A) (A) (A) (A) (A) (A) (A) (A) (A) (A)
                 (A) (A) (A) (A) (A) (A) (A) (A) (A) (A) (A) (A)
                 (A) (A) (A) (A) (A) (A) (A) (A) (A) (A) (A) (A)
                 (A) (A) (A) (A) (A) (A) (A) (A) (A) (A) (A) (A)
                 (A) (A) (A)
       Virtual   (A) (A) (A) (A) (A) (A) (A) (A) (A) (A) (A) (A)
                 (A) (A) (A) (A) (A) (A) (A) (A) (A) (A) (A) (A)
                 (A) (A) (A) (A) (A) (A) (A) (A) (A) (A) (A) (A)
                 (A) (A) (A) (A) (A) (A) (A) (A) (A) (A) (A) (A)
                 (A) (A) (A) (A) (A) (A) (A) (A) (A) (A) (A) (A)
                 (A) (A) (A) (A) (A) (A) (A) (A) (A) (A) (A) (A)
                 (A) (A) (A) (A) (A) (A) (A) (A) (A) (A) (A) (A)
                 (A) (A) (A) (A) (A) (A) (A) (A) (A) (A) (A) (A)
                 (A) (A) (A) (A) (A) (A) (A) (A) (A) (A) (A) (A)
                 (A) (A) (A) (A) (A) (A) (A) (A) (A) (A) (A) (A)
                 (A) (A) (A) (A) (A) (A) (A) (A) (A) (A) (A) (A)
                 (A) (A) (A) (A) (A) (A) (A) (A) (A) (A) (A) (A)
                 (A) (A) (A) (A) (A) (A) (A) (A) (A) (A) (A) (A)
                 (A) (A) (A) (A) (A) (A) (A) (A) (A) (A) (A) (A)
                 (A) (A) (A) (A) (A) (A) (A) (A) (A) (A) (A) (A)
                 (A) (A) (A) (A) (A) (A) (A) (A) (A) (A) (A) (A)
                 (A) (A) (A) (A) (A) (A) (A) (A) (A) (A) (A) (A)
                 (A) (A) (A) (A) (A) (A) (A) (A) (A) (A) (A) (A)
                 (A) (A) (A) (A) (A) (A) (A) (A) (A) (A) (A) (A)
                 (A) (A) (A) (A) (A) (A) (A) (A) (A) (A) (A) (A)
                 (A) (A) (A) (A) (A) (A) (A) (A) (A) (A) (A) (A)
                 (A) (A) (A) (A) (A) (A) (A) (A) (A) (A) (A) (A)
                 (A) (A) (A) (A) (A) (A) (A) (A) (A) (A) (A) (A)
                 (A) (A) (A) (A) (A) (A) (A) (A) (A) (A) (A) (A)
                 (A) (A) (A) (A) (A) (A) (A) (A) (A) (A) (A) (A)
                 (A) (A) (A) (A) (A) (A) (A) (A) (A) (A) (A) (A)
                 (A) (A) (A) (A) (A) (A) (A) (A) (A) (A) (A) (A)
                 (A) (A) (A) (A) (A) (A) (A) (A) (A) (A) (A) (A)
                 (A) (A) (A) (A) (A) (A) (A) (A) (A) (A) (A) (A)
                 (A) (A) (A) (A) (A) (A) (A) (A) (A) (A) (A) (A)
                 (A) (A) (A) (A) (A) (A) (A) (A) (A)
 The electronic state is 1-A.
 Alpha  occ. eigenvalues --  -19.88093 -19.87983 -19.81447 -19.81135 -10.88438
 Alpha  occ. eigenvalues --  -10.76940 -10.75061 -10.74668 -10.71789 -10.71034
 Alpha  occ. eigenvalues --  -10.70577 -10.70328 -10.70174 -10.68741  -1.44564
 Alpha  occ. eigenvalues --   -1.36310  -1.35133  -1.31977  -1.11509  -1.07435
 Alpha  occ. eigenvalues --   -1.01047  -0.99625  -0.94470  -0.91976  -0.88460
 Alpha  occ. eigenvalues --   -0.86616  -0.83154  -0.80084  -0.78121  -0.75765
 Alpha  occ. eigenvalues --   -0.73282  -0.72392  -0.71424  -0.69662  -0.68293
 Alpha  occ. eigenvalues --   -0.65633  -0.64864  -0.63592  -0.63361  -0.63034
 Alpha  occ. eigenvalues --   -0.62689  -0.61253  -0.59012  -0.58647  -0.57625
 Alpha  occ. eigenvalues --   -0.54456  -0.53944  -0.53907  -0.49587  -0.43857
 Alpha  occ. eigenvalues --   -0.39781
 Alpha virt. eigenvalues --   -0.21930  -0.14300  -0.10805  -0.10569  -0.10283
 Alpha virt. eigenvalues --   -0.09467  -0.08643  -0.08374  -0.07156  -0.06860
 Alpha virt. eigenvalues --   -0.06221  -0.06099  -0.05472  -0.04553  -0.04257
 Alpha virt. eigenvalues --   -0.03499  -0.03382  -0.03321  -0.02518  -0.02056
 Alpha virt. eigenvalues --   -0.01682  -0.00999  -0.00140   0.00028   0.00437
 Alpha virt. eigenvalues --    0.00568   0.01248   0.01305   0.01867   0.01970
 Alpha virt. eigenvalues --    0.02117   0.02216   0.03270   0.03318   0.03584
 Alpha virt. eigenvalues --    0.04290   0.04636   0.04809   0.05323   0.05611
 Alpha virt. eigenvalues --    0.05797   0.06481   0.06621   0.06694   0.06859
 Alpha virt. eigenvalues --    0.08048   0.08367   0.08407   0.09479   0.09713
 Alpha virt. eigenvalues --    0.10232   0.10420   0.10480   0.11115   0.11284
 Alpha virt. eigenvalues --    0.11718   0.12832   0.12882   0.13176   0.13341
 Alpha virt. eigenvalues --    0.13642   0.14191   0.14296   0.15002   0.15124
 Alpha virt. eigenvalues --    0.15859   0.16357   0.16524   0.16998   0.17470
 Alpha virt. eigenvalues --    0.17710   0.18481   0.18824   0.19461   0.19675
 Alpha virt. eigenvalues --    0.20287   0.20881   0.21333   0.21710   0.21882
 Alpha virt. eigenvalues --    0.22228   0.22421   0.22882   0.23469   0.24416
 Alpha virt. eigenvalues --    0.25012   0.25843   0.25952   0.26261   0.26569
 Alpha virt. eigenvalues --    0.27162   0.27242   0.28029   0.28777   0.29252
 Alpha virt. eigenvalues --    0.30215   0.30395   0.30758   0.31735   0.32369
 Alpha virt. eigenvalues --    0.32596   0.33180   0.33721   0.34482   0.34653
 Alpha virt. eigenvalues --    0.35646   0.35709   0.36145   0.36394   0.36723
 Alpha virt. eigenvalues --    0.37247   0.37907   0.38924   0.39833   0.40021
 Alpha virt. eigenvalues --    0.40785   0.41054   0.41847   0.42350   0.42650
 Alpha virt. eigenvalues --    0.43687   0.44094   0.44239   0.44892   0.45184
 Alpha virt. eigenvalues --    0.45436   0.46143   0.46470   0.47056   0.47510
 Alpha virt. eigenvalues --    0.48201   0.48546   0.48722   0.48898   0.49716
 Alpha virt. eigenvalues --    0.50318   0.51430   0.52292   0.52418   0.52805
 Alpha virt. eigenvalues --    0.53276   0.53783   0.54309   0.54591   0.56085
 Alpha virt. eigenvalues --    0.56409   0.57522   0.57821   0.59656   0.60264
 Alpha virt. eigenvalues --    0.60619   0.60855   0.61534   0.61707   0.62328
 Alpha virt. eigenvalues --    0.63272   0.63762   0.64028   0.64309   0.65452
 Alpha virt. eigenvalues --    0.66136   0.66217   0.66689   0.67321   0.68262
 Alpha virt. eigenvalues --    0.68819   0.69308   0.70930   0.71484   0.72175
 Alpha virt. eigenvalues --    0.72897   0.73310   0.73956   0.74444   0.76865
 Alpha virt. eigenvalues --    0.76950   0.77295   0.78595   0.78878   0.79528
 Alpha virt. eigenvalues --    0.80796   0.81593   0.82135   0.82590   0.85113
 Alpha virt. eigenvalues --    0.86454   0.86797   0.87464   0.87813   0.89909
 Alpha virt. eigenvalues --    0.92055   0.92742   0.93115   0.93681   0.94922
 Alpha virt. eigenvalues --    0.95322   0.96700   0.97910   0.99444   1.00914
 Alpha virt. eigenvalues --    1.02418   1.04201   1.05272   1.07239   1.08530
 Alpha virt. eigenvalues --    1.09316   1.10035   1.10459   1.12585   1.13103
 Alpha virt. eigenvalues --    1.15112   1.15913   1.16211   1.17345   1.19584
 Alpha virt. eigenvalues --    1.20027   1.20841   1.22219   1.23115   1.23994
 Alpha virt. eigenvalues --    1.24440   1.25739   1.26314   1.27747   1.29276
 Alpha virt. eigenvalues --    1.31185   1.32414   1.32635   1.33690   1.34633
 Alpha virt. eigenvalues --    1.35747   1.35798   1.36630   1.37650   1.38241
 Alpha virt. eigenvalues --    1.39386   1.40532   1.40654   1.41271   1.42436
 Alpha virt. eigenvalues --    1.43152   1.44204   1.45083   1.45702   1.46354
 Alpha virt. eigenvalues --    1.47028   1.48379   1.48961   1.51504   1.51820
 Alpha virt. eigenvalues --    1.52272   1.55329   1.55625   1.56315   1.57375
 Alpha virt. eigenvalues --    1.58314   1.59091   1.59773   1.60648   1.60829
 Alpha virt. eigenvalues --    1.61550   1.62254   1.64322   1.65283   1.67421
 Alpha virt. eigenvalues --    1.67905   1.68767   1.70244   1.71515   1.71649
 Alpha virt. eigenvalues --    1.73010   1.74355   1.76177   1.77375   1.79151
 Alpha virt. eigenvalues --    1.79669   1.80469   1.81535   1.81708   1.83688
 Alpha virt. eigenvalues --    1.84347   1.84717   1.86095   1.87925   1.88528
 Alpha virt. eigenvalues --    1.89308   1.89803   1.91283   1.92612   1.93402
 Alpha virt. eigenvalues --    1.93988   1.95140   1.96086   1.96348   1.97795
 Alpha virt. eigenvalues --    1.99612   1.99840   2.01320   2.02819   2.04507
 Alpha virt. eigenvalues --    2.04704   2.06640   2.07998   2.08113   2.08806
 Alpha virt. eigenvalues --    2.09453   2.11741   2.13653   2.14871   2.19400
 Alpha virt. eigenvalues --    2.20626   2.21546   2.24751   2.25344   2.29093
 Alpha virt. eigenvalues --    2.30520   2.32662   2.35278   2.39186   2.39400
 Alpha virt. eigenvalues --    2.41563   2.41789   2.45599   2.50309   2.51941
 Alpha virt. eigenvalues --    2.53016   2.53334   2.57663   2.60357   2.62775
 Alpha virt. eigenvalues --    2.64192   2.64540   2.65462   2.68361   2.73418
 Alpha virt. eigenvalues --    2.76530   2.80165   2.82350   2.88144   2.96568
 Alpha virt. eigenvalues --    2.99482   3.03246   3.11027   3.17838   3.19672
 Alpha virt. eigenvalues --    3.20792   3.22549   3.25254   3.26362   3.29585
 Alpha virt. eigenvalues --    3.29977   3.32925   3.33199   3.34331   3.35998
 Alpha virt. eigenvalues --    3.38936   3.40923   3.44391   3.45180   3.52264
 Alpha virt. eigenvalues --    3.54360   3.58112   3.61844   3.70077   3.81444
 Alpha virt. eigenvalues --    3.89196   3.90418   3.92396   4.43516
          Condensed to atoms (all electrons):
               1          2          3          4          5          6
     1  C   25.638227  -9.786553   3.544207  -4.367390   2.223875  -9.052474
     2  C   -9.786553  17.240174  -3.415556   2.788381  -5.912571   5.138365
     3  C    3.544207  -3.415556  16.951991  -6.595866   0.136231  -4.313062
     4  C   -4.367390   2.788381  -6.595866  26.180774  -5.045007  -0.159403
     5  C    2.223875  -5.912571   0.136231  -5.045007  28.048465  -8.684688
     6  C   -9.052474   5.138365  -4.313062  -0.159403  -8.684688  27.467289
     7  O    0.269451  -0.569991   0.336850  -0.251986   0.167668  -0.013812
     8  C   -0.912703   0.120131  -1.032724  -3.406133 -10.214119  -1.477011
     9  C   -0.267168   0.155101  -0.311970  -1.457857  -0.571441  -0.777889
    10  C    0.002631  -0.085911   0.181995  -0.359158   0.297193  -0.405408
    11  O   -0.003558  -0.000709  -0.000119   0.010069  -0.002248   0.013246
    12  O   -0.002043   0.001881  -0.006552   0.028130  -0.112504   0.027472
    13  O   -0.046430   0.124229  -0.961168   0.854971  -0.229048   0.000897
    14  C    0.313647  -0.155673   0.150997  -0.363513   0.035230  -0.210311
    15  H   -3.667673   2.729477  -0.246936   0.271579  -0.875076   1.103612
    16  H    0.101893  -0.382038   1.081836  -3.211283   0.998617   0.015172
    17  H    1.036001  -0.972530   0.281771   0.102696   1.465232  -3.409554
    18  H   -0.030103  -0.020269  -0.135361   0.044092  -0.026024   0.053071
    19  H   -0.086352   0.001301   0.089118  -0.525160   1.775870  -0.445477
    20  H    0.083556  -0.044479   0.024899  -0.041543   0.163934   0.110115
    21  H    0.000456  -0.000330   0.000474   0.000036  -0.003078  -0.001558
    22  H    0.000544  -0.000806   0.001838  -0.004334   0.005152  -0.001569
    23  H    0.026472  -0.029581   0.170410  -0.034161  -0.004624  -0.030759
    24  H    0.017587  -0.000456   0.051186  -0.060624  -0.016265  -0.001104
    25  H    0.014326  -0.003940   0.068220  -0.075166  -0.000598   0.001698
               7          8          9         10         11         12
     1  C    0.269451  -0.912703  -0.267168   0.002631  -0.003558  -0.002043
     2  C   -0.569991   0.120131   0.155101  -0.085911  -0.000709   0.001881
     3  C    0.336850  -1.032724  -0.311970   0.181995  -0.000119  -0.006552
     4  C   -0.251986  -3.406133  -1.457857  -0.359158   0.010069   0.028130
     5  C    0.167668 -10.214119  -0.571441   0.297193  -0.002248  -0.112504
     6  C   -0.013812  -1.477011  -0.777889  -0.405408   0.013246   0.027472
     7  O    8.492706  -0.023902   0.004056   0.001307   0.000004  -0.000006
     8  C   -0.023902  31.892789  -6.494417  -1.168540  -0.003274  -0.029237
     9  C    0.004056  -6.494417  20.501784  -4.537850   0.355269   0.336289
    10  C    0.001307  -1.168540  -4.537850  11.999627  -0.437795  -0.226856
    11  O    0.000004  -0.003274   0.355269  -0.437795   8.303347   0.036324
    12  O   -0.000006  -0.029237   0.336289  -0.226856   0.036324   8.288384
    13  O   -0.083401   0.033587  -0.010212  -0.001887   0.000001   0.000013
    14  C    0.006864   0.046209   0.017870  -0.003746   0.000017   0.000216
    15  H   -0.150335  -0.035712   0.049199   0.000089   0.000018  -0.000001
    16  H    0.013909  -0.299096   0.017593   0.034291   0.000581  -0.004447
    17  H    0.004328   0.175568   0.161351  -0.002988  -0.001176   0.000971
    18  H    0.289011  -0.001370   0.001562  -0.000299  -0.000002   0.000006
    19  H    0.000687  -3.061575   0.335332   0.507094  -0.019844  -0.093846
    20  H    0.000026   1.358371  -2.998135   0.104242  -0.018497  -0.036653
    21  H    0.000001  -0.000130   0.052203  -0.056009   0.281279  -0.043255
    22  H    0.000012   0.007219   0.010376  -0.050592  -0.042757   0.280421
    23  H   -0.007785   0.006998   0.004340  -0.000282  -0.000002  -0.000014
    24  H    0.004808  -0.001135  -0.008453   0.000429   0.000013   0.000109
    25  H    0.004924  -0.004457  -0.008278   0.000585   0.000014   0.000128
              13         14         15         16         17         18
     1  C   -0.046430   0.313647  -3.667673   0.101893   1.036001  -0.030103
     2  C    0.124229  -0.155673   2.729477  -0.382038  -0.972530  -0.020269
     3  C   -0.961168   0.150997  -0.246936   1.081836   0.281771  -0.135361
     4  C    0.854971  -0.363513   0.271579  -3.211283   0.102696   0.044092
     5  C   -0.229048   0.035230  -0.875076   0.998617   1.465232  -0.026024
     6  C    0.000897  -0.210311   1.103612   0.015172  -3.409554   0.053071
     7  O   -0.083401   0.006864  -0.150335   0.013909   0.004328   0.289011
     8  C    0.033587   0.046209  -0.035712  -0.299096   0.175568  -0.001370
     9  C   -0.010212   0.017870   0.049199   0.017593   0.161351   0.001562
    10  C   -0.001887  -0.003746   0.000089   0.034291  -0.002988  -0.000299
    11  O    0.000001   0.000017   0.000018   0.000581  -0.001176  -0.000002
    12  O    0.000013   0.000216  -0.000001  -0.004447   0.000971   0.000006
    13  O    9.221569   0.111994  -0.007540  -0.216733   0.000783   0.064496
    14  C    0.111994   4.051737  -0.008891   0.021935   0.004955  -0.001540
    15  H   -0.007540  -0.008891   2.938666   0.004407  -0.245056   0.008765
    16  H   -0.216733   0.021935   0.004407   4.501586  -0.024698  -0.000651
    17  H    0.000783   0.004955  -0.245056  -0.024698   3.741261  -0.004654
    18  H    0.064496  -0.001540   0.008765  -0.000651  -0.004654   0.543594
    19  H   -0.003508  -0.003228   0.003201  -0.188656  -0.027983   0.000463
    20  H    0.000811  -0.001367   0.005657  -0.001034  -0.281971  -0.000105
    21  H   -0.000003  -0.000004  -0.000035  -0.000049   0.001206  -0.000002
    22  H   -0.000004  -0.000062   0.000011   0.001642   0.000095  -0.000006
    23  H   -0.419178   0.307475   0.001082   0.031186  -0.000704  -0.004326
    24  H    0.122658   0.266879  -0.001372  -0.061069   0.001537  -0.000530
    25  H    0.124875   0.257542  -0.001366  -0.063655   0.001348  -0.000312
              19         20         21         22         23         24
     1  C   -0.086352   0.083556   0.000456   0.000544   0.026472   0.017587
     2  C    0.001301  -0.044479  -0.000330  -0.000806  -0.029581  -0.000456
     3  C    0.089118   0.024899   0.000474   0.001838   0.170410   0.051186
     4  C   -0.525160  -0.041543   0.000036  -0.004334  -0.034161  -0.060624
     5  C    1.775870   0.163934  -0.003078   0.005152  -0.004624  -0.016265
     6  C   -0.445477   0.110115  -0.001558  -0.001569  -0.030759  -0.001104
     7  O    0.000687   0.000026   0.000001   0.000012  -0.007785   0.004808
     8  C   -3.061575   1.358371  -0.000130   0.007219   0.006998  -0.001135
     9  C    0.335332  -2.998135   0.052203   0.010376   0.004340  -0.008453
    10  C    0.507094   0.104242  -0.056009  -0.050592  -0.000282   0.000429
    11  O   -0.019844  -0.018497   0.281279  -0.042757  -0.000002   0.000013
    12  O   -0.093846  -0.036653  -0.043255   0.280421  -0.000014   0.000109
    13  O   -0.003508   0.000811  -0.000003  -0.000004  -0.419178   0.122658
    14  C   -0.003228  -0.001367  -0.000004  -0.000062   0.307475   0.266879
    15  H    0.003201   0.005657  -0.000035   0.000011   0.001082  -0.001372
    16  H   -0.188656  -0.001034  -0.000049   0.001642   0.031186  -0.061069
    17  H   -0.027983  -0.281971   0.001206   0.000095  -0.000704   0.001537
    18  H    0.000463  -0.000105  -0.000002  -0.000006  -0.004326  -0.000530
    19  H    3.603972   0.128724   0.000316  -0.000817  -0.000114  -0.000194
    20  H    0.128724   3.429918  -0.011699   0.006409   0.000178  -0.000444
    21  H    0.000316  -0.011699   0.525952   0.010268  -0.000002   0.000007
    22  H   -0.000817   0.006409   0.010268   0.573166   0.000002  -0.000017
    23  H   -0.000114   0.000178  -0.000002   0.000002   2.566852  -0.529279
    24  H   -0.000194  -0.000444   0.000007  -0.000017  -0.529279   1.467809
    25  H    0.000340  -0.000386   0.000004  -0.000008  -0.532728  -0.128561
              25
     1  C    0.014326
     2  C   -0.003940
     3  C    0.068220
     4  C   -0.075166
     5  C   -0.000598
     6  C    0.001698
     7  O    0.004924
     8  C   -0.004457
     9  C   -0.008278
    10  C    0.000585
    11  O    0.000014
    12  O    0.000128
    13  O    0.124875
    14  C    0.257542
    15  H   -0.001366
    16  H   -0.063655
    17  H    0.001348
    18  H   -0.000312
    19  H    0.000340
    20  H   -0.000386
    21  H    0.000004
    22  H   -0.000008
    23  H   -0.532728
    24  H   -0.128561
    25  H    1.470118
 Mulliken charges:
               1
     1  C    0.949575
     2  C   -0.917649
     3  C   -0.052708
     4  C    1.677853
     5  C    2.379825
     6  C    1.053145
     7  O   -0.495392
     8  C    0.524662
     9  C    1.441347
    10  C    0.207839
    11  O   -0.470198
    12  O   -0.444927
    13  O   -0.681772
    14  C    1.154769
    15  H   -0.875767
    16  H   -1.371237
    17  H   -1.007791
    18  H    0.220494
    19  H   -0.989665
    20  H   -0.980529
    21  H    0.243952
    22  H    0.203818
    23  H   -0.521457
    24  H   -0.123520
    25  H   -0.124668
 Sum of Mulliken charges =   1.00000
 Mulliken charges with hydrogens summed into heavy atoms:
               1
     1  C    0.073808
     2  C   -0.917649
     3  C   -0.052708
     4  C    0.306616
     5  C    2.379825
     6  C    0.045354
     7  O   -0.274898
     8  C   -0.465002
     9  C    0.460818
    10  C    0.207839
    11  O   -0.226246
    12  O   -0.241109
    13  O   -0.681772
    14  C    0.385125
 Electronic spatial extent (au):  <R**2>=           4126.5379
 Charge=              1.0000 electrons
 Dipole moment (field-independent basis, Debye):
    X=             -8.1260    Y=              3.3606    Z=              0.0582  Tot=              8.7937
 Quadrupole moment (field-independent basis, Debye-Ang):
   XX=              9.1792   YY=            -61.1053   ZZ=            -83.0206
   XY=             -2.7034   XZ=              0.2964   YZ=              0.9613
 Traceless Quadrupole moment (field-independent basis, Debye-Ang):
   XX=             54.1614   YY=            -16.1231   ZZ=            -38.0384
   XY=             -2.7034   XZ=              0.2964   YZ=              0.9613
 Octapole moment (field-independent basis, Debye-Ang**2):
  XXX=           -330.2713  YYY=             20.2426  ZZZ=             -0.0276  XYY=              1.4736
  XXY=             92.7714  XXZ=             -2.4972  XZZ=             -3.7924  YZZ=              5.5304
  YYZ=              1.1925  XYZ=             -3.2950
 Hexadecapole moment (field-independent basis, Debye-Ang**3):
 XXXX=          -1363.9234 YYYY=           -779.7137 ZZZZ=            -91.9714 XXXY=           -239.0186
 XXXZ=             26.5944 YYYX=             19.7076 YYYZ=              3.0685 ZZZX=              0.5627
 ZZZY=             -0.2188 XXYY=           -661.5275 XXZZ=           -704.8567 YYZZ=           -173.7206
 XXYZ=             18.6658 YYXZ=             -4.5849 ZZXY=             -2.7888
 N-N= 8.417082738250D+02 E-N=-3.275385079407D+03  KE= 6.842810558349D+02
 Calling FoFJK, ICntrl=      2127 FMM=F ISym2X=0 I1Cent= 0 IOpClX= 0 NMat=1 NMatS=1 NMatT=0.
 ***** Axes restored to original set *****
 -------------------------------------------------------------------
 Center     Atomic                   Forces (Hartrees/Bohr)
 Number     Number              X              Y              Z
 -------------------------------------------------------------------
      1        6          -0.000221192    0.001213418   -0.000171761
      2        6          -0.000224949    0.001214553   -0.000003915
      3        6           0.001419961    0.001008736    0.000085401
      4        6          -0.000368431   -0.001137631    0.000013166
      5        6           0.001066733    0.000016365   -0.000264659
      6        6           0.000547956    0.001429856    0.000498631
      7        8           0.001863561   -0.000950407   -0.000000493
      8        6          -0.000135713   -0.001519329   -0.000111601
      9        6           0.000834394    0.000669148   -0.000270031
     10        6          -0.002167274    0.002095549    0.000015596
     11        8          -0.000954912   -0.002421063    0.000080254
     12        8           0.000868649    0.001925769    0.000301105
     13        8           0.001023108   -0.000698769   -0.000006504
     14        6          -0.000915161   -0.001242432   -0.000015906
     15        1           0.000503541   -0.002450485   -0.000028186
     16        1          -0.000374775    0.002289779    0.000021608
     17        1          -0.001760171   -0.001597071    0.000028209
     18        1          -0.001573294   -0.000394383   -0.000000972
     19        1           0.000029349    0.002050789   -0.000021025
     20        1           0.000021820   -0.002436715    0.000027064
     21        1           0.001319533    0.001526351    0.000284727
     22        1          -0.000348256   -0.002059426   -0.000471323
     23        1           0.002073615    0.000700378    0.000012060
     24        1          -0.001269874    0.000406147   -0.001831306
     25        1          -0.001258217    0.000360874    0.001829860
 -------------------------------------------------------------------
 Cartesian Forces:  Max     0.002450485 RMS     0.001139650

 GradGradGradGradGradGradGradGradGradGradGradGradGradGradGradGradGradGrad
 Berny optimization.
 FormGI is forming the generalized inverse of G from B-inverse, IUseBI=4.
 GSVD:  received Info=                   1 from GESDD.
 Internal  Forces:  Max     0.003920914 RMS     0.000994645
 Search for a local minimum.
 Step number   1 out of a maximum of  119
 All quantities printed in internal units (Hartrees-Bohrs-Radians)
 Mixed Optimization -- En-DIIS/RFO-DIIS
 Second derivative matrix not updated -- first step.
 ITU=  0
     Eigenvalues ---    0.01378   0.01829   0.01872   0.01902   0.01977
     Eigenvalues ---    0.02068   0.02092   0.02103   0.02161   0.02184
     Eigenvalues ---    0.02230   0.02249   0.02257   0.02267   0.02280
     Eigenvalues ---    0.02343   0.02528   0.02709   0.02791   0.02849
     Eigenvalues ---    0.10223   0.10708   0.16000   0.16000   0.16000
     Eigenvalues ---    0.16000   0.16000   0.16000   0.16000   0.16000
     Eigenvalues ---    0.16000   0.16000   0.16000   0.22000   0.22000
     Eigenvalues ---    0.22370   0.23479   0.24604   0.25000   0.25000
     Eigenvalues ---    0.25000   0.25000   0.25000   0.25000   0.34269
     Eigenvalues ---    0.34271   0.34849   0.35066   0.35401   0.35463
     Eigenvalues ---    0.35518   0.35749   0.39353   0.40704   0.41904
     Eigenvalues ---    0.42598   0.43358   0.44345   0.47437   0.47505
     Eigenvalues ---    0.48109   0.49946   0.52945   0.53609   0.53656
     Eigenvalues ---    0.54851   0.61170   0.62700   0.63840
 RFO step:  Lambda=-4.83958395D-04 EMin= 1.37789972D-02
 Linear search not attempted -- first point.
 Iteration  1 RMS(Cart)=  0.01739383 RMS(Int)=  0.00021634
 Iteration  2 RMS(Cart)=  0.00026000 RMS(Int)=  0.00000214
 Iteration  3 RMS(Cart)=  0.00000012 RMS(Int)=  0.00000213
 Variable       Old X    -DE/DX   Delta X   Delta X   Delta X     New X
                                 (Linear)    (Quad)   (Total)
    R1        2.64766   0.00105   0.00000   0.00238   0.00238   2.65004
    R2        2.60213   0.00074   0.00000   0.00149   0.00149   2.60361
    R3        2.04842   0.00250   0.00000   0.00704   0.00704   2.05546
    R4        2.68846   0.00112   0.00000   0.00273   0.00273   2.69119
    R5        2.50026   0.00070   0.00000   0.00114   0.00114   2.50140
    R6        2.59677   0.00090   0.00000   0.00180   0.00180   2.59857
    R7        2.55264  -0.00055   0.00000  -0.00101  -0.00101   2.55164
    R8        2.69240   0.00025   0.00000   0.00053   0.00053   2.69293
    R9        2.05028   0.00231   0.00000   0.00653   0.00653   2.05681
   R10        2.67674   0.00023   0.00000   0.00045   0.00045   2.67719
   R11        2.67230   0.00047   0.00000   0.00109   0.00109   2.67339
   R12        2.04930   0.00238   0.00000   0.00670   0.00670   2.05600
   R13        1.83705  -0.00130   0.00000  -0.00245  -0.00245   1.83460
   R14        2.61824   0.00069   0.00000   0.00144   0.00144   2.61967
   R15        2.05921   0.00204   0.00000   0.00585   0.00585   2.06506
   R16        2.62544   0.00165   0.00000   0.00347   0.00347   2.62891
   R17        2.04476   0.00243   0.00000   0.00678   0.00678   2.05154
   R18        2.48025   0.00023   0.00000   0.00035   0.00035   2.48060
   R19        2.48865  -0.00013   0.00000  -0.00021  -0.00021   2.48844
   R20        1.83090  -0.00050   0.00000  -0.00093  -0.00093   1.82997
   R21        1.83046  -0.00056   0.00000  -0.00105  -0.00105   1.82941
   R22        2.69046   0.00034   0.00000   0.00082   0.00082   2.69127
   R23        2.05567   0.00219   0.00000   0.00623   0.00623   2.06190
   R24        2.06878   0.00224   0.00000   0.00652   0.00652   2.07530
   R25        2.06875   0.00222   0.00000   0.00647   0.00647   2.07522
    A1        2.08633  -0.00019   0.00000  -0.00067  -0.00067   2.08565
    A2        2.06551   0.00022   0.00000   0.00109   0.00109   2.06659
    A3        2.13135  -0.00003   0.00000  -0.00041  -0.00041   2.13094
    A4        2.10772   0.00016   0.00000   0.00096   0.00096   2.10868
    A5        2.08318  -0.00070   0.00000  -0.00293  -0.00293   2.08025
    A6        2.09228   0.00053   0.00000   0.00197   0.00197   2.09425
    A7        2.08676  -0.00029   0.00000  -0.00099  -0.00099   2.08577
    A8        1.97389   0.00179   0.00000   0.00704   0.00704   1.98093
    A9        2.22253  -0.00149   0.00000  -0.00606  -0.00606   2.21648
   A10        2.09679  -0.00014   0.00000  -0.00071  -0.00071   2.09608
   A11        2.10420  -0.00007   0.00000  -0.00054  -0.00054   2.10367
   A12        2.08219   0.00021   0.00000   0.00125   0.00125   2.08344
   A13        2.08173   0.00062   0.00000   0.00225   0.00224   2.08397
   A14        2.06177   0.00010   0.00000   0.00051   0.00051   2.06228
   A15        2.13968  -0.00072   0.00000  -0.00275  -0.00275   2.13694
   A16        2.10703  -0.00016   0.00000  -0.00082  -0.00082   2.10621
   A17        2.07624   0.00012   0.00000   0.00065   0.00065   2.07689
   A18        2.09991   0.00004   0.00000   0.00016   0.00016   2.10007
   A19        1.92343  -0.00180   0.00000  -0.01123  -0.01123   1.91220
   A20        2.22005  -0.00028   0.00000  -0.00129  -0.00129   2.21876
   A21        2.02837  -0.00012   0.00000  -0.00101  -0.00101   2.02736
   A22        2.03476   0.00041   0.00000   0.00230   0.00230   2.03706
   A23        2.10540  -0.00007   0.00000  -0.00030  -0.00030   2.10510
   A24        2.15837  -0.00002   0.00000  -0.00017  -0.00017   2.15821
   A25        2.01941   0.00008   0.00000   0.00047   0.00047   2.01987
   A26        2.06606   0.00007   0.00000   0.00027   0.00027   2.06633
   A27        2.11098   0.00107   0.00000   0.00429   0.00429   2.11527
   A28        2.10611  -0.00114   0.00000  -0.00454  -0.00454   2.10157
   A29        2.02197  -0.00350   0.00000  -0.02182  -0.02182   2.00015
   A30        2.01050  -0.00348   0.00000  -0.02166  -0.02166   1.98884
   A31        2.05955  -0.00392   0.00000  -0.01565  -0.01565   2.04390
   A32        1.85019  -0.00004   0.00000   0.00011   0.00011   1.85030
   A33        1.92518  -0.00036   0.00000  -0.00245  -0.00245   1.92273
   A34        1.92522  -0.00035   0.00000  -0.00236  -0.00237   1.92286
   A35        1.91691   0.00032   0.00000   0.00237   0.00237   1.91928
   A36        1.91697   0.00031   0.00000   0.00232   0.00232   1.91929
   A37        1.92792   0.00012   0.00000   0.00006   0.00005   1.92797
    D1       -0.00102  -0.00001   0.00000  -0.00040  -0.00040  -0.00142
    D2       -3.14098  -0.00004   0.00000  -0.00150  -0.00150   3.14071
    D3        3.13813   0.00004   0.00000   0.00186   0.00186   3.13999
    D4       -0.00183   0.00001   0.00000   0.00076   0.00076  -0.00107
    D5       -0.00307   0.00010   0.00000   0.00465   0.00464   0.00157
    D6        3.13745   0.00005   0.00000   0.00208   0.00208   3.13953
    D7        3.14106   0.00005   0.00000   0.00230   0.00230  -3.13983
    D8       -0.00160  -0.00000   0.00000  -0.00027  -0.00027  -0.00187
    D9        0.00192  -0.00004   0.00000  -0.00202  -0.00202  -0.00010
   D10       -3.14000  -0.00001   0.00000  -0.00089  -0.00088  -3.14089
   D11       -3.14131  -0.00002   0.00000  -0.00091  -0.00091   3.14096
   D12       -0.00005   0.00001   0.00000   0.00022   0.00022   0.00017
   D13        3.14066   0.00001   0.00000   0.00060   0.00060   3.14126
   D14        0.00068  -0.00001   0.00000  -0.00049  -0.00049   0.00019
   D15        0.00126   0.00001   0.00000   0.00016   0.00017   0.00143
   D16        3.14130   0.00003   0.00000   0.00122   0.00122  -3.14067
   D17       -3.13995  -0.00002   0.00000  -0.00114  -0.00114  -3.14108
   D18        0.00009  -0.00000   0.00000  -0.00009  -0.00009   0.00000
   D19       -3.13790  -0.00003   0.00000  -0.00121  -0.00121  -3.13911
   D20        0.00333   0.00000   0.00000   0.00003   0.00003   0.00336
   D21       -0.00525   0.00007   0.00000   0.00397   0.00397  -0.00128
   D22        3.13971  -0.00001   0.00000  -0.00056  -0.00057   3.13914
   D23        3.13788   0.00005   0.00000   0.00293   0.00294   3.14082
   D24       -0.00034  -0.00003   0.00000  -0.00160  -0.00160  -0.00194
   D25        0.00620  -0.00013   0.00000  -0.00644  -0.00644  -0.00025
   D26       -3.13432  -0.00008   0.00000  -0.00384  -0.00385  -3.13816
   D27       -3.13892  -0.00004   0.00000  -0.00169  -0.00170  -3.14062
   D28        0.00375   0.00002   0.00000   0.00090   0.00090   0.00465
   D29       -3.12185  -0.00011   0.00000  -0.00595  -0.00595  -3.12781
   D30        0.01900  -0.00015   0.00000  -0.00776  -0.00776   0.01124
   D31        0.02323  -0.00021   0.00000  -0.01065  -0.01065   0.01258
   D32       -3.11911  -0.00025   0.00000  -0.01246  -0.01246  -3.13156
   D33       -3.11980  -0.00028   0.00000  -0.01200  -0.01200  -3.13180
   D34        0.02279  -0.00021   0.00000  -0.00886  -0.00886   0.01392
   D35        0.02254  -0.00024   0.00000  -0.01019  -0.01019   0.01235
   D36       -3.11806  -0.00017   0.00000  -0.00704  -0.00704  -3.12511
   D37       -3.06959  -0.00008   0.00000  -0.00356  -0.00356  -3.07315
   D38        0.07998  -0.00012   0.00000  -0.00517  -0.00517   0.07481
   D39        0.07109  -0.00015   0.00000  -0.00646  -0.00646   0.06463
   D40       -3.06253  -0.00018   0.00000  -0.00807  -0.00807  -3.07060
   D41       -2.94869  -0.00048   0.00000  -0.01639  -0.01639  -2.96508
   D42        0.18494  -0.00043   0.00000  -0.01475  -0.01475   0.17020
   D43       -2.89735  -0.00062   0.00000  -0.02165  -0.02165  -2.91900
   D44        0.25241  -0.00066   0.00000  -0.02332  -0.02332   0.22909
   D45        3.13941   0.00000   0.00000   0.00035   0.00035   3.13976
   D46       -1.06951   0.00017   0.00000   0.00194   0.00193  -1.06758
   D47        1.06505  -0.00016   0.00000  -0.00122  -0.00122   1.06383
         Item               Value     Threshold  Converged?
 Maximum Force            0.003921     0.000450     NO 
 RMS     Force            0.000995     0.000300     NO 
 Maximum Displacement     0.058581     0.001800     NO 
 RMS     Displacement     0.017362     0.001200     NO 
 Predicted change in Energy=-2.430512D-04
 GradGradGradGradGradGradGradGradGradGradGradGradGradGradGradGradGradGrad

                          Input orientation:                          
 ---------------------------------------------------------------------
 Center     Atomic      Atomic             Coordinates (Angstroms)
 Number     Number       Type             X           Y           Z
 ---------------------------------------------------------------------
      1          6           0        1.478233   -2.029708   -0.018877
      2          6           0        2.516167   -1.086773   -0.007764
      3          6           0        2.233758    0.309009    0.004618
      4          6           0        0.926467    0.735505    0.005556
      5          6           0       -0.135279   -0.214933   -0.004035
      6          6           0        0.169723   -1.598369   -0.016082
      7          8           0        3.771048   -1.507971   -0.009499
      8          6           0       -1.464619    0.269015    0.000373
      9          6           0       -2.628926   -0.483367    0.007937
     10          6           0       -3.873765    0.137631   -0.000187
     11          8           0       -4.946677   -0.613689    0.086423
     12          8           0       -3.982573    1.446203   -0.099352
     13          8           0        3.340683    1.082224    0.013430
     14          6           0        3.146660    2.493017    0.029239
     15          1           0        1.738593   -3.085734   -0.029675
     16          1           0        0.691579    1.798239    0.014075
     17          1           0       -0.629104   -2.336938   -0.026729
     18          1           0        4.370285   -0.744196   -0.001260
     19          1           0       -1.581791    1.355498   -0.000024
     20          1           0       -2.643788   -1.568775    0.024002
     21          1           0       -5.779495   -0.147634   -0.077778
     22          1           0       -4.868178    1.783101    0.099117
     23          1           0        4.144639    2.934050    0.036229
     24          1           0        2.602687    2.810439   -0.870416
     25          1           0        2.599142    2.789855    0.933711
 ---------------------------------------------------------------------
                    Distance matrix (angstroms):
                    1          2          3          4          5
     1  C    0.000000
     2  C    1.402340   0.000000
     3  C    2.457838   1.424118   0.000000
     4  C    2.819831   2.418268   1.375104   0.000000
     5  C    2.428384   2.791108   2.426299   1.425037   0.000000
     6  C    1.377773   2.401582   2.810473   2.453589   1.416709
     7  O    2.351446   1.323684   2.380100   3.622852   4.114775
     8  C    3.734284   4.205340   3.698596   2.436172   1.414698
     9  C    4.388695   5.180379   4.926822   3.758521   2.508082
    10  C    5.774217   6.506185   6.109929   4.837325   3.755075
    11  O    6.579944   7.478417   7.239939   6.026665   4.828741
    12  O    6.473703   6.975526   6.320347   4.961327   4.191673
    13  O    3.626828   2.320522   1.350267   2.438999   3.710153
    14  C    4.820893   3.635077   2.367253   2.831725   4.255024
    15  H    1.087702   2.144982   3.430837   3.906746   3.428346
    16  H    3.908079   3.413632   2.143878   1.088415   2.176438
    17  H    2.129629   3.384671   3.898461   3.443944   2.178826
    18  H    3.164936   1.885512   2.382020   3.748259   4.536545
    19  H    4.563301   4.770535   3.956461   2.583754   2.135103
    20  H    4.147933   5.182515   5.226557   4.249325   2.850664
    21  H    7.498018   8.348945   8.026676   6.764377   5.645098
    22  H    7.404618   7.923140   7.253922   5.889323   5.138396
    23  H    5.634860   4.338303   3.247046   3.897585   5.313701
    24  H    5.041481   3.992482   2.675620   2.807559   4.171325
    25  H    5.039052   3.990176   2.674195   2.807075   4.169554
                    6          7          8          9         10
     6  C    0.000000
     7  O    3.602465   0.000000
     8  C    2.481627   5.529014   0.000000
     9  C    3.012681   6.481496   1.386271   0.000000
    10  C    4.400425   7.819927   2.412725   1.391160   0.000000
    11  O    5.211301   8.763999   3.593230   2.322739   1.312679
    12  O    5.149555   8.297822   2.781331   2.359472   1.316827
    13  O    4.152281   2.625805   4.873644   6.171494   7.276036
    14  C    5.060005   4.049601   5.119659   6.497439   7.405070
    15  H    2.161896   2.573056   4.638515   5.084187   6.472211
    16  H    3.436595   4.518264   2.643464   4.028836   4.858002
    17  H    1.087990   4.477591   2.736752   2.726943   4.080688
    18  H    4.286555   0.970828   5.922222   7.004076   8.291078
    19  H    3.434150   6.070620   1.092782   2.116123   2.595446
    20  H    2.813952   6.415211   2.183682   1.085628   2.103627
    21  H    6.123857   9.647178   4.335649   3.169565   1.928524
    22  H    6.068613   9.245495   3.726449   3.187388   1.925173
    23  H    6.028724   4.457939   6.210272   7.586878   8.492119
    24  H    5.107522   4.555755   4.874432   6.244232   7.060144
    25  H    5.104968   4.553495   4.872362   6.237286   7.057265
                   11         12         13         14         15
    11  O    0.000000
    12  O    2.281922   0.000000
    13  O    8.459420   7.333163   0.000000
    14  C    8.669314   7.206824   1.424161   0.000000
    15  H    7.128627   7.298976   4.465470   5.754007   0.000000
    16  H    6.132908   4.688762   2.744163   2.551542   4.995132
    17  H    4.650143   5.056005   5.239417   6.130904   2.483283
    18  H    9.318289   8.635838   2.096689   3.460887   3.522700
    19  H    3.899696   2.404547   4.930073   4.863441   5.545302
    20  H    2.493870   3.301159   6.545364   7.073009   4.637813
    21  H    0.968377   2.402022   9.203179   9.309174   8.071951
    22  H    2.398109   0.968084   8.239173   8.046520   8.208019
    23  H    9.759150   8.263391   2.018942   1.091110   6.483148
    24  H    8.344645   6.769145   2.076668   1.098199   6.018169
    25  H    8.321142   6.796440   2.076729   1.098161   6.015913
                   16         17         18         19         20
    16  H    0.000000
    17  H    4.341147   0.000000
    18  H    4.471810   5.247034   0.000000
    19  H    2.316124   3.813451   6.311571   0.000000
    20  H    4.739362   2.156757   7.062421   3.111235   0.000000
    21  H    6.757933   5.596622  10.167584   4.459390   3.444221
    22  H    5.560428   5.912724   9.578440   3.315571   4.023509
    23  H    3.635131   7.111673   3.685351   5.940130   8.146061
    24  H    2.336495   6.136104   4.063897   4.514897   6.892241
    25  H    2.338340   6.134169   4.062097   4.517682   6.878484
                   21         22         23         24         25
    21  H    0.000000
    22  H    2.142318   0.000000
    23  H   10.392218   9.086226   0.000000
    24  H    8.924093   7.603239   1.793014   0.000000
    25  H    8.936079   7.580962   1.792993   1.804248   0.000000
 Stoichiometry    C10H11O4(1+)
 Framework group  C1[X(C10H11O4)]
 Deg. of freedom    69
 Full point group                 C1      NOp   1
 Largest Abelian subgroup         C1      NOp   1
 Largest concise Abelian subgroup C1      NOp   1
                         Standard orientation:                         
 ---------------------------------------------------------------------
 Center     Atomic      Atomic             Coordinates (Angstroms)
 Number     Number       Type             X           Y           Z
 ---------------------------------------------------------------------
      1          6           0        1.480228   -2.026311   -0.018028
      2          6           0        2.515810   -1.080783   -0.007880
      3          6           0        2.229925    0.314299    0.003514
      4          6           0        0.921575    0.737535    0.004446
      5          6           0       -0.137801   -0.215555   -0.004168
      6          6           0        0.170647   -1.598234   -0.015242
      7          8           0        3.771737   -1.498853   -0.009601
      8          6           0       -1.468342    0.265081    0.000196
      9          6           0       -2.630768   -0.490196    0.008612
     10          6           0       -3.877153    0.127690    0.000320
     11          8           0       -4.948168   -0.626237    0.087758
     12          8           0       -3.989247    1.435912   -0.099809
     13          8           0        3.334920    1.090278    0.011473
     14          6           0        3.137384    2.500595    0.026261
     15          1           0        1.743218   -3.081693   -0.028091
     16          1           0        0.684040    1.799686    0.012218
     17          1           0       -0.626338   -2.338800   -0.025137
     18          1           0        4.369070   -0.733579   -0.002085
     19          1           0       -1.588223    1.351267   -0.000994
     20          1           0       -2.642919   -1.575625    0.025501
     21          1           0       -5.782184   -0.162384   -0.076593
     22          1           0       -4.875642    1.770751    0.098619
     23          1           0        4.134261    2.944120    0.032675
     24          1           0        2.592405    2.815977   -0.873502
     25          1           0        2.589346    2.796751    0.930641
 ---------------------------------------------------------------------
 Rotational constants (GHZ):      1.5405751      0.2879658      0.2430740
 Standard basis: Aug-CC-pVDZ (5D, 7F)
 There are   449 symmetry adapted cartesian basis functions of A   symmetry.
 There are   421 symmetry adapted basis functions of A   symmetry.
   421 basis functions,   723 primitive gaussians,   449 cartesian basis functions
    51 alpha electrons       51 beta electrons
       nuclear repulsion energy       841.6578006189 Hartrees.
 NAtoms=   25 NActive=   25 NUniq=   25 SFac= 1.00D+00 NAtFMM=   60 NAOKFM=F Big=F
 Integral buffers will be    131072 words long.
 Raffenetti 2 integral format.
 Two-electron integral symmetry is turned on.
 One-electron integrals computed using PRISM.
 NBasis=   421 RedAO= T EigKep=  1.90D-06  NBF=   421
 NBsUse=   420 1.00D-06 EigRej=  9.52D-07 NBFU=   420
 Initial guess from the checkpoint file:  "pvdzFAyang.chk"
 B after Tr=     0.000000    0.000000    0.000000
         Rot=    1.000000    0.000000    0.000006   -0.000932 Ang=   0.11 deg.
 ExpMin= 2.97D-02 ExpMax= 1.17D+04 ExpMxC= 4.01D+02 IAcc=3 IRadAn=         5 AccDes= 0.00D+00
 Harris functional with IExCor= 1009 and IRadAn=       5 diagonalized for initial guess.
 HarFok:  IExCor= 1009 AccDes= 0.00D+00 IRadAn=         5 IDoV= 1 UseB2=F ITyADJ=14
 ICtDFT=  3500011 ScaDFX=  1.000000  1.000000  1.000000  1.000000
 FoFCou: FMM=F IPFlag=           0 FMFlag=      100000 FMFlg1=           0
         NFxFlg=           0 DoJE=T BraDBF=F KetDBF=T FulRan=T
         wScrn=  0.000000 ICntrl=     500 IOpCl=  0 I1Cent=   200000004 NGrid=           0
         NMat0=    1 NMatS0=      1 NMatT0=    0 NMatD0=    1 NMtDS0=    0 NMtDT0=    0
 Petite list used in FoFCou.
 Requested convergence on RMS density matrix=1.00D-08 within 128 cycles.
 Requested convergence on MAX density matrix=1.00D-06.
 Requested convergence on             energy=1.00D-06.
 No special actions if energy rises.
 SCF Done:  E(RM062X) =  -688.158525862     A.U. after   18 cycles
            NFock= 18  Conv=0.65D-08     -V/T= 2.0057
 Calling FoFJK, ICntrl=      2127 FMM=F ISym2X=0 I1Cent= 0 IOpClX= 0 NMat=1 NMatS=1 NMatT=0.
 ***** Axes restored to original set *****
 -------------------------------------------------------------------
 Center     Atomic                   Forces (Hartrees/Bohr)
 Number     Number              X              Y              Z
 -------------------------------------------------------------------
      1        6          -0.000048339    0.000028834    0.000057573
      2        6          -0.001357468    0.000446197    0.000017677
      3        6           0.000101435   -0.000633603   -0.000060747
      4        6          -0.000838340   -0.000140756   -0.000055211
      5        6           0.000458795    0.000116551    0.000089057
      6        6          -0.000092131   -0.000034661   -0.000154251
      7        8           0.000687946    0.000223373   -0.000017079
      8        6          -0.000529564   -0.000107020    0.000047028
      9        6           0.000026390    0.000001640   -0.000093411
     10        6           0.001389548   -0.000175427   -0.000075815
     11        8          -0.000834846   -0.000726620   -0.000289541
     12        8           0.000143053    0.000568227    0.000656650
     13        8           0.000270836   -0.000436783    0.000043118
     14        6           0.000401222    0.000663367   -0.000016754
     15        1           0.000038600    0.000181939    0.000027975
     16        1          -0.000243704   -0.000527612   -0.000008653
     17        1           0.000162268    0.000069398    0.000066440
     18        1           0.000500945   -0.000021854    0.000004359
     19        1           0.000031071   -0.000042234   -0.000050616
     20        1          -0.000116469    0.000191975    0.000018957
     21        1          -0.000337381   -0.000185667    0.000322891
     22        1          -0.000095764    0.000364597   -0.000539829
     23        1          -0.000103277    0.000010168    0.000000548
     24        1           0.000192294    0.000080675    0.000069550
     25        1           0.000192879    0.000085298   -0.000059916
 -------------------------------------------------------------------
 Cartesian Forces:  Max     0.001389548 RMS     0.000377884

 GradGradGradGradGradGradGradGradGradGradGradGradGradGradGradGradGradGrad
 Berny optimization.
 Using GEDIIS/GDIIS optimizer.
 FormGI is forming the generalized inverse of G from B-inverse, IUseBI=4.
 GSVD:  received Info=                   1 from GESDD.
 Internal  Forces:  Max     0.002495130 RMS     0.000459982
 Search for a local minimum.
 Step number   2 out of a maximum of  119
 All quantities printed in internal units (Hartrees-Bohrs-Radians)
 Mixed Optimization -- En-DIIS/RFO-DIIS
 Swapping is turned off.
 Update second derivatives using D2CorX and points    1    2
 DE= -2.04D-04 DEPred=-2.43D-04 R= 8.40D-01
 TightC=F SS=  1.41D+00  RLast= 6.65D-02 DXNew= 5.0454D-01 1.9938D-01
 Trust test= 8.40D-01 RLast= 6.65D-02 DXMaxT set to 3.00D-01
 ITU=  1  0
     Eigenvalues ---    0.01378   0.01829   0.01857   0.01877   0.01976
     Eigenvalues ---    0.02066   0.02093   0.02103   0.02161   0.02171
     Eigenvalues ---    0.02187   0.02248   0.02258   0.02265   0.02267
     Eigenvalues ---    0.02342   0.02526   0.02565   0.02709   0.02834
     Eigenvalues ---    0.10274   0.10713   0.15692   0.16000   0.16000
     Eigenvalues ---    0.16000   0.16000   0.16000   0.16000   0.16000
     Eigenvalues ---    0.16000   0.16000   0.16734   0.21988   0.22026
     Eigenvalues ---    0.22369   0.23478   0.24439   0.24931   0.25000
     Eigenvalues ---    0.25000   0.25000   0.25000   0.30108   0.34270
     Eigenvalues ---    0.34422   0.34832   0.35057   0.35391   0.35493
     Eigenvalues ---    0.35688   0.36796   0.39484   0.40770   0.42036
     Eigenvalues ---    0.43019   0.43368   0.44630   0.47312   0.47863
     Eigenvalues ---    0.48277   0.49828   0.53019   0.53624   0.53666
     Eigenvalues ---    0.55563   0.61278   0.62952   0.64903
 En-DIIS/RFO-DIIS IScMMF=        0 using points:     2    1
 RFO step:  Lambda=-3.75259128D-05.
 DidBck=F Rises=F RFO-DIIS coefs:    0.84942    0.15058
 Iteration  1 RMS(Cart)=  0.00875548 RMS(Int)=  0.00004470
 Iteration  2 RMS(Cart)=  0.00004909 RMS(Int)=  0.00000034
 Iteration  3 RMS(Cart)=  0.00000001 RMS(Int)=  0.00000034
 Variable       Old X    -DE/DX   Delta X   Delta X   Delta X     New X
                                 (Linear)    (Quad)   (Total)
    R1        2.65004  -0.00015  -0.00036   0.00034  -0.00001   2.65002
    R2        2.60361  -0.00016  -0.00022   0.00011  -0.00011   2.60350
    R3        2.05546  -0.00017  -0.00106   0.00156   0.00050   2.05596
    R4        2.69119  -0.00072  -0.00041  -0.00071  -0.00112   2.69008
    R5        2.50140   0.00106  -0.00017   0.00179   0.00162   2.50302
    R6        2.59857   0.00082  -0.00027   0.00193   0.00166   2.60023
    R7        2.55164   0.00101   0.00015   0.00129   0.00144   2.55308
    R8        2.69293  -0.00020  -0.00008  -0.00021  -0.00029   2.69264
    R9        2.05681  -0.00047  -0.00098   0.00070  -0.00029   2.05652
   R10        2.67719  -0.00015  -0.00007  -0.00017  -0.00024   2.67696
   R11        2.67339   0.00029  -0.00016   0.00088   0.00071   2.67410
   R12        2.05600  -0.00016  -0.00101   0.00147   0.00046   2.05646
   R13        1.83460   0.00028   0.00037  -0.00023   0.00014   1.83474
   R14        2.61967  -0.00021  -0.00022   0.00004  -0.00018   2.61949
   R15        2.06506  -0.00004  -0.00088   0.00152   0.00064   2.06570
   R16        2.62891  -0.00028  -0.00052   0.00046  -0.00007   2.62885
   R17        2.05154  -0.00020  -0.00102   0.00142   0.00040   2.05194
   R18        2.48060   0.00147  -0.00005   0.00205   0.00200   2.48260
   R19        2.48844   0.00094   0.00003   0.00121   0.00124   2.48968
   R20        1.82997   0.00015   0.00014  -0.00001   0.00012   1.83009
   R21        1.82941   0.00011   0.00016  -0.00012   0.00003   1.82945
   R22        2.69127   0.00070  -0.00012   0.00166   0.00153   2.69281
   R23        2.06190  -0.00009  -0.00094   0.00152   0.00058   2.06248
   R24        2.07530  -0.00013  -0.00098   0.00148   0.00050   2.07579
   R25        2.07522  -0.00013  -0.00097   0.00148   0.00051   2.07573
    A1        2.08565   0.00008   0.00010  -0.00005   0.00006   2.08571
    A2        2.06659  -0.00011  -0.00016  -0.00016  -0.00033   2.06627
    A3        2.13094   0.00004   0.00006   0.00021   0.00027   2.13121
    A4        2.10868   0.00033  -0.00014   0.00130   0.00116   2.10983
    A5        2.08025   0.00014   0.00044  -0.00029   0.00015   2.08041
    A6        2.09425  -0.00047  -0.00030  -0.00101  -0.00131   2.09294
    A7        2.08577  -0.00039   0.00015  -0.00154  -0.00139   2.08439
    A8        1.98093  -0.00139  -0.00106  -0.00279  -0.00385   1.97708
    A9        2.21648   0.00178   0.00091   0.00433   0.00524   2.22172
   A10        2.09608   0.00008   0.00011   0.00025   0.00036   2.09644
   A11        2.10367   0.00032   0.00008   0.00153   0.00161   2.10527
   A12        2.08344  -0.00040  -0.00019  -0.00178  -0.00197   2.08147
   A13        2.08397   0.00001  -0.00034   0.00074   0.00040   2.08437
   A14        2.06228  -0.00012  -0.00008  -0.00032  -0.00040   2.06188
   A15        2.13694   0.00011   0.00041  -0.00042  -0.00000   2.13693
   A16        2.10621  -0.00010   0.00012  -0.00070  -0.00058   2.10563
   A17        2.07689  -0.00000  -0.00010   0.00013   0.00003   2.07693
   A18        2.10007   0.00011  -0.00002   0.00058   0.00055   2.10062
   A19        1.91220   0.00076   0.00169   0.00089   0.00258   1.91479
   A20        2.21876   0.00039   0.00019   0.00113   0.00133   2.22008
   A21        2.02736  -0.00022   0.00015  -0.00119  -0.00104   2.02632
   A22        2.03706  -0.00016  -0.00035   0.00006  -0.00029   2.03678
   A23        2.10510  -0.00029   0.00005  -0.00118  -0.00114   2.10396
   A24        2.15821   0.00027   0.00003   0.00118   0.00120   2.15941
   A25        2.01987   0.00002  -0.00007   0.00001  -0.00006   2.01981
   A26        2.06633  -0.00017  -0.00004  -0.00050  -0.00054   2.06578
   A27        2.11527  -0.00040  -0.00065  -0.00017  -0.00082   2.11445
   A28        2.10157   0.00057   0.00068   0.00068   0.00136   2.10293
   A29        2.00015   0.00067   0.00329  -0.00252   0.00077   2.00091
   A30        1.98884   0.00076   0.00326  -0.00199   0.00127   1.99011
   A31        2.04390   0.00250   0.00236   0.00413   0.00648   2.05038
   A32        1.85030  -0.00007  -0.00002  -0.00059  -0.00060   1.84969
   A33        1.92273   0.00016   0.00037   0.00032   0.00069   1.92342
   A34        1.92286   0.00016   0.00036   0.00033   0.00069   1.92355
   A35        1.91928  -0.00015  -0.00036  -0.00040  -0.00076   1.91852
   A36        1.91929  -0.00015  -0.00035  -0.00044  -0.00079   1.91851
[...]
 0000014,0.00007346,0.00031241,0.00001094,-0.00000040,-0.00016773,0.000
 00693,-0.00031124,0.00054563,0.00004377,-0.00109772,-0.00069226,-0.000
 01691,0.15249721,0.19538208,0.00007634,0.00002501,0.00684333,0.0000228
 6,-0.00007701,0.00850623,-0.00000055,0.00001485,-0.00086890,0.00001816
 ,-0.00009736,0.00465981,-0.00018669,-0.00010506,0.00314309,-0.00125634
 ,-0.00129977,-0.03953145,0.00000143,0.00000690,-0.00024916,-0.00000569
 ,0.00001778,-0.00290129,0.00001459,-0.00000997,0.00062976,-0.00000354,
 0.00000966,-0.00035397,-0.00000455,0.00000052,-0.00009523,0.00000024,0
 .00000239,0.00015948,-0.00000291,0.00000500,-0.00041240,-0.00000211,0.
 00000122,-0.00013864,-0.00000324,0.00005308,-0.00506702,-0.00001010,-0
 .00001104,0.00120700,0.00133040,0.00146054,0.02425308,-0.00219550,0.00
 511656,0.00003804,-0.04108498,-0.03408862,-0.00029247,-0.00076574,-0.0
 0222179,-0.00001988,-0.00188650,-0.00130801,-0.00001148,0.00248677,-0.
 00086417,-0.00000628,-0.00145865,-0.00064207,-0.00000601,-0.20218923,-
 0.18949998,-0.00162350,-0.00259010,0.00011419,-0.00000004,0.00225441,-
 0.00003262,0.00000119,-0.00227311,0.00116519,0.00000832,0.00124561,0.0
 0041891,0.00000378,0.00037658,-0.00104710,-0.00000859,-0.00004377,-0.0
 0158027,-0.00001172,0.00111410,0.00136399,0.00001016,0.00019913,0.0000
 9061,0.00000179,0.00032308,-0.00007655,0.00000020,-0.00030340,0.000175
 67,0.00000103,0.24700993,0.00795720,0.00034030,-0.00003395,0.00153128,
 0.01708604,0.00016683,0.01217488,0.00029389,0.00000714,-0.00430403,-0.
 00051949,-0.00000717,0.00369852,-0.00153395,-0.00000777,-0.00246927,0.
 00230465,0.00000562,-0.23652556,-0.34024799,-0.00277485,-0.00339771,-0
 .00011227,-0.00000334,0.00237313,0.00006008,0.00000116,-0.00217714,0.0
 0128553,0.00000951,0.00112968,0.00036652,0.00000330,0.00032079,-0.0011
 0767,-0.00000890,-0.00248097,-0.00173980,-0.00000277,-0.00152194,-0.00
 261662,-0.00002046,0.00004983,0.00000133,0.00000697,0.00029544,-0.0000
 4156,0.00000058,0.00021267,-0.00004311,0.00000285,0.22374207,0.3248077
 9,0.00006202,-0.00002979,0.00442818,-0.00000142,0.00014939,-0.00299970
 ,0.00009753,0.00000431,-0.00022295,-0.00003588,-0.00000424,-0.00048775
 ,0.00003258,-0.00000785,-0.00005762,-0.00002012,0.00000271,0.00161194,
 -0.00200769,-0.00275638,-0.01184071,-0.00002743,-0.00000239,-0.0000587
 0,0.00002132,0.00000012,-0.00004416,-0.00001921,0.00001203,-0.00003149
 ,0.00000928,0.00000309,-0.00001240,0.00000275,-0.00000938,0.00000569,-
 0.00001961,-0.00000188,-0.00156281,-0.00001129,-0.00001247,-0.00098396
 ,-0.00000033,0.00000550,-0.00048420,0.00000222,-0.00000271,0.00034339,
 0.00000095,0.00000338,-0.00048879,0.00192024,0.00263753,0.01259665,0.0
 0038042,0.00160089,0.00001109,0.00006377,0.00031504,0.00000588,-0.0000
 2830,-0.00063750,-0.00001751,0.00083563,0.00211515,0.00002788,0.000409
 93,0.02782505,0.00021666,-0.00556510,0.00074892,0.00000316,0.00014222,
 -0.00023138,-0.00000231,-0.06072845,0.02954746,0.00023918,0.00591482,-
 0.02764380,-0.00021795,0.00064692,-0.00375982,-0.00003257,0.00045791,0
 .00068409,0.00000413,-0.00233274,0.00194913,0.00001601,0.00006333,-0.0
 0006697,0.00000278,-0.00004726,0.00006884,0.00000060,-0.00039025,0.000
 02684,0.00000111,-0.00099986,-0.00094297,-0.00000665,0.00005149,0.0000
 1671,-0.00000272,-0.00006054,0.00003839,-0.00000033,0.06540529,-0.0005
 6150,-0.00062246,0.00000708,0.00019926,-0.00000102,-0.00000866,-0.0001
 5336,0.00049159,0.00002518,-0.00141302,0.00133943,0.00002332,-0.001059
 88,-0.00769722,-0.00012484,0.00175418,0.00051957,-0.00004698,-0.000221
 09,0.00007129,0.00000254,0.02797961,-0.33831912,-0.00234653,0.00346765
 ,-0.01316129,-0.00018509,-0.00003173,-0.00184573,0.00003084,-0.0001465
 2,0.00017453,0.00000323,0.00207753,0.00062825,0.00000017,-0.00002735,-
 0.00006554,-0.00000873,-0.00000466,0.00003549,-0.00000100,0.00013029,0
 .00005191,0.00000494,0.00022690,0.00053878,0.00000097,-0.00008388,0.00
 004742,0.00000534,0.00002598,0.00002106,0.00000024,-0.03039073,0.35671
 114,-0.00000714,0.00000246,-0.00108247,0.00000490,-0.00000506,0.000463
 64,0.,0.00000363,0.00017699,-0.00001473,0.00003804,-0.00365174,-0.0000
 1007,-0.00012226,0.00903405,0.00000940,-0.00004842,0.00625837,-0.00000
 411,0.00000221,-0.00011154,0.00022548,-0.00234341,-0.04970777,0.000036
 17,-0.00018231,0.00780225,-0.00000364,0.00002283,-0.00477522,-0.000004
 63,0.00000031,0.00015540,0.00002131,0.00000176,0.00075373,-0.00000291,
 -0.00000617,0.00019225,-0.00000311,0.00000234,0.00003902,0.00000162,0.
 00000891,-0.00065464,0.00000376,0.00000737,0.00006660,0.00000075,-0.00
 000088,-0.00011404,0.00000011,-0.00000036,0.00006929,-0.00023494,0.002
 66899,0.02798494,-0.00018472,0.00042775,0.00000864,0.00027552,-0.00030
 748,-0.00000284,-0.00048720,0.00053724,-0.00001209,0.00065838,0.000327
 09,0.00002883,-0.00061839,0.00158060,-0.00000222,-0.00019419,-0.001197
 66,-0.00001147,-0.00018178,0.00012892,-0.00000033,0.00855848,-0.027016
 36,-0.00020895,-0.05731005,-0.00663265,-0.00004682,0.00335506,0.029418
 52,0.00023642,0.00002418,-0.00032341,-0.00000417,-0.00644440,0.0024074
 4,0.00001274,0.00017864,0.00014624,0.00000675,-0.00001243,-0.00012516,
 0.00001449,-0.00003274,-0.00007852,-0.00000623,0.00017792,0.00015676,-
 0.00000339,-0.00333846,0.00159436,0.00000974,0.00001756,0.00003581,0.0
 0000028,-0.00420333,-0.00195402,-0.00002242,0.05924934,0.00022604,0.00
 036166,0.00000648,-0.00018297,-0.00000400,0.00000088,0.00001992,-0.000
 24862,0.00000686,-0.00036747,-0.00018927,-0.00000875,0.00129887,-0.000
 94342,0.00003042,0.00043256,0.00024060,0.00000114,0.00030759,-0.000026
 97,-0.00000070,-0.00042319,-0.00905410,-0.00010468,0.00144684,-0.35200
 277,-0.00260172,-0.00279594,-0.01123578,-0.00009272,-0.00155647,0.0007
 5787,0.00002458,0.00171307,0.00110376,-0.00001982,0.00002601,0.0001101
 8,-0.00000202,0.00001874,-0.00006734,-0.00000383,0.00002890,0.00002372
 ,-0.00000056,0.00001791,0.00005375,-0.00000025,0.00196497,0.00022092,-
 0.00000220,-0.00002267,-0.00004124,-0.00000074,-0.00158584,0.00055164,
 -0.00005342,-0.00037528,0.37032032,0.00000259,0.00000206,-0.00037861,-
 0.00000270,0.00000556,-0.00031085,0.00000270,-0.00000202,-0.00007067,-
 0.00000134,0.00000555,-0.00017941,0.00000894,0.00001576,-0.00380665,0.
 00000047,0.00000534,0.00005729,0.00000221,-0.00000165,0.00015290,-0.00
 000349,-0.00010731,0.00335796,0.00000523,-0.00259612,-0.03360299,-0.00
 002252,-0.00008749,0.00033661,-0.00001240,0.00002403,-0.00218678,0.000
 01296,-0.00001808,0.00376056,-0.00000072,-0.00000132,0.00004849,-0.000
 00273,-0.00000108,0.00002060,0.00000213,-0.00000437,0.00016500,0.00000
 066,0.00000039,0.00013622,0.00001643,-0.00000381,0.00074462,0.00000009
 ,0.00000024,0.00005067,-0.00001638,-0.00005504,0.00714443,0.00000742,0
 .00282803,0.02340727,0.00110679,0.00049352,0.00000410,-0.00165915,0.00
 054411,0.00000262,0.00013153,-0.00155534,-0.00000370,-0.00126215,-0.00
 044938,-0.00001412,0.00263019,-0.00167709,-0.00000550,-0.00072670,0.00
 139803,0.00001096,0.00163225,-0.00029699,-0.00000121,-0.00518817,0.000
 00299,-0.00000707,0.00537117,-0.00438968,-0.00004189,-0.04146350,0.021
 34524,0.00016913,-0.38184200,0.18274495,0.00143792,0.00673583,0.003241
 76,0.00002988,0.00048167,0.00071794,0.00000326,0.00002172,-0.00034434,
 -0.00000687,0.00001814,0.00002244,0.00000132,-0.00004231,0.00001133,0.
 00000072,-0.00003525,0.00003431,0.00000184,-0.00021895,-0.00018418,-0.
 00000141,-0.00018461,-0.00005395,0.00000066,0.00036028,0.00001346,0.00
 000084,0.41306965,-0.00022734,-0.00009176,0.00000037,0.00029056,-0.000
 09306,-0.00000147,-0.00004658,0.00029404,0.00000173,0.00020956,0.00011
 708,0.00000689,-0.00070036,0.00009126,0.00000734,0.00014741,-0.0003189
 4,-0.00000381,-0.00028249,0.00004282,0.00000020,0.00021115,0.00103578,
 -0.00001638,-0.00366909,-0.00261874,-0.00005957,-0.02988466,0.01599638
 ,0.00016899,0.23281870,-0.17071630,-0.00132456,0.00024691,-0.00032278,
 0.00002928,-0.00008527,-0.00016879,-0.00000167,-0.00001884,0.00009217,
 0.00000368,0.00000380,0.00000417,-0.00000136,-0.00000695,-0.00001026,-
 0.00000143,0.00001603,0.00000948,0.00000084,0.00002766,0.00004441,0.00
 000054,-0.00002761,0.00000216,-0.00000127,-0.00000317,0.00017763,0.000
 00845,-0.19750092,0.15993423,0.00000090,-0.00000165,0.00004220,-0.0000
 0143,0.00000163,-0.00001341,0.00000067,-0.00000077,0.00010602,0.000003
 74,0.00000887,-0.00040911,-0.00000577,0.00000132,-0.00096773,-0.000000
 81,0.00000099,0.00008764,0.00000008,-0.00000023,-0.00001383,-0.0000057
 8,-0.00001309,0.00306794,-0.00003289,-0.00005897,0.00445449,-0.0002634
 1,0.00018202,-0.00510729,0.00186166,-0.00133818,-0.00480792,0.00000485
 ,0.00003093,-0.00416843,0.00000065,0.00000010,0.00004824,0.00000028,-0
 .00000107,0.00001183,0.00000085,-0.00000319,0.00001837,-0.00000104,-0.
 00000189,-0.00000353,0.00000045,0.00000162,-0.00003836,0.00000024,0.00
 000061,0.00000653,0.00000076,-0.00000292,0.00012167,0.00000131,0.00000
 818,-0.00089537,-0.00155346,0.00123214,0.00594983,0.00079326,0.0003498
 0,0.00000368,-0.00119728,0.00044602,0.00000480,0.00011922,-0.00113099,
 -0.00002161,-0.00081625,-0.00033030,0.00001092,0.00199618,-0.00092695,
 -0.00001651,-0.00060094,0.00100818,0.00000819,0.00117354,-0.00021721,-
 0.00000213,-0.00343491,-0.00082003,-0.00000221,0.00679992,-0.00219210,
 -0.00001057,-0.00343394,0.00391855,0.00003477,0.00082388,-0.00496177,-
 0.00003913,-0.46743506,0.16335247,0.00086234,0.00035531,0.00052054,0.0
 0000825,0.00000419,-0.00026333,0.00000349,0.00002407,-0.00001586,-0.00
 000166,-0.00004788,0.00001347,-0.00000083,-0.00001514,0.00003465,-0.00
 000183,-0.00015267,-0.00012790,-0.00000130,0.00013263,0.00024922,0.000
 00026,0.00014394,-0.00019529,-0.00000288,0.00110341,-0.00152525,-0.000
 01114,0.46368492,-0.00072832,-0.00029893,-0.00000160,0.00109842,-0.000
 32842,-0.00000085,-0.00000570,0.00100373,0.00000211,0.00072952,0.00040
 595,0.00001008,-0.00163998,0.00098565,0.00000068,0.00042716,-0.0009193
 5,-0.00000847,-0.00107884,0.00017993,0.00000063,0.00188595,0.00061761,
 0.00001855,-0.00654142,-0.00525415,-0.00006770,0.05369997,-0.02338782,
 -0.00010830,-0.00190612,0.00542652,0.00007257,0.11411314,-0.08582303,-
 0.00055527,-0.00038358,-0.00059465,-0.00000308,-0.00003800,0.00032016,
 0.00000387,-0.00001298,-0.00001177,-0.00000043,0.00003257,0.00000587,-
 0.00000012,0.00002704,0.00001374,-0.00000217,0.00014260,0.00013798,0.0
 0000077,0.00037335,0.00054307,0.00000445,0.00123324,-0.00012593,-0.000
 01854,-0.00419984,-0.00348167,-0.00004693,-0.15725349,0.11064013,-0.00
 000562,0.00000044,-0.00018136,0.00000882,-0.00000358,-0.00002390,-0.00
 000084,0.00000878,-0.00002201,0.00000715,0.00000389,-0.00007011,-0.000
 01479,0.00000632,0.00035534,0.00000467,-0.00001011,0.00016186,-0.00000
 858,0.00000137,0.00000817,0.00001910,0.00001724,-0.00121203,-0.0000624
 5,-0.00007641,0.00327417,0.00045848,-0.00016786,-0.00470050,-0.0000125
 1,0.00007305,-0.00408165,0.00044686,-0.00049214,-0.00275198,-0.0000020
 9,-0.00000317,-0.00000897,0.00000141,0.00000174,0.00002895,-0.00000061
 ,-0.00000002,0.00000763,-0.00000059,-0.00000192,0.00003734,-0.00000043
 ,-0.00000006,0.00012678,0.00000113,0.00000071,0.00002607,0.00000269,0.
 00000477,-0.00013002,0.00001204,-0.00001892,0.00206246,-0.00003350,-0.
 00004546,0.00251434,-0.00081881,0.00070204,0.00458743,-0.00018778,0.00
 010190,-0.00000897,0.00031394,0.00037835,0.00000689,0.00121434,0.00195
 844,0.00001533,-0.00081684,0.00061018,-0.00001626,0.00023677,-0.000094
 07,0.00001381,0.00000254,-0.00016455,-0.00000148,0.00010133,-0.0001263
 8,-0.00000006,0.00015099,0.00007445,-0.00000568,-0.00021950,0.00000365
 ,-0.00000469,0.00023008,-0.00007288,-0.00000068,-0.00007631,-0.0000266
 7,-0.00000066,-0.00006864,0.00006534,0.00000126,0.00869617,0.00484060,
 0.00004139,-0.30153237,-0.10644178,-0.00097249,0.00001614,0.00001802,0
 .00000874,0.00042793,-0.00044105,0.00000879,0.00001033,-0.00001136,-0.
 00000022,-0.00003315,0.00004580,-0.00000031,0.00002697,-0.00001644,-0.
 00000042,0.00002313,-0.00000491,0.00000225,0.00001053,-0.00000247,0.00
 000113,0.00002322,-0.00001025,-0.00000065,0.31303875,0.00051185,-0.000
 43793,-0.00000459,-0.00202702,-0.00084152,-0.00000849,0.00313988,-0.00
 489082,-0.00005327,0.00122576,-0.00033554,0.00000572,-0.00058301,0.000
 22819,-0.00000598,-0.00002613,0.00013487,0.00000088,0.00031099,0.00014
 192,0.00000171,0.00024170,-0.00008453,0.00000249,-0.00029598,0.0000315
 3,0.00000934,0.00025736,-0.00016556,-0.00000521,-0.00012132,-0.0000369
 5,-0.00000228,-0.00004435,0.00014074,0.00000084,-0.03603914,-0.0287459
 7,-0.00024162,-0.08930816,-0.08144094,-0.00029804,-0.00012629,-0.00009
 316,-0.00000036,-0.00016596,0.00057763,0.00000998,-0.00001623,0.000042
 79,-0.00000154,-0.00022219,-0.00023216,-0.00000351,-0.00002322,-0.0000
 1244,-0.00000190,0.00001203,0.00000527,0.00000041,0.00001580,-0.000008
 26,0.00000114,0.00001801,-0.00001340,0.00000036,0.10810468,0.10619825,
 0.00000465,-0.00001547,-0.00004003,-0.00001515,-0.00000137,0.00039638,
 0.00003039,-0.00003732,0.00035584,0.00001255,-0.00000207,0.00024539,-0
 .00001020,-0.00000876,0.00014105,-0.00000776,0.00000480,0.00001401,-0.
 00000074,0.00000133,-0.00012146,0.00000021,0.00000316,0.00009456,0.000
 01683,0.00000033,-0.00002931,-0.00000976,-0.00000268,-0.00000918,-0.00
 000552,0.00000007,0.00000131,0.00000842,0.00000361,-0.00000014,-0.0002
 9449,-0.00023672,-0.00005400,-0.00082465,-0.00030562,-0.04831377,0.000
 00300,-0.00000569,-0.00003458,-0.00000039,0.00001636,-0.00044741,0.000
 00529,-0.00000245,-0.00003231,-0.00000122,-0.00000022,0.00014253,-0.00
 000027,0.00000043,-0.00000100,-0.00000636,0.00000112,0.00000368,0.0000
 0184,-0.00000125,0.00000136,-0.00000215,-0.00000079,0.00000058,0.00097
 704,0.00053423,0.04473688,0.00016472,-0.00003642,-0.00003084,0.0003806
 4,-0.00015275,-0.00012612,0.00064280,-0.00063210,0.00102409,-0.0000604
 0,0.00057373,0.00040324,-0.00009486,-0.00033112,-0.00040234,0.00006286
 ,0.00028434,-0.00002552,-0.00024458,0.00010032,0.00007655,-0.00014051,
 -0.00003904,-0.00001716,0.00021753,-0.00001713,0.00002258,-0.00026124,
 0.00011805,0.00000559,0.00013879,0.00004241,0.00000216,0.00005793,-0.0
 0011265,-0.00000323,-0.00095661,0.00567048,-0.00167692,-0.11761275,0.0
 3339667,-0.11093232,0.00001243,0.00003403,0.00000856,-0.00116640,-0.00
 115303,0.00124936,-0.00000343,-0.00000550,0.00003733,0.00011474,-0.000
 20673,-0.00009635,0.00000423,0.00000428,0.00001370,-0.00000964,-0.0000
 0188,-0.00000068,-0.00002449,0.00000427,-0.00000330,-0.00002278,0.0000
 1744,-0.00000058,-0.01078287,0.00777504,-0.02411306,0.12169230,0.00059
 939,0.00009265,-0.00002302,0.00045652,-0.00168874,-0.00074436,0.005921
 19,0.00492981,0.00156488,-0.00038610,0.00053631,-0.00000444,-0.0006352
 3,-0.00024669,-0.00046052,-0.00038559,0.00031436,-0.00001631,-0.000812
 68,-0.00022540,-0.00011480,0.00037914,-0.00012520,0.00002644,-0.000392
 26,0.00001408,0.00000523,0.00036734,-0.00020150,0.00000534,-0.00020356
 ,-0.00007123,-0.00000097,-0.00006498,0.00018341,0.00000285,0.01771854,
 -0.03149849,0.02900257,0.02866010,-0.06304198,0.05031907,-0.00003032,-
 0.00000335,0.00006953,-0.00132777,-0.00061212,0.00088444,-0.00002004,0
 .00002022,0.00004432,-0.00038874,0.00074211,0.00028901,-0.00000008,-0.
 00000228,0.00000531,0.00000474,0.00000573,-0.00000130,0.00003242,-0.00
 000555,-0.00000095,0.00002525,-0.00002038,-0.00000109,-0.00440544,0.00
 500943,-0.01006749,-0.04037469,0.08156505,-0.00017099,-0.00010439,-0.0
 0004604,0.00016442,0.00055579,-0.00005559,-0.00070152,-0.00096928,0.00
 013383,-0.00172056,0.00099973,-0.00002779,0.00044538,-0.00031217,-0.00
 008666,0.00002581,-0.00009858,-0.00004156,0.00024181,-0.00019536,0.000
 00282,-0.00001235,0.00012653,-0.00003331,0.00004157,-0.00004396,0.0000
 3169,0.00002318,0.00005612,-0.00000670,-0.00004655,-0.00001900,0.00000
 371,0.00000460,-0.00003392,0.00000297,0.00304652,0.00276854,0.00730251
 ,-0.11189178,0.05803311,-0.23763627,0.00002372,0.00000745,0.00000440,0
 .00121755,-0.00008008,-0.00015424,0.00001978,-0.00006792,0.00000958,0.
 00000008,-0.00015205,-0.00000160,0.00006602,0.00000922,-0.00001694,-0.
 00002101,0.00000181,-0.00000934,0.00001462,0.00000451,-0.00000304,0.00
 000284,0.00000220,-0.00000417,0.00183519,-0.00105421,0.00137513,0.1210
 1537,-0.06528864,0.24732847,0.00016490,-0.00002942,0.00002919,0.000378
 44,-0.00015864,0.00012134,0.00063970,-0.00062047,-0.00100780,-0.000062
 09,0.00058262,-0.00042211,-0.00009217,-0.00033553,0.00041547,0.0000671
 3,0.00028324,0.00003076,-0.00024144,0.00010175,-0.00007354,-0.00014045
 ,-0.00004051,0.00000601,0.00020298,-0.00001547,-0.00004255,-0.00025224
 ,0.00011828,0.00000413,0.00014250,0.00004226,0.00000226,0.00005146,-0.
 00011459,0.00000230,-0.00094920,0.00565066,0.00175280,-0.11776980,0.03
 164908,0.11153597,0.00001028,0.00003592,-0.00000479,-0.00116561,-0.001
 13899,-0.00126734,-0.00000695,-0.00000247,-0.00003347,0.00011436,-0.00
 021005,0.00009351,0.00000487,0.00000322,-0.00000999,-0.00000509,-0.000
 00300,0.00000089,-0.00002590,0.00000495,0.00000143,-0.00002083,0.00001
 811,-0.00000031,-0.01080567,0.00738590,0.02423150,0.00789158,-0.004737
 15,-0.01362372,0.12186924,0.00059465,0.00009001,0.00002326,0.00046079,
 -0.00169277,0.00071919,0.00590987,0.00493905,-0.00147397,-0.00041615,0
 .00054832,0.00000313,-0.00062681,-0.00025446,0.00046262,-0.00038465,0.
 00030972,0.00002409,-0.00081033,-0.00023005,0.00011090,0.00038068,-0.0
 0012543,-0.00003188,-0.00038593,0.00001193,-0.00001322,0.00036440,-0.0
 0019942,-0.00000580,-0.00020622,-0.00007174,0.00000088,-0.00006272,0.0
 0018366,0.00000089,0.01778598,-0.03097774,-0.02960959,0.02689159,-0.06
 134372,-0.04747092,-0.00003015,0.00000030,-0.00006730,-0.00130701,-0.0
 0059691,-0.00089194,-0.00001921,0.00001852,-0.00004418,-0.00038864,0.0
 0074417,-0.00027727,0.00000006,-0.00000023,-0.00000313,0.00000297,0.00
 000638,0.00000231,0.00003339,-0.00000550,0.00000029,0.00002429,-0.0000
 2085,0.00000004,-0.00438315,0.00482856,0.01012246,-0.00495802,0.004329
 77,0.00585454,-0.03846970,0.07950844,0.00018131,0.00008474,-0.00004841
 ,-0.00015393,-0.00056837,-0.00005062,0.00080701,0.00105469,0.00012307,
 0.00171822,-0.00098661,-0.00004891,-0.00046503,0.00029385,-0.00007060,
 -0.00004519,0.00011087,-0.00003862,-0.00026132,0.00019043,0.00000789,0
 .00001546,-0.00012029,-0.00003787,-0.00001306,0.00004255,0.00003155,-0
 .00003895,-0.00006127,-0.00000842,0.00003506,0.00001851,0.00000355,0.0
 0001042,0.00004113,0.00000387,-0.00278075,-0.00339423,0.00678109,0.112
 40709,-0.05517452,-0.23918702,-0.00001705,-0.00001571,0.00000664,-0.00
 123839,0.00008658,-0.00016429,-0.00000998,0.00006253,0.00000880,-0.000
 00521,0.00016880,-0.00000407,-0.00006631,-0.00000748,-0.00001724,0.000
 00962,0.00000083,-0.00000809,-0.00001098,-0.00000671,-0.00000245,-0.00
 000678,-0.00000370,-0.00000442,-0.00189924,0.00111388,0.00157447,0.013
 56989,-0.00549511,-0.01807188,-0.12174193,0.06256460,0.24922198\\-0.00
 000063,-0.00000260,-0.00000004,-0.00000813,-0.00000481,-0.00000245,-0.
 00000258,-0.00001274,0.00000023,-0.00000167,-0.00000226,0.00000292,0.0
 0001060,-0.00000434,-0.00000206,-0.00001100,0.00000437,0.00000371,0.00
 000029,-0.00000970,0.00000070,-0.00001763,0.00000225,-0.00000236,0.000
 01917,0.00000653,-0.00000149,-0.00002445,0.00002975,0.00000180,0.00000
 536,0.00001991,0.00000377,-0.00000026,-0.00000623,0.00000355,0.0000054
 4,-0.00000379,0.00000077,0.00000625,-0.00001371,-0.00000065,-0.0000096
 8,-0.00000452,-0.00000067,0.00000505,-0.00000166,-0.00000096,-0.000005
 72,0.00000145,-0.00000123,-0.00000069,-0.00001183,-0.00000003,0.000005
 56,0.00000409,0.00000036,-0.00000660,0.00000825,-0.00000063,0.00000001
 ,0.00001233,-0.00000211,0.00000971,0.00001392,-0.00000295,0.00000758,-
 0.00001114,0.00000024,0.00000636,-0.00000709,-0.00000011,0.00000766,-0
 .00000645,-0.00000030\\\@


 At the touch of love, everyone becomves a poet.
                                -- Plato
 Job cpu time:       0 days  5 hours 19 minutes 58.7 seconds.
 File lengths (MBytes):  RWF=    923 Int=      0 D2E=      0 Chk=     14 Scr=      1
 Normal termination of Gaussian 09 at Sun Dec 15 01:52:26 2024.
