 Entering Gaussian System, Link 0=g09
 Input=pvdzFA.gjf
 Output=pvdzFA.log
 Initial command:
 /home/c612/g09E/g09/l1.exe "/mnt/ja_sm883/scratch/Gau-3902000.inp" -scrdir="/mnt/ja_sm883/scratch/"
 Default is to use a total of  18 processors:
                               18 via shared-memory
                                1 via Linda
 Entering Link 1 = /home/c612/g09E/g09/l1.exe PID=   3902002.
  
 Copyright (c) 1988,1990,1992,1993,1995,1998,2003,2009,2015,
            Gaussian, Inc.  All Rights Reserved.
  
 This is part of the Gaussian(R) 09 program.  It is based on
 the Gaussian(R) 03 system (copyright 2003, Gaussian, Inc.),
 the Gaussian(R) 98 system (copyright 1998, Gaussian, Inc.),
 the Gaussian(R) 94 system (copyright 1995, Gaussian, Inc.),
 the Gaussian 92(TM) system (copyright 1992, Gaussian, Inc.),
 the Gaussian 90(TM) system (copyright 1990, Gaussian, Inc.),
 the Gaussian 88(TM) system (copyright 1988, Gaussian, Inc.),
 the Gaussian 86(TM) system (copyright 1986, Carnegie Mellon
 University), and the Gaussian 82(TM) system (copyright 1983,
 Carnegie Mellon University). Gaussian is a federally registered
 trademark of Gaussian, Inc.
  
 This software contains proprietary and confidential information,
 including trade secrets, belonging to Gaussian, Inc.
  
 This software is provided under written license and may be
 used, copied, transmitted, or stored only in accord with that
 written license.
  
 The following legend is applicable only to US Government
 contracts under FAR:
  
                    RESTRICTED RIGHTS LEGEND
  
 Use, reproduction and disclosure by the US Government is
 subject to restrictions as set forth in subparagraphs (a)
 and (c) of the Commercial Computer Software - Restricted
 Rights clause in FAR 52.227-19.
  
 Gaussian, Inc.
 340 Quinnipiac St., Bldg. 40, Wallingford CT 06492
  
  
 ---------------------------------------------------------------
 Warning -- This program may not be used in any manner that
 competes with the business of Gaussian, Inc. or will provide
 assistance to any competitor of Gaussian, Inc.  The licensee
 of this program is prohibited from giving any competitor of
 Gaussian, Inc. access to this program.  By using this program,
 the user acknowledges that Gaussian, Inc. is engaged in the
 business of creating and licensing software in the field of
 computational chemistry and represents and warrants to the
 licensee that it is not a competitor of Gaussian, Inc. and that
 it will not use this program in any manner prohibited above.
 ---------------------------------------------------------------
  

 Cite this work as:
 Gaussian 09, Revision E.01,
 M. J. Frisch, G. W. Trucks, H. B. Schlegel, G. E. Scuseria, 
 M. A. Robb, J. R. Cheeseman, G. Scalmani, V. Barone, B. Mennucci, 
 G. A. Petersson, H. Nakatsuji, M. Caricato, X. Li, H. P. Hratchian, 
 A. F. Izmaylov, J. Bloino, G. Zheng, J. L. Sonnenberg, M. Hada, 
 M. Ehara, K. Toyota, R. Fukuda, J. Hasegawa, M. Ishida, T. Nakajima, 
 Y. Honda, O. Kitao, H. Nakai, T. Vreven, J. A. Montgomery, Jr., 
 J. E. Peralta, F. Ogliaro, M. Bearpark, J. J. Heyd, E. Brothers, 
 K. N. Kudin, V. N. Staroverov, T. Keith, R. Kobayashi, J. Normand, 
 K. Raghavachari, A. Rendell, J. C. Burant, S. S. Iyengar, J. Tomasi, 
 M. Cossi, N. Rega, J. M. Millam, M. Klene, J. E. Knox, J. B. Cross, 
 V. Bakken, C. Adamo, J. Jaramillo, R. Gomperts, R. E. Stratmann, 
 O. Yazyev, A. J. Austin, R. Cammi, C. Pomelli, J. W. Ochterski, 
 R. L. Martin, K. Morokuma, V. G. Zakrzewski, G. A. Voth, 
 P. Salvador, J. J. Dannenberg, S. Dapprich, A. D. Daniels, 
 O. Farkas, J. B. Foresman, J. V. Ortiz, J. Cioslowski, 
 and D. J. Fox, Gaussian, Inc., Wallingford CT, 2013.
 
 ******************************************
 Gaussian 09:  ES64L-G09RevE.01 30-Nov-2015
                15-Dec-2024 
 ******************************************
 %chk=pvdzFA.chk
 ----------------------------
 # opt freq m062x/aug-cc-pvdz
 ----------------------------
 1/14=-1,18=20,19=15,26=3,38=1/1,3;
 2/9=110,12=2,17=6,18=5,40=1/2;
 3/5=16,7=10,11=2,16=1,25=1,30=1,71=1,74=-55/1,2,3;
 4//1;
 5/5=2,38=5/2;
 6/7=2,8=2,9=2,10=2,28=1/1;
 7//1,2,3,16;
 1/14=-1,18=20,19=15,26=3/3(2);
 2/9=110/2;
 99//99;
 2/9=110/2;
 3/5=16,7=10,11=2,16=1,25=1,30=1,71=1,74=-55/1,2,3;
 4/5=5,16=3,69=1/1;
 5/5=2,38=5/2;
 7//1,2,3,16;
 1/14=-1,18=20,19=15,26=3/3(-5);
 2/9=110/2;
 6/7=2,8=2,9=2,10=2,19=2,28=1/1;
 99/9=1/99;
 ----------
 [No Title]
 ----------
 Symbolic Z-matrix:
 Charge =  0 Multiplicity = 1
 C                     1.46157  -2.01015  -0.00017 
 C                     2.4911   -1.07773  -0.00013 
 C                     2.18754   0.29535  -0.00007 
 C                     0.86673   0.71466  -0.00006 
 C                    -0.18024  -0.22587  -0.00009 
 C                     0.13649  -1.58813  -0.00015 
 O                     3.77788  -1.48993  -0.00015 
 C                    -1.55872   0.27505  -0.00006 
 C                    -2.68476  -0.45321   0.00001 
 O                     3.28766   1.10359  -0.00004 
 C                     3.07629   2.50305   0.0003 
 C                    -4.0737    0.07529   0.00007 
 O                    -5.02987  -0.65728   0.001 
 O                    -4.26082   1.4159   -0.00048 
 H                     1.71907  -3.06369  -0.00021 
 H                     0.62958   1.77367  -0.00001 
 H                    -0.65135  -2.33348  -0.00017 
 H                     4.35301  -0.71114  -0.00009 
 H                    -1.61849   1.36541  -0.00004 
 H                    -2.66192  -1.53762   0.00015 
 H                     4.06524   2.95924   0.00041 
 H                     2.52795   2.8135   -0.89624 
 H                     2.52794   2.81307   0.89697 
 H                    -3.42362   1.89291  -0.00141 
 

 GradGradGradGradGradGradGradGradGradGradGradGradGradGradGradGradGradGrad
 Berny optimization.
 Initialization pass.
                           ----------------------------
                           !    Initial Parameters    !
                           ! (Angstroms and Degrees)  !
 --------------------------                            --------------------------
 ! Name  Definition              Value          Derivative Info.                !
 --------------------------------------------------------------------------------
 ! R1    R(1,2)                  1.389          estimate D2E/DX2                !
 ! R2    R(1,6)                  1.3907         estimate D2E/DX2                !
 ! R3    R(1,15)                 1.0846         estimate D2E/DX2                !
 ! R4    R(2,3)                  1.4062         estimate D2E/DX2                !
 ! R5    R(2,7)                  1.3512         estimate D2E/DX2                !
 ! R6    R(3,4)                  1.3858         estimate D2E/DX2                !
 ! R7    R(3,10)                 1.3651         estimate D2E/DX2                !
 ! R8    R(4,5)                  1.4074         estimate D2E/DX2                !
 ! R9    R(4,16)                 1.0852         estimate D2E/DX2                !
 ! R10   R(5,6)                  1.3986         estimate D2E/DX2                !
 ! R11   R(5,8)                  1.4667         estimate D2E/DX2                !
 ! R12   R(6,17)                 1.0845         estimate D2E/DX2                !
 ! R13   R(7,18)                 0.9681         estimate D2E/DX2                !
 ! R14   R(8,9)                  1.341          estimate D2E/DX2                !
 ! R15   R(8,19)                 1.092          estimate D2E/DX2                !
 ! R16   R(9,12)                 1.4861         estimate D2E/DX2                !
 ! R17   R(9,20)                 1.0847         estimate D2E/DX2                !
 ! R18   R(10,11)                1.4153         estimate D2E/DX2                !
 ! R19   R(11,21)                1.0891         estimate D2E/DX2                !
 ! R20   R(11,22)                1.0958         estimate D2E/DX2                !
 ! R21   R(11,23)                1.0958         estimate D2E/DX2                !
 ! R22   R(12,13)                1.2045         estimate D2E/DX2                !
 ! R23   R(12,14)                1.3536         estimate D2E/DX2                !
 ! R24   R(14,24)                0.9636         estimate D2E/DX2                !
 ! A1    A(2,1,6)              120.1676         estimate D2E/DX2                !
 ! A2    A(2,1,15)             118.4318         estimate D2E/DX2                !
 ! A3    A(6,1,15)             121.4006         estimate D2E/DX2                !
 ! A4    A(1,2,3)              119.7004         estimate D2E/DX2                !
 ! A5    A(1,2,7)              120.0712         estimate D2E/DX2                !
 ! A6    A(3,2,7)              120.2284         estimate D2E/DX2                !
 ! A7    A(2,3,4)              120.0788         estimate D2E/DX2                !
 ! A8    A(2,3,10)             113.8379         estimate D2E/DX2                !
 ! A9    A(4,3,10)             126.0833         estimate D2E/DX2                !
 ! A10   A(3,4,5)              120.4527         estimate D2E/DX2                !
 ! A11   A(3,4,16)             120.235          estimate D2E/DX2                !
 ! A12   A(5,4,16)             119.3123         estimate D2E/DX2                !
 ! A13   A(4,5,6)              118.8458         estimate D2E/DX2                !
 ! A14   A(4,5,8)              118.0953         estimate D2E/DX2                !
 ! A15   A(6,5,8)              123.0588         estimate D2E/DX2                !
 ! A16   A(1,6,5)              120.7546         estimate D2E/DX2                !
 ! A17   A(1,6,17)             118.9212         estimate D2E/DX2                !
 ! A18   A(5,6,17)             120.3242         estimate D2E/DX2                !
 ! A19   A(2,7,18)             108.6833         estimate D2E/DX2                !
 ! A20   A(5,8,9)              127.1375         estimate D2E/DX2                !
 ! A21   A(5,8,19)             113.1081         estimate D2E/DX2                !
 ! A22   A(9,8,19)             119.7544         estimate D2E/DX2                !
 ! A23   A(8,9,12)             126.2755         estimate D2E/DX2                !
 ! A24   A(8,9,20)             121.6859         estimate D2E/DX2                !
 ! A25   A(12,9,20)            112.0386         estimate D2E/DX2                !
 ! A26   A(3,10,11)            117.715          estimate D2E/DX2                !
 ! A27   A(10,11,21)           106.1742         estimate D2E/DX2                !
 ! A28   A(10,11,22)           110.7728         estimate D2E/DX2                !
 ! A29   A(10,11,23)           110.7728         estimate D2E/DX2                !
 ! A30   A(21,11,22)           109.6209         estimate D2E/DX2                !
 ! A31   A(21,11,23)           109.6212         estimate D2E/DX2                !
 ! A32   A(22,11,23)           109.8105         estimate D2E/DX2                !
 ! A33   A(9,12,13)            121.7103         estimate D2E/DX2                !
 ! A34   A(9,12,14)            118.778          estimate D2E/DX2                !
 ! A35   A(13,12,14)           119.5116         estimate D2E/DX2                !
 ! A36   A(12,14,24)           111.7274         estimate D2E/DX2                !
 ! D1    D(6,1,2,3)             -0.0002         estimate D2E/DX2                !
 ! D2    D(6,1,2,7)            179.9998         estimate D2E/DX2                !
 ! D3    D(15,1,2,3)          -179.9998         estimate D2E/DX2                !
 ! D4    D(15,1,2,7)             0.0002         estimate D2E/DX2                !
 ! D5    D(2,1,6,5)              0.0003         estimate D2E/DX2                !
 ! D6    D(2,1,6,17)          -179.9998         estimate D2E/DX2                !
 ! D7    D(15,1,6,5)           179.9999         estimate D2E/DX2                !
 ! D8    D(15,1,6,17)           -0.0002         estimate D2E/DX2                !
 ! D9    D(1,2,3,4)             -0.0001         estimate D2E/DX2                !
 ! D10   D(1,2,3,10)          -179.9998         estimate D2E/DX2                !
 ! D11   D(7,2,3,4)            179.9999         estimate D2E/DX2                !
 ! D12   D(7,2,3,10)             0.0002         estimate D2E/DX2                !
 ! D13   D(1,2,7,18)          -179.9985         estimate D2E/DX2                !
 ! D14   D(3,2,7,18)             0.0016         estimate D2E/DX2                !
 ! D15   D(2,3,4,5)              0.0004         estimate D2E/DX2                !
 ! D16   D(2,3,4,16)           179.9999         estimate D2E/DX2                !
 ! D17   D(10,3,4,5)          -180.0            estimate D2E/DX2                !
 ! D18   D(10,3,4,16)           -0.0004         estimate D2E/DX2                !
 ! D19   D(2,3,10,11)         -179.9873         estimate D2E/DX2                !
 ! D20   D(4,3,10,11)            0.013          estimate D2E/DX2                !
 ! D21   D(3,4,5,6)             -0.0003         estimate D2E/DX2                !
 ! D22   D(3,4,5,8)            179.9996         estimate D2E/DX2                !
 ! D23   D(16,4,5,6)          -179.9998         estimate D2E/DX2                !
 ! D24   D(16,4,5,8)             0.0            estimate D2E/DX2                !
 ! D25   D(4,5,6,1)             -0.0001         estimate D2E/DX2                !
 ! D26   D(4,5,6,17)          -180.0            estimate D2E/DX2                !
 ! D27   D(8,5,6,1)           -179.9999         estimate D2E/DX2                !
 ! D28   D(8,5,6,17)             0.0002         estimate D2E/DX2                !
 ! D29   D(4,5,8,9)           -179.9949         estimate D2E/DX2                !
 ! D30   D(4,5,8,19)             0.0014         estimate D2E/DX2                !
 ! D31   D(6,5,8,9)              0.0049         estimate D2E/DX2                !
 ! D32   D(6,5,8,19)          -179.9988         estimate D2E/DX2                !
 ! D33   D(5,8,9,12)           179.9983         estimate D2E/DX2                !
 ! D34   D(5,8,9,20)             0.006          estimate D2E/DX2                !
 ! D35   D(19,8,9,12)            0.0023         estimate D2E/DX2                !
 ! D36   D(19,8,9,20)         -179.9901         estimate D2E/DX2                !
 ! D37   D(8,9,12,13)         -179.9515         estimate D2E/DX2                !
 ! D38   D(8,9,12,14)            0.026          estimate D2E/DX2                !
 ! D39   D(20,9,12,13)           0.0415         estimate D2E/DX2                !
 ! D40   D(20,9,12,14)        -179.981          estimate D2E/DX2                !
 ! D41   D(3,10,11,21)         179.992          estimate D2E/DX2                !
 ! D42   D(3,10,11,22)         -61.0637         estimate D2E/DX2                !
 ! D43   D(3,10,11,23)          61.0472         estimate D2E/DX2                !
 ! D44   D(9,12,14,24)           0.0345         estimate D2E/DX2                !
 ! D45   D(13,12,14,24)       -179.9875         estimate D2E/DX2                !
 --------------------------------------------------------------------------------
 Trust Radius=3.00D-01 FncErr=1.00D-07 GrdErr=1.00D-06
 Number of steps in this run=    115 maximum allowed number of steps=    144.
 GradGradGradGradGradGradGradGradGradGradGradGradGradGradGradGradGradGrad

                          Input orientation:                          
 ---------------------------------------------------------------------
 Center     Atomic      Atomic             Coordinates (Angstroms)
 Number     Number       Type             X           Y           Z
 ---------------------------------------------------------------------
      1          6           0        1.461569   -2.010146   -0.000168
      2          6           0        2.491095   -1.077726   -0.000128
      3          6           0        2.187544    0.295350   -0.000070
      4          6           0        0.866729    0.714661   -0.000055
      5          6           0       -0.180238   -0.225867   -0.000090
      6          6           0        0.136485   -1.588125   -0.000146
      7          8           0        3.777878   -1.489933   -0.000145
      8          6           0       -1.558715    0.275045   -0.000062
      9          6           0       -2.684758   -0.453210    0.000008
     10          8           0        3.287663    1.103585   -0.000039
     11          6           0        3.076289    2.503047    0.000297
     12          6           0       -4.073701    0.075293    0.000071
     13          8           0       -5.029872   -0.657276    0.001000
     14          8           0       -4.260819    1.415901   -0.000480
     15          1           0        1.719071   -3.063690   -0.000209
     16          1           0        0.629582    1.773669   -0.000008
     17          1           0       -0.651351   -2.333479   -0.000174
     18          1           0        4.353009   -0.711143   -0.000087
     19          1           0       -1.618491    1.365414   -0.000039
     20          1           0       -2.661922   -1.537624    0.000148
     21          1           0        4.065242    2.959237    0.000412
     22          1           0        2.527951    2.813499   -0.896240
     23          1           0        2.527935    2.813066    0.896974
     24          1           0       -3.423623    1.892910   -0.001407
 ---------------------------------------------------------------------
                    Distance matrix (angstroms):
                    1          2          3          4          5
     1  C    0.000000
     2  C    1.389004   0.000000
     3  C    2.417096   1.406229   0.000000
     4  C    2.788980   2.418929   1.385776   0.000000
     5  C    2.424702   2.803869   2.424471   1.407385   0.000000
     6  C    1.390665   2.409294   2.784658   2.415798   1.398592
     7  O    2.374007   1.351194   2.390899   3.651715   4.155063
     8  C    3.787376   4.269772   3.746314   2.464963   1.466667
     9  C    4.429004   5.213394   4.929469   3.738580   2.514817
    10  O    3.609701   2.322205   1.365103   2.451975   3.713998
    11  C    4.793353   3.628276   2.379873   2.842619   4.248757
    12  C    5.915088   6.665283   6.265111   4.981630   3.905093
    13  O    6.630917   7.532710   7.280013   6.054099   4.868785
    14  O    6.669597   7.197675   6.545000   5.175276   4.398471
    15  H    1.084556   2.130745   3.391551   3.873296   3.414764
    16  H    3.874204   3.405244   2.147713   1.085236   2.157302
    17  H    2.137516   3.384063   3.869117   3.405250   2.159624
    18  H    3.169832   1.897658   2.387942   3.766572   4.559147
    19  H    4.569592   4.780965   3.953598   2.569007   2.144935
    20  H    4.150476   5.173499   5.184314   4.186187   2.807038
    21  H    5.610159   4.333014   3.259148   3.907507   5.307446
    22  H    5.020724   3.993245   2.694452   2.822752   4.168347
    23  H    5.020495   3.993045   2.694336   2.822688   4.168218
    24  H    6.252915   6.618804   5.834158   4.449201   3.874115
                    6          7          8          9         10
     6  C    0.000000
     7  O    3.642717   0.000000
     8  C    2.518949   5.620887   0.000000
     9  C    3.040961   6.545262   1.341018   0.000000
    10  O    4.144300   2.639441   4.916692   6.171987   0.000000
    11  C    5.037870   4.054148   5.142689   6.475270   1.415335
    12  C    4.526878   8.006074   2.522906   1.486095   7.432837
    13  O    5.249545   8.847021   3.594183   2.353976   8.501883
    14  O    5.325453   8.547779   2.933073   2.444902   7.554940
    15  H    2.163763   2.591408   4.678785   5.119406   4.452714
    16  H    3.397764   4.534630   2.652267   3.992974   2.741242
    17  H    1.084545   4.508840   2.761830   2.769505   5.227738
    18  H    4.306759   0.968137   5.993417   7.042492   2.104329
    19  H    3.435598   6.105228   1.092006   2.108155   4.913136
    20  H    2.798863   6.439977   2.121988   1.084654   6.509497
    21  H    6.009462   4.458441   6.231675   7.563550   2.011983
    22  H    5.088849   4.569992   4.893641   6.216670   2.074643
    23  H    5.088648   4.569790   4.893560   6.216532   2.074643
    24  H    4.979154   7.956459   2.468880   2.459716   6.757544
                   11         12         13         14         15
    11  C    0.000000
    12  C    7.550917   0.000000
    13  O    8.700430   1.204542   0.000000
    14  O    7.417212   1.353604   2.211223   0.000000
    15  H    5.729799   6.588583   7.165128   7.471668   0.000000
    16  H    2.553109   5.000535   6.159457   4.903470   4.958531
    17  H    6.106331   4.185052   4.688401   5.204432   2.480344
    18  H    3.458472   8.463328   9.383036   8.872562   3.531587
    19  H    4.830649   2.773530   3.965955   2.642810   5.545835
    20  H    7.018126   2.143507   2.526302   3.358539   4.639179
    21  H    1.089099   8.634786   9.787761   8.467891   6.463758
    22  H    1.095826   7.202982   8.364927   6.988781   5.999876
    23  H    1.095826   7.202877   8.364597   6.988897   5.999622
    24  H    6.528486   1.930372   3.013883   0.963554   7.142492
                   16         17         18         19         20
    16  H    0.000000
    17  H    4.302262   0.000000
    18  H    4.476405   5.260760   0.000000
    19  H    2.284842   3.823241   6.322254   0.000000
    20  H    4.668904   2.162355   7.063450   3.084863   0.000000
    21  H    3.634464   7.089365   3.681644   5.902973   8.091755
    22  H    2.342708   6.115740   4.069033   4.482534   6.831586
    23  H    2.342790   6.115526   4.068865   4.482541   6.831355
    24  H    4.054959   5.054489   8.201043   1.880626   3.514079
                   21         22         23         24
    21  H    0.000000
    22  H    1.785634   0.000000
    23  H    1.785638   1.793214   0.000000
    24  H    7.564401   6.088468   6.088909   0.000000
 Stoichiometry    C10H10O4
 Framework group  C1[X(C10H10O4)]
 Deg. of freedom    66
 Full point group                 C1      NOp   1
 Largest Abelian subgroup         C1      NOp   1
 Largest concise Abelian subgroup C1      NOp   1
                         Standard orientation:                         
 ---------------------------------------------------------------------
 Center     Atomic      Atomic             Coordinates (Angstroms)
 Number     Number       Type             X           Y           Z
 ---------------------------------------------------------------------
      1          6           0        1.461569   -2.010146   -0.000168
      2          6           0        2.491095   -1.077726   -0.000128
      3          6           0        2.187544    0.295350   -0.000070
      4          6           0        0.866729    0.714661   -0.000055
      5          6           0       -0.180238   -0.225867   -0.000090
      6          6           0        0.136485   -1.588125   -0.000146
      7          8           0        3.777878   -1.489933   -0.000145
      8          6           0       -1.558715    0.275045   -0.000062
      9          6           0       -2.684758   -0.453210    0.000008
     10          8           0        3.287663    1.103585   -0.000039
     11          6           0        3.076289    2.503047    0.000297
     12          6           0       -4.073701    0.075293    0.000071
     13          8           0       -5.029872   -0.657276    0.001000
     14          8           0       -4.260819    1.415901   -0.000480
     15          1           0        1.719071   -3.063690   -0.000209
     16          1           0        0.629582    1.773669   -0.000008
     17          1           0       -0.651351   -2.333479   -0.000174
     18          1           0        4.353009   -0.711143   -0.000087
     19          1           0       -1.618491    1.365414   -0.000039
     20          1           0       -2.661922   -1.537624    0.000148
     21          1           0        4.065242    2.959237    0.000412
     22          1           0        2.527951    2.813499   -0.896240
     23          1           0        2.527935    2.813066    0.896974
     24          1           0       -3.423623    1.892910   -0.001407
 ---------------------------------------------------------------------
 Rotational constants (GHZ):      1.5521113      0.2859657      0.2418500
 Standard basis: Aug-CC-pVDZ (5D, 7F)
 There are   440 symmetry adapted cartesian basis functions of A   symmetry.
 There are   412 symmetry adapted basis functions of A   symmetry.
   412 basis functions,   712 primitive gaussians,   440 cartesian basis functions
    51 alpha electrons       51 beta electrons
       nuclear repulsion energy       824.5401335380 Hartrees.
 NAtoms=   24 NActive=   24 NUniq=   24 SFac= 1.00D+00 NAtFMM=   60 NAOKFM=F Big=F
 Integral buffers will be    131072 words long.
 Raffenetti 2 integral format.
 Two-electron integral symmetry is turned on.
 One-electron integrals computed using PRISM.
 NBasis=   412 RedAO= T EigKep=  1.90D-06  NBF=   412
 NBsUse=   411 1.00D-06 EigRej=  9.62D-07 NBFU=   411
 ExpMin= 2.97D-02 ExpMax= 1.17D+04 ExpMxC= 4.01D+02 IAcc=3 IRadAn=         5 AccDes= 0.00D+00
 Harris functional with IExCor= 1009 and IRadAn=       5 diagonalized for initial guess.
 HarFok:  IExCor= 1009 AccDes= 0.00D+00 IRadAn=         5 IDoV= 1 UseB2=F ITyADJ=14
 ICtDFT=  3500011 ScaDFX=  1.000000  1.000000  1.000000  1.000000
 FoFCou: FMM=F IPFlag=           0 FMFlag=      100000 FMFlg1=           0
         NFxFlg=           0 DoJE=T BraDBF=F KetDBF=T FulRan=T
         wScrn=  0.000000 ICntrl=     500 IOpCl=  0 I1Cent=   200000004 NGrid=           0
         NMat0=    1 NMatS0=      1 NMatT0=    0 NMatD0=    1 NMtDS0=    0 NMtDT0=    0
 Petite list used in FoFCou.
 Requested convergence on RMS density matrix=1.00D-08 within 128 cycles.
 Requested convergence on MAX density matrix=1.00D-06.
 Requested convergence on             energy=1.00D-06.
 No special actions if energy rises.
 Restarting incremental Fock formation.
 SCF Done:  E(RM062X) =  -687.807107546     A.U. after   22 cycles
            NFock= 22  Conv=0.32D-08     -V/T= 2.0057

 **********************************************************************

            Population analysis using the SCF density.

 **********************************************************************

 Orbital symmetries:
       Occupied  (A) (A) (A) (A) (A) (A) (A) (A) (A) (A) (A) (A)
                 (A) (A) (A) (A) (A) (A) (A) (A) (A) (A) (A) (A)
                 (A) (A) (A) (A) (A) (A) (A) (A) (A) (A) (A) (A)
                 (A) (A) (A) (A) (A) (A) (A) (A) (A) (A) (A) (A)
                 (A) (A) (A)
       Virtual   (A) (A) (A) (A) (A) (A) (A) (A) (A) (A) (A) (A)
                 (A) (A) (A) (A) (A) (A) (A) (A) (A) (A) (A) (A)
                 (A) (A) (A) (A) (A) (A) (A) (A) (A) (A) (A) (A)
                 (A) (A) (A) (A) (A) (A) (A) (A) (A) (A) (A) (A)
                 (A) (A) (A) (A) (A) (A) (A) (A) (A) (A) (A) (A)
                 (A) (A) (A) (A) (A) (A) (A) (A) (A) (A) (A) (A)
                 (A) (A) (A) (A) (A) (A) (A) (A) (A) (A) (A) (A)
                 (A) (A) (A) (A) (A) (A) (A) (A) (A) (A) (A) (A)
                 (A) (A) (A) (A) (A) (A) (A) (A) (A) (A) (A) (A)
                 (A) (A) (A) (A) (A) (A) (A) (A) (A) (A) (A) (A)
                 (A) (A) (A) (A) (A) (A) (A) (A) (A) (A) (A) (A)
                 (A) (A) (A) (A) (A) (A) (A) (A) (A) (A) (A) (A)
                 (A) (A) (A) (A) (A) (A) (A) (A) (A) (A) (A) (A)
                 (A) (A) (A) (A) (A) (A) (A) (A) (A) (A) (A) (A)
                 (A) (A) (A) (A) (A) (A) (A) (A) (A) (A) (A) (A)
                 (A) (A) (A) (A) (A) (A) (A) (A) (A) (A) (A) (A)
                 (A) (A) (A) (A) (A) (A) (A) (A) (A) (A) (A) (A)
                 (A) (A) (A) (A) (A) (A) (A) (A) (A) (A) (A) (A)
                 (A) (A) (A) (A) (A) (A) (A) (A) (A) (A) (A) (A)
                 (A) (A) (A) (A) (A) (A) (A) (A) (A) (A) (A) (A)
                 (A) (A) (A) (A) (A) (A) (A) (A) (A) (A) (A) (A)
                 (A) (A) (A) (A) (A) (A) (A) (A) (A) (A) (A) (A)
                 (A) (A) (A) (A) (A) (A) (A) (A) (A) (A) (A) (A)
                 (A) (A) (A) (A) (A) (A) (A) (A) (A) (A) (A) (A)
                 (A) (A) (A) (A) (A) (A) (A) (A) (A) (A) (A) (A)
                 (A) (A) (A) (A) (A) (A) (A) (A) (A) (A) (A) (A)
                 (A) (A) (A) (A) (A) (A) (A) (A) (A) (A) (A) (A)
                 (A) (A) (A) (A) (A) (A) (A) (A) (A) (A) (A) (A)
                 (A) (A) (A) (A) (A) (A) (A) (A) (A) (A) (A) (A)
                 (A) (A) (A) (A) (A) (A) (A) (A) (A) (A) (A) (A)
 The electronic state is 1-A.
 Alpha  occ. eigenvalues --  -19.70660 -19.68943 -19.68866 -19.62791 -10.68575
 Alpha  occ. eigenvalues --  -10.63326 -10.63248 -10.62657 -10.59533 -10.58137
 Alpha  occ. eigenvalues --  -10.57879 -10.57424 -10.57122 -10.56834  -1.23333
 Alpha  occ. eigenvalues --   -1.23128  -1.19952  -1.14224  -0.98770  -0.92257
 Alpha  occ. eigenvalues --   -0.87699  -0.86039  -0.81611  -0.75910  -0.71723
 Alpha  occ. eigenvalues --   -0.70872  -0.68064  -0.65978  -0.62740  -0.60332
 Alpha  occ. eigenvalues --   -0.58906  -0.57982  -0.55375  -0.53760  -0.53105
 Alpha  occ. eigenvalues --   -0.52817  -0.51752  -0.51257  -0.50404  -0.47181
 Alpha  occ. eigenvalues --   -0.46945  -0.45145  -0.45077  -0.43734  -0.42926
 Alpha  occ. eigenvalues --   -0.42320  -0.39466  -0.36295  -0.35310  -0.31722
 Alpha  occ. eigenvalues --   -0.27449
 Alpha virt. eigenvalues --   -0.04573  -0.02091  -0.00958   0.00042   0.00214
 Alpha virt. eigenvalues --    0.00819   0.01197   0.01919   0.02345   0.03965
 Alpha virt. eigenvalues --    0.03990   0.04374   0.04869   0.05627   0.05952
 Alpha virt. eigenvalues --    0.06303   0.06665   0.07021   0.07596   0.08216
 Alpha virt. eigenvalues --    0.08227   0.08829   0.09280   0.10060   0.10090
 Alpha virt. eigenvalues --    0.10526   0.10595   0.10921   0.11243   0.11573
 Alpha virt. eigenvalues --    0.11922   0.12531   0.13016   0.13180   0.14000
 Alpha virt. eigenvalues --    0.14372   0.14407   0.15027   0.15321   0.15851
 Alpha virt. eigenvalues --    0.16050   0.17057   0.17202   0.17606   0.18167
 Alpha virt. eigenvalues --    0.18745   0.19754   0.20341   0.20582   0.20959
 Alpha virt. eigenvalues --    0.21592   0.21896   0.22385   0.22509   0.22686
 Alpha virt. eigenvalues --    0.23510   0.23721   0.23989   0.24363   0.24551
 Alpha virt. eigenvalues --    0.25628   0.25843   0.25989   0.26290   0.26876
 Alpha virt. eigenvalues --    0.27553   0.27577   0.27854   0.28119   0.28707
 Alpha virt. eigenvalues --    0.29243   0.29481   0.30237   0.30496   0.31100
 Alpha virt. eigenvalues --    0.31390   0.32016   0.32351   0.32496   0.32689
 Alpha virt. eigenvalues --    0.33907   0.34342   0.35573   0.35691   0.36530
 Alpha virt. eigenvalues --    0.37109   0.37214   0.37801   0.37907   0.38508
 Alpha virt. eigenvalues --    0.39098   0.40497   0.40757   0.41448   0.42094
 Alpha virt. eigenvalues --    0.42172   0.43139   0.44188   0.44414   0.44944
 Alpha virt. eigenvalues --    0.46168   0.46225   0.46462   0.46881   0.47307
 Alpha virt. eigenvalues --    0.47742   0.48969   0.49844   0.50400   0.51573
 Alpha virt. eigenvalues --    0.51841   0.52861   0.53032   0.53879   0.54153
 Alpha virt. eigenvalues --    0.54412   0.55040   0.55481   0.55494   0.56072
 Alpha virt. eigenvalues --    0.57362   0.57523   0.58119   0.58514   0.58529
 Alpha virt. eigenvalues --    0.59177   0.59851   0.60002   0.60999   0.61006
 Alpha virt. eigenvalues --    0.62051   0.62319   0.63028   0.63868   0.64287
 Alpha virt. eigenvalues --    0.64697   0.64946   0.65024   0.65603   0.67722
 Alpha virt. eigenvalues --    0.68510   0.69506   0.70011   0.70721   0.70821
 Alpha virt. eigenvalues --    0.71279   0.72428   0.73561   0.74448   0.74613
 Alpha virt. eigenvalues --    0.75388   0.75625   0.75925   0.76155   0.77484
 Alpha virt. eigenvalues --    0.78107   0.78633   0.79352   0.79492   0.80766
 Alpha virt. eigenvalues --    0.81080   0.81935   0.82549   0.83283   0.83564
 Alpha virt. eigenvalues --    0.84394   0.85339   0.86232   0.87146   0.87555
 Alpha virt. eigenvalues --    0.88891   0.89151   0.89416   0.91505   0.92431
 Alpha virt. eigenvalues --    0.93030   0.94487   0.96133   0.96187   0.97480
 Alpha virt. eigenvalues --    0.97974   0.99442   1.02129   1.02843   1.02974
 Alpha virt. eigenvalues --    1.04071   1.04438   1.05764   1.07863   1.08492
 Alpha virt. eigenvalues --    1.09329   1.09492   1.11861   1.13070   1.13504
 Alpha virt. eigenvalues --    1.15056   1.16311   1.18325   1.19293   1.20219
 Alpha virt. eigenvalues --    1.22066   1.23632   1.25689   1.26073   1.26390
 Alpha virt. eigenvalues --    1.26858   1.27066   1.28935   1.31606   1.31855
 Alpha virt. eigenvalues --    1.33383   1.33587   1.34359   1.36091   1.36407
 Alpha virt. eigenvalues --    1.37421   1.39191   1.39913   1.41191   1.42139
 Alpha virt. eigenvalues --    1.42834   1.43927   1.45841   1.46500   1.47275
 Alpha virt. eigenvalues --    1.47357   1.48505   1.48854   1.49871   1.51821
 Alpha virt. eigenvalues --    1.52389   1.52973   1.54019   1.54373   1.55966
 Alpha virt. eigenvalues --    1.57348   1.57411   1.57987   1.59402   1.60009
 Alpha virt. eigenvalues --    1.61459   1.62047   1.62832   1.63010   1.63967
 Alpha virt. eigenvalues --    1.65751   1.66468   1.67158   1.68186   1.69977
 Alpha virt. eigenvalues --    1.70076   1.70616   1.71359   1.73123   1.73154
 Alpha virt. eigenvalues --    1.74798   1.75594   1.76085   1.79177   1.81976
 Alpha virt. eigenvalues --    1.82075   1.83217   1.83943   1.84967   1.87103
 Alpha virt. eigenvalues --    1.87661   1.88995   1.89067   1.91430   1.92853
 Alpha virt. eigenvalues --    1.93134   1.93460   1.93775   1.94914   1.96286
 Alpha virt. eigenvalues --    1.97382   1.98381   2.00456   2.01920   2.02186
 Alpha virt. eigenvalues --    2.02288   2.03965   2.04461   2.04969   2.05957
 Alpha virt. eigenvalues --    2.07439   2.08578   2.09443   2.10103   2.12741
 Alpha virt. eigenvalues --    2.14288   2.14404   2.16978   2.17916   2.18731
 Alpha virt. eigenvalues --    2.20709   2.20871   2.23215   2.25625   2.25964
 Alpha virt. eigenvalues --    2.28032   2.31054   2.31846   2.32860   2.35349
 Alpha virt. eigenvalues --    2.37421   2.37640   2.38834   2.41832   2.44108
 Alpha virt. eigenvalues --    2.49648   2.51970   2.53782   2.56402   2.60449
 Alpha virt. eigenvalues --    2.60649   2.62189   2.63082   2.65724   2.67410
 Alpha virt. eigenvalues --    2.72070   2.76219   2.77448   2.78852   2.83588
 Alpha virt. eigenvalues --    2.85887   2.88486   2.90161   2.94686   2.99488
 Alpha virt. eigenvalues --    3.03275   3.08880   3.14995   3.20551   3.29952
 Alpha virt. eigenvalues --    3.33877   3.36392   3.38020   3.39792   3.41848
 Alpha virt. eigenvalues --    3.44150   3.44694   3.44960   3.47072   3.48021
 Alpha virt. eigenvalues --    3.48888   3.51530   3.52644   3.55398   3.56435
 Alpha virt. eigenvalues --    3.63284   3.66046   3.71833   3.76038   3.80154
 Alpha virt. eigenvalues --    3.89220   3.92555   4.00565   4.03991   4.55386
          Condensed to atoms (all electrons):
               1          2          3          4          5          6
     1  C   26.912120 -10.540050   3.458555  -4.622920   2.431539  -9.311729
     2  C  -10.540050  17.842990  -2.945798   2.083467  -5.983248   5.478391
     3  C    3.458555  -2.945798  17.082631  -5.628826  -0.424843  -4.844616
     4  C   -4.622920   2.083467  -5.628826  26.133391  -4.780486  -0.735183
     5  C    2.431539  -5.983248  -0.424843  -4.780486  27.327705  -9.802993
     6  C   -9.311729   5.478391  -4.844616  -0.735183  -9.802993  29.411575
     7  O    0.338049  -0.649370   0.311572  -0.212538   0.125230  -0.021989
     8  C   -0.864785   0.285117  -1.225802  -3.039356  -7.507552  -0.559117
     9  C   -0.187123   0.178610  -0.251087  -1.932509  -0.131416  -1.072767
    10  O   -0.035371   0.122170  -1.013574   0.807600  -0.188112   0.004543
    11  C    0.323206  -0.172914   0.148400  -0.363904   0.049278  -0.206064
    12  C   -0.031433  -0.004678   0.037076  -0.165293  -0.322687  -0.182207
    13  O   -0.002810  -0.000856   0.001410  -0.000101  -0.001134   0.006982
    14  O   -0.004036   0.001022  -0.000907   0.000443   0.084888   0.012484
    15  H   -3.931281   2.921098  -0.190638   0.241124  -0.940931   1.130014
    16  H    0.143591  -0.477995   0.959588  -3.357735   0.875705   0.125718
    17  H    1.073290  -1.019203   0.235852   0.200193   1.657075  -3.706310
    18  H   -0.041748  -0.006763  -0.166711   0.058394  -0.031359   0.062143
    19  H   -0.080199   0.015957   0.213234  -0.301806   1.490205  -0.809811
    20  H    0.047696  -0.075529   0.062543   0.006168  -0.015467  -0.029347
    21  H    0.028268  -0.048406   0.174791  -0.031310   0.012266  -0.033345
    22  H    0.011594   0.017649   0.054462  -0.055361  -0.024277   0.001166
    23  H    0.011589   0.017716   0.054724  -0.055536  -0.024276   0.001198
    24  H    0.000128  -0.000705  -0.010694  -0.014575  -0.083824   0.035853
               7          8          9         10         11         12
     1  C    0.338049  -0.864785  -0.187123  -0.035371   0.323206  -0.031433
     2  C   -0.649370   0.285117   0.178610   0.122170  -0.172914  -0.004678
     3  C    0.311572  -1.225802  -0.251087  -1.013574   0.148400   0.037076
     4  C   -0.212538  -3.039356  -1.932509   0.807600  -0.363904  -0.165293
     5  C    0.125230  -7.507552  -0.131416  -0.188112   0.049278  -0.322687
     6  C   -0.021989  -0.559117  -1.072767   0.004543  -0.206064  -0.182207
     7  O    8.563277  -0.015104  -0.000553  -0.074923   0.007695   0.000366
     8  C   -0.015104  27.994871  -7.252593   0.038344   0.029502  -1.819521
     9  C   -0.000553  -7.252593  19.691050  -0.009642   0.013935  -1.787887
    10  O   -0.074923   0.038344  -0.009642   9.268346   0.110636  -0.000261
    11  C    0.007695   0.029502   0.013935   0.110636   4.088578  -0.002183
    12  C    0.000366  -1.819521  -1.787887  -0.000261  -0.002183   9.673765
    13  O    0.000002   0.023213  -0.138069  -0.000006   0.000010   0.444281
    14  O   -0.000003  -0.130000   0.337477  -0.000014   0.000007  -0.334519
    15  H   -0.150045   0.002460   0.044256  -0.010389  -0.008949   0.000936
    16  H    0.015792  -0.197211   0.032481  -0.208578   0.035511   0.019657
    17  H    0.002938   0.284074   0.126288   0.002947   0.007111  -0.054515
    18  H    0.298521  -0.002106   0.001880   0.065548  -0.001054  -0.000074
    19  H   -0.000461  -3.102439   0.649399  -0.004820  -0.004211   0.223849
    20  H    0.000447   1.417416  -2.471875   0.000087  -0.001782  -0.174217
    21  H   -0.007496   0.008547   0.003398  -0.433049   0.301831  -0.000032
    22  H    0.004212  -0.007778  -0.006586   0.126315   0.255912  -0.000317
    23  H    0.004218  -0.007793  -0.006594   0.126432   0.255889  -0.000317
    24  H    0.000047   0.115985  -0.087631   0.000188  -0.000200   0.062051
              13         14         15         16         17         18
     1  C   -0.002810  -0.004036  -3.931281   0.143591   1.073290  -0.041748
     2  C   -0.000856   0.001022   2.921098  -0.477995  -1.019203  -0.006763
     3  C    0.001410  -0.000907  -0.190638   0.959588   0.235852  -0.166711
     4  C   -0.000101   0.000443   0.241124  -3.357735   0.200193   0.058394
     5  C   -0.001134   0.084888  -0.940931   0.875705   1.657075  -0.031359
     6  C    0.006982   0.012484   1.130014   0.125718  -3.706310   0.062143
     7  O    0.000002  -0.000003  -0.150045   0.015792   0.002938   0.298521
     8  C    0.023213  -0.130000   0.002460  -0.197211   0.284074  -0.002106
     9  C   -0.138069   0.337477   0.044256   0.032481   0.126288   0.001880
    10  O   -0.000006  -0.000014  -0.010389  -0.208578   0.002947   0.065548
    11  C    0.000010   0.000007  -0.008949   0.035511   0.007111  -0.001054
    12  C    0.444281  -0.334519   0.000936   0.019657  -0.054515  -0.000074
    13  O    8.302238  -0.099912  -0.000028  -0.001488   0.002087   0.000001
    14  O   -0.099912   8.356698  -0.000169  -0.003013   0.005004   0.000014
    15  H   -0.000028  -0.000169   3.049173   0.000427  -0.258878   0.008658
    16  H   -0.001488  -0.003013   0.000427   5.032365  -0.042433  -0.001494
    17  H    0.002087   0.005004  -0.258878  -0.042433   3.797831  -0.004712
    18  H    0.000001   0.000014   0.008658  -0.001494  -0.004712   0.597187
    19  H    0.007272   0.026771   0.007077  -0.360844  -0.011170   0.000239
    20  H   -0.025549  -0.044966   0.004813   0.000693  -0.241903  -0.000243
    21  H   -0.000001  -0.000014   0.001070   0.022341  -0.000751  -0.004039
    22  H    0.000021   0.000069  -0.001094  -0.072264   0.001724  -0.000503
    23  H    0.000021   0.000069  -0.001096  -0.072247   0.001727  -0.000497
    24  H    0.005260   0.263268  -0.000258   0.012262  -0.004951   0.000016
              19         20         21         22         23         24
     1  C   -0.080199   0.047696   0.028268   0.011594   0.011589   0.000128
     2  C    0.015957  -0.075529  -0.048406   0.017649   0.017716  -0.000705
     3  C    0.213234   0.062543   0.174791   0.054462   0.054724  -0.010694
     4  C   -0.301806   0.006168  -0.031310  -0.055361  -0.055536  -0.014575
     5  C    1.490205  -0.015467   0.012266  -0.024277  -0.024276  -0.083824
     6  C   -0.809811  -0.029347  -0.033345   0.001166   0.001198   0.035853
     7  O   -0.000461   0.000447  -0.007496   0.004212   0.004218   0.000047
     8  C   -3.102439   1.417416   0.008547  -0.007778  -0.007793   0.115985
     9  C    0.649399  -2.471875   0.003398  -0.006586  -0.006594  -0.087631
    10  O   -0.004820   0.000087  -0.433049   0.126315   0.126432   0.000188
    11  C   -0.004211  -0.001782   0.301831   0.255912   0.255889  -0.000200
    12  C    0.223849  -0.174217  -0.000032  -0.000317  -0.000317   0.062051
    13  O    0.007272  -0.025549  -0.000001   0.000021   0.000021   0.005260
    14  O    0.026771  -0.044966  -0.000014   0.000069   0.000069   0.263268
    15  H    0.007077   0.004813   0.001070  -0.001094  -0.001096  -0.000258
    16  H   -0.360844   0.000693   0.022341  -0.072264  -0.072247   0.012262
    17  H   -0.011170  -0.241903  -0.000751   0.001724   0.001727  -0.004951
    18  H    0.000239  -0.000243  -0.004039  -0.000503  -0.000497   0.000016
    19  H    3.910265   0.195204   0.002356   0.001952   0.001950  -0.116392
    20  H    0.195204   3.349157   0.000148  -0.000311  -0.000311   0.000002
    21  H    0.002356   0.000148   2.645904  -0.542752  -0.542811  -0.000169
    22  H    0.001952  -0.000311  -0.542752   1.488731  -0.137835  -0.000106
    23  H    0.001950  -0.000311  -0.542811  -0.137835   1.488491  -0.000105
    24  H   -0.116392   0.000002  -0.000169  -0.000106  -0.000105   0.677256
 Mulliken charges:
               1
     1  C    0.873858
     2  C   -1.038672
     3  C   -0.091342
     4  C    1.766659
     5  C    2.208712
     6  C    1.045414
     7  O   -0.539884
     8  C    1.531627
     9  C    0.257556
    10  O   -0.694418
    11  C    1.133760
    12  C    0.418160
    13  O   -0.522842
    14  O   -0.470661
    15  H   -0.917351
    16  H   -1.480830
    17  H   -1.053315
    18  H    0.168700
    19  H   -0.953577
    20  H   -1.002876
    21  H   -0.556744
    22  H   -0.114621
    23  H   -0.114604
    24  H    0.147292
 Sum of Mulliken charges =  -0.00000
 Mulliken charges with hydrogens summed into heavy atoms:
               1
     1  C   -0.043493
     2  C   -1.038672
     3  C   -0.091342
     4  C    0.285829
     5  C    2.208712
     6  C   -0.007901
     7  O   -0.371184
     8  C    0.578050
     9  C   -0.745320
    10  O   -0.694418
    11  C    0.347790
    12  C    0.418160
    13  O   -0.522842
    14  O   -0.323369
 Electronic spatial extent (au):  <R**2>=           4157.8901
 Charge=             -0.0000 electrons
 Dipole moment (field-independent basis, Debye):
    X=              6.3167    Y=              3.6398    Z=             -0.0023  Tot=              7.2904
 Quadrupole moment (field-independent basis, Debye-Ang):
   XX=           -112.5062   YY=            -70.5175   ZZ=            -84.9809
   XY=              5.0687   XZ=              0.0141   YZ=             -0.0006
 Traceless Quadrupole moment (field-independent basis, Debye-Ang):
   XX=            -23.1713   YY=             18.8174   ZZ=              4.3540
   XY=              5.0687   XZ=              0.0141   YZ=             -0.0006
 Octapole moment (field-independent basis, Debye-Ang**2):
  XXX=            248.7762  YYY=             21.6624  ZZZ=              0.0034  XYY=             10.8182
  XXY=             48.9406  XXZ=             -0.0492  XZZ=             -2.3877  YZZ=              5.2674
  YYZ=             -0.0070  XYZ=              0.0042
 Hexadecapole moment (field-independent basis, Debye-Ang**3):
 XXXX=          -5225.1917 YYYY=           -846.1878 ZZZZ=            -96.6666 XXXY=             52.1599
 XXXZ=              0.3292 YYYX=             39.9909 YYYZ=             -0.0153 ZZZX=              0.0471
 ZZZY=             -0.0049 XXYY=           -864.3501 XXZZ=           -723.3766 YYZZ=           -181.2429
 XXYZ=              0.0239 YYXZ=              0.0544 ZZXY=              1.1556
 N-N= 8.245401335380D+02 E-N=-3.254919211380D+03  KE= 6.839109434425D+02
 Calling FoFJK, ICntrl=      2127 FMM=F ISym2X=0 I1Cent= 0 IOpClX= 0 NMat=1 NMatS=1 NMatT=0.
 ***** Axes restored to original set *****
 -------------------------------------------------------------------
 Center     Atomic                   Forces (Hartrees/Bohr)
 Number     Number              X              Y              Z
 -------------------------------------------------------------------
      1        6          -0.000302444    0.001278010    0.000000282
      2        6          -0.000234129    0.000983515   -0.000000583
      3        6           0.001039977    0.000964959   -0.000000124
      4        6          -0.000241863   -0.001104911    0.000000619
      5        6           0.000713225   -0.000126832    0.000003024
      6        6           0.000531499    0.001209900   -0.000000479
      7        8           0.002122288   -0.000663308   -0.000000025
      8        6           0.000224410   -0.000868906   -0.000001187
      9        6          -0.000937206    0.001563216   -0.000017059
     10        8           0.001147370   -0.000553777    0.000001047
     11        6          -0.000869877   -0.001203406   -0.000000669
     12        6           0.000788882   -0.001758726    0.000056346
     13        8           0.000998495    0.001308076   -0.000022768
     14        8          -0.001127566    0.002232419   -0.000012157
     15        1           0.000465969   -0.002401935   -0.000000123
     16        1          -0.000296183    0.002170455    0.000000271
     17        1          -0.001664388   -0.001521479   -0.000000182
     18        1          -0.001489456   -0.000640175   -0.000000029
     19        1          -0.000333357    0.001972946   -0.000001334
     20        1           0.000098098   -0.002476427   -0.000000847
     21        1           0.001981318    0.000778518    0.000000153
     22        1          -0.001193003    0.000331126   -0.001770228
     23        1          -0.001192551    0.000330152    0.001769893
     24        1          -0.000229507   -0.001803409   -0.000003841
 -------------------------------------------------------------------
 Cartesian Forces:  Max     0.002476427 RMS     0.001052138

 GradGradGradGradGradGradGradGradGradGradGradGradGradGradGradGradGradGrad
 Berny optimization.
 FormGI is forming the generalized inverse of G from B-inverse, IUseBI=4.
 GSVD:  received Info=                   1 from GESDD.
 Internal  Forces:  Max     0.003688043 RMS     0.000894076
 Search for a local minimum.
 Step number   1 out of a maximum of  115
 All quantities printed in internal units (Hartrees-Bohrs-Radians)
 Mixed Optimization -- En-DIIS/RFO-DIIS
 Second derivative matrix not updated -- first step.
 ITU=  0
     Eigenvalues ---    0.00950   0.01207   0.01388   0.01489   0.01796
     Eigenvalues ---    0.01991   0.02050   0.02086   0.02099   0.02146
     Eigenvalues ---    0.02153   0.02155   0.02159   0.02183   0.02217
     Eigenvalues ---    0.02223   0.02306   0.02337   0.02869   0.10192
     Eigenvalues ---    0.10693   0.16000   0.16000   0.16000   0.16000
     Eigenvalues ---    0.16000   0.16000   0.16000   0.16000   0.16000
     Eigenvalues ---    0.16000   0.22000   0.22000   0.22373   0.23484
     Eigenvalues ---    0.24605   0.25000   0.25000   0.25000   0.25000
     Eigenvalues ---    0.25000   0.25000   0.33881   0.34148   0.34148
     Eigenvalues ---    0.34582   0.34917   0.35369   0.35438   0.35449
     Eigenvalues ---    0.35451   0.36142   0.41581   0.42233   0.43171
     Eigenvalues ---    0.45183   0.45727   0.47113   0.47748   0.51929
     Eigenvalues ---    0.53759   0.54262   0.54716   0.54768   0.56978
     Eigenvalues ---    1.02574
 RFO step:  Lambda=-2.85207587D-04 EMin= 9.49885119D-03
 Linear search not attempted -- first point.
 Iteration  1 RMS(Cart)=  0.01295258 RMS(Int)=  0.00006975
 Iteration  2 RMS(Cart)=  0.00012630 RMS(Int)=  0.00000080
 Iteration  3 RMS(Cart)=  0.00000001 RMS(Int)=  0.00000080
 Variable       Old X    -DE/DX   Delta X   Delta X   Delta X     New X
                                 (Linear)    (Quad)   (Total)
    R1        2.62484   0.00110   0.00000   0.00237   0.00237   2.62721
    R2        2.62798   0.00077   0.00000   0.00161   0.00161   2.62959
    R3        2.04951   0.00244   0.00000   0.00689   0.00689   2.05641
    R4        2.65739   0.00123   0.00000   0.00284   0.00284   2.66023
    R5        2.55339   0.00100   0.00000   0.00183   0.00183   2.55521
    R6        2.61874   0.00090   0.00000   0.00187   0.00187   2.62061
    R7        2.57967  -0.00029   0.00000  -0.00056  -0.00056   2.57911
    R8        2.65957   0.00040   0.00000   0.00082   0.00082   2.66039
    R9        2.05080   0.00218   0.00000   0.00616   0.00616   2.05696
   R10        2.64296   0.00037   0.00000   0.00072   0.00072   2.64368
   R11        2.77160   0.00056   0.00000   0.00154   0.00154   2.77314
   R12        2.04949   0.00226   0.00000   0.00636   0.00636   2.05585
   R13        1.82951  -0.00141   0.00000  -0.00261  -0.00261   1.82690
   R14        2.53416   0.00083   0.00000   0.00146   0.00146   2.53561
   R15        2.06359   0.00199   0.00000   0.00575   0.00575   2.06935
   R16        2.80831  -0.00040   0.00000  -0.00119  -0.00119   2.80712
   R17        2.04970   0.00247   0.00000   0.00697   0.00697   2.05667
   R18        2.67460   0.00040   0.00000   0.00094   0.00094   2.67553
   R19        2.05810   0.00213   0.00000   0.00609   0.00609   2.06419
   R20        2.07081   0.00214   0.00000   0.00625   0.00625   2.07706
   R21        2.07081   0.00214   0.00000   0.00625   0.00625   2.07706
   R22        2.27625  -0.00159   0.00000  -0.00155  -0.00155   2.27470
   R23        2.55794   0.00062   0.00000   0.00115   0.00115   2.55909
   R24        1.82085  -0.00109   0.00000  -0.00199  -0.00199   1.81887
    A1        2.09732  -0.00007   0.00000  -0.00017  -0.00017   2.09715
    A2        2.06702   0.00016   0.00000   0.00087   0.00087   2.06790
    A3        2.11884  -0.00009   0.00000  -0.00070  -0.00070   2.11814
    A4        2.08917  -0.00000   0.00000   0.00028   0.00028   2.08944
    A5        2.09564  -0.00061   0.00000  -0.00257  -0.00257   2.09307
    A6        2.09838   0.00061   0.00000   0.00229   0.00229   2.10067
    A7        2.09577  -0.00021   0.00000  -0.00068  -0.00068   2.09509
    A8        1.98685   0.00168   0.00000   0.00663   0.00663   1.99348
    A9        2.20057  -0.00147   0.00000  -0.00595  -0.00595   2.19462
   A10        2.10230  -0.00005   0.00000  -0.00032  -0.00032   2.10198
   A11        2.09850  -0.00017   0.00000  -0.00104  -0.00104   2.09746
   A12        2.08239   0.00022   0.00000   0.00136   0.00136   2.08375
   A13        2.07425   0.00044   0.00000   0.00150   0.00150   2.07575
   A14        2.06115   0.00029   0.00000   0.00128   0.00128   2.06243
   A15        2.14778  -0.00073   0.00000  -0.00278  -0.00278   2.14500
   A16        2.10757  -0.00010   0.00000  -0.00060  -0.00060   2.10696
   A17        2.07557   0.00009   0.00000   0.00057   0.00057   2.07614
   A18        2.10005   0.00001   0.00000   0.00003   0.00003   2.10008
   A19        1.89688  -0.00149   0.00000  -0.00931  -0.00931   1.88758
   A20        2.21897  -0.00057   0.00000  -0.00257  -0.00257   2.21639
   A21        1.97411   0.00051   0.00000   0.00272   0.00272   1.97683
   A22        2.09011   0.00005   0.00000  -0.00015  -0.00015   2.08996
   A23        2.20392  -0.00051   0.00000  -0.00233  -0.00233   2.20159
   A24        2.12382   0.00021   0.00000   0.00089   0.00089   2.12471
   A25        1.95544   0.00030   0.00000   0.00144   0.00144   1.95689
   A26        2.05451  -0.00369   0.00000  -0.01474  -0.01474   2.03978
   A27        1.85309   0.00001   0.00000   0.00038   0.00038   1.85347
   A28        1.93335  -0.00036   0.00000  -0.00240  -0.00241   1.93094
   A29        1.93335  -0.00036   0.00000  -0.00240  -0.00241   1.93094
   A30        1.91325   0.00028   0.00000   0.00207   0.00207   1.91531
   A31        1.91325   0.00028   0.00000   0.00207   0.00207   1.91532
   A32        1.91655   0.00016   0.00000   0.00038   0.00038   1.91693
   A33        2.12425   0.00046   0.00000   0.00182   0.00182   2.12606
   A34        2.07307   0.00009   0.00000   0.00035   0.00035   2.07342
   A35        2.08587  -0.00054   0.00000  -0.00217  -0.00217   2.08370
   A36        1.95001  -0.00264   0.00000  -0.01647  -0.01647   1.93354
    D1       -0.00000   0.00000   0.00000   0.00000   0.00000  -0.00000
    D2        3.14159   0.00000   0.00000   0.00000   0.00000   3.14159
    D3       -3.14159  -0.00000   0.00000  -0.00000  -0.00000  -3.14159
    D4        0.00000  -0.00000   0.00000  -0.00000  -0.00000   0.00000
    D5        0.00001  -0.00000   0.00000  -0.00000  -0.00000   0.00000
    D6       -3.14159  -0.00000   0.00000  -0.00000  -0.00000   3.14159
    D7        3.14159   0.00000   0.00000   0.00000   0.00000   3.14159
    D8       -0.00000  -0.00000   0.00000  -0.00000  -0.00000  -0.00000
    D9       -0.00000  -0.00000   0.00000  -0.00000  -0.00000  -0.00000
   D10       -3.14159   0.00000   0.00000   0.00000   0.00000  -3.14159
   D11        3.14159  -0.00000   0.00000  -0.00000  -0.00000   3.14159
   D12        0.00000   0.00000   0.00000   0.00000   0.00000   0.00001
   D13       -3.14157   0.00000   0.00000   0.00000   0.00000  -3.14156
   D14        0.00003   0.00000   0.00000   0.00000   0.00000   0.00003
   D15        0.00001   0.00000   0.00000   0.00000   0.00000   0.00001
   D16        3.14159  -0.00000   0.00000  -0.00000  -0.00000   3.14159
   D17       -3.14159  -0.00000   0.00000  -0.00000  -0.00000   3.14159
   D18       -0.00001  -0.00000   0.00000  -0.00001  -0.00001  -0.00001
   D19       -3.14137  -0.00000   0.00000  -0.00005  -0.00005  -3.14143
   D20        0.00023  -0.00000   0.00000  -0.00005  -0.00005   0.00018
   D21       -0.00000  -0.00000   0.00000  -0.00000  -0.00000  -0.00001
   D22        3.14158   0.00000   0.00000   0.00000   0.00000   3.14159
   D23       -3.14159   0.00000   0.00000   0.00000   0.00000  -3.14159
   D24        0.00000   0.00000   0.00000   0.00000   0.00000   0.00001
   D25       -0.00000   0.00000   0.00000   0.00000   0.00000   0.00000
   D26       -3.14159   0.00000   0.00000   0.00000   0.00000  -3.14159
   D27       -3.14159  -0.00000   0.00000  -0.00000  -0.00000  -3.14159
   D28        0.00000   0.00000   0.00000   0.00000   0.00000   0.00000
   D29       -3.14150   0.00000   0.00000   0.00008   0.00008  -3.14143
   D30        0.00002   0.00000   0.00000   0.00002   0.00002   0.00005
   D31        0.00009   0.00000   0.00000   0.00008   0.00008   0.00017
   D32       -3.14157   0.00000   0.00000   0.00003   0.00003  -3.14155
   D33        3.14156  -0.00000   0.00000  -0.00013  -0.00013   3.14143
   D34        0.00010  -0.00000   0.00000  -0.00005  -0.00005   0.00005
   D35        0.00004  -0.00000   0.00000  -0.00007  -0.00007  -0.00003
   D36       -3.14142  -0.00000   0.00000   0.00001   0.00001  -3.14141
   D37       -3.14075  -0.00001   0.00000  -0.00082  -0.00082  -3.14156
   D38        0.00045   0.00001   0.00000   0.00105   0.00105   0.00150
   D39        0.00072  -0.00001   0.00000  -0.00089  -0.00089  -0.00016
   D40       -3.14126   0.00001   0.00000   0.00097   0.00097  -3.14029
   D41        3.14145   0.00000   0.00000   0.00001   0.00001   3.14146
   D42       -1.06576   0.00014   0.00000   0.00142   0.00141  -1.06435
   D43        1.06547  -0.00014   0.00000  -0.00140  -0.00139   1.06408
   D44        0.00060  -0.00001   0.00000  -0.00073  -0.00073  -0.00013
   D45       -3.14138   0.00002   0.00000   0.00109   0.00109  -3.14029
         Item               Value     Threshold  Converged?
 Maximum Force            0.003688     0.000450     NO 
 RMS     Force            0.000894     0.000300     NO 
 Maximum Displacement     0.052959     0.001800     NO 
 RMS     Displacement     0.013014     0.001200     NO 
 Predicted change in Energy=-1.427612D-04
 GradGradGradGradGradGradGradGradGradGradGradGradGradGradGradGradGradGrad

                          Input orientation:                          
 ---------------------------------------------------------------------
 Center     Atomic      Atomic             Coordinates (Angstroms)
 Number     Number       Type             X           Y           Z
 ---------------------------------------------------------------------
      1          6           0        1.461910   -2.012080   -0.000259
      2          6           0        2.495269   -1.082032   -0.000215
      3          6           0        2.196057    0.293533   -0.000056
      4          6           0        0.875439    0.716725    0.000053
      5          6           0       -0.174095   -0.221589    0.000014
      6          6           0        0.137409   -1.585442   -0.000143
      7          8           0        3.780606   -1.501846   -0.000326
      8          6           0       -1.552783    0.281129    0.000143
      9          6           0       -2.678404   -0.449197    0.000307
     10          8           0        3.293313    1.105156   -0.000035
     11          6           0        3.056732    2.501081    0.000333
     12          6           0       -4.066301    0.080287    0.000624
     13          8           0       -5.023783   -0.649215    0.000786
     14          8           0       -4.252811    1.421593   -0.001011
     15          1           0        1.716059   -3.070189   -0.000381
     16          1           0        0.641563    1.779800    0.000181
     17          1           0       -0.655753   -2.330052   -0.000180
     18          1           0        4.352096   -0.722094   -0.000248
     19          1           0       -1.614491    1.374439    0.000212
     20          1           0       -2.654863   -1.537287    0.000411
     21          1           0        4.040042    2.976751    0.000430
     22          1           0        2.499927    2.799823   -0.899008
     23          1           0        2.499970    2.799355    0.899855
     24          1           0       -3.408557    1.883810   -0.002126
 ---------------------------------------------------------------------
                    Distance matrix (angstroms):
                    1          2          3          4          5
     1  C    0.000000
     2  C    1.390259   0.000000
     3  C    2.419675   1.407731   0.000000
     4  C    2.791116   2.420615   1.386768   0.000000
     5  C    2.425360   2.804615   2.425484   1.407819   0.000000
     6  C    1.391518   2.411001   2.787217   2.417573   1.398975
     7  O    2.374172   1.352160   2.394615   3.655415   4.156768
     8  C    3.787768   4.271409   3.748861   2.466983   1.467483
     9  C    4.425473   5.212234   4.930723   3.740211   2.514632
    10  O    3.615411   2.328233   1.364808   2.448876   3.712569
    11  C    4.786657   3.626836   2.369394   2.818149   4.225065
    12  C    5.910932   6.663722   6.265988   4.982554   3.903895
    13  O    6.627339   7.531499   7.281131   6.055296   4.868505
    14  O    6.666945   7.197550   6.546787   5.176465   4.397269
    15  H    1.088203   2.135400   3.397797   3.879092   3.418655
    16  H    3.879604   3.409737   2.150684   1.088497   2.161216
    17  H    2.141402   3.389173   3.875051   3.409897   2.162778
    18  H    3.165002   1.891391   2.383275   3.762624   4.553779
    19  H    4.575233   4.787941   3.960888   2.575333   2.149895
    20  H    4.144062   5.170215   5.184914   4.188508   2.808073
    21  H    5.615622   4.342816   3.255755   3.888758   5.290400
    22  H    5.003963   3.984552   2.679915   2.790443   4.133711
    23  H    5.003767   3.984385   2.679804   2.790358   4.133575
    24  H    6.236939   6.606919   5.825863   4.440125   3.859333
                    6          7          8          9         10
     6  C    0.000000
     7  O    3.644156   0.000000
     8  C    2.518102   5.623526   0.000000
     9  C    3.036422   6.544226   1.341790   0.000000
    10  O    4.147173   2.652153   4.915655   6.170691   0.000000
    11  C    5.022162   4.067852   5.116231   6.449490   1.415831
    12  C    4.521707   8.004817   2.521529   1.485466   7.430631
    13  O    5.245419   8.845578   3.593519   2.353892   8.500112
    14  O    5.321306   8.548818   2.931009   2.445120   7.552756
    15  H    2.167166   2.592692   4.681523   5.116729   4.463321
    16  H    3.402796   4.541233   2.657286   3.998826   2.736224
    17  H    1.087911   4.513004   2.760965   2.762016   5.234097
    18  H    4.302203   0.966754   5.989495   7.035795   2.111839
    19  H    3.439484   6.113926   1.095051   2.111294   4.915186
    20  H    2.792688   6.435567   2.126315   1.088345   6.508710
    21  H    6.003678   4.486106   6.208549   7.541528   2.015062
    22  H    5.061620   4.577350   4.855590   6.178998   2.075936
    23  H    5.061436   4.577193   4.855487   6.178822   2.075935
    24  H    4.960805   7.946492   2.452037   2.444596   6.746952
                   11         12         13         14         15
    11  C    0.000000
    12  C    7.523154   0.000000
    13  O    8.672893   1.203721   0.000000
    14  O    7.388824   1.354213   2.209671   0.000000
    15  H    5.730310   6.584921   7.161466   7.470175   0.000000
    16  H    2.520573   5.005230   6.164110   4.907465   4.967588
    17  H    6.092814   4.176311   4.680267   5.197468   2.484612
    18  H    3.473734   8.456549   9.376162   8.867909   3.530189
    19  H    4.805168   2.772400   3.964650   2.638742   5.554033
    20  H    6.995051   2.146789   2.529912   3.362798   4.631928
    21  H    1.092320   8.608270   9.762201   8.437413   6.478147
    22  H    1.099133   7.163837   8.325365   6.950207   5.989910
    23  H    1.099132   7.163649   8.325132   6.950528   5.989699
    24  H    6.494689   1.919722   3.004194   0.962503   7.127678
                   16         17         18         19         20
    16  H    0.000000
    17  H    4.309746   0.000000
    18  H    4.475212   5.259665   0.000000
    19  H    2.292182   3.826543   6.324208   0.000000
    20  H    4.676483   2.150562   7.054220   3.092010   0.000000
    21  H    3.603104   7.086089   3.711985   5.877172   8.074547
    22  H    2.302717   6.089485   4.079485   4.446206   6.796421
    23  H    2.302734   6.089291   4.079358   4.446182   6.796159
    24  H    4.051455   5.033345   8.186480   1.864976   3.503137
                   21         22         23         24
    21  H    0.000000
    22  H    1.792275   0.000000
    23  H    1.792277   1.798863   0.000000
    24  H    7.528357   6.045961   6.046692   0.000000
 Stoichiometry    C10H10O4
 Framework group  C1[X(C10H10O4)]
 Deg. of freedom    66
 Full point group                 C1      NOp   1
 Largest Abelian subgroup         C1      NOp   1
 Largest concise Abelian subgroup C1      NOp   1
                         Standard orientation:                         
 ---------------------------------------------------------------------
 Center     Atomic      Atomic             Coordinates (Angstroms)
 Number     Number       Type             X           Y           Z
 ---------------------------------------------------------------------
      1          6           0        1.463463   -2.009726   -0.000252
      2          6           0        2.494732   -1.077362   -0.000208
      3          6           0        2.192434    0.297529   -0.000049
      4          6           0        0.870870    0.717756    0.000061
      5          6           0       -0.176556   -0.222911    0.000022
      6          6           0        0.138008   -1.586061   -0.000136
      7          8           0        3.781009   -1.494290   -0.000319
      8          6           0       -1.556369    0.276712    0.000150
      9          6           0       -2.680348   -0.456138    0.000314
     10          8           0        3.287866    1.111612   -0.000028
     11          6           0        3.048153    2.507003    0.000341
     12          6           0       -4.069430    0.070230    0.000632
     13          8           0       -5.025272   -0.661419    0.000793
     14          8           0       -4.258949    1.411114   -0.001004
     15          1           0        1.719986   -3.067262   -0.000373
     16          1           0        0.634609    1.780303    0.000188
     17          1           0       -0.653481   -2.332449   -0.000173
     18          1           0        4.350747   -0.713257   -0.000241
     19          1           0       -1.620530    1.369881    0.000220
     20          1           0       -2.654365   -1.544173    0.000419
     21          1           0        4.030393    2.984879    0.000437
     22          1           0        2.490678    2.804495   -0.899000
     23          1           0        2.490723    2.804027    0.899862
     24          1           0       -3.415734    1.875225   -0.002118
 ---------------------------------------------------------------------
 Rotational constants (GHZ):      1.5489945      0.2865458      0.2421911
 Standard basis: Aug-CC-pVDZ (5D, 7F)
 There are   440 symmetry adapted cartesian basis functions of A   symmetry.
 There are   412 symmetry adapted basis functions of A   symmetry.
   412 basis functions,   712 primitive gaussians,   440 cartesian basis functions
    51 alpha electrons       51 beta electrons
       nuclear repulsion energy       824.6040643576 Hartrees.
 NAtoms=   24 NActive=   24 NUniq=   24 SFac= 1.00D+00 NAtFMM=   60 NAOKFM=F Big=F
 Integral buffers will be    131072 words long.
 Raffenetti 2 integral format.
 Two-electron integral symmetry is turned on.
 One-electron integrals computed using PRISM.
 NBasis=   412 RedAO= T EigKep=  1.90D-06  NBF=   412
 NBsUse=   411 1.00D-06 EigRej=  9.66D-07 NBFU=   411
 Initial guess from the checkpoint file:  "pvdzFA.chk"
 B after Tr=     0.000000   -0.000000    0.000000
         Rot=    1.000000    0.000001    0.000001   -0.000730 Ang=   0.08 deg.
 ExpMin= 2.97D-02 ExpMax= 1.17D+04 ExpMxC= 4.01D+02 IAcc=3 IRadAn=         5 AccDes= 0.00D+00
 Harris functional with IExCor= 1009 and IRadAn=       5 diagonalized for initial guess.
 HarFok:  IExCor= 1009 AccDes= 0.00D+00 IRadAn=         5 IDoV= 1 UseB2=F ITyADJ=14
 ICtDFT=  3500011 ScaDFX=  1.000000  1.000000  1.000000  1.000000
 FoFCou: FMM=F IPFlag=           0 FMFlag=      100000 FMFlg1=           0
         NFxFlg=           0 DoJE=T BraDBF=F KetDBF=T FulRan=T
         wScrn=  0.000000 ICntrl=     500 IOpCl=  0 I1Cent=   200000004 NGrid=           0
         NMat0=    1 NMatS0=      1 NMatT0=    0 NMatD0=    1 NMtDS0=    0 NMtDT0=    0
 Petite list used in FoFCou.
 Requested convergence on RMS density matrix=1.00D-08 within 128 cycles.
 Requested convergence on MAX density matrix=1.00D-06.
 Requested convergence on             energy=1.00D-06.
 No special actions if energy rises.
 SCF Done:  E(RM062X) =  -687.807210220     A.U. after   15 cycles
            NFock= 15  Conv=0.47D-08     -V/T= 2.0058
 Calling FoFJK, ICntrl=      2127 FMM=F ISym2X=0 I1Cent= 0 IOpClX= 0 NMat=1 NMatS=1 NMatT=0.
 ***** Axes restored to original set *****
 -------------------------------------------------------------------
 Center     Atomic                   Forces (Hartrees/Bohr)
 Number     Number              X              Y              Z
 -------------------------------------------------------------------
      1        6          -0.000054518    0.000106380   -0.000000054
      2        6          -0.001206243    0.000397523   -0.000000326
      3        6           0.000092275   -0.000620448   -0.000000531
      4        6          -0.000804033   -0.000211593   -0.000000440
      5        6           0.000343561    0.000172108   -0.000007678
      6        6          -0.000064806   -0.000078435    0.000000468
      7        8           0.000532472    0.000136957    0.000000195
      8        6          -0.000044798   -0.000115849    0.000005788
      9        6          -0.000010326    0.000000797    0.000061467
     10        8           0.000270275   -0.000368825    0.000001535
     11        6           0.000418828    0.000777976   -0.000000538
     12        6          -0.000403099   -0.000994177   -0.000208075
     13        8           0.000121443   -0.000212177    0.000083117
     14        8           0.000063448    0.000898517    0.000053657
     15        1           0.000016323    0.000159960    0.000000118
     16        1          -0.000226394   -0.000542770   -0.000000366
     17        1           0.000146420    0.000065181   -0.000000093
     18        1           0.000423008    0.000030439    0.000000025
     19        1           0.000122111   -0.000076532    0.000004833
     20        1          -0.000032127    0.000184637    0.000000927
     21        1          -0.000093486   -0.000032293   -0.000000106
     22        1           0.000178504    0.000048880    0.000090564
     23        1           0.000178671    0.000049282   -0.000090342
     24        1           0.000032490    0.000224462    0.000005853
 -------------------------------------------------------------------
 Cartesian Forces:  Max     0.001206243 RMS     0.000312605

 GradGradGradGradGradGradGradGradGradGradGradGradGradGradGradGradGradGrad
 Berny optimization.
 Using GEDIIS/GDIIS optimizer.
 FormGI is forming the generalized inverse of G from B-inverse, IUseBI=4.
 GSVD:  received Info=                   1 from GESDD.
 Internal  Forces:  Max     0.002503899 RMS     0.000414834
 Search for a local minimum.
 Step number   2 out of a maximum of  115
 All quantities printed in internal units (Hartrees-Bohrs-Radians)
 Mixed Optimization -- En-DIIS/RFO-DIIS
 Swapping is turned off.
 Update second derivatives using D2CorX and points    1    2
 DE= -1.03D-04 DEPred=-1.43D-04 R= 7.19D-01
 TightC=F SS=  1.41D+00  RLast= 3.34D-02 DXNew= 5.0454D-01 1.0005D-01
 Trust test= 7.19D-01 RLast= 3.34D-02 DXMaxT set to 3.00D-01
 ITU=  1  0
     Eigenvalues ---    0.00950   0.01207   0.01389   0.01489   0.01796
     Eigenvalues ---    0.01991   0.02050   0.02085   0.02099   0.02146
     Eigenvalues ---    0.02153   0.02155   0.02158   0.02183   0.02216
     Eigenvalues ---    0.02223   0.02306   0.02337   0.02869   0.10245
     Eigenvalues ---    0.10698   0.15426   0.16000   0.16000   0.16000
     Eigenvalues ---    0.16000   0.16000   0.16000   0.16000   0.16000
     Eigenvalues ---    0.16311   0.21977   0.22041   0.22353   0.23487
     Eigenvalues ---    0.24306   0.24895   0.25000   0.25000   0.25000
     Eigenvalues ---    0.25000   0.29637   0.33852   0.34148   0.34344
     Eigenvalues ---    0.34599   0.34871   0.35240   0.35441   0.35450
     Eigenvalues ---    0.36051   0.37073   0.41635   0.42232   0.43397
     Eigenvalues ---    0.45604   0.46529   0.47068   0.47682   0.52605
     Eigenvalues ---    0.53428   0.54499   0.54584   0.56590   0.57090
     Eigenvalues ---    1.02441
 En-DIIS/RFO-DIIS IScMMF=        0 using points:     2    1
 RFO step:  Lambda=-2.75553386D-05.
 DidBck=T Rises=F RFO-DIIS coefs:    0.77524    0.22476
 Iteration  1 RMS(Cart)=  0.00791408 RMS(Int)=  0.00001923
 Iteration  2 RMS(Cart)=  0.00003217 RMS(Int)=  0.00000072
 Iteration  3 RMS(Cart)=  0.00000000 RMS(Int)=  0.00000072
 Variable       Old X    -DE/DX   Delta X   Delta X   Delta X     New X
                                 (Linear)    (Quad)   (Total)
    R1        2.62721  -0.00018  -0.00053   0.00041  -0.00013   2.62708
    R2        2.62959  -0.00023  -0.00036   0.00009  -0.00027   2.62932
    R3        2.05641  -0.00015  -0.00155   0.00182   0.00027   2.05668
    R4        2.66023  -0.00067  -0.00064  -0.00028  -0.00091   2.65931
    R5        2.55521   0.00086  -0.00041   0.00178   0.00137   2.55658
    R6        2.62061   0.00076  -0.00042   0.00184   0.00142   2.62203
    R7        2.57911   0.00105   0.00013   0.00139   0.00152   2.58063
    R8        2.66039  -0.00023  -0.00018  -0.00011  -0.00030   2.66009
    R9        2.05696  -0.00048  -0.00139   0.00086  -0.00052   2.05644
   R10        2.64368  -0.00016  -0.00016  -0.00005  -0.00021   2.64347
   R11        2.77314   0.00012  -0.00035   0.00075   0.00040   2.77354
   R12        2.05585  -0.00015  -0.00143   0.00166   0.00023   2.05608
   R13        1.82690   0.00027   0.00059  -0.00043   0.00016   1.82706
   R14        2.53561   0.00012  -0.00033   0.00061   0.00029   2.53590
   R15        2.06935  -0.00008  -0.00129   0.00161   0.00032   2.06967
   R16        2.80712   0.00015   0.00027  -0.00003   0.00024   2.80737
   R17        2.05667  -0.00019  -0.00157   0.00176   0.00019   2.05687
   R18        2.67553   0.00070  -0.00021   0.00155   0.00134   2.67687
   R19        2.06419  -0.00010  -0.00137   0.00168   0.00032   2.06450
   R20        2.07706  -0.00015  -0.00140   0.00160   0.00019   2.07725
   R21        2.07706  -0.00015  -0.00140   0.00160   0.00019   2.07725
   R22        2.27470   0.00003   0.00035  -0.00046  -0.00011   2.27459
   R23        2.55909   0.00111  -0.00026   0.00195   0.00169   2.56078
   R24        1.81887   0.00014   0.00045  -0.00042   0.00003   1.81889
    A1        2.09715   0.00009   0.00004   0.00014   0.00018   2.09732
    A2        2.06790  -0.00010  -0.00020  -0.00006  -0.00026   2.06764
    A3        2.11814   0.00000   0.00016  -0.00008   0.00008   2.11822
    A4        2.08944   0.00034  -0.00006   0.00106   0.00100   2.09044
    A5        2.09307   0.00010   0.00058  -0.00046   0.00012   2.09319
    A6        2.10067  -0.00044  -0.00052  -0.00061  -0.00112   2.09955
    A7        2.09509  -0.00044   0.00015  -0.00152  -0.00137   2.09372
    A8        1.99348  -0.00131  -0.00149  -0.00201  -0.00350   1.98998
    A9        2.19462   0.00174   0.00134   0.00353   0.00486   2.19948
   A10        2.10198   0.00010   0.00007   0.00038   0.00045   2.10243
   A11        2.09746   0.00030   0.00023   0.00111   0.00134   2.09880
   A12        2.08375  -0.00039  -0.00031  -0.00149  -0.00179   2.08196
   A13        2.07575   0.00003  -0.00034   0.00062   0.00028   2.07604
   A14        2.06243  -0.00007  -0.00029   0.00016  -0.00013   2.06231
   A15        2.14500   0.00004   0.00063  -0.00078  -0.00016   2.14484
   A16        2.10696  -0.00012   0.00014  -0.00069  -0.00055   2.10641
   A17        2.07614   0.00001  -0.00013   0.00018   0.00005   2.07619
   A18        2.10008   0.00011  -0.00001   0.00050   0.00050   2.10058
   A19        1.88758   0.00060   0.00209  -0.00002   0.00207   1.88965
   A20        2.21639   0.00017   0.00058  -0.00022   0.00036   2.21676
   A21        1.97683  -0.00021  -0.00061  -0.00004  -0.00065   1.97618
   A22        2.08996   0.00004   0.00003   0.00026   0.00029   2.09025
   A23        2.20159   0.00034   0.00052   0.00048   0.00101   2.20260
   A24        2.12471  -0.00014  -0.00020  -0.00018  -0.00038   2.12433
   A25        1.95689  -0.00020  -0.00032  -0.00031  -0.00063   1.95625
   A26        2.03978   0.00250   0.00331   0.00317   0.00648   2.04626
   A27        1.85347  -0.00009  -0.00009  -0.00054  -0.00063   1.85284
   A28        1.93094   0.00013   0.00054  -0.00003   0.00051   1.93146
   A29        1.93094   0.00013   0.00054  -0.00002   0.00052   1.93146
   A30        1.91531  -0.00011  -0.00047  -0.00007  -0.00054   1.91478
   A31        1.91532  -0.00011  -0.00047  -0.00007  -0.00054   1.91478
   A32        1.91693   0.00004  -0.00008   0.00069   0.00061   1.91754
   A33        2.12606  -0.00025  -0.00041  -0.00021  -0.00062   2.12544
   A34        2.07342  -0.00003  -0.00008   0.00001  -0.00008   2.07334
   A35        2.08370   0.00028   0.00049   0.00021   0.00069   2.08439
   A36        1.93354   0.00034   0.00370  -0.00351   0.00019   1.93373
    D1       -0.00000  -0.00000  -0.00000  -0.00001  -0.00001  -0.00001
    D2        3.14159  -0.00000  -0.00000  -0.00001  -0.00001   3.14158
    D3       -3.14159   0.00000   0.00000   0.00000   0.00000  -3.14159
    D4        0.00000  -0.00000   0.00000  -0.00000  -0.00000  -0.00000
    D5        0.00000   0.00000   0.00000   0.00001   0.00001   0.00001
    D6        3.14159   0.00000   0.00000   0.00001   0.00001  -3.14158
    D7        3.14159  -0.00000  -0.00000  -0.00000  -0.00000   3.14159
    D8       -0.00000  -0.00000   0.00000   0.00000   0.00000  -0.00000
    D9       -0.00000  -0.00000   0.00000  -0.00001  -0.00001  -0.00001
   D10       -3.14159  -0.00000  -0.00000  -0.00001  -0.00001   3.14158
   D11        3.14159   0.00000   0.00000  -0.00000  -0.00000   3.14159
   D12        0.00001  -0.00000  -0.00000  -0.00001  -0.00001  -0.00000
   D13       -3.14156   0.00000  -0.00000   0.00000   0.00000  -3.14156
   D14        0.00003  -0.00000  -0.00000  -0.00000  -0.00000   0.00002
   D15        0.00001   0.00000  -0.00000   0.00002   0.00002   0.00003
   D16        3.14159  -0.00000   0.00000  -0.00000  -0.00000   3.14159
   D17        3.14159   0.00000   0.00000   0.00003   0.00003  -3.14157
   D18       -0.00001   0.00000   0.00000   0.00000   0.00001  -0.00001
   D19       -3.14143  -0.00000   0.00001  -0.00002  -0.00001  -3.14144
   D20        0.00018  -0.00000   0.00001  -0.00003  -0.00002   0.00016
   D21       -0.00001  -0.00000   0.00000  -0.00002  -0.00001  -0.00002
   D22        3.14159  -0.00000  -0.00000  -0.00004  -0.00004   3.14155
   D23       -3.14159   0.00000  -0.00000   0.00001   0.00001  -3.14158
   D24        0.00001  -0.00000  -0.00000  -0.00002  -0.00002  -0.00001
   D25        0.00000   0.00000  -0.00000   0.00000   0.00000   0.00000
   D26       -3.14159   0.00000  -0.00000   0.00000  -0.00000  -3.14159
   D27       -3.14159   0.00000   0.00000   0.00002   0.00002  -3.14157
   D28        0.00000   0.00000  -0.00000   0.00002   0.00002   0.00003
   D29       -3.14143   0.00000  -0.00002   0.00004   0.00002  -3.14141
   D30        0.00005   0.00000  -0.00001   0.00006   0.00006   0.00011
   D31        0.00017  -0.00000  -0.00002   0.00001  -0.00000   0.00016
   D32       -3.14155   0.00000  -0.00001   0.00004   0.00003  -3.14151
   D33        3.14143   0.00001   0.00003   0.00018   0.00021  -3.14154
   D34        0.00005   0.00001   0.00001   0.00013   0.00014   0.00020
   D35       -0.00003   0.00001   0.00002   0.00015   0.00017   0.00013
   D36       -3.14141   0.00000  -0.00000   0.00010   0.00010  -3.14131
   D37       -3.14156   0.00005   0.00018   0.00281   0.00299  -3.13857
   D38        0.00150  -0.00005  -0.00024  -0.00219  -0.00243  -0.00093
   D39       -0.00016   0.00005   0.00020   0.00285   0.00305   0.00289
   D40       -3.14029  -0.00005  -0.00022  -0.00215  -0.00237   3.14053
   D41        3.14146   0.00000  -0.00000   0.00002   0.00001   3.14148
   D42       -1.06435  -0.00011  -0.00032  -0.00040  -0.00072  -1.06507
[...]
 8,0.00782903,-0.02033642,-0.00001177,-0.00291527,-0.00357017,0.0000005
 3,-0.00088248,0.00175243,0.00000065,0.00125716,-0.00231398,0.00000933,
 0.00000096,0.00028495,-0.00000609,0.00164813,-0.00219640,0.00000041,-0
 .00297291,0.00032196,0.00000475,-0.00036738,-0.00014379,0.00000266,0.0
 0026307,0.00013447,-0.00000026,0.00011929,0.00005252,-0.00000050,0.000
 04904,0.00002800,-0.00000006,0.07157339,-0.00026034,0.00088947,-0.0000
 0192,0.00147620,0.00141245,-0.00000191,-0.00041072,-0.00531559,-0.0000
 0128,0.06376719,-0.33089041,-0.00003874,0.00700457,-0.01588543,-0.0000
 0246,-0.00434751,-0.00094290,-0.00000135,0.00027830,-0.00046932,-0.000
 00025,0.00249571,0.00033952,0.00000084,-0.00048820,0.00047982,0.000000
 35,-0.00018851,-0.00100173,0.00000261,-0.00271356,-0.00140712,0.000003
 54,0.00000080,-0.00017402,0.00000019,0.00002567,0.00004009,-0.00000023
 ,0.00001103,0.00011976,-0.00000013,0.00007417,-0.00006773,0.00000149,-
 0.06347829,0.35327107,0.00000235,-0.00000340,-0.00126863,0.00000031,0.
 00000018,0.00651393,-0.00000491,-0.00000729,0.00458741,0.00001030,-0.0
 0003086,-0.03329822,-0.00000988,-0.00000792,0.00229435,0.00000393,-0.0
 0000362,0.00522838,-0.00000236,0.00000109,-0.00051499,0.00001077,-0.00
 001014,-0.00368363,-0.00000525,-0.00000031,0.00006632,0.00000010,-0.00
 000188,-0.00330102,0.00000153,-0.00000150,-0.00018389,0.00000056,-0.00
 000074,0.00031442,0.00000070,0.00000054,-0.00011105,-0.00000090,-0.000
 00054,-0.00010905,-0.00000129,0.00000852,-0.00029745,-0.00000423,0.000
 04419,0.02363017,-0.01578355,-0.02113179,-0.00000671,-0.00325740,0.003
 28929,0.00000338,-0.00059538,0.00103661,0.00000229,0.00090266,0.001867
 13,-0.00000481,0.00923712,0.00452506,0.00000133,-0.20830410,-0.1421675
 7,-0.00001910,-0.00132768,-0.00137489,-0.00000124,-0.00078720,-0.00113
 902,0.00000169,-0.00018916,0.00101869,-0.00000168,0.00018252,-0.000142
 78,0.00000145,0.00000417,0.00004181,0.00000502,-0.00017879,0.00001807,
 -0.00000035,0.00012933,0.00000736,-0.00000020,0.00010952,-0.00011757,0
 .00000023,0.00110496,-0.00006740,0.00000129,0.00031358,0.00044245,0.00
 000069,0.22143391,0.01003526,0.00980730,-0.00000006,0.00265080,0.00019
 101,-0.00000509,0.00088047,-0.00037836,0.00000128,0.00230606,-0.005704
 63,-0.00000288,-0.02457329,-0.01300534,-0.00000213,-0.14301878,-0.1906
 2390,-0.00002333,0.00038215,0.00053460,0.00000005,-0.00082550,0.000745
 55,0.00000167,-0.00003859,-0.00028129,0.00000013,0.00003894,0.00028901
 ,0.00000474,0.00001355,-0.00013055,0.00000144,0.00046722,0.00028326,0.
 00000092,-0.00013583,0.00001812,-0.00000063,-0.00032548,0.00035925,-0.
 00000080,-0.00043856,0.00060392,0.00000003,-0.00111458,-0.00084603,0.0
 0000243,0.15222027,0.19766864,0.00000514,-0.00000315,0.00454385,-0.000
 00085,0.00000005,0.00703099,-0.00000322,-0.00000269,-0.00068532,0.0000
 0331,0.00000207,0.00612216,-0.00000754,-0.00000660,0.00376722,-0.00002
 074,-0.00002345,-0.03759171,-0.00000095,0.00000005,0.00010760,0.000005
 37,0.00000092,-0.00357222,-0.00000209,-0.00000348,0.00032443,0.0000003
 4,-0.00000074,-0.00045988,0.00000022,-0.00000059,-0.00019828,0.0000005
 5,0.00000027,-0.00021162,0.00000021,-0.00000007,-0.00009222,-0.0000008
 9,0.00000021,0.00011445,-0.00000200,0.00000736,-0.00457319,0.00000055,
 -0.00000055,0.00065598,0.00002222,0.00002605,0.02417889,-0.00457096,0.
 00483736,0.00000024,-0.03683271,-0.03611442,-0.00000640,-0.00147108,-0
 .00159243,0.00000024,-0.00103637,-0.00114088,-0.00000081,0.00083597,0.
 00024437,0.00000065,-0.00029146,-0.00177026,-0.00000009,-0.19714363,-0
 .19312723,-0.00003536,-0.00064472,0.00022114,-0.00000016,0.00064263,-0
 .00007761,0.00000045,0.00026719,-0.00129911,0.,0.00109016,0.00137254,-
 0.00000021,-0.00078944,0.00028194,-0.00000011,0.00043360,0.00007323,-0
 .00000031,0.00017128,-0.00022274,0.00000010,0.00021533,0.00016653,-0.0
 0000018,0.00030072,-0.00013810,0.00000018,-0.00033373,0.00018710,0.000
 00020,0.23904878,0.00572057,-0.00015098,-0.00000094,0.00445866,0.01399
 571,0.00000407,0.00996700,0.00190894,0.00000013,-0.00206439,-0.0004666
 4,0.00000002,0.00129050,-0.00078814,0.00000145,-0.00101817,0.00097069,
 0.00000028,-0.24413746,-0.36399214,-0.00006127,-0.00101305,0.00014499,
 -0.00000112,0.00070494,-0.00001359,0.00000076,-0.00179905,-0.00229887,
 -0.00000021,-0.00133374,-0.00218027,-0.00000066,-0.00064933,0.00038004
 ,-0.00000059,0.00029489,0.00000809,0.00000002,0.00011940,-0.00029281,0
 .00000033,0.00008882,0.00006534,0.00000004,0.00031011,-0.00008873,-0.0
 0000105,0.00022597,-0.00002177,-0.00000022,0.22910963,0.35164079,0.000
 00362,-0.00000501,0.00203099,0.00000191,0.00000491,-0.00314647,-0.0000
 0388,-0.00000245,0.00137119,0.00000641,0.00000138,-0.00049674,-0.00000
 581,-0.00000295,-0.00004732,0.00000005,-0.00000058,0.00160729,-0.00004
 543,-0.00006011,-0.00585650,0.00000802,-0.00000059,-0.00007957,-0.0000
 0526,-0.00000337,-0.00001695,-0.00000018,-0.00000086,-0.00140018,-0.00
 000035,-0.00000048,-0.00096446,0.00000269,-0.00000063,-0.00002091,-0.0
 0000035,-0.00000051,-0.00001127,-0.00000101,-0.00000005,-0.00000186,-0
 .00000118,0.00000525,-0.00053731,-0.00000044,0.00000028,0.00012856,0.,
 0.00000152,-0.00012926,0.00004179,0.00005842,0.00739187,0.00060597,0.0
 0160334,0.00000220,0.00020416,-0.00029385,0.00000308,-0.00023550,0.000
 02495,-0.00000083,0.00127056,0.00232573,0.00000087,-0.00041116,0.02865
 134,-0.00000116,-0.00593121,0.00065718,0.00000143,-0.00015666,-0.00011
 901,0.00000006,-0.05734209,0.01364430,-0.00000177,0.00692196,-0.026753
 87,0.00000112,-0.00005103,-0.00030330,-0.00000296,-0.00007874,0.000179
 76,0.00000289,0.00030554,-0.00096519,-0.00000025,0.00063816,0.00066154
 ,-0.00000052,-0.00157805,0.00093157,0.00000132,-0.00042225,0.00008867,
 -0.00000037,-0.00084039,-0.00094936,-0.00000196,0.00012641,0.00003951,
 -0.00000054,-0.00002435,0.00005426,-0.00000162,0.06616233,-0.00037892,
 -0.00071314,-0.00000278,-0.00051048,0.00042950,-0.00000400,0.00004130,
 -0.00024636,0.00000614,-0.00188711,0.00105540,-0.00001440,-0.00078800,
 -0.01277187,-0.00000317,0.00243414,0.00102042,0.00000420,0.00050113,-0
 .00002704,-0.00000052,0.01512322,-0.32154331,-0.00000044,0.00325808,-0
 .01575135,-0.00000309,0.00032681,0.00048154,0.00000700,0.00006260,-0.0
 0028739,-0.00000580,0.00194982,-0.00549449,0.00000633,-0.00024735,0.00
 174647,-0.00000299,0.00211705,0.00359252,-0.00000156,0.00025359,-0.000
 05264,-0.00000212,0.00039319,0.00070190,0.00000918,-0.00013702,0.00011
 243,0.00000328,-0.00003996,-0.00006283,0.00000367,-0.01917934,0.346136
 20,0.00000025,-0.00000140,-0.00022277,-0.00000049,0.00000261,0.0002460
 7,0.00000038,-0.00000160,-0.00012101,0.00000095,-0.00000437,-0.0012314
 8,0.00000420,0.00000190,0.00553013,-0.00000138,0.00000229,0.00259386,0
 .00000058,0.00000046,-0.00004737,-0.00000903,-0.00001113,-0.04282221,0
 .00000640,-0.00000264,0.00631838,0.00000032,-0.00000066,0.00002256,-0.
 00000145,0.00000131,0.00001861,-0.00000106,0.00000038,-0.00771120,0.00
 000353,0.00000128,0.00118430,-0.00000341,0.00000203,-0.00029714,-0.000
 00018,-0.00000192,-0.00029413,-0.00000135,0.00000009,0.00000332,-0.000
 00108,0.00000004,-0.00008353,0.,0.00000005,0.00002670,0.00000908,0.000
 00464,0.02437087,-0.00013491,0.00042129,-0.00000293,0.00007716,0.00003
 621,0.00000063,-0.00024991,0.00012757,0.00000110,0.00030408,0.00013722
 ,-0.00000208,-0.00007811,0.00130320,-0.00000086,-0.00039848,-0.0008972
 3,0.00000154,0.00001098,0.00006455,-0.00000038,0.00706437,-0.02724779,
 0.00000406,-0.05359524,0.00519818,0.00000858,0.00024891,0.00028044,0.0
 0000064,0.00002824,-0.00016341,-0.00000245,0.00203664,0.03124534,-0.00
 000946,0.00109276,-0.00242566,-0.00000192,-0.00612606,0.00364526,-0.00
 000147,-0.00003883,-0.00005892,0.00000120,0.00016531,0.00017186,0.0000
 0093,-0.00273441,0.00129408,0.00000078,-0.00000103,0.00000249,0.000000
 75,-0.00391093,-0.00265138,0.00000184,0.05695956,0.00013128,0.00046428
 ,0.00000309,-0.00007140,0.00001489,-0.00000765,-0.00006001,-0.00024561
 ,-0.00000283,-0.00032856,-0.00008716,0.00000774,0.00075033,-0.00097574
 ,-0.00000132,0.00055378,0.00007294,-0.00000653,0.00023347,0.00000345,0
 .00000079,0.00173753,-0.01122858,0.00000077,0.00957054,-0.34412302,0.0
 0006164,0.00008100,0.00017938,0.00000322,0.00003230,-0.00011023,-0.000
 00235,-0.00440833,-0.01132174,0.00000890,-0.00077171,0.00249659,-0.000
 00205,0.00233572,-0.00044648,-0.00000008,0.00000549,0.00002242,-0.0000
 0098,0.00004896,0.00009912,0.,0.00159455,0.00041849,0.00000045,-0.0000
 0796,-0.00003013,0.00000140,-0.00170343,0.00008270,0.00000533,-0.00965
 920,0.36416986,-0.00000090,0.00000171,-0.00046597,-0.00000030,0.000000
 26,-0.00031822,0.00000018,-0.00000412,-0.00002554,-0.00000243,0.000002
 56,-0.00011886,-0.00000044,-0.00000350,-0.00608431,0.00000148,-0.00000
 039,0.00021919,0.00000056,0.00000020,0.00019330,-0.00000502,-0.0000006
 3,0.00567941,0.00001088,0.00006759,-0.03980828,0.00000026,-0.00000077,
 0.00003928,0.00000084,-0.00000016,0.00002359,-0.00000525,-0.00000125,0
 .00348490,0.00000126,-0.00000010,-0.00175964,0.00000131,0.00000336,0.0
 0238303,0.00000024,0.00000097,0.00014024,0.00000123,0.00000066,0.00014
 874,0.00000161,0.00000064,0.00076470,-0.00000008,-0.00000051,0.0000473
 2,0.00000145,0.00000104,0.01056446,-0.00000407,-0.00006711,0.02499919,
 -0.00014771,0.00003641,-0.00000249,0.00022350,0.00033860,0.00000259,0.
 00116548,0.00212753,0.00000154,-0.00086449,0.00057417,-0.00000216,0.00
 034840,-0.00008719,0.00000333,-0.00004488,-0.00017101,0.00000110,0.000
 15143,-0.00015058,-0.00000032,0.00010032,0.00001961,-0.00000282,-0.000
 10905,0.00000598,0.00000166,0.00925974,0.00487046,0.00000111,-0.289297
 19,-0.11065929,-0.00003823,0.00019274,-0.00005944,-0.00000115,-0.00011
 326,-0.00001574,0.00000004,-0.00004917,0.00005581,0.00000013,0.0000161
 2,0.00000194,-0.00000005,0.00034864,-0.00060224,-0.00000071,0.00001112
 ,-0.00004539,-0.00000014,-0.00008706,0.00007535,0.00000025,0.00001874,
 -0.00000427,0.,0.00000203,-0.00000287,-0.00000051,0.30162910,0.0006244
 0,-0.00038869,-0.00000100,-0.00225515,-0.00079702,0.00000021,0.0039789
 9,-0.00439283,-0.00000055,0.00119200,-0.00038247,-0.00000306,-0.000435
 41,0.00009582,-0.00000028,-0.00014203,0.00019241,0.00000153,0.00041951
 ,0.00010360,-0.00000026,0.00010308,-0.00010666,0.00000114,-0.00014071,
 0.00003108,-0.00000095,-0.03540268,-0.03049922,-0.00000624,-0.09488923
 ,-0.08709498,-0.00001385,0.00013052,-0.00007934,-0.00000009,-0.0000657
 7,0.00000146,-0.00000010,-0.00002959,0.00006667,-0.00000013,-0.0001379
 0,-0.00010090,-0.00000015,-0.00007778,0.00070096,0.00000137,-0.0000195
 0,0.00003738,0.00000032,-0.00022007,-0.00019016,0.00000029,-0.00003694
 ,0.00002430,-0.00000065,0.00001511,0.00001081,0.00000031,0.11361631,0.
 11312781,0.00000507,-0.00001003,-0.00001877,-0.00000163,0.00000470,0.0
 0040927,-0.00000062,0.00000329,0.00036619,0.00000664,-0.00000841,0.000
 31360,0.00000321,0.00000795,0.00015737,-0.00000209,0.00000303,-0.00000
 471,0.00000002,-0.00000060,-0.00012440,-0.00000037,0.00000816,0.000084
 81,-0.00000153,-0.00000113,-0.00001460,-0.00000851,-0.00000526,0.00012
 998,-0.00003445,-0.00001349,-0.04850947,0.00000113,-0.00000042,-0.0000
 0855,-0.00000019,-0.00000041,0.00000111,-0.00000055,-0.00000030,0.0000
 0248,-0.00000174,0.00000052,-0.00004259,-0.00000407,-0.00000150,-0.000
 45928,-0.00000184,-0.00000207,-0.00003682,-0.00000007,0.00000061,0.000
 12211,0.00000023,-0.00000335,0.00000930,0.00000027,-0.00000067,0.00000
 266,0.00003867,0.00001975,0.04462337,0.00026653,-0.00002054,-0.0000449
 3,0.00033087,-0.00033179,-0.00006008,0.00029937,-0.00049812,0.00091883
 ,0.00002879,0.00051575,0.00049994,-0.00013761,-0.00040586,-0.00037312,
 0.00001680,0.00038437,-0.00004105,-0.00027179,0.00014757,0.00007694,-0
 .00008605,0.00003316,-0.00002882,0.00012751,-0.00000812,0.00002085,-0.
 00149487,0.00717850,-0.00287359,-0.11824684,0.03137349,-0.11111736,-0.
 00018574,0.00006840,-0.00000495,0.00010673,0.00001424,0.00000338,0.000
 05217,-0.00006251,0.00000093,0.00002328,0.00001880,0.00000322,-0.00083
 718,-0.00104053,0.00121379,-0.00000170,0.00000372,0.00005668,0.0001386
 3,-0.00020391,-0.00010051,0.00002307,-0.00001909,0.00004222,-0.0000112
 9,-0.00000860,0.00000002,-0.01138997,0.00689091,-0.02372444,0.12328423
 ,0.00085956,0.00022598,-0.00005976,0.00011633,-0.00173475,-0.00067709,
 0.00567865,0.00498672,0.00138505,-0.00029267,0.00064805,-0.00001518,-0
 .00052503,-0.00072105,-0.00048288,-0.00063685,0.00053869,-0.00001792,-
 0.00057673,-0.00021426,-0.00009722,0.00012594,-0.00007804,0.00002020,-
 0.00014418,0.00001176,0.00001412,0.01918626,-0.03054600,0.02932577,0.0
 2668880,-0.06074421,0.04609912,0.00012824,-0.00005888,0.00000373,-0.00
 006372,-0.00000711,-0.00000290,-0.00002822,0.00004954,-0.00000050,-0.0
 0002205,-0.00000728,0.00006930,-0.00108714,-0.00048998,0.00088779,-0.0
 0001326,0.00002987,0.00006016,-0.00041310,0.00069008,0.00028436,-0.000
 00123,0.00002367,0.00000817,0.00000827,0.00000957,-0.00000054,-0.00495
 081,0.00483393,-0.01071130,-0.03946032,0.07852035,-0.00011985,-0.00013
 180,-0.00005566,0.00027528,0.00032392,-0.00006366,-0.00108056,-0.00089
 214,0.00006076,-0.00159035,0.00097857,0.00014927,0.00045033,-0.0002869
 0,-0.00002660,0.00007425,-0.00005392,-0.00005428,0.00015705,-0.0001258
 1,0.00002744,-0.00003109,0.00012805,-0.00004279,0.00002557,-0.00004279
 ,0.00002194,0.00238921,0.00452150,0.00711948,-0.11159012,0.05304942,-0
 .23431367,0.00003898,0.00007013,-0.00000404,-0.00004392,-0.00003573,0.
 00000804,-0.00000679,-0.00005675,0.00001276,0.00002394,0.00002000,0.00
 000837,0.00101119,-0.00033676,-0.00024367,0.00000721,-0.00006834,0.000
 01797,0.00004953,-0.00017469,-0.00001666,0.00005963,-0.00002378,-0.000
 00716,-0.00001595,-0.00000800,-0.00000936,0.00184789,-0.00114471,0.001
 49853,0.12179184,-0.06091832,0.24496916,0.00027596,-0.00003032,0.00004
 597,0.00033263,-0.00032691,0.00005904,0.00028435,-0.00050909,-0.000920
 86,0.00004567,0.00052613,-0.00049631,-0.00015703,-0.00042079,0.0003740
 7,0.00001939,0.00037787,0.00003924,-0.00027649,0.00014853,-0.00007679,
 -0.00006233,0.00002716,0.00002753,0.00011294,-0.00001825,-0.00001944,-
 0.00149437,0.00717274,0.00287787,-0.11825396,0.03132025,0.11113341,-0.
 00017763,0.00006791,0.00000491,0.00010611,0.00001269,-0.00000348,0.000
 04910,-0.00006305,-0.00000070,0.00001856,0.00003924,-0.00000336,-0.000
 83422,-0.00103660,-0.00121477,-0.00000052,0.00001096,-0.00005682,0.000
 13948,-0.00020511,0.00010021,0.00001812,-0.00000487,-0.00004189,-0.000
 01011,-0.00000421,-0.00000032,-0.01139034,0.00688111,0.02372697,0.0079
 8750,-0.00458318,-0.01374662,0.12328853,0.00085907,0.00022760,0.000063
 42,0.00011786,-0.00173598,0.00067188,0.00567740,0.00498929,-0.00138525
 ,-0.00029217,0.00064904,0.00002021,-0.00052539,-0.00072236,0.00047913,
 -0.00063863,0.00053818,0.00001447,-0.00057672,-0.00021452,0.00009801,0
 .00012615,-0.00007977,-0.00001798,-0.00014390,0.00001280,-0.00001502,0
 .01918820,-0.03053056,-0.02934071,0.02663640,-0.06069686,-0.04601227,0
 .00012783,-0.00005904,-0.00000209,-0.00006354,-0.00000692,0.00000283,-
 0.00002816,0.00004945,0.00000016,-0.00002151,-0.00000756,-0.00006935,-
 0.00108550,-0.00048845,-0.00088668,-0.00001241,0.00003008,-0.00005979,
 -0.00041287,0.00069012,-0.00028442,-0.00000126,0.00002403,-0.00000779,
 0.00000844,0.00000937,0.00000119,-0.00494997,0.00482853,0.01071089,-0.
 00459061,0.00404711,0.00518641,-0.03940520,0.07846010,0.00012850,0.000
 11321,-0.00005811,-0.00027792,-0.00031832,-0.00006461,0.00107752,0.000
 89640,0.00006191,0.00160060,-0.00097785,0.00014666,-0.00045711,0.00028
 637,-0.00002551,-0.00007217,0.00006403,-0.00005411,-0.00015899,0.00012
 625,0.00002724,0.00003912,-0.00012479,-0.00004312,-0.00003194,0.000040
 28,0.00002255,-0.00238031,-0.00453689,0.00710534,0.11160344,-0.0529662
 8,-0.23433869,-0.00003810,-0.00007125,-0.00000397,0.00004392,0.0000357
 1,0.00000755,0.00000591,0.00005599,0.00001242,-0.00002609,-0.00001283,
 0.00000885,-0.00101231,0.00033296,-0.00024219,-0.00001119,0.00006487,0
 .00001833,-0.00004946,0.00017504,-0.00001545,-0.00005966,0.00002590,-0
 .00000712,0.00001722,0.00000775,-0.00000872,-0.00184994,0.00114709,0.0
 0150563,0.01374352,-0.00517618,-0.01903669,-0.12181114,0.06083488,0.24
 500153,-0.00006919,-0.00023140,-0.00000037,-0.00020620,0.00012020,-0.0
 0000043,-0.00025250,-0.00017909,0.00000018,0.00006946,0.00012553,-0.00
 000007,-0.00106346,-0.00136884,0.00000050,0.00049632,-0.00000288,-0.00
 000057,0.00026137,-0.00007885,-0.00000007,0.00052874,0.00722629,0.0000
 0150,-0.00218993,0.00086237,-0.00000260,0.00027522,0.00019269,0.000000
 72,-0.00000272,-0.00009370,-0.00000049,0.00693063,-0.00360640,-0.00001
 249,0.00353408,0.00533196,-0.00000097,-0.42774543,-0.21946139,0.000819
 38,0.00006382,-0.00001688,0.00000002,-0.00016534,-0.00009400,0.0000001
 3,-0.00006169,-0.00001407,0.00000018,-0.00005724,0.00000163,0.00000031
 ,-0.00531266,-0.00061315,-0.00000843,-0.00070073,-0.00004867,-0.000002
 01,0.00002574,0.00000080,-0.00000013,-0.00002244,0.00000645,0.00002334
 ,-0.00002133,0.00000650,-0.00002341,0.42568551,-0.00019396,-0.00013582
 ,0.00000014,0.00057860,-0.00025593,-0.00000112,0.00020384,0.00059128,0
 .00000053,0.00001251,0.00033729,-0.00000015,0.00016377,0.00039343,-0.0
 0000075,-0.00031075,-0.00001518,-0.00000044,-0.00075568,0.00012540,0.0
 0000004,0.00055157,0.00012100,-0.00000019,0.00029799,-0.00054651,-0.00
 000150,-0.00040939,-0.00060701,0.00000088,-0.00007642,0.00036195,-0.00
 000114,-0.04539665,-0.01843688,0.00006813,0.00207110,-0.01009470,0.000
 01635,-0.16940245,-0.14757651,0.00031591,-0.00004427,0.00002647,-0.000
 00036,0.00004699,0.00001326,0.00000064,0.00003597,-0.00013702,0.000000
 15,0.00008289,0.00008227,0.00000053,0.00144465,0.00151934,0.00000157,-
 0.00085590,0.00051480,-0.00000140,-0.00002337,-0.00002249,0.00000004,0
 .00002108,-0.00001373,0.00002242,0.00002299,-0.00001370,-0.00002231,0.
 21193490,0.17376900,-0.00000016,-0.00000029,0.00004572,-0.00000064,0.0
 0000023,0.00002072,-0.00000011,0.,0.00001221,0.00000042,-0.00000041,-0
 .00009603,-0.00000120,-0.00000392,-0.00045239,0.00000135,0.00000050,0.
 00002655,0.00000128,-0.00000029,-0.00002079,0.00000835,0.00000805,-0.0
 0049991,-0.00000507,-0.00000540,-0.00057650,0.00000072,0.00000109,-0.0
 0002941,-0.00000008,-0.00000040,0.00007961,0.00004631,-0.00000253,-0.0
 0671581,-0.00000170,0.00001243,0.00667781,0.00075493,0.00039562,-0.005
 71654,0.00000049,-0.00000110,0.00000166,-0.00000074,-0.00000012,0.0001
 4148,-0.00000022,-0.00000047,-0.00001251,-0.00000017,0.00000003,0.0000
 1489,-0.00001172,-0.00000340,0.00195656,0.00000202,-0.00000151,-0.0000
 9112,0.00000021,-0.00000001,-0.00000723,-0.00000330,0.00000200,-0.0000
 1948,0.00000332,-0.00000214,-0.00001971,-0.00079425,-0.00039796,0.0052
 8021\\-0.00000757,0.00004540,-0.00000007,-0.00004363,-0.00002879,-0.00
 000001,-0.00007110,-0.00000861,0.00000054,-0.00000669,-0.00003823,-0.0
 0000034,0.00003290,0.00001084,-0.00000085,0.00001327,0.00001790,0.0000
 0023,0.00001211,0.00002621,0.00000011,0.00002124,-0.00000799,-0.000000
 62,-0.00002775,-0.00003271,0.00000549,0.00004607,-0.00001794,-0.000000
 77,0.00001171,-0.00003698,0.00000039,-0.00001183,0.00008734,-0.0000150
 3,-0.00004823,-0.00011232,0.00000570,0.00004274,0.00003467,0.00000074,
 -0.00000861,-0.00000880,-0.00000003,-0.00000391,-0.00000186,-0.0000000
 7,0.00000330,-0.00000948,0.00000011,0.00003717,-0.00000582,-0.00000012
 ,0.00001503,0.00001501,-0.00000033,-0.00000916,0.00001552,0.00000052,0
 .00001425,-0.00000357,0.00000007,-0.00000489,0.00000852,-0.00001315,-0
 .00000498,0.00000847,0.00001306,-0.00000144,0.00004323,0.00000444\\\@


 THE WORLD IS MADE UP OF THE WILLS, THE WON'TS, AND THE CANT'S:
 THE WILLS DO EVERYTHING,
 THE WON'TS DO NOTHING,
 THE CAN'TS CAN'T DO ANYTHING.

                               -- FROM WALT DISNEY'S "BLACK HOLE"
 Job cpu time:       0 days  4 hours 31 minutes 49.5 seconds.
 File lengths (MBytes):  RWF=    635 Int=      0 D2E=      0 Chk=     13 Scr=      1
 Normal termination of Gaussian 09 at Sun Dec 15 01:04:39 2024.
