 Entering Gaussian System, Link 0=g09
 Input=B2PLYPD3BJSA.gjf
 Output=B2PLYPD3BJSA.log
 Initial command:
 /home/c612/g09E/g09/l1.exe "/mnt/ja_sm883/scratch/Gau-1882185.inp" -scrdir="/mnt/ja_sm883/scratch/"
 Default is to use a total of  18 processors:
                               18 via shared-memory
                                1 via Linda
 Entering Link 1 = /home/c612/g09E/g09/l1.exe PID=   1882187.
  
 Copyright (c) 1988,1990,1992,1993,1995,1998,2003,2009,2015,
            Gaussian, Inc.  All Rights Reserved.
  
 This is part of the Gaussian(R) 09 program.  It is based on
 the Gaussian(R) 03 system (copyright 2003, Gaussian, Inc.),
 the Gaussian(R) 98 system (copyright 1998, Gaussian, Inc.),
 the Gaussian(R) 94 system (copyright 1995, Gaussian, Inc.),
 the Gaussian 92(TM) system (copyright 1992, Gaussian, Inc.),
 the Gaussian 90(TM) system (copyright 1990, Gaussian, Inc.),
 the Gaussian 88(TM) system (copyright 1988, Gaussian, Inc.),
 the Gaussian 86(TM) system (copyright 1986, Carnegie Mellon
 University), and the Gaussian 82(TM) system (copyright 1983,
 Carnegie Mellon University). Gaussian is a federally registered
 trademark of Gaussian, Inc.
  
 This software contains proprietary and confidential information,
 including trade secrets, belonging to Gaussian, Inc.
  
 This software is provided under written license and may be
 used, copied, transmitted, or stored only in accord with that
 written license.
  
 The following legend is applicable only to US Government
 contracts under FAR:
  
                    RESTRICTED RIGHTS LEGEND
  
 Use, reproduction and disclosure by the US Government is
 subject to restrictions as set forth in subparagraphs (a)
 and (c) of the Commercial Computer Software - Restricted
 Rights clause in FAR 52.227-19.
  
 Gaussian, Inc.
 340 Quinnipiac St., Bldg. 40, Wallingford CT 06492
  
  
 ---------------------------------------------------------------
 Warning -- This program may not be used in any manner that
 competes with the business of Gaussian, Inc. or will provide
 assistance to any competitor of Gaussian, Inc.  The licensee
 of this program is prohibited from giving any competitor of
 Gaussian, Inc. access to this program.  By using this program,
 the user acknowledges that Gaussian, Inc. is engaged in the
 business of creating and licensing software in the field of
 computational chemistry and represents and warrants to the
 licensee that it is not a competitor of Gaussian, Inc. and that
 it will not use this program in any manner prohibited above.
 ---------------------------------------------------------------
  

 Cite this work as:
 Gaussian 09, Revision E.01,
 M. J. Frisch, G. W. Trucks, H. B. Schlegel, G. E. Scuseria, 
 M. A. Robb, J. R. Cheeseman, G. Scalmani, V. Barone, B. Mennucci, 
 G. A. Petersson, H. Nakatsuji, M. Caricato, X. Li, H. P. Hratchian, 
 A. F. Izmaylov, J. Bloino, G. Zheng, J. L. Sonnenberg, M. Hada, 
 M. Ehara, K. Toyota, R. Fukuda, J. Hasegawa, M. Ishida, T. Nakajima, 
 Y. Honda, O. Kitao, H. Nakai, T. Vreven, J. A. Montgomery, Jr., 
 J. E. Peralta, F. Ogliaro, M. Bearpark, J. J. Heyd, E. Brothers, 
 K. N. Kudin, V. N. Staroverov, T. Keith, R. Kobayashi, J. Normand, 
 K. Raghavachari, A. Rendell, J. C. Burant, S. S. Iyengar, J. Tomasi, 
 M. Cossi, N. Rega, J. M. Millam, M. Klene, J. E. Knox, J. B. Cross, 
 V. Bakken, C. Adamo, J. Jaramillo, R. Gomperts, R. E. Stratmann, 
 O. Yazyev, A. J. Austin, R. Cammi, C. Pomelli, J. W. Ochterski, 
 R. L. Martin, K. Morokuma, V. G. Zakrzewski, G. A. Voth, 
 P. Salvador, J. J. Dannenberg, S. Dapprich, A. D. Daniels, 
 O. Farkas, J. B. Foresman, J. V. Ortiz, J. Cioslowski, 
 and D. J. Fox, Gaussian, Inc., Wallingford CT, 2013.
 
 ******************************************
 Gaussian 09:  ES64L-G09RevE.01 30-Nov-2015
                18-Dec-2024 
 ******************************************
 %chk=B2PLYPD3BJSA.chk
 -------------------------------------------------------
 # opt freq B2PLYP/6-31+g(d,p) EmpiricalDispersion=GD3BJ
 -------------------------------------------------------
 1/18=20,19=15,38=1/1,3;
 2/9=110,12=2,17=6,18=5,40=1/2;
 3/5=1,6=6,7=111,11=9,16=1,25=1,30=1,71=1,74=-47,124=41/1,2,3;
 4//1;
 5/5=2,38=5/2;
 8/6=4,10=2/1;
 9/15=2,16=-3/6;
 10/5=1/2;
 6/7=2,8=2,9=2,10=2/1;
 7/12=2/1,2,3,16;
 1/18=20,19=15/3(2);
 2/9=110/2;
 99//99;
 2/9=110/2;
 3/5=1,6=6,7=111,11=9,16=1,25=1,30=1,71=1,74=-47,124=41/1,2,3;
 4/5=5,16=3,69=1/1;
 5/5=2,38=5/2;
 8/6=4,10=2/1;
 9/15=2,16=-3/6;
 10/5=1/2;
 7/12=2/1,2,3,16;
 1/18=20,19=15/3(-8);
 2/9=110/2;
 6/7=2,8=2,9=2,10=2/1;
 99//99;
 ----------
 [No Title]
 ----------
 Symbolic Z-matrix:
 Charge =  0 Multiplicity = 1
 C                    -2.38817  -0.2068    0.00004 
 C                    -1.9102    1.11233   0.00001 
 C                    -0.53303   1.33741  0. 
 C                     0.3807    0.26902  -0.00002 
 C                    -0.10406  -1.05127  -0.00003 
 C                    -1.47319  -1.27464   0.00001 
 O                    -3.71822  -0.43932   0.00008 
 O                    -2.86106   2.07846   0.00002 
 C                    -2.43659   3.42879  -0.00004 
 O                    -2.08454  -2.49822  -0.00001 
 C                    -1.26955  -3.65833  -0.00006 
 C                     1.80028   0.58453  -0.00002 
 C                     2.84409  -0.27058   0.00002 
 C                     4.21548   0.24749   0.00001 
 O                     5.12985  -0.75782   0.00006 
 O                     4.55218   1.41826  -0.00004 
 H                    -0.14816   2.35102   0.00003 
 H                     0.58695  -1.88514  -0.0001 
 H                    -3.84306  -1.40037   0.00001 
 H                    -3.3493    4.02576  -0.0001 
 H                    -1.84907   3.66499   0.89628 
 H                    -1.84902   3.66489  -0.89635 
 H                    -0.63975  -3.69766  -0.89687 
 H                    -0.63968  -3.69769   0.89671 
 H                    -1.95453  -4.50679  -0.00005 
 H                     2.05293   1.64471  -0.00005 
 H                     2.73125  -1.34984   0.00008 
 H                     6.00131  -0.33253   0.00004 
 

 GradGradGradGradGradGradGradGradGradGradGradGradGradGradGradGradGradGrad
 Berny optimization.
 Initialization pass.
                           ----------------------------
                           !    Initial Parameters    !
                           ! (Angstroms and Degrees)  !
 --------------------------                            --------------------------
 ! Name  Definition              Value          Derivative Info.                !
 --------------------------------------------------------------------------------
 ! R1    R(1,2)                  1.4031         estimate D2E/DX2                !
 ! R2    R(1,6)                  1.4062         estimate D2E/DX2                !
 ! R3    R(1,7)                  1.3502         estimate D2E/DX2                !
 ! R4    R(2,3)                  1.3954         estimate D2E/DX2                !
 ! R5    R(2,8)                  1.3556         estimate D2E/DX2                !
 ! R6    R(3,4)                  1.4058         estimate D2E/DX2                !
 ! R7    R(3,17)                 1.0842         estimate D2E/DX2                !
 ! R8    R(4,5)                  1.4065         estimate D2E/DX2                !
 ! R9    R(4,12)                 1.4542         estimate D2E/DX2                !
 ! R10   R(5,6)                  1.3872         estimate D2E/DX2                !
 ! R11   R(5,18)                 1.083          estimate D2E/DX2                !
 ! R12   R(6,10)                 1.3678         estimate D2E/DX2                !
 ! R13   R(7,19)                 0.9691         estimate D2E/DX2                !
 ! R14   R(8,9)                  1.4155         estimate D2E/DX2                !
 ! R15   R(9,20)                 1.0906         estimate D2E/DX2                !
 ! R16   R(9,21)                 1.0974         estimate D2E/DX2                !
 ! R17   R(9,22)                 1.0974         estimate D2E/DX2                !
 ! R18   R(10,11)                1.4178         estimate D2E/DX2                !
 ! R19   R(11,23)                1.0966         estimate D2E/DX2                !
 ! R20   R(11,24)                1.0966         estimate D2E/DX2                !
 ! R21   R(11,25)                1.0905         estimate D2E/DX2                !
 ! R22   R(12,13)                1.3494         estimate D2E/DX2                !
 ! R23   R(12,26)                1.0899         estimate D2E/DX2                !
 ! R24   R(13,14)                1.466          estimate D2E/DX2                !
 ! R25   R(13,27)                1.0851         estimate D2E/DX2                !
 ! R26   R(14,15)                1.3589         estimate D2E/DX2                !
 ! R27   R(14,16)                1.2182         estimate D2E/DX2                !
 ! R28   R(15,28)                0.9697         estimate D2E/DX2                !
 ! A1    A(2,1,6)              119.4911         estimate D2E/DX2                !
 ! A2    A(2,1,7)              119.8339         estimate D2E/DX2                !
 ! A3    A(6,1,7)              120.6751         estimate D2E/DX2                !
 ! A4    A(1,2,3)              119.1997         estimate D2E/DX2                !
 ! A5    A(1,2,8)              115.5386         estimate D2E/DX2                !
 ! A6    A(3,2,8)              125.2617         estimate D2E/DX2                !
 ! A7    A(2,3,4)              121.2562         estimate D2E/DX2                !
 ! A8    A(2,3,17)             120.0743         estimate D2E/DX2                !
 ! A9    A(4,3,17)             118.6695         estimate D2E/DX2                !
 ! A10   A(3,4,5)              119.3003         estimate D2E/DX2                !
 ! A11   A(3,4,12)             118.0075         estimate D2E/DX2                !
 ! A12   A(5,4,12)             122.6922         estimate D2E/DX2                !
 ! A13   A(4,5,6)              119.4276         estimate D2E/DX2                !
 ! A14   A(4,5,18)             120.1914         estimate D2E/DX2                !
 ! A15   A(6,5,18)             120.3811         estimate D2E/DX2                !
 ! A16   A(1,6,5)              121.3251         estimate D2E/DX2                !
 ! A17   A(1,6,10)             112.8603         estimate D2E/DX2                !
 ! A18   A(5,6,10)             125.8146         estimate D2E/DX2                !
 ! A19   A(1,7,19)             107.3173         estimate D2E/DX2                !
 ! A20   A(2,8,9)              118.0057         estimate D2E/DX2                !
 ! A21   A(8,9,20)             105.737          estimate D2E/DX2                !
 ! A22   A(8,9,21)             111.459          estimate D2E/DX2                !
 ! A23   A(8,9,22)             111.4588         estimate D2E/DX2                !
 ! A24   A(20,9,21)            109.2845         estimate D2E/DX2                !
 ! A25   A(20,9,22)            109.2846         estimate D2E/DX2                !
 ! A26   A(21,9,22)            109.5195         estimate D2E/DX2                !
 ! A27   A(6,10,11)            118.3631         estimate D2E/DX2                !
 ! A28   A(10,11,23)           111.0712         estimate D2E/DX2                !
 ! A29   A(10,11,24)           111.0712         estimate D2E/DX2                !
 ! A30   A(10,11,25)           105.9966         estimate D2E/DX2                !
 ! A31   A(23,11,24)           109.7327         estimate D2E/DX2                !
 ! A32   A(23,11,25)           109.4433         estimate D2E/DX2                !
 ! A33   A(24,11,25)           109.4441         estimate D2E/DX2                !
 ! A34   A(4,12,13)            128.144          estimate D2E/DX2                !
 ! A35   A(4,12,26)            115.9351         estimate D2E/DX2                !
 ! A36   A(13,12,26)           115.9208         estimate D2E/DX2                !
 ! A37   A(12,13,14)           119.9796         estimate D2E/DX2                !
 ! A38   A(12,13,27)           123.3565         estimate D2E/DX2                !
 ! A39   A(14,13,27)           116.6639         estimate D2E/DX2                !
 ! A40   A(13,14,15)           111.5923         estimate D2E/DX2                !
 ! A41   A(13,14,16)           126.7397         estimate D2E/DX2                !
 ! A42   A(15,14,16)           121.668          estimate D2E/DX2                !
 ! A43   A(14,15,28)           106.2744         estimate D2E/DX2                !
 ! D1    D(6,1,2,3)             -0.0016         estimate D2E/DX2                !
 ! D2    D(6,1,2,8)            179.9993         estimate D2E/DX2                !
 ! D3    D(7,1,2,3)            179.9986         estimate D2E/DX2                !
 ! D4    D(7,1,2,8)             -0.0006         estimate D2E/DX2                !
 ! D5    D(2,1,6,5)              0.0003         estimate D2E/DX2                !
 ! D6    D(2,1,6,10)          -179.9978         estimate D2E/DX2                !
 ! D7    D(7,1,6,5)           -179.9998         estimate D2E/DX2                !
 ! D8    D(7,1,6,10)             0.0021         estimate D2E/DX2                !
 ! D9    D(2,1,7,19)           179.9951         estimate D2E/DX2                !
 ! D10   D(6,1,7,19)            -0.0048         estimate D2E/DX2                !
 ! D11   D(1,2,3,4)              0.0014         estimate D2E/DX2                !
 ! D12   D(1,2,3,17)          -179.997          estimate D2E/DX2                !
 ! D13   D(8,2,3,4)           -179.9996         estimate D2E/DX2                !
 ! D14   D(8,2,3,17)             0.0021         estimate D2E/DX2                !
 ! D15   D(1,2,8,9)           -179.9984         estimate D2E/DX2                !
 ! D16   D(3,2,8,9)              0.0025         estimate D2E/DX2                !
 ! D17   D(2,3,4,5)              0.0001         estimate D2E/DX2                !
 ! D18   D(2,3,4,12)          -179.9994         estimate D2E/DX2                !
 ! D19   D(17,3,4,5)           179.9985         estimate D2E/DX2                !
 ! D20   D(17,3,4,12)           -0.001          estimate D2E/DX2                !
 ! D21   D(3,4,5,6)             -0.0013         estimate D2E/DX2                !
 ! D22   D(3,4,5,18)           179.9962         estimate D2E/DX2                !
 ! D23   D(12,4,5,6)           179.9981         estimate D2E/DX2                !
 ! D24   D(12,4,5,18)           -0.0044         estimate D2E/DX2                !
 ! D25   D(3,4,12,13)          179.9968         estimate D2E/DX2                !
 ! D26   D(3,4,12,26)           -0.0027         estimate D2E/DX2                !
 ! D27   D(5,4,12,13)           -0.0027         estimate D2E/DX2                !
 ! D28   D(5,4,12,26)          179.9978         estimate D2E/DX2                !
 ! D29   D(4,5,6,1)              0.0011         estimate D2E/DX2                !
 ! D30   D(4,5,6,10)           179.999          estimate D2E/DX2                !
 ! D31   D(18,5,6,1)          -179.9964         estimate D2E/DX2                !
 ! D32   D(18,5,6,10)            0.0015         estimate D2E/DX2                !
 ! D33   D(1,6,10,11)          179.999          estimate D2E/DX2                !
 ! D34   D(5,6,10,11)            0.0009         estimate D2E/DX2                !
 ! D35   D(2,8,9,20)           179.9959         estimate D2E/DX2                !
 ! D36   D(2,8,9,21)           -61.355          estimate D2E/DX2                !
 ! D37   D(2,8,9,22)            61.3469         estimate D2E/DX2                !
 ! D38   D(6,10,11,23)         -61.2141         estimate D2E/DX2                !
 ! D39   D(6,10,11,24)          61.2114         estimate D2E/DX2                !
 ! D40   D(6,10,11,25)         179.9992         estimate D2E/DX2                !
 ! D41   D(4,12,13,14)        -180.0            estimate D2E/DX2                !
 ! D42   D(4,12,13,27)          -0.0008         estimate D2E/DX2                !
 ! D43   D(26,12,13,14)         -0.0005         estimate D2E/DX2                !
 ! D44   D(26,12,13,27)        179.9987         estimate D2E/DX2                !
 ! D45   D(12,13,14,15)       -179.9997         estimate D2E/DX2                !
 ! D46   D(12,13,14,16)         -0.0005         estimate D2E/DX2                !
 ! D47   D(27,13,14,15)          0.0011         estimate D2E/DX2                !
 ! D48   D(27,13,14,16)       -179.9998         estimate D2E/DX2                !
 ! D49   D(13,14,15,28)        179.9996         estimate D2E/DX2                !
 ! D50   D(16,14,15,28)          0.0004         estimate D2E/DX2                !
 --------------------------------------------------------------------------------
 Trust Radius=3.00D-01 FncErr=1.00D-07 GrdErr=1.00D-07
 Number of steps in this run=    131 maximum allowed number of steps=    168.
 GradGradGradGradGradGradGradGradGradGradGradGradGradGradGradGradGradGrad

                          Input orientation:                          
 ---------------------------------------------------------------------
 Center     Atomic      Atomic             Coordinates (Angstroms)
 Number     Number       Type             X           Y           Z
 ---------------------------------------------------------------------
      1          6           0       -2.388170   -0.206797    0.000035
      2          6           0       -1.910195    1.112333    0.000010
      3          6           0       -0.533033    1.337412   -0.000004
      4          6           0        0.380699    0.269019   -0.000022
      5          6           0       -0.104059   -1.051265   -0.000028
      6          6           0       -1.473194   -1.274642    0.000012
      7          8           0       -3.718223   -0.439319    0.000078
      8          8           0       -2.861061    2.078459    0.000019
      9          6           0       -2.436589    3.428789   -0.000041
     10          8           0       -2.084538   -2.498224   -0.000008
     11          6           0       -1.269547   -3.658330   -0.000055
     12          6           0        1.800277    0.584534   -0.000022
     13          6           0        2.844090   -0.270582    0.000022
     14          6           0        4.215479    0.247493    0.000014
     15          8           0        5.129845   -0.757822    0.000056
     16          8           0        4.552176    1.418264   -0.000039
     17          1           0       -0.148160    2.351016    0.000026
     18          1           0        0.586946   -1.885143   -0.000104
     19          1           0       -3.843058   -1.400372    0.000010
     20          1           0       -3.349295    4.025761   -0.000097
     21          1           0       -1.849071    3.664993    0.896278
     22          1           0       -1.849024    3.664894   -0.896354
     23          1           0       -0.639749   -3.697661   -0.896868
     24          1           0       -0.639680   -3.697685    0.896706
     25          1           0       -1.954532   -4.506792   -0.000049
     26          1           0        2.052931    1.644712   -0.000054
     27          1           0        2.731252   -1.349843    0.000077
     28          1           0        6.001311   -0.332533    0.000041
 ---------------------------------------------------------------------
                    Distance matrix (angstroms):
                    1          2          3          4          5
     1  C    0.000000
     2  C    1.403055   0.000000
     3  C    2.413735   1.395434   0.000000
     4  C    2.809455   2.441183   1.405834   0.000000
     5  C    2.435219   2.818383   2.426890   1.406464   0.000000
     6  C    1.406227   2.426648   2.776100   2.412428   1.387238
     7  O    1.350225   2.382559   3.647219   4.159676   3.665605
     8  O    2.333671   1.355561   2.443126   3.712557   4.170879
     9  C    3.635908   2.375512   2.827964   4.233351   5.050899
    10  O    2.311456   3.614764   4.137544   3.706080   2.452751
    11  C    3.628277   4.813487   5.049742   4.259974   2.855722
    12  C    4.262545   3.747823   2.451767   1.454218   2.510445
    13  C    5.232649   4.951331   3.740402   2.521798   3.049762
    14  C    6.619257   6.186423   4.871990   3.834840   4.510563
    15  O    7.538181   7.284205   6.038062   4.858888   5.242124
    16  O    7.128059   6.469608   5.085852   4.326891   5.270588
    17  H    3.400008   2.153858   1.084214   2.148116   3.402567
    18  H    3.415869   3.901356   3.411629   2.164013   1.082978
    19  H    1.881840   3.170118   4.295547   4.541695   3.755262
    20  H    4.340312   3.249473   3.893399   5.293956   6.025591
    21  H    4.010566   2.706124   2.820091   4.160273   5.107986
    22  H    4.010509   2.706063   2.820009   4.160173   5.107882
    23  H    4.005938   5.055142   5.115439   4.192875   2.845118
    24  H    4.005937   5.055150   5.115434   4.192855   2.845094
    25  H    4.321805   5.619300   6.014597   5.316171   3.919811
    26  H    4.811597   3.998724   2.604159   2.165385   3.452665
    27  H    5.245478   5.254079   4.228108   2.854087   2.850989
    28  H    8.390423   8.042361   6.744358   5.652711   6.147529
                    6          7          8          9         10
     6  C    0.000000
     7  O    2.395396   0.000000
     8  O    3.628975   2.659687   0.000000
     9  C    4.801082   4.074904   1.415474   0.000000
    10  O    1.367806   2.628311   4.642092   5.937459   0.000000
    11  C    2.392371   4.044508   5.953458   7.182565   1.417765
    12  C    3.764591   5.612675   4.894883   5.103021   4.959353
    13  C    4.432502   6.564482   6.169825   6.447551   5.408675
    14  C    5.888794   7.963375   7.309573   7.373646   6.872349
    15  O    6.623234   8.853799   8.479332   8.647464   7.421342
    16  O    6.599760   8.476445   7.442576   7.272211   7.706157
    17  H    3.860196   4.531150   2.726558   2.529526   5.221560
    18  H    2.148695   4.541463   5.253465   6.113889   2.740930
    19  H    2.373197   0.969127   3.614773   5.029806   2.073083
    20  H    5.622635   4.480295   2.007575   1.090600   6.645449
    21  H    5.034339   4.598074   2.084345   1.097432   6.232497
    22  H    5.034256   4.598050   2.084341   1.097431   6.232409
    23  H    2.714783   4.571467   6.253175   7.404000   2.080967
    24  H    2.714764   4.571468   6.253193   7.404031   2.080965
    25  H    3.267794   4.433390   6.647355   7.950209   2.012771
    26  H    4.577793   6.135911   4.933098   4.831017   5.855132
    27  H    4.205118   6.513431   6.559514   7.038601   4.950819
    28  H    7.533644   9.720121   9.184472   9.238274   8.370852
                   11         12         13         14         15
    11  C    0.000000
    12  C    5.236957   0.000000
    13  C    5.329057   1.349359   0.000000
    14  C    6.733570   2.438606   1.465984   0.000000
    15  O    7.026035   3.589978   2.337109   1.358942   0.000000
    16  O    7.724265   2.875422   2.402032   1.218224   2.251455
    17  H    6.113080   2.629993   3.978233   4.844188   6.125538
    18  H    2.567247   2.751632   2.775159   4.208846   4.680682
    19  H    3.423643   5.982230   6.781915   8.225295   8.995880
    20  H    7.960566   6.193556   7.537677   8.455833   9.735424
    21  H    7.400697   4.859045   6.190136   7.018644   8.310823
    22  H    7.400592   4.858953   6.190055   7.018568   8.310751
    23  H    1.096570   5.009516   4.968543   6.319959   6.537227
    24  H    1.096568   5.009482   4.968474   6.319894   6.537140
    25  H    1.090455   6.326151   6.400957   7.789240   8.015184
    26  H    6.257884   1.089868   2.072265   2.574652   3.903789
    27  H    4.619037   2.146748   1.085144   2.180461   2.470574
    28  H    7.995393   4.299965   3.157829   1.877665   0.969703
                   16         17         18         19         20
    16  O    0.000000
    17  H    4.791992   0.000000
    18  H    5.160964   4.299468   0.000000
    19  H    8.855770   5.265471   4.456449   0.000000
    20  H    8.320594   3.612760   7.101604   5.448552   0.000000
    21  H    6.843036   2.328712   6.127127   5.516992   1.784465
    22  H    6.842959   2.328671   6.127000   5.516934   1.784465
    23  H    7.343914   6.134539   2.365204   4.042662   8.233899
    24  H    7.343872   6.134526   2.365204   4.042690   8.233947
    25  H    8.800201   7.091721   3.651322   3.635433   8.645798
    26  H    2.509483   2.311637   3.822171   6.635904   5.903680
    27  H    3.313334   4.689069   2.210112   6.574504   8.116044
    28  H    2.272726   6.709503   5.632579   9.902115  10.316422
                   21         22         23         24         25
    21  H    0.000000
    22  H    1.792632   0.000000
    23  H    7.673754   7.461204   0.000000
    24  H    7.461344   7.673666   1.793574   0.000000
    25  H    8.221472   8.221371   1.785394   1.785402   0.000000
    26  H    4.484481   4.484389   6.049442   6.049425   7.341714
    27  H    6.850629   6.850555   4.204808   4.204698   5.650035
    28  H    8.855052   8.854982   7.498814   7.498734   8.984424
                   26         27         28
    26  H    0.000000
    27  H    3.070420   0.000000
    28  H    4.415790   3.424647   0.000000
 Stoichiometry    C11H12O5
 Framework group  C1[X(C11H12O5)]
 Deg. of freedom    78
 Full point group                 C1      NOp   1
 Largest Abelian subgroup         C1      NOp   1
 Largest concise Abelian subgroup C1      NOp   1
                         Standard orientation:                         
 ---------------------------------------------------------------------
 Center     Atomic      Atomic             Coordinates (Angstroms)
 Number     Number       Type             X           Y           Z
 ---------------------------------------------------------------------
      1          6           0       -2.388170    0.206797   -0.000035
      2          6           0       -1.910195   -1.112333   -0.000010
      3          6           0       -0.533033   -1.337412    0.000004
      4          6           0        0.380699   -0.269019    0.000022
      5          6           0       -0.104059    1.051265    0.000028
      6          6           0       -1.473194    1.274642   -0.000012
      7          8           0       -3.718223    0.439319   -0.000078
      8          8           0       -2.861061   -2.078459   -0.000019
      9          6           0       -2.436589   -3.428789    0.000041
     10          8           0       -2.084538    2.498224    0.000008
     11          6           0       -1.269547    3.658330    0.000055
     12          6           0        1.800277   -0.584534    0.000022
     13          6           0        2.844090    0.270582   -0.000022
     14          6           0        4.215479   -0.247493   -0.000014
     15          8           0        5.129845    0.757822   -0.000056
     16          8           0        4.552176   -1.418264    0.000039
     17          1           0       -0.148160   -2.351016   -0.000026
     18          1           0        0.586946    1.885143    0.000104
     19          1           0       -3.843058    1.400372   -0.000010
     20          1           0       -3.349295   -4.025761    0.000097
     21          1           0       -1.849071   -3.664993   -0.896278
     22          1           0       -1.849024   -3.664894    0.896354
     23          1           0       -0.639749    3.697661    0.896868
     24          1           0       -0.639680    3.697685   -0.896706
     25          1           0       -1.954532    4.506792    0.000049
     26          1           0        2.052931   -1.644712    0.000054
     27          1           0        2.731252    1.349843   -0.000077
     28          1           0        6.001311    0.332533   -0.000041
 ---------------------------------------------------------------------
 Rotational constants (GHZ):      0.7203599      0.2736549      0.1988226
 Standard basis: 6-31+G(d,p) (6D, 7F)
 There are   364 symmetry adapted cartesian basis functions of A   symmetry.
 There are   364 symmetry adapted basis functions of A   symmetry.
   364 basis functions,   596 primitive gaussians,   364 cartesian basis functions
    59 alpha electrons       59 beta electrons
       nuclear repulsion energy      1054.9051199974 Hartrees.
 NAtoms=   28 NActive=   28 NUniq=   28 SFac= 1.00D+00 NAtFMM=   60 NAOKFM=F Big=F
 Integral buffers will be    131072 words long.
 Regular integral format.
 Two-electron integral symmetry is turned on.
 Nuclear repulsion after empirical dispersion term =     1054.8744073521 Hartrees.
 One-electron integrals computed using PRISM.
 NBasis=   364 RedAO= T EigKep=  1.45D-06  NBF=   364
 NBsUse=   362 1.00D-06 EigRej=  8.61D-07 NBFU=   362
 ExpMin= 4.38D-02 ExpMax= 5.48D+03 ExpMxC= 8.25D+02 IAcc=2 IRadAn=         4 AccDes= 0.00D+00
 Harris functional with IExCor=  419 and IRadAn=       4 diagonalized for initial guess.
 HarFok:  IExCor=  419 AccDes= 0.00D+00 IRadAn=         4 IDoV= 1 UseB2=F ITyADJ=14
 ICtDFT=  3500011 ScaDFX=  1.000000  1.000000  1.000000  1.000000
 FoFCou: FMM=F IPFlag=           0 FMFlag=      100000 FMFlg1=           0
         NFxFlg=           0 DoJE=T BraDBF=F KetDBF=T FulRan=T
         wScrn=  0.000000 ICntrl=     500 IOpCl=  0 I1Cent=   200000004 NGrid=           0
         NMat0=    1 NMatS0=      1 NMatT0=    0 NMatD0=    1 NMtDS0=    0 NMtDT0=    0
 Petite list used in FoFCou.
 Requested convergence on RMS density matrix=1.00D-08 within 128 cycles.
 Requested convergence on MAX density matrix=1.00D-06.
 Requested convergence on             energy=1.00D-06.
 No special actions if energy rises.
 SCF Done:  E(RB2PLYP) =  -801.003575992     A.U. after   16 cycles
            NFock= 16  Conv=0.22D-08     -V/T= 2.0067
 DoSCS=T DFT=T ScalE2(SS,OS)=  0.270000  0.270000
 ExpMin= 4.38D-02 ExpMax= 5.48D+03 ExpMxC= 8.25D+02 IAcc=3 IRadAn=         5 AccDes= 0.00D+00
 HarFok:  IExCor=  205 AccDes= 0.00D+00 IRadAn=         5 IDoV=-2 UseB2=F ITyADJ=14
 ICtDFT= 12500011 ScaDFX=  1.000000  1.000000  1.000000  1.000000
 Range of M.O.s used for correlation:    17   362
 NBasis=   364 NAE=    59 NBE=    59 NFC=    16 NFV=     0
 NROrb=    346 NOA=    43 NOB=    43 NVA=   303 NVB=   303

 **** Warning!!: The largest alpha MO coefficient is  0.21016755D+03

 DoSCS=T DFT=T ScalE2(SS,OS)=  0.270000  0.270000
 Fully direct method using O(ONN) memory.
 JobTyp=1 Pass  1:  I=  17 to  17 NPSUse= 18 ParTrn=T ParDer=T DoDerP=T.
 JobTyp=1 Pass  2:  I=  18 to  18 NPSUse= 18 ParTrn=T ParDer=T DoDerP=T.
 JobTyp=1 Pass  3:  I=  19 to  19 NPSUse= 18 ParTrn=T ParDer=T DoDerP=T.
 JobTyp=1 Pass  4:  I=  20 to  20 NPSUse= 18 ParTrn=T ParDer=T DoDerP=T.
 JobTyp=1 Pass  5:  I=  21 to  21 NPSUse= 18 ParTrn=T ParDer=T DoDerP=T.
 JobTyp=1 Pass  6:  I=  22 to  22 NPSUse= 18 ParTrn=T ParDer=T DoDerP=T.
 JobTyp=1 Pass  7:  I=  23 to  23 NPSUse= 18 ParTrn=T ParDer=T DoDerP=T.
 JobTyp=1 Pass  8:  I=  24 to  24 NPSUse= 18 ParTrn=T ParDer=T DoDerP=T.
 JobTyp=1 Pass  9:  I=  25 to  25 NPSUse= 18 ParTrn=T ParDer=T DoDerP=T.
 JobTyp=1 Pass 10:  I=  26 to  26 NPSUse= 18 ParTrn=T ParDer=T DoDerP=T.
 JobTyp=1 Pass 11:  I=  27 to  27 NPSUse= 18 ParTrn=T ParDer=T DoDerP=T.
 JobTyp=1 Pass 12:  I=  28 to  28 NPSUse= 18 ParTrn=T ParDer=T DoDerP=T.
 JobTyp=1 Pass 13:  I=  29 to  29 NPSUse= 18 ParTrn=T ParDer=T DoDerP=T.
 JobTyp=1 Pass 14:  I=  30 to  30 NPSUse= 18 ParTrn=T ParDer=T DoDerP=T.
 JobTyp=1 Pass 15:  I=  31 to  31 NPSUse= 18 ParTrn=T ParDer=T DoDerP=T.
 JobTyp=1 Pass 16:  I=  32 to  32 NPSUse= 18 ParTrn=T ParDer=T DoDerP=T.
 JobTyp=1 Pass 17:  I=  33 to  33 NPSUse= 18 ParTrn=T ParDer=T DoDerP=T.
 JobTyp=1 Pass 18:  I=  34 to  34 NPSUse= 18 ParTrn=T ParDer=T DoDerP=T.
 JobTyp=1 Pass 19:  I=  35 to  35 NPSUse= 18 ParTrn=T ParDer=T DoDerP=T.
 JobTyp=1 Pass 20:  I=  36 to  36 NPSUse= 18 ParTrn=T ParDer=T DoDerP=T.
 JobTyp=1 Pass 21:  I=  37 to  37 NPSUse= 18 ParTrn=T ParDer=T DoDerP=T.
 JobTyp=1 Pass 22:  I=  38 to  38 NPSUse= 18 ParTrn=T ParDer=T DoDerP=T.
 JobTyp=1 Pass 23:  I=  39 to  39 NPSUse= 18 ParTrn=T ParDer=T DoDerP=T.
 JobTyp=1 Pass 24:  I=  40 to  40 NPSUse= 18 ParTrn=T ParDer=T DoDerP=T.
 JobTyp=1 Pass 25:  I=  41 to  41 NPSUse= 18 ParTrn=T ParDer=T DoDerP=T.
 JobTyp=1 Pass 26:  I=  42 to  42 NPSUse= 18 ParTrn=T ParDer=T DoDerP=T.
 JobTyp=1 Pass 27:  I=  43 to  43 NPSUse= 18 ParTrn=T ParDer=T DoDerP=T.
 JobTyp=1 Pass 28:  I=  44 to  44 NPSUse= 18 ParTrn=T ParDer=T DoDerP=T.
 JobTyp=1 Pass 29:  I=  45 to  45 NPSUse= 18 ParTrn=T ParDer=T DoDerP=T.
 JobTyp=1 Pass 30:  I=  46 to  46 NPSUse= 18 ParTrn=T ParDer=T DoDerP=T.
 JobTyp=1 Pass 31:  I=  47 to  47 NPSUse= 18 ParTrn=T ParDer=T DoDerP=T.
 JobTyp=1 Pass 32:  I=  48 to  48 NPSUse= 18 ParTrn=T ParDer=T DoDerP=T.
 JobTyp=1 Pass 33:  I=  49 to  49 NPSUse= 18 ParTrn=T ParDer=T DoDerP=T.
 JobTyp=1 Pass 34:  I=  50 to  50 NPSUse= 18 ParTrn=T ParDer=T DoDerP=T.
 JobTyp=1 Pass 35:  I=  51 to  51 NPSUse= 18 ParTrn=T ParDer=T DoDerP=T.
 JobTyp=1 Pass 36:  I=  52 to  52 NPSUse= 18 ParTrn=T ParDer=T DoDerP=T.
 JobTyp=1 Pass 37:  I=  53 to  53 NPSUse= 18 ParTrn=T ParDer=T DoDerP=T.
 JobTyp=1 Pass 38:  I=  54 to  54 NPSUse= 18 ParTrn=T ParDer=T DoDerP=T.
 JobTyp=1 Pass 39:  I=  55 to  55 NPSUse= 18 ParTrn=T ParDer=T DoDerP=T.
 JobTyp=1 Pass 40:  I=  56 to  56 NPSUse= 18 ParTrn=T ParDer=T DoDerP=T.
 JobTyp=1 Pass 41:  I=  57 to  57 NPSUse= 18 ParTrn=T ParDer=T DoDerP=T.
 JobTyp=1 Pass 42:  I=  58 to  58 NPSUse= 18 ParTrn=T ParDer=T DoDerP=T.
 JobTyp=1 Pass 43:  I=  59 to  59 NPSUse= 18 ParTrn=T ParDer=T DoDerP=T.
 Spin components of T(2) and E(2):
     alpha-alpha T2 =       0.1694608095D+00 E2=     -0.1069750821D+00
     alpha-beta  T2 =       0.8853694407D+00 E2=     -0.5799222490D+00
     beta-beta   T2 =       0.1694608095D+00 E2=     -0.1069750821D+00
 E2(B2PLYP) =    -0.7938724133D+00 E(B2PLYP) =    -0.80179744840491D+03
          IDoAtm=1111111111111111111111111111
          Differentiating once with respect to electric field.
                with respect to dipole field.
          Differentiating once with respect to nuclear coordinates.
          There are     1 degrees of freedom in the 1st order CPHF.  IDoFFX=0 NUNeed=     1.
 LinEq1:  Iter=  0 NonCon=     1 RMS=1.61D-03 Max=5.36D-02 NDo=     1
 AX will form     1 AO Fock derivatives at one time.
 LinEq1:  Iter=  1 NonCon=     1 RMS=7.11D-04 Max=1.31D-02 NDo=     1
 LinEq1:  Iter=  2 NonCon=     1 RMS=2.43D-04 Max=8.07D-03 NDo=     1
 LinEq1:  Iter=  3 NonCon=     1 RMS=1.68D-04 Max=4.66D-03 NDo=     1
 LinEq1:  Iter=  4 NonCon=     1 RMS=7.12D-05 Max=1.99D-03 NDo=     1
 LinEq1:  Iter=  5 NonCon=     1 RMS=2.76D-05 Max=9.77D-04 NDo=     1
 LinEq1:  Iter=  6 NonCon=     1 RMS=1.39D-05 Max=4.18D-04 NDo=     1
 LinEq1:  Iter=  7 NonCon=     1 RMS=7.15D-06 Max=2.90D-04 NDo=     1
 LinEq1:  Iter=  8 NonCon=     1 RMS=3.22D-06 Max=1.04D-04 NDo=     1
 LinEq1:  Iter=  9 NonCon=     1 RMS=1.66D-06 Max=4.04D-05 NDo=     1
 LinEq1:  Iter= 10 NonCon=     1 RMS=6.43D-07 Max=2.40D-05 NDo=     1
 LinEq1:  Iter= 11 NonCon=     1 RMS=3.15D-07 Max=1.22D-05 NDo=     1
 LinEq1:  Iter= 12 NonCon=     1 RMS=1.28D-07 Max=6.79D-06 NDo=     1
 LinEq1:  Iter= 13 NonCon=     1 RMS=5.95D-08 Max=2.24D-06 NDo=     1
 LinEq1:  Iter= 14 NonCon=     1 RMS=2.63D-08 Max=8.30D-07 NDo=     1
 LinEq1:  Iter= 15 NonCon=     1 RMS=9.40D-09 Max=2.91D-07 NDo=     1
 LinEq1:  Iter= 16 NonCon=     1 RMS=5.07D-09 Max=2.33D-07 NDo=     1
 LinEq1:  Iter= 17 NonCon=     1 RMS=2.13D-09 Max=6.33D-08 NDo=     1
 LinEq1:  Iter= 18 NonCon=     1 RMS=9.97D-10 Max=2.46D-08 NDo=     1
 LinEq1:  Iter= 19 NonCon=     1 RMS=2.42D-10 Max=7.18D-09 NDo=     1
 LinEq1:  Iter= 20 NonCon=     1 RMS=1.06D-10 Max=3.14D-09 NDo=     1
 LinEq1:  Iter= 21 NonCon=     1 RMS=5.92D-11 Max=2.16D-09 NDo=     1
 LinEq1:  Iter= 22 NonCon=     0 RMS=1.97D-11 Max=4.52D-10 NDo=     1
 Linear equations converged to 1.000D-10 1.000D-09 after    22 iterations.
 End of Minotr F.D. properties file   721 does not exist.
 End of Minotr F.D. properties file   722 does not exist.
 End of Minotr F.D. properties file   788 does not exist.

 **********************************************************************

            Population analysis using the SCF density.

 **********************************************************************

 Orbital symmetries:
       Occupied  (A) (A) (A) (A) (A) (A) (A) (A) (A) (A) (A) (A)
                 (A) (A) (A) (A) (A) (A) (A) (A) (A) (A) (A) (A)
                 (A) (A) (A) (A) (A) (A) (A) (A) (A) (A) (A) (A)
                 (A) (A) (A) (A) (A) (A) (A) (A) (A) (A) (A) (A)
                 (A) (A) (A) (A) (A) (A) (A) (A) (A) (A) (A)
       Virtual   (A) (A) (A) (A) (A) (A) (A) (A) (A) (A) (A) (A)
                 (A) (A) (A) (A) (A) (A) (A) (A) (A) (A) (A) (A)
                 (A) (A) (A) (A) (A) (A) (A) (A) (A) (A) (A) (A)
                 (A) (A) (A) (A) (A) (A) (A) (A) (A) (A) (A) (A)
                 (A) (A) (A) (A) (A) (A) (A) (A) (A) (A) (A) (A)
                 (A) (A) (A) (A) (A) (A) (A) (A) (A) (A) (A) (A)
                 (A) (A) (A) (A) (A) (A) (A) (A) (A) (A) (A) (A)
                 (A) (A) (A) (A) (A) (A) (A) (A) (A) (A) (A) (A)
                 (A) (A) (A) (A) (A) (A) (A) (A) (A) (A) (A) (A)
                 (A) (A) (A) (A) (A) (A) (A) (A) (A) (A) (A) (A)
                 (A) (A) (A) (A) (A) (A) (A) (A) (A) (A) (A) (A)
                 (A) (A) (A) (A) (A) (A) (A) (A) (A) (A) (A) (A)
                 (A) (A) (A) (A) (A) (A) (A) (A) (A) (A) (A) (A)
                 (A) (A) (A) (A) (A) (A) (A) (A) (A) (A) (A) (A)
                 (A) (A) (A) (A) (A) (A) (A) (A) (A) (A) (A) (A)
                 (A) (A) (A) (A) (A) (A) (A) (A) (A) (A) (A) (A)
                 (A) (A) (A) (A) (A) (A) (A) (A) (A) (A) (A) (A)
                 (A) (A) (A) (A) (A) (A) (A) (A) (A) (A) (A) (A)
                 (A) (A) (A) (A) (A) (A) (A) (A) (A) (A) (A) (A)
                 (A) (A) (A) (A) (A) (A) (A) (A) (A) (A) (A) (A)
                 (A) (A) (A) (A) (A) (A) (A) (A) (A) (A) (A) (A)
                 (A) (A) (A) (A) (A) (A) (A) (A) (A) (A) (A) (A)
                 (A) (A) (A) (A) (A) (A) (A) (A) (A) (A) (A) (A)
                 (A) (A) (A) (A) (A) (A) (A) (A) (A) (A) (A) (A)
                 (A) (A) (A) (A) (A) (A) (A) (A) (A) (A) (A) (A)
                 (A) (A) (A)
 The electronic state is 1-A.
 Alpha  occ. eigenvalues --  -19.80216 -19.79697 -19.78471 -19.78354 -19.73421
 Alpha  occ. eigenvalues --  -10.77227 -10.70956 -10.70506 -10.70390 -10.70014
 Alpha  occ. eigenvalues --  -10.68614 -10.66429 -10.65628 -10.64659 -10.64509
 Alpha  occ. eigenvalues --  -10.64204  -1.25544  -1.24678  -1.22651  -1.20495
 Alpha  occ. eigenvalues --   -1.15663  -0.99936  -0.93339  -0.88773  -0.87544
 Alpha  occ. eigenvalues --   -0.83208  -0.80995  -0.77529  -0.71399  -0.70653
 Alpha  occ. eigenvalues --   -0.66009  -0.63898  -0.62831  -0.59527  -0.59060
 Alpha  occ. eigenvalues --   -0.58056  -0.57206  -0.56565  -0.55566  -0.54815
 Alpha  occ. eigenvalues --   -0.53185  -0.52275  -0.50804  -0.49767  -0.49522
 Alpha  occ. eigenvalues --   -0.48578  -0.47252  -0.45347  -0.43615  -0.43510
 Alpha  occ. eigenvalues --   -0.42995  -0.42652  -0.41115  -0.40270  -0.38854
 Alpha  occ. eigenvalues --   -0.35359  -0.32975  -0.28095  -0.24862
 Alpha virt. eigenvalues --   -0.02363   0.02395   0.03239   0.03395   0.04035
 Alpha virt. eigenvalues --    0.04982   0.05404   0.05745   0.05957   0.07070
 Alpha virt. eigenvalues --    0.07289   0.08112   0.08205   0.08983   0.09202
 Alpha virt. eigenvalues --    0.09298   0.10398   0.11142   0.11615   0.12022
 Alpha virt. eigenvalues --    0.12838   0.13179   0.13504   0.14571   0.15516
 Alpha virt. eigenvalues --    0.16112   0.16859   0.17075   0.17377   0.17708
 Alpha virt. eigenvalues --    0.18161   0.18311   0.18884   0.19238   0.19436
 Alpha virt. eigenvalues --    0.19924   0.22313   0.22822   0.23220   0.23332
 Alpha virt. eigenvalues --    0.23839   0.24230   0.24997   0.25651   0.25729
 Alpha virt. eigenvalues --    0.26673   0.26871   0.27064   0.27531   0.28399
 Alpha virt. eigenvalues --    0.29534   0.29684   0.29930   0.30234   0.30277
 Alpha virt. eigenvalues --    0.30593   0.30864   0.31435   0.31498   0.32454
 Alpha virt. eigenvalues --    0.33078   0.33729   0.33790   0.34699   0.35327
 Alpha virt. eigenvalues --    0.35561   0.35805   0.36376   0.37151   0.37778
 Alpha virt. eigenvalues --    0.38525   0.39206   0.39442   0.39450   0.40379
 Alpha virt. eigenvalues --    0.40563   0.41392   0.42056   0.42780   0.43816
 Alpha virt. eigenvalues --    0.44770   0.45344   0.47651   0.47721   0.49385
 Alpha virt. eigenvalues --    0.50416   0.51580   0.52401   0.53687   0.56102
 Alpha virt. eigenvalues --    0.60089   0.60282   0.64814   0.67280   0.71063
 Alpha virt. eigenvalues --    0.74205   0.74531   0.75932   0.76821   0.77225
 Alpha virt. eigenvalues --    0.77595   0.78659   0.79195   0.80354   0.81008
 Alpha virt. eigenvalues --    0.81746   0.83225   0.84253   0.84906   0.85306
 Alpha virt. eigenvalues --    0.87231   0.88552   0.90155   0.90484   0.93986
 Alpha virt. eigenvalues --    0.94150   0.96415   0.97892   0.98965   1.00039
 Alpha virt. eigenvalues --    1.00785   1.02030   1.03304   1.05189   1.06811
 Alpha virt. eigenvalues --    1.08725   1.10044   1.12623   1.14301   1.16376
 Alpha virt. eigenvalues --    1.18791   1.19303   1.20518   1.20987   1.22626
 Alpha virt. eigenvalues --    1.23178   1.26200   1.27091   1.27312   1.27434
 Alpha virt. eigenvalues --    1.28575   1.29984   1.30607   1.31400   1.31538
 Alpha virt. eigenvalues --    1.32053   1.33426   1.35046   1.35904   1.36442
 Alpha virt. eigenvalues --    1.36568   1.37311   1.38142   1.40293   1.40765
 Alpha virt. eigenvalues --    1.41062   1.42029   1.43208   1.44359   1.44657
 Alpha virt. eigenvalues --    1.47201   1.47849   1.48691   1.48920   1.49127
 Alpha virt. eigenvalues --    1.50959   1.52909   1.55366   1.55431   1.56674
 Alpha virt. eigenvalues --    1.58201   1.61675   1.63215   1.65771   1.67518
 Alpha virt. eigenvalues --    1.70253   1.70389   1.70691   1.74185   1.79066
 Alpha virt. eigenvalues --    1.80242   1.84027   1.87220   1.88256   1.89104
 Alpha virt. eigenvalues --    1.89189   1.90678   1.94379   1.94622   1.95396
 Alpha virt. eigenvalues --    1.96857   1.98155   1.98575   1.99894   2.02722
 Alpha virt. eigenvalues --    2.03187   2.05027   2.05830   2.06542   2.07383
 Alpha virt. eigenvalues --    2.08587   2.09920   2.10864   2.12652   2.13444
 Alpha virt. eigenvalues --    2.13976   2.16407   2.17680   2.17838   2.18890
 Alpha virt. eigenvalues --    2.20752   2.22342   2.22802   2.23841   2.25831
 Alpha virt. eigenvalues --    2.27574   2.28828   2.31325   2.33921   2.34406
 Alpha virt. eigenvalues --    2.36554   2.38799   2.40400   2.44336   2.44586
 Alpha virt. eigenvalues --    2.46915   2.52396   2.52822   2.55329   2.59441
 Alpha virt. eigenvalues --    2.59901   2.60762   2.62181   2.63222   2.64691
 Alpha virt. eigenvalues --    2.64722   2.66684   2.67154   2.67779   2.70798
 Alpha virt. eigenvalues --    2.71808   2.72296   2.76079   2.76379   2.76889
 Alpha virt. eigenvalues --    2.77583   2.80177   2.81836   2.84024   2.84825
 Alpha virt. eigenvalues --    2.85928   2.86666   2.88944   2.90043   2.92400
 Alpha virt. eigenvalues --    2.95587   2.96104   2.97294   2.97548   2.98510
 Alpha virt. eigenvalues --    2.98821   3.03264   3.04542   3.08796   3.10660
 Alpha virt. eigenvalues --    3.13281   3.18311   3.22622   3.28860   3.31435
 Alpha virt. eigenvalues --    3.32418   3.34225   3.37430   3.38464   3.39572
 Alpha virt. eigenvalues --    3.43371   3.52150   3.54948   3.56297   3.59343
 Alpha virt. eigenvalues --    3.60251   3.61573   3.63328   3.69380   3.72425
 Alpha virt. eigenvalues --    3.77349   3.91744   4.34193   4.40288   4.46215
 Alpha virt. eigenvalues --    4.49951   4.54364   4.58490   4.59362   4.62729
 Alpha virt. eigenvalues --    4.66001   4.72536   4.77740   4.78716   4.84229
 Alpha virt. eigenvalues --    4.95972   5.00185   5.46374
          Condensed to atoms (all electrons):
               1          2          3          4          5          6
     1  C   21.604868  -0.075057  -7.274430  -0.024959  -5.870399  -0.573156
     2  C   -0.075057  18.529063  -1.203278  -1.645250  -0.984798  -7.777911
     3  C   -7.274430  -1.203278  21.912798   0.550276  -0.683434  -4.107494
     4  C   -0.024959  -1.645250   0.550276  12.072157  -1.858219  -1.348594
     5  C   -5.870399  -0.984798  -0.683434  -1.858219  12.189158   1.443773
     6  C   -0.573156  -7.777911  -4.107494  -1.348594   1.443773  17.907165
     7  O    0.240887  -0.926418  -0.009350  -0.081559   0.132164   0.613142
     8  O   -0.651714   0.306884   0.285835  -0.017491   0.016747   0.053293
     9  C    0.180702  -0.051993  -0.208566  -0.097375   0.018087   0.063905
    10  O   -0.624664   0.084496   0.023929  -0.016647   0.235588   0.221190
    11  C    0.025242   0.042667   0.018243  -0.076629  -0.030074  -0.097129
    12  C   -1.006820  -0.194334  -1.858811  -0.887974   1.121879  -0.089450
    13  C    0.005486  -0.603819  -1.601359  -0.289128   0.074391   0.062150
    14  C    0.011002   0.008353  -0.410871  -0.543975   0.162570   0.082743
    15  O    0.000215   0.000763   0.009951   0.076198  -0.020796  -0.001974
    16  O   -0.000146  -0.003214   0.052423   0.128058  -0.029331  -0.002162
    17  H    0.008842  -0.120585   0.088115   0.154724   0.027958   0.001078
    18  H    0.003605  -0.008065   0.052647   0.264347   0.152229  -0.137763
    19  H    0.195880   0.307733   0.025207  -0.003653  -0.048326  -0.487128
    20  H    0.072055   0.052198  -0.097679  -0.014162  -0.001926   0.012696
    21  H   -0.040604  -0.071367   0.083813   0.022353   0.003566  -0.010623
    22  H   -0.040607  -0.071318   0.083744   0.022377   0.003567  -0.010629
    23  H   -0.024415  -0.006906   0.004213   0.014329   0.039200  -0.037851
    24  H   -0.024417  -0.006907   0.004219   0.014330   0.039212  -0.037872
    25  H    0.040865   0.008033  -0.003130  -0.010328  -0.052974   0.040981
    26  H    0.012650   0.031262   0.147103  -0.018317   0.004823   0.001408
    27  H    0.000430   0.000209   0.011424   0.040726   0.032081   0.000009
    28  H    0.000025   0.000037   0.000315  -0.005301   0.001775   0.000194
               7          8          9         10         11         12
     1  C    0.240887  -0.651714   0.180702  -0.624664   0.025242  -1.006820
     2  C   -0.926418   0.306884  -0.051993   0.084496   0.042667  -0.194334
     3  C   -0.009350   0.285835  -0.208566   0.023929   0.018243  -1.858811
     4  C   -0.081559  -0.017491  -0.097375  -0.016647  -0.076629  -0.887974
     5  C    0.132164   0.016747   0.018087   0.235588  -0.030074   1.121879
     6  C    0.613142   0.053293   0.063905   0.221190  -0.097129  -0.089450
     7  O    8.384215   0.040125   0.002200  -0.006603  -0.000910   0.001468
     8  O    0.040125   8.523996   0.033897  -0.001849  -0.000104  -0.010909
     9  C    0.002200   0.033897   4.920481  -0.000074   0.000317  -0.032177
    10  O   -0.006603  -0.001849  -0.000074   8.669065   0.046181   0.003169
    11  C   -0.000910  -0.000104   0.000317   0.046181   4.884610   0.003778
    12  C    0.001468  -0.010909  -0.032177   0.003169   0.003778   9.300066
    13  C   -0.001197  -0.002874  -0.009264   0.000266  -0.007701  -1.168491
    14  C    0.000125  -0.000014  -0.000803   0.000484  -0.002357   0.322076
    15  O    0.000000   0.000000   0.000001   0.000000   0.000029  -0.118574
    16  O    0.000000   0.000002   0.000101  -0.000001   0.000006   0.070264
    17  H   -0.000562  -0.010916  -0.004160   0.000119   0.000038   0.141568
    18  H   -0.000385   0.000137   0.000090  -0.011986  -0.001764  -0.034434
    19  H    0.188949  -0.001925  -0.000091   0.035961   0.005307   0.001037
    20  H   -0.000743  -0.080132   0.428344  -0.000003   0.000010  -0.001108
    21  H    0.000069  -0.037550   0.412969   0.000002  -0.000020   0.000745
    22  H    0.000069  -0.037551   0.412967   0.000002  -0.000020   0.000750
    23  H   -0.000149   0.000001  -0.000014  -0.043448   0.420615  -0.000127
    24  H   -0.000149   0.000001  -0.000014  -0.043445   0.420625  -0.000130
    25  H   -0.000002  -0.000002   0.000009  -0.072768   0.420102   0.000109
    26  H   -0.000011   0.000054   0.000281   0.000029   0.000106   0.300503
    27  H   -0.000005   0.000002   0.000027   0.000116   0.000732  -0.025678
    28  H    0.000000   0.000000  -0.000000  -0.000000  -0.000002   0.036304
              13         14         15         16         17         18
     1  C    0.005486   0.011002   0.000215  -0.000146   0.008842   0.003605
     2  C   -0.603819   0.008353   0.000763  -0.003214  -0.120585  -0.008065
     3  C   -1.601359  -0.410871   0.009951   0.052423   0.088115   0.052647
     4  C   -0.289128  -0.543975   0.076198   0.128058   0.154724   0.264347
     5  C    0.074391   0.162570  -0.020796  -0.029331   0.027958   0.152229
     6  C    0.062150   0.082743  -0.001974  -0.002162   0.001078  -0.137763
     7  O   -0.001197   0.000125   0.000000   0.000000  -0.000562  -0.000385
     8  O   -0.002874  -0.000014   0.000000   0.000002  -0.010916   0.000137
     9  C   -0.009264  -0.000803   0.000001   0.000101  -0.004160   0.000090
    10  O    0.000266   0.000484   0.000000  -0.000001   0.000119  -0.011986
    11  C   -0.007701  -0.002357   0.000029   0.000006   0.000038  -0.001764
    12  C   -1.168491   0.322076  -0.118574   0.070264   0.141568  -0.034434
    13  C   10.613878  -0.738098   0.259907  -0.208647   0.029023   0.023500
    14  C   -0.738098   6.069455  -0.169147   0.339567   0.001090   0.013605
    15  O    0.259907  -0.169147   8.398966  -0.134975   0.000000   0.000098
    16  O   -0.208647   0.339567  -0.134975   8.343444  -0.000033   0.000034
    17  H    0.029023   0.001090   0.000000  -0.000033   0.537735  -0.000135
    18  H    0.023500   0.013605   0.000098   0.000034  -0.000135   0.551583
    19  H    0.000610   0.000023   0.000000   0.000000   0.000003  -0.000027
    20  H    0.000039  -0.000002  -0.000000  -0.000000   0.000170  -0.000000
    21  H   -0.000317  -0.000003   0.000000   0.000000  -0.001530   0.000000
    22  H   -0.000317  -0.000002   0.000000   0.000000  -0.001531   0.000000
    23  H   -0.000551  -0.000256   0.000000  -0.000000   0.000000  -0.001336
    24  H   -0.000553  -0.000256   0.000000  -0.000000   0.000000  -0.001336
    25  H    0.000191   0.000035  -0.000000   0.000000  -0.000000   0.000164
    26  H   -0.151281  -0.013597   0.000883  -0.005110   0.002128  -0.000037
    27  H    0.312331  -0.048169  -0.006026   0.003890  -0.000000  -0.000296
    28  H   -0.065050   0.057377   0.212544   0.006195  -0.000000  -0.000000
              19         20         21         22         23         24
     1  C    0.195880   0.072055  -0.040604  -0.040607  -0.024415  -0.024417
     2  C    0.307733   0.052198  -0.071367  -0.071318  -0.006906  -0.006907
     3  C    0.025207  -0.097679   0.083813   0.083744   0.004213   0.004219
     4  C   -0.003653  -0.014162   0.022353   0.022377   0.014329   0.014330
     5  C   -0.048326  -0.001926   0.003566   0.003567   0.039200   0.039212
     6  C   -0.487128   0.012696  -0.010623  -0.010629  -0.037851  -0.037872
     7  O    0.188949  -0.000743   0.000069   0.000069  -0.000149  -0.000149
     8  O   -0.001925  -0.080132  -0.037550  -0.037551   0.000001   0.000001
     9  C   -0.000091   0.428344   0.412969   0.412967  -0.000014  -0.000014
    10  O    0.035961  -0.000003   0.000002   0.000002  -0.043448  -0.043445
    11  C    0.005307   0.000010  -0.000020  -0.000020   0.420615   0.420625
    12  C    0.001037  -0.001108   0.000745   0.000750  -0.000127  -0.000130
    13  C    0.000610   0.000039  -0.000317  -0.000317  -0.000551  -0.000553
    14  C    0.000023  -0.000002  -0.000003  -0.000002  -0.000256  -0.000256
    15  O    0.000000  -0.000000   0.000000   0.000000   0.000000   0.000000
    16  O    0.000000  -0.000000   0.000000   0.000000  -0.000000  -0.000000
    17  H    0.000003   0.000170  -0.001530  -0.001531   0.000000   0.000000
    18  H   -0.000027  -0.000000   0.000000   0.000000  -0.001336  -0.001336
    19  H    0.365609  -0.000001   0.000000   0.000000   0.000023   0.000023
    20  H   -0.000001   0.536649  -0.027548  -0.027547   0.000000   0.000000
    21  H    0.000000  -0.027548   0.573979  -0.044524  -0.000000  -0.000000
    22  H    0.000000  -0.027547  -0.044524   0.573978  -0.000000  -0.000000
    23  H    0.000023   0.000000  -0.000000  -0.000000   0.562615  -0.041809
    24  H    0.000023   0.000000  -0.000000  -0.000000  -0.041809   0.562612
    25  H   -0.000063  -0.000000   0.000000   0.000000  -0.027141  -0.027140
    26  H   -0.000000   0.000000  -0.000001  -0.000001   0.000000   0.000000
    27  H   -0.000000  -0.000000   0.000000   0.000000  -0.000003  -0.000003
    28  H    0.000000   0.000000   0.000000   0.000000   0.000000   0.000000
              25         26         27         28
     1  C    0.040865   0.012650   0.000430   0.000025
     2  C    0.008033   0.031262   0.000209   0.000037
     3  C   -0.003130   0.147103   0.011424   0.000315
     4  C   -0.010328  -0.018317   0.040726  -0.005301
     5  C   -0.052974   0.004823   0.032081   0.001775
     6  C    0.040981   0.001408   0.000009   0.000194
     7  O   -0.000002  -0.000011  -0.000005   0.000000
     8  O   -0.000002   0.000054   0.000002   0.000000
     9  C    0.000009   0.000281   0.000027  -0.000000
    10  O   -0.072768   0.000029   0.000116  -0.000000
    11  C    0.420102   0.000106   0.000732  -0.000002
    12  C    0.000109   0.300503  -0.025678   0.036304
    13  C    0.000191  -0.151281   0.312331  -0.065050
    14  C    0.000035  -0.013597  -0.048169   0.057377
    15  O   -0.000000   0.000883  -0.006026   0.212544
    16  O    0.000000  -0.005110   0.003890   0.006195
    17  H   -0.000000   0.002128  -0.000000  -0.000000
    18  H    0.000164  -0.000037  -0.000296  -0.000000
    19  H   -0.000063  -0.000000  -0.000000   0.000000
    20  H   -0.000000   0.000000  -0.000000   0.000000
    21  H    0.000000  -0.000001   0.000000   0.000000
    22  H    0.000000  -0.000001   0.000000   0.000000
    23  H   -0.027141   0.000000  -0.000003   0.000000
    24  H   -0.027140   0.000000  -0.000003   0.000000
    25  H    0.535237  -0.000000  -0.000000  -0.000000
    26  H   -0.000000   0.510977   0.003455  -0.000001
    27  H   -0.000000   0.003455   0.531293  -0.000015
    28  H   -0.000000  -0.000001  -0.000015   0.372856
 Mulliken charges:
               1
     1  C   -0.171364
     2  C    0.379522
     3  C    0.104146
     4  C   -0.420314
     5  C   -0.118491
     6  C    0.216009
     7  O   -0.575369
     8  O   -0.407943
     9  C   -0.069847
    10  O   -0.499107
    11  C   -0.071899
    12  C    0.125299
    13  C   -0.533125
    14  C    0.859046
    15  O   -0.508063
    16  O   -0.560364
    17  H    0.146862
    18  H    0.135526
    19  H    0.414849
    20  H    0.148690
    21  H    0.136592
    22  H    0.136591
    23  H    0.143010
    24  H    0.143011
    25  H    0.147821
    26  H    0.172696
    27  H    0.143468
    28  H    0.382749
 Sum of Mulliken charges =  -0.00000
 Mulliken charges with hydrogens summed into heavy atoms:
               1
     1  C   -0.171364
     2  C    0.379522
     3  C    0.251008
     4  C   -0.420314
     5  C    0.017035
     6  C    0.216009
     7  O   -0.160521
     8  O   -0.407943
     9  C    0.352026
    10  O   -0.499107
    11  C    0.361942
    12  C    0.297995
    13  C   -0.389657
    14  C    0.859046
    15  O   -0.125314
    16  O   -0.560364
 Electronic spatial extent (au):  <R**2>=           5097.5689
 Charge=             -0.0000 electrons
 Dipole moment (field-independent basis, Debye):
    X=             -0.7249    Y=              2.5386    Z=              0.0002  Tot=              2.6400
 Quadrupole moment (field-independent basis, Debye-Ang):
   XX=           -105.9922   YY=            -75.0654   ZZ=            -96.8732
   XY=              5.0094   XZ=             -0.0011   YZ=              0.0004
 Traceless Quadrupole moment (field-independent basis, Debye-Ang):
   XX=            -13.3486   YY=             17.5782   ZZ=             -4.2296
   XY=              5.0094   XZ=             -0.0011   YZ=              0.0004
 Octapole moment (field-independent basis, Debye-Ang**2):
  XXX=             60.8061  YYY=             16.0201  ZZZ=             -0.0002  XYY=            -64.1488
  XXY=             49.2253  XXZ=              0.0011  XZZ=              0.0312  YZZ=              0.8786
  YYZ=              0.0014  XYZ=              0.0010
 Hexadecapole moment (field-independent basis, Debye-Ang**3):
 XXXX=          -3994.0981 YYYY=          -1608.2185 ZZZZ=           -117.0804 XXXY=             86.5326
 XXXZ=             -0.0210 YYYX=             49.8430 YYYZ=              0.0022 ZZZX=              0.0001
 ZZZY=              0.0005 XXYY=          -1096.7936 XXZZ=           -763.4809 YYZZ=           -346.3723
 XXYZ=              0.0039 YYXZ=             -0.0043 ZZXY=             -3.5429
 N-N= 1.054874407352D+03 E-N=-3.982354945176D+03  KE= 7.956950213718D+02
 Calling FoFJK, ICntrl=  10002127 FMM=F ISym2X=0 I1Cent= 0 IOpClX= 0 NMat=1 NMatS=1 NMatT=0.
 ***** Axes restored to original set *****
 -------------------------------------------------------------------
 Center     Atomic                   Forces (Hartrees/Bohr)
 Number     Number              X              Y              Z
 -------------------------------------------------------------------
      1        6           0.005165978    0.000934760    0.000000493
      2        6           0.002130748   -0.003643287    0.000001712
      3        6           0.002192519    0.003735705    0.000001448
      4        6          -0.000947775   -0.000514280    0.000000328
      5        6           0.003697903   -0.002717374   -0.000002013
      6        6           0.000794146    0.003867745   -0.000002440
      7        8          -0.005829062   -0.000158106   -0.000001359
      8        8          -0.005420761   -0.000857926    0.000000135
      9        6           0.001840106    0.006957301   -0.000000203
     10        8          -0.005050110   -0.001014903    0.000001049
     11        6           0.003958523   -0.005879360   -0.000002147
     12        6           0.001172591    0.003604490   -0.000000351
     13        6          -0.001112365   -0.004145910    0.000001580
     14        6          -0.003389453   -0.002711220   -0.000002093
     15        8           0.001844055   -0.004299863    0.000000762
     16        8           0.001645913    0.007695333    0.000000456
     17        1          -0.000495554   -0.001793592   -0.000001068
     18        1          -0.000975484    0.001385830    0.000001760
     19        1          -0.000445007   -0.000664596    0.000000812
     20        1           0.001598164   -0.001486000    0.000000268
     21        1          -0.000868774   -0.000859506   -0.001676151
     22        1          -0.000868911   -0.000858746    0.001675758
     23        1          -0.001088346    0.000542231    0.001692770
     24        1          -0.001088523    0.000541551   -0.001691584
     25        1           0.001052120    0.001898769    0.000000773
     26        1          -0.000566237   -0.001641078   -0.000000294
     27        1          -0.000076423    0.001829582   -0.000000431
     28        1           0.001130018    0.000252447    0.000000030
 -------------------------------------------------------------------
 Cartesian Forces:  Max     0.007695333 RMS     0.002369262

 GradGradGradGradGradGradGradGradGradGradGradGradGradGradGradGradGradGrad
 Berny optimization.
 FormGI is forming the generalized inverse of G from B-inverse, IUseBI=4.
 GSVD:  received Info=                   1 from GESDD.
 Internal  Forces:  Max     0.007848278 RMS     0.001512679
 Search for a local minimum.
 Step number   1 out of a maximum of  131
 All quantities printed in internal units (Hartrees-Bohrs-Radians)
 Mixed Optimization -- RFO/linear search
 Second derivative matrix not updated -- first step.
 ITU=  0
     Eigenvalues ---    0.01216   0.01372   0.01457   0.01487   0.01529
     Eigenvalues ---    0.01817   0.02015   0.02039   0.02053   0.02065
     Eigenvalues ---    0.02074   0.02101   0.02118   0.02119   0.02130
     Eigenvalues ---    0.02137   0.02175   0.02235   0.02280   0.02350
     Eigenvalues ---    0.02759   0.10060   0.10120   0.10683   0.10694
     Eigenvalues ---    0.16000   0.16000   0.16000   0.16000   0.16000
     Eigenvalues ---    0.16000   0.16000   0.16000   0.16000   0.16000
     Eigenvalues ---    0.16000   0.16000   0.22000   0.22000   0.23477
     Eigenvalues ---    0.23487   0.25000   0.25000   0.25000   0.25000
     Eigenvalues ---    0.25000   0.25000   0.25000   0.25000   0.25000
     Eigenvalues ---    0.33968   0.33968   0.34064   0.34065   0.34743
     Eigenvalues ---    0.34760   0.34828   0.35380   0.35490   0.35637
     Eigenvalues ---    0.36225   0.37698   0.41167   0.41975   0.42799
     Eigenvalues ---    0.43149   0.44636   0.44839   0.45647   0.47317
     Eigenvalues ---    0.51400   0.53162   0.53438   0.53556   0.53855
     Eigenvalues ---    0.54974   0.55158   0.96175
 RFO step:  Lambda=-5.82113137D-04 EMin= 1.21591207D-02
 Linear search not attempted -- first point.
 Iteration  1 RMS(Cart)=  0.01355219 RMS(Int)=  0.00004651
 Iteration  2 RMS(Cart)=  0.00008065 RMS(Int)=  0.00000212
 Iteration  3 RMS(Cart)=  0.00000000 RMS(Int)=  0.00000212
 Variable       Old X    -DE/DX   Delta X   Delta X   Delta X     New X
                                 (Linear)    (Quad)   (Total)
    R1        2.65139   0.00043   0.00000   0.00090   0.00090   2.65229
    R2        2.65738   0.00086   0.00000   0.00191   0.00191   2.65929
    R3        2.55156   0.00632   0.00000   0.01149   0.01149   2.56304
    R4        2.63699   0.00204   0.00000   0.00439   0.00439   2.64138
    R5        2.56164   0.00467   0.00000   0.00866   0.00866   2.57030
    R6        2.65664   0.00078   0.00000   0.00178   0.00178   2.65842
    R7        2.04887  -0.00185   0.00000  -0.00521  -0.00521   2.04366
    R8        2.65783   0.00069   0.00000   0.00158   0.00158   2.65941
    R9        2.74807   0.00076   0.00000   0.00200   0.00200   2.75008
   R10        2.62150   0.00213   0.00000   0.00446   0.00446   2.62596
   R11        2.04653  -0.00169   0.00000  -0.00473  -0.00473   2.04180
   R12        2.58478   0.00449   0.00000   0.00873   0.00873   2.59351
   R13        1.83138   0.00071   0.00000   0.00133   0.00133   1.83272
   R14        2.67486   0.00410   0.00000   0.00948   0.00948   2.68434
   R15        2.06093  -0.00215   0.00000  -0.00618  -0.00618   2.05475
   R16        2.07385  -0.00202   0.00000  -0.00593  -0.00593   2.06792
   R17        2.07384  -0.00202   0.00000  -0.00593  -0.00593   2.06792
   R18        2.67919   0.00399   0.00000   0.00932   0.00932   2.68850
   R19        2.07222  -0.00203   0.00000  -0.00595  -0.00595   2.06627
   R20        2.07221  -0.00203   0.00000  -0.00595  -0.00595   2.06627
   R21        2.06066  -0.00214   0.00000  -0.00614  -0.00614   2.05452
   R22        2.54992   0.00092   0.00000   0.00166   0.00166   2.55158
   R23        2.05955  -0.00173   0.00000  -0.00495  -0.00495   2.05460
   R24        2.77031   0.00148   0.00000   0.00408   0.00408   2.77438
   R25        2.05062  -0.00181   0.00000  -0.00511  -0.00511   2.04552
   R26        2.56803   0.00500   0.00000   0.00939   0.00939   2.57742
   R27        2.30211   0.00785   0.00000   0.00816   0.00816   2.31027
   R28        1.83247   0.00112   0.00000   0.00210   0.00210   1.83458
    A1        2.08551  -0.00030   0.00000  -0.00120  -0.00120   2.08431
    A2        2.09150  -0.00053   0.00000  -0.00210  -0.00210   2.08940
    A3        2.10618   0.00082   0.00000   0.00330   0.00330   2.10948
    A4        2.08043   0.00053   0.00000   0.00212   0.00212   2.08254
    A5        2.01653  -0.00018   0.00000  -0.00073  -0.00073   2.01579
    A6        2.18623  -0.00035   0.00000  -0.00138  -0.00138   2.18485
    A7        2.11632  -0.00063   0.00000  -0.00274  -0.00273   2.11359
    A8        2.09569   0.00049   0.00000   0.00248   0.00248   2.09817
    A9        2.07117   0.00014   0.00000   0.00025   0.00025   2.07143
   A10        2.08218   0.00060   0.00000   0.00261   0.00261   2.08479
   A11        2.05962   0.00028   0.00000   0.00100   0.00100   2.06062
   A12        2.14138  -0.00088   0.00000  -0.00361  -0.00361   2.13778
   A13        2.08440  -0.00049   0.00000  -0.00199  -0.00199   2.08241
   A14        2.09773   0.00011   0.00000   0.00015   0.00015   2.09789
   A15        2.10105   0.00038   0.00000   0.00184   0.00184   2.10288
   A16        2.11752   0.00028   0.00000   0.00120   0.00120   2.11872
   A17        1.96978   0.00059   0.00000   0.00231   0.00231   1.97209
   A18        2.19588  -0.00087   0.00000  -0.00351  -0.00351   2.19237
   A19        1.87304   0.00065   0.00000   0.00407   0.00407   1.87711
   A20        2.05959  -0.00172   0.00000  -0.00688  -0.00688   2.05271
   A21        1.84546  -0.00023   0.00000  -0.00083  -0.00084   1.84462
   A22        1.94533  -0.00046   0.00000  -0.00315  -0.00316   1.94217
   A23        1.94532  -0.00046   0.00000  -0.00315  -0.00316   1.94217
   A24        1.90737   0.00052   0.00000   0.00386   0.00385   1.91123
   A25        1.90738   0.00052   0.00000   0.00386   0.00385   1.91123
   A26        1.91148   0.00013   0.00000  -0.00026  -0.00027   1.91120
   A27        2.06583  -0.00209   0.00000  -0.00833  -0.00833   2.05749
   A28        1.93856  -0.00045   0.00000  -0.00313  -0.00314   1.93542
   A29        1.93856  -0.00045   0.00000  -0.00313  -0.00314   1.93542
   A30        1.84999  -0.00025   0.00000  -0.00097  -0.00097   1.84901
   A31        1.91520   0.00012   0.00000  -0.00029  -0.00030   1.91489
   A32        1.91015   0.00053   0.00000   0.00388   0.00388   1.91403
   A33        1.91016   0.00053   0.00000   0.00387   0.00387   1.91403
   A34        2.23653  -0.00164   0.00000  -0.00744  -0.00744   2.22909
   A35        2.02345   0.00065   0.00000   0.00264   0.00264   2.02609
   A36        2.02320   0.00100   0.00000   0.00481   0.00481   2.02801
   A37        2.09404  -0.00021   0.00000  -0.00096  -0.00096   2.09308
   A38        2.15298  -0.00017   0.00000  -0.00122  -0.00122   2.15176
   A39        2.03617   0.00038   0.00000   0.00219   0.00219   2.03835
   A40        1.94765  -0.00082   0.00000  -0.00326  -0.00326   1.94439
   A41        2.21203  -0.00022   0.00000  -0.00086  -0.00086   2.21116
   A42        2.12351   0.00103   0.00000   0.00413   0.00413   2.12764
   A43        1.85484   0.00050   0.00000   0.00310   0.00310   1.85794
    D1       -0.00003   0.00000   0.00000   0.00002   0.00001  -0.00001
    D2        3.14158   0.00000   0.00000   0.00000   0.00000   3.14158
    D3        3.14157   0.00000   0.00000   0.00002   0.00002   3.14158
    D4       -0.00001   0.00000   0.00000   0.00000   0.00000  -0.00001
    D5        0.00001  -0.00000   0.00000  -0.00000  -0.00000   0.00001
    D6       -3.14155  -0.00000   0.00000  -0.00003  -0.00003  -3.14159
    D7       -3.14159  -0.00000   0.00000  -0.00000  -0.00000  -3.14159
    D8        0.00004  -0.00000   0.00000  -0.00003  -0.00003   0.00000
    D9        3.14151   0.00000   0.00000   0.00003   0.00003   3.14154
   D10       -0.00008   0.00000   0.00000   0.00003   0.00003  -0.00005
   D11        0.00002  -0.00000   0.00000  -0.00001  -0.00001   0.00001
   D12       -3.14154  -0.00000   0.00000  -0.00003  -0.00003  -3.14157
   D13       -3.14158  -0.00000   0.00000   0.00000   0.00000  -3.14158
   D14        0.00004  -0.00000   0.00000  -0.00002  -0.00002   0.00002
   D15       -3.14156   0.00000   0.00000   0.00001   0.00001  -3.14155
   D16        0.00004  -0.00000   0.00000  -0.00000  -0.00000   0.00004
   D17        0.00000   0.00000   0.00000  -0.00000  -0.00000   0.00000
   D18       -3.14158   0.00000   0.00000  -0.00000  -0.00000  -3.14158
   D19        3.14157   0.00000   0.00000   0.00002   0.00002   3.14158
   D20       -0.00002   0.00000   0.00000   0.00002   0.00002  -0.00000
   D21       -0.00002   0.00000   0.00000   0.00002   0.00002  -0.00001
   D22        3.14153   0.00000   0.00000   0.00004   0.00004   3.14157
   D23        3.14156   0.00000   0.00000   0.00002   0.00002   3.14157
   D24       -0.00008   0.00000   0.00000   0.00004   0.00004  -0.00003
   D25        3.14154  -0.00000   0.00000  -0.00001  -0.00001   3.14153
   D26       -0.00005  -0.00000   0.00000  -0.00001  -0.00001  -0.00006
   D27       -0.00005  -0.00000   0.00000  -0.00001  -0.00001  -0.00005
   D28        3.14155  -0.00000   0.00000  -0.00001  -0.00001   3.14154
   D29        0.00002  -0.00000   0.00000  -0.00001  -0.00001   0.00000
   D30        3.14157   0.00000   0.00000   0.00002   0.00002  -3.14159
   D31       -3.14153  -0.00000   0.00000  -0.00004  -0.00004  -3.14157
   D32        0.00003  -0.00000   0.00000  -0.00001  -0.00001   0.00002
   D33        3.14157   0.00000   0.00000   0.00002   0.00002  -3.14159
   D34        0.00002  -0.00000   0.00000  -0.00001  -0.00001   0.00001
   D35        3.14152   0.00000   0.00000   0.00002   0.00002   3.14154
   D36       -1.07085   0.00025   0.00000   0.00246   0.00245  -1.06839
   D37        1.07070  -0.00025   0.00000  -0.00242  -0.00241   1.06830
   D38       -1.06839   0.00024   0.00000   0.00239   0.00238  -1.06600
   D39        1.06834  -0.00024   0.00000  -0.00237  -0.00237   1.06597
   D40        3.14158  -0.00000   0.00000   0.00000   0.00000   3.14158
   D41       -3.14159  -0.00000   0.00000  -0.00001  -0.00001   3.14158
   D42       -0.00001   0.00000   0.00000   0.00000   0.00000  -0.00001
   D43       -0.00001  -0.00000   0.00000  -0.00000  -0.00000  -0.00001
   D44        3.14157   0.00000   0.00000   0.00001   0.00001   3.14158
   D45       -3.14159  -0.00000   0.00000  -0.00003  -0.00003   3.14157
   D46       -0.00001   0.00000   0.00000   0.00004   0.00004   0.00003
   D47        0.00002  -0.00000   0.00000  -0.00004  -0.00004  -0.00002
   D48       -3.14159   0.00000   0.00000   0.00003   0.00003  -3.14156
   D49        3.14159   0.00000   0.00000   0.00003   0.00003  -3.14157
   D50        0.00001  -0.00000   0.00000  -0.00003  -0.00003  -0.00002
         Item               Value     Threshold  Converged?
 Maximum Force            0.007848     0.000450     NO 
 RMS     Force            0.001513     0.000300     NO 
 Maximum Displacement     0.064606     0.001800     NO 
 RMS     Displacement     0.013579     0.001200     NO 
 Predicted change in Energy=-2.914800D-04
 GradGradGradGradGradGradGradGradGradGradGradGradGradGradGradGradGradGrad

                          Input orientation:                          
 ---------------------------------------------------------------------
 Center     Atomic      Atomic             Coordinates (Angstroms)
 Number     Number       Type             X           Y           Z
 ---------------------------------------------------------------------
      1          6           0       -2.392414   -0.206713    0.000015
      2          6           0       -1.916244    1.113578    0.000012
      3          6           0       -0.537611    1.344005   -0.000005
      4          6           0        0.377663    0.275695   -0.000030
      5          6           0       -0.102780   -1.047056   -0.000040
      6          6           0       -1.473911   -1.272858   -0.000014
      7          8           0       -3.728598   -0.439468    0.000041
      8          8           0       -2.872481    2.080846    0.000028
      9          6           0       -2.440206    3.433967   -0.000025
     10          8           0       -2.081177   -2.503621   -0.000017
     11          6           0       -1.247905   -3.656755   -0.000041
     12          6           0        1.798316    0.591264   -0.000033
     13          6           0        2.836302   -0.272288    0.000011
     14          6           0        4.213105    0.237467   -0.000011
     15          8           0        5.120813   -0.780533    0.000067
     16          8           0        4.557732    1.410427   -0.000039
     17          1           0       -0.154855    2.355463    0.000012
     18          1           0        0.589391   -1.876706   -0.000081
     19          1           0       -3.858020   -1.400626   -0.000013
     20          1           0       -3.347896    4.032616   -0.000052
     21          1           0       -1.851591    3.662844    0.893635
     22          1           0       -1.851584    3.662772   -0.893698
     23          1           0       -0.619111   -3.683421   -0.894177
     24          1           0       -0.619062   -3.683422    0.894059
     25          1           0       -1.920344   -4.511064   -0.000025
     26          1           0        2.053281    1.648191   -0.000074
     27          1           0        2.714287   -1.347830    0.000064
     28          1           0        5.998727   -0.366106    0.000070
 ---------------------------------------------------------------------
                    Distance matrix (angstroms):
                    1          2          3          4          5
     1  C    0.000000
     2  C    1.403534   0.000000
     3  C    2.417648   1.397757   0.000000
     4  C    2.811769   2.442142   1.406774   0.000000
     5  C    2.438975   2.820814   2.430278   1.407302   0.000000
     6  C    1.407236   2.427084   2.779321   2.413782   1.389599
     7  O    1.356304   2.386751   3.655567   4.168074   3.676372
     8  O    2.337390   1.360146   2.448377   3.717796   4.177920
     9  C    3.640994   2.378811   2.826271   4.232620   5.054021
    10  O    2.317899   3.620958   4.145699   3.710862   2.456753
    11  C    3.634926   4.816924   5.050952   4.255190   2.849884
    12  C    4.266027   3.751102   2.454216   1.455279   2.509633
    13  C    5.229127   4.950486   3.741082   2.518966   3.039485
    14  C    6.620436   6.191646   4.877882   3.835632   4.502984
    15  O    7.535108   7.287512   6.044123   4.859330   5.230388
    16  O    7.135803   6.480778   5.095777   4.331350   5.268738
    17  H    3.401678   2.155172   1.081457   2.146860   3.402917
    18  H    3.417607   3.901283   3.412201   2.162790   1.080472
    19  H    1.890351   3.176746   4.307913   4.555334   3.771848
    20  H    4.345671   3.251217   3.889258   5.290959   6.027756
    21  H    4.008056   2.702128   2.811076   4.152227   5.102955
    22  H    4.008009   2.702090   2.811031   4.152165   5.102884
    23  H    4.003958   5.049092   5.106976   4.179433   2.831342
    24  H    4.003948   5.049080   5.106956   4.179410   2.831322
    25  H    4.330160   5.624643   6.016127   5.309793   3.911890
    26  H    4.817144   4.005364   2.608688   2.165973   3.451516
    27  H    5.232642   5.244077   4.221471   2.845284   2.833078
    28  H    8.392655   8.052095   6.756345   5.657585   6.139388
                    6          7          8          9         10
     6  C    0.000000
     7  O    2.403778   0.000000
     8  O    3.633638   2.661751   0.000000
     9  C    4.804990   4.082090   1.420493   0.000000
    10  O    1.372425   2.640970   4.652258   5.948433   0.000000
    11  C    2.394587   4.062606   5.963163   7.190266   1.422695
    12  C    3.765955   5.622204   4.902570   5.103531   4.962739
    13  C    4.424825   6.567028   6.174742   6.448090   5.400041
    14  C    5.884151   7.970501   7.321446   7.381338   6.865242
    15  O    6.613076   8.855981   8.490008   8.656270   7.405248
    16  O    6.601571   8.490311   7.460397   7.284631   7.706808
    17  H    3.860650   4.536879   2.731466   2.527054   5.226989
    18  H    2.149849   4.550899   5.258020   6.114058   2.743166
    19  H    2.387530   0.969832   3.618278   5.038203   2.091356
    20  H    5.626711   4.488260   2.008837   1.087328   6.657851
    21  H    5.030149   4.598981   2.084098   1.094294   6.235111
    22  H    5.030085   4.598948   2.084099   1.094294   6.235045
    23  H    2.709433   4.581677   6.253323   7.400886   2.080646
    24  H    2.709419   4.581672   6.253317   7.400891   2.080645
    25  H    3.268835   4.455073   6.660318   7.962021   2.013875
    26  H    4.579696   6.147231   4.944726   4.835330   5.859291
    27  H    4.188869   6.506603   6.554982   7.030958   4.932781
    28  H    7.527451   9.727602   9.202495   9.255061   8.357860
                   11         12         13         14         15
    11  C    0.000000
    12  C    5.227344   0.000000
    13  C    5.304278   1.350236   0.000000
    14  C    6.707279   2.440569   1.468141   0.000000
    15  O    6.988077   3.594553   2.340364   1.363913   0.000000
    16  O    7.705956   2.878439   2.407251   1.222540   2.262160
    17  H    6.110771   2.631971   3.981469   4.854377   6.137356
    18  H    2.558170   2.748158   2.760935   4.195358   4.662122
    19  H    3.450046   5.996813   6.788747   8.235679   9.000220
    20  H    7.970972   6.190832   7.535018   8.460017   9.740915
    21  H    7.398623   4.853356   6.185480   7.022275   8.316037
    22  H    7.398549   4.853305   6.185442   7.022239   8.316015
    23  H    1.093422   4.991631   4.937132   6.286749   6.494087
    24  H    1.093421   4.991598   4.937073   6.286698   6.494009
    25  H    1.087206   6.313650   6.371256   7.756787   7.968360
    26  H    6.248223   1.087246   2.073973   2.579725   3.912602
    27  H    4.585858   2.144548   1.082441   2.181656   2.472488
    28  H    7.958772   4.308133   3.163817   1.884874   0.970815
                   16         17         18         19         20
    16  O    0.000000
    17  H    4.806409   0.000000
    18  H    5.152958   4.297110   0.000000
    19  H    8.872819   5.274622   4.472820   0.000000
    20  H    8.329156   3.606710   7.100868   5.457137   0.000000
    21  H    6.852114   2.320931   6.119129   5.519338   1.781666
    22  H    6.852082   2.320919   6.119047   5.519281   1.781667
    23  H    7.317546   6.122354   2.350341   4.062169   8.233041
    24  H    7.317507   6.122331   2.350333   4.062188   8.233056
    25  H    8.776647   7.089861   3.638490   3.664616   8.662123
    26  H    2.515712   2.318641   3.816788   6.651223   5.904083
    27  H    3.317571   4.684693   2.189724   6.572519   8.105508
    28  H    2.287474   6.728559   5.616300   9.910888  10.329962
                   21         22         23         24         25
    21  H    0.000000
    22  H    1.787333   0.000000
    23  H    7.660476   7.448862   0.000000
    24  H    7.448943   7.660402   1.788235   0.000000
    25  H    8.222902   8.222833   1.782612   1.782614   0.000000
    26  H    4.483923   4.483868   6.030522   6.030505   7.329810
    27  H    6.837584   6.837552   4.167276   4.167185   5.611225
    28  H    8.868957   8.868939   7.456543   7.456469   8.938253
                   26         27         28
    26  H    0.000000
    27  H    3.068073   0.000000
    28  H    4.429892   3.428022   0.000000
 Stoichiometry    C11H12O5
 Framework group  C1[X(C11H12O5)]
 Deg. of freedom    78
 Full point group                 C1      NOp   1
 Largest Abelian subgroup         C1      NOp   1
 Largest concise Abelian subgroup C1      NOp   1
                         Standard orientation:                         
 ---------------------------------------------------------------------
 Center     Atomic      Atomic             Coordinates (Angstroms)
 Number     Number       Type             X           Y           Z
 ---------------------------------------------------------------------
      1          6           0       -2.389596    0.217341   -0.000020
      2          6           0       -1.919884   -1.105261   -0.000017
      3          6           0       -0.542394   -1.342423   -0.000001
[...]
 218,0.12787613,0.04316687,0.24749248,0.00049815,-0.00004714,0.00003159
 ,-0.00096979,0.00193081,-0.00085076,0.00037777,-0.00061741,-0.00033572
 ,-0.00011334,0.00038727,0.00030101,0.00012515,-0.00042361,0.00005652,0
 .00012332,0.00020194,0.00001549,-0.00034905,-0.00011555,-0.00005359,-0
 .00504443,-0.01181567,0.00683986,-0.12694361,-0.02124480,0.11497799,0.
 00004428,-0.00019034,-0.00000572,-0.00005627,0.00007397,0.00000259,-0.
 00015989,-0.00001118,-0.00004200,0.00016285,-0.00000593,0.00001914,-0.
 00025385,-0.00007918,-0.00001541,0.00010868,-0.00003480,-0.00000455,0.
 00010848,0.00009032,-0.00000010,-0.00050821,0.00104752,-0.00090566,0.0
 0000456,-0.00000301,-0.00005082,0.00004446,0.00005932,0.00003058,-0.01
 192982,-0.00484334,0.02338991,0.01027932,0.00395876,-0.01552291,0.1344
 5250,0.00000506,-0.00174762,-0.00062844,-0.00566132,0.00592020,0.00159
 469,0.00075328,0.00074300,-0.00022800,0.00045107,-0.00063833,-0.000369
 55,0.00064936,0.00039572,0.00009168,-0.00094816,0.00057690,-0.00031343
 ,0.00021580,0.00006600,0.00003361,-0.02209190,-0.02623600,0.02869076,-
 0.01808046,-0.05688078,0.03151995,0.00007324,-0.00027018,0.00002800,-0
 .00004200,0.00007480,0.00004933,-0.00020537,-0.00007034,-0.00003427,0.
 00020380,-0.00000913,-0.00005571,-0.00017589,-0.00008258,0.00002708,0.
 00005904,-0.00001862,0.00000066,0.00005983,0.00007879,-0.00001160,0.00
 095122,-0.00073424,0.00110268,0.00002805,0.00001468,0.00005470,0.00010
 855,-0.00000140,0.00003833,0.00796990,0.00539128,-0.01480788,0.0039591
 9,0.00370379,-0.00364478,0.03168846,0.06976275,-0.00034469,0.00038667,
 -0.00024351,0.00126555,-0.00127536,0.00056845,0.00089091,0.00090358,-0
 .00004627,-0.00039829,-0.00030650,-0.00004210,-0.00012516,-0.00002353,
 -0.00004657,0.00024224,-0.00009366,-0.00006650,-0.00002178,-0.00008712
 ,0.00007433,-0.00151490,0.00522548,0.00749273,0.11497590,0.03596603,-0
 .23639998,-0.00011294,-0.00005006,0.00001745,-0.00000439,0.00000175,0.
 00000294,0.00005967,0.00009546,0.00010149,-0.00004387,-0.00002424,-0.0
 0001667,-0.00001314,0.00008908,-0.00000507,0.00003142,-0.00004087,0.00
 000379,0.00000379,-0.00006943,0.00001622,-0.00063573,-0.00032265,-0.00
 014322,-0.00002312,-0.00006278,0.00001061,-0.00002426,-0.00003211,-0.0
 0001916,-0.00181843,-0.00075485,0.00189200,0.01552207,0.00364385,-0.02
 062265,-0.12787268,-0.04316127,0.24750640,-0.00006097,0.00056644,-0.00
 008979,0.00009176,-0.00029448,-0.00007479,-0.00001231,0.00031330,-0.00
 002386,0.00024836,-0.00005494,0.00027126,0.00016066,0.00036408,-0.0003
 9089,-0.00089700,-0.00372157,-0.00043153,-0.00005226,0.00027718,-0.000
 12309,-0.00005188,0.00024687,0.00000880,-0.00003185,-0.00011450,0.0000
 1789,-0.01790179,0.01429659,0.01536981,-0.13257537,-0.00399874,0.12010
 211,-0.00019376,0.00008393,-0.00000070,0.00026988,-0.00004162,-0.00000
 266,-0.00035081,-0.00005648,0.00002177,0.00014503,-0.00006514,-0.00000
 106,0.00012195,0.00008116,-0.00000454,0.00002039,0.00000777,-0.0000293
 3,0.00004809,-0.00067398,-0.00047794,0.00059149,-0.00038036,0.00028652
 ,-0.00001141,0.00001738,0.00000184,0.00001677,0.00001631,-0.00000480,0
 .00001608,0.00001134,0.00000260,0.14745863,0.00101116,-0.00130839,0.00
 073991,0.00056536,0.00061869,0.00002329,-0.00050103,0.00024927,0.00016
 741,-0.00032157,-0.00077146,0.00027341,-0.00081817,0.00063541,0.000243
 61,0.00294277,0.00585666,-0.00169249,-0.00051754,-0.00052778,-0.000005
 16,-0.00000614,-0.00014852,-0.00002609,0.00000152,0.00004505,-0.000042
 73,0.02622517,-0.01416827,-0.02497737,-0.00771855,-0.05173972,0.006995
 01,0.00022566,-0.00004305,-0.00002025,-0.00011625,0.00003851,0.0000474
 1,0.00006226,0.00004742,-0.00001789,-0.00001672,0.00000782,0.00000156,
 -0.00000653,-0.00002236,0.00000347,-0.00003185,0.00000777,-0.00004848,
 -0.00058879,-0.00122133,-0.00125557,-0.00061968,0.00042886,-0.00022219
 ,-0.00000108,-0.00000677,0.00000010,-0.00000130,-0.00003073,0.00000112
 ,-0.00000090,-0.00000982,0.00000704,-0.00580299,0.05725001,-0.00011748
 ,-0.00033351,-0.00028069,0.00004973,0.00002082,-0.00003013,0.00014252,
 -0.00003144,0.00001820,-0.00064157,0.00011853,-0.00008084,0.00122209,-
 0.00040932,0.00008170,0.00061711,0.00128462,0.00045551,-0.00017628,0.0
 0004587,0.00005745,-0.00011553,0.00005317,0.00001625,-0.00000853,-0.00
 001009,0.00000545,-0.00001524,-0.00492390,0.00760836,0.12198884,0.0024
 3775,-0.23896077,0.00007332,-0.00004544,-0.00004942,-0.00008744,-0.000
 05270,0.00003710,0.00003205,-0.00002857,-0.00002550,-0.00001531,0.0000
 4024,0.00001702,0.00002875,0.00005638,0.00000571,-0.00004277,0.0000479
 6,0.00000838,-0.00068842,0.00007852,-0.00010378,-0.00010016,0.00010077
 ,-0.00001711,-0.00000174,-0.00000152,-0.00000017,0.00000496,0.00000253
 ,0.00000034,0.00000679,-0.00000479,0.00000093,-0.13588677,-0.00009256,
 0.24954986,-0.00005942,0.00057458,0.00013529,0.00005703,-0.00031667,0.
 00005613,0.00005627,0.00030333,-0.00004811,0.00021590,-0.00004306,-0.0
 0023116,0.00017305,0.00036432,0.00036897,-0.00089919,-0.00372126,0.000
 39673,-0.00005086,0.00027682,0.00012119,-0.00005089,0.00024852,-0.0000
 0772,-0.00003277,-0.00011296,-0.00001955,-0.01790205,0.01429643,-0.015
 36837,-0.13258302,-0.00399884,-0.12010236,-0.00020635,0.00008729,0.000
 07282,0.00026193,-0.00003690,-0.00002535,-0.00034482,-0.00005436,-0.00
 000506,0.00014528,-0.00006582,0.00000180,0.00012146,0.00008140,0.00000
 553,0.00002040,0.00000785,0.00002965,0.00004774,-0.00067381,0.00047709
 ,0.00059156,-0.00038021,-0.00028613,-0.00001149,0.00001736,-0.00000217
 ,0.00001650,0.00001121,-0.00000262,0.00001624,0.00001611,0.00000435,0.
 01217492,-0.00107455,0.01589590,0.14746770,0.00101131,-0.00130525,-0.0
 0077208,0.00056965,0.00061406,-0.00001052,-0.00050690,0.00024831,-0.00
 011725,-0.00031894,-0.00077196,-0.00030105,-0.00082228,0.00063265,-0.0
 0022846,0.00293941,0.00585226,0.00171678,-0.00051695,-0.00052644,0.000
 00686,-0.00000829,-0.00014833,0.00002551,0.00000189,0.00004555,0.00004
 408,0.02622565,-0.01416837,0.02497596,-0.00771715,-0.05173785,-0.00699
 493,0.00022621,-0.00004752,-0.00002982,-0.00011153,0.00004032,-0.00002
 737,0.00006506,0.00004501,0.00000546,-0.00001498,0.00000851,-0.0000018
 5,-0.00000905,-0.00002145,-0.00000393,-0.00003041,0.00001228,0.0000481
 4,-0.00058987,-0.00122041,0.00125601,-0.00061892,0.00042894,0.00022174
 ,-0.00000095,-0.00000655,0.00000003,-0.00000053,-0.00000976,-0.0000067
 6,-0.00000028,-0.00003062,-0.00000120,-0.00107491,0.00205664,0.0015260
 4,-0.00580494,0.05725070,0.00011853,0.00034096,-0.00019856,-0.00006625
 ,-0.00003777,-0.00006305,-0.00010763,0.00002478,-0.00011044,0.00062492
 ,-0.00011203,-0.00000970,-0.00121843,0.00040702,0.00004285,-0.00062123
 ,-0.00128810,0.00039319,0.00017760,-0.00004493,0.00005331,0.00011425,-
 0.00005205,0.00001784,0.00000831,0.00001143,0.00000211,0.00001624,0.00
 492311,0.00760989,-0.12199202,-0.00243472,-0.23894689,-0.00008018,0.00
 004351,0.00007913,0.00008688,0.00005705,-0.00001404,-0.00002612,0.0000
 2771,0.00000594,0.00001696,-0.00004004,0.00001788,-0.00003123,-0.00005
 547,0.00000703,0.00004402,-0.00004400,0.00000918,0.00068718,-0.0000775
 4,-0.00010500,0.00010082,-0.00010061,-0.00001598,0.00000181,0.00000170
 ,-0.00000058,-0.00000538,0.00000483,0.00000092,-0.00000522,-0.00000262
 ,-0.00000022,-0.01589719,-0.00152458,-0.02034236,0.13588947,0.00009007
 ,0.24953914,0.00093412,0.00109353,-0.00003268,-0.00065948,-0.00009470,
 0.00001339,0.00030343,-0.00020066,0.00005162,0.00045478,0.00012175,-0.
 00002877,-0.00110447,0.00014852,0.00001576,-0.00246625,0.00344691,0.00
 002504,0.00003646,-0.00020630,0.00000140,0.00014224,0.00003864,-0.0000
 0077,-0.00001626,0.00005751,0.00000121,0.01335346,0.02735755,-0.000000
 36,-0.17143374,-0.15105985,-0.00000131,-0.00006284,0.00007699,-0.00005
 174,-0.00006932,0.00005088,0.00002015,0.00016256,0.00001593,-0.0000120
 7,-0.00006559,0.00001634,-0.00000050,-0.00007058,-0.00004603,-0.000000
 69,0.00003768,-0.00003867,-0.00000024,0.00062467,-0.00058606,0.0000005
 5,-0.00007664,0.00013326,-0.00000031,0.00000792,0.00000877,0.00000023,
 -0.00000788,0.00000006,0.00000185,-0.00000720,0.00000011,-0.00000152,-
 0.00920123,-0.01288185,-0.00211956,-0.00920172,-0.01288189,0.00212039,
 0.17833549,-0.00154600,-0.00153474,-0.00000286,0.00041439,0.00026605,0
 .00000134,-0.00006721,-0.00002915,0.00000490,-0.00039080,-0.00012227,-
 0.00000288,0.00088016,0.00011482,0.00000156,0.00489252,-0.00092035,0.0
 0000224,0.00033510,0.00023709,-0.00000004,0.00006573,-0.00044301,-0.00
 000015,0.00007585,0.00011614,0.00000002,-0.01255379,-0.03569015,-0.000
 00011,-0.13724492,-0.21122676,0.00000116,0.00027316,-0.00006640,-0.000
 00495,-0.00024302,0.00001925,0.00000165,0.00029795,0.00005330,-0.00000
 078,-0.00012855,0.00006297,-0.00000016,-0.00009603,-0.00006323,-0.0000
 0017,-0.00002601,-0.00000103,0.00000003,-0.00016442,0.00028671,0.00000
 014,-0.00014970,-0.00020521,0.00000006,0.00000337,-0.00003206,0.000000
 07,-0.00001731,-0.00001424,-0.00000234,-0.00001724,-0.00001423,0.00000
 244,-0.00003181,0.00273956,0.00010035,-0.00003170,0.00273989,-0.000100
 34,0.14546486,0.24374408,-0.00000057,-0.00000298,0.00038701,0.00001234
 ,0.00000799,-0.00007849,-0.00002440,0.00000357,-0.00003473,0.00001154,
 -0.00000424,0.00023558,-0.00000434,-0.00000004,0.00015753,0.00000093,-
 0.00000014,0.00069130,-0.00000050,0.00000011,-0.00012688,-0.00000032,-
 0.00000060,-0.00003717,0.00000032,-0.00000056,-0.00000371,-0.00000040,
 -0.00000051,0.00021640,0.00000102,0.00000208,-0.05356808,0.00000449,-0
 .00000113,0.00005085,0.00000277,-0.00000171,0.00001684,-0.00000218,-0.
 00000072,0.00000071,-0.00000011,0.00000024,0.00000442,0.00000021,-0.00
 000010,-0.00000087,-0.00000003,-0.00000009,-0.00002868,0.00000012,-0.0
 0000006,-0.00049427,-0.00000003,-0.00000006,0.00017888,0.00000003,0.,0
 .00000272,-0.00000236,-0.00000035,-0.00000044,0.00000238,0.00000046,-0
 .00000028,0.01737496,0.02143957,0.00207753,-0.01737455,-0.02143922,0.0
 0207797,-0.00000134,-0.00000122,0.04831280,0.00003464,0.00026498,-0.00
 004845,-0.00015407,-0.00003381,0.00001957,0.00130894,-0.00204163,0.000
 07594,-0.00597365,-0.02933105,-0.00004064,-0.00542841,0.00077031,0.000
 02330,0.00064991,-0.00164906,0.00003680,-0.00002527,0.00012250,0.00000
 231,0.00002157,0.00020898,-0.00000100,-0.00008953,-0.00012639,0.000001
 92,-0.00057230,-0.00003497,-0.00000044,-0.00005555,0.00011196,-0.00000
 351,-0.07205914,-0.06340805,-0.00007230,0.00861804,0.02638568,0.000028
 44,-0.00037959,0.00442437,-0.00001864,0.00101529,-0.00166649,-0.000000
 34,-0.00018417,-0.00197585,-0.00000081,-0.00070274,0.00108435,-0.00000
 037,0.00013615,0.00000825,0.00000077,0.00004848,-0.00003173,-0.0000006
 1,0.00003699,0.00002338,0.00000027,-0.00000343,0.00001532,0.00005340,-
 0.00000244,0.00001540,-0.00005302,0.00000685,0.00000655,0.00000222,0.0
 0000702,0.00000754,-0.00000126,0.00000132,-0.00001132,-0.00000008,0.07
 767837,0.00029264,0.00009666,-0.00017064,-0.00048705,-0.00015304,0.000
 06927,0.00295926,0.00100788,0.00026857,-0.00027699,-0.00457008,-0.0001
 4917,-0.00018368,0.00112484,0.00008196,0.00011305,-0.00007664,0.000130
 09,-0.00018871,0.00000075,0.00000777,-0.00006344,0.00014168,-0.0000037
 5,-0.00005795,-0.00005993,0.00000654,-0.00010336,-0.00004617,-0.000001
 60,0.00000082,0.00001327,-0.00001237,-0.06172153,-0.32367097,-0.000252
 77,-0.00493731,-0.02050613,0.00010716,-0.00110994,-0.00238346,-0.00006
 412,-0.00002216,0.00060069,-0.00000236,-0.00127025,0.00194998,-0.00000
 333,-0.00023011,0.00062258,-0.00000131,0.00011994,0.00010318,0.0000028
 4,0.00003332,0.00002761,-0.00000187,0.00000173,0.00000789,0.00000109,-
 0.00000329,0.00000866,0.00000685,0.00000023,0.00000894,-0.00000532,0.0
 0001131,0.00000078,0.00001978,0.00001163,0.00000430,-0.00001654,-0.000
 01297,-0.00000582,-0.00000016,0.06439588,0.34634920,0.00000031,0.00000
 158,0.00017368,-0.00000030,-0.00000313,0.00008602,0.00000158,-0.000000
 99,-0.00131622,-0.00000177,0.00000077,0.00334454,-0.00000058,-0.000000
 99,0.00272349,-0.00000178,-0.00000155,0.00037464,0.00000020,0.00000046
 ,-0.00005980,-0.00000078,0.00000018,0.00001654,0.00000009,0.00000027,0
 .00007287,-0.00000012,0.00000001,-0.00051108,0.00000011,0.00000065,0.0
 0006729,0.00000458,0.00001396,-0.04226765,0.00000032,0.00000321,0.0064
 7185,0.00000222,-0.00000086,-0.00741623,0.00000055,0.00000028,0.000442
 04,-0.00000103,-0.00000002,0.00012124,0.00000059,0.00000170,0.00022047
 ,-0.00000049,0.00000042,-0.00001916,0.00000029,0.00000006,-0.00000624,
 0.00000004,0.00000009,-0.00001221,0.00001092,-0.00002750,-0.00002373,-
 0.00001038,0.00002755,-0.00002389,-0.00000148,-0.00000223,-0.00000064,
 0.00000111,0.00000248,-0.00000130,0.00000027,0.00000002,-0.00000652,-0
 .00000325,-0.00001701,0.02718530,0.00004451,-0.00003808,0.00002163,-0.
 00011107,-0.00008558,-0.00000878,0.00012406,-0.00010522,-0.00003406,0.
 00051461,-0.00098353,0.00001894,-0.00089839,0.00069867,-0.00001039,-0.
 00011280,-0.00027587,-0.00001645,-0.00000492,-0.00007004,-0.00000099,0
 .00015313,-0.00022147,0.00000047,0.00004694,0.00011070,-0.00000083,0.0
 0007136,0.00006860,0.00000020,-0.00001999,0.00003358,0.00000156,0.0095
 0930,0.02614806,0.00003250,-0.06231431,-0.03222091,-0.00001065,0.00348
 598,-0.02990843,0.00001050,-0.00073040,0.00134024,-0.00000005,-0.00741
 750,-0.00337473,0.00000009,0.00011260,-0.00016036,0.00000017,-0.002124
 63,-0.00080141,-0.00000060,-0.00004241,0.00001715,0.00000024,-0.000002
 31,-0.00001080,-0.00000014,-0.00000909,-0.00000812,-0.00001452,-0.0000
 0953,-0.00000815,0.00001433,-0.00000959,-0.00001685,-0.00004109,-0.000
 00963,-0.00001730,0.00004069,0.00003531,-0.00000046,0.00000002,-0.0037
 9045,0.00263168,-0.00000022,0.06281086,-0.00011841,-0.00012773,-0.0000
 1113,0.00016084,-0.00004874,0.00000410,0.00001117,0.00007492,0.0000168
 1,-0.00097750,-0.00017328,-0.00000948,-0.00056981,-0.00024707,0.000004
 81,0.00017570,0.00062645,0.00000821,-0.00007966,0.00007010,0.00000087,
 -0.00006791,0.00018869,-0.00000005,-0.00004624,-0.00010000,0.00000060,
 0.00001500,-0.00008510,-0.00000005,0.00001265,0.00004751,-0.00000079,-
 0.00468783,-0.01543222,-0.00001556,-0.03558647,-0.34551752,0.00002822,
 0.00467806,-0.00938641,-0.00000423,0.00070713,0.00163237,-0.00000013,-
 0.00233417,0.00067301,0.00000021,-0.00004566,0.00014219,-0.00000018,-0
 .00085336,0.00087286,0.00000006,0.00003638,0.00000246,-0.00000031,0.00
 000185,0.00000994,-0.00000003,0.00000912,0.00000603,0.00001606,0.00000
 934,0.00000604,-0.00001610,0.00001071,0.00001361,-0.00000022,0.0000109
 6,0.00001380,0.00000054,-0.00001741,-0.00000626,-0.00000009,0.00244159
 ,-0.00059286,0.00000090,0.03713396,0.36720181,-0.00000017,-0.00000027,
 -0.00040987,0.00000439,0.00000173,-0.00001931,-0.00000836,0.00000090,-
 0.00008720,0.00000383,-0.00000180,-0.00527117,-0.00000223,-0.00000029,
 -0.00038116,-0.00000010,-0.00000089,-0.00043313,-0.00000002,0.00000022
 ,0.00031370,-0.00000040,-0.00000019,0.00002798,0.00000017,-0.00000007,
 0.00003039,-0.00000008,0.00000013,0.00002085,0.,0.00000042,0.00019552,
 0.00000207,0.00000018,0.00353350,0.00000435,0.00002070,-0.03239401,-0.
 00000044,0.00000060,-0.00041929,0.00000024,-0.00000019,-0.00059584,-0.
 00000037,0.00000004,0.00285147,0.00000023,0.00000064,0.00016485,-0.000
 00034,0.,0.00128913,0.00000009,0.,0.00000673,0.00000003,0.00000003,-0.
 00000235,-0.00000022,-0.00000122,-0.00000652,0.00000043,0.00000128,-0.
 00000652,-0.00001876,-0.00001639,-0.00004153,0.00001861,0.00001646,-0.
 00004171,0.00000011,0.00000003,-0.00003062,-0.00000007,0.00000100,0.01
 019696,-0.00000267,-0.00002291,0.02179825,-0.00039196,-0.00012973,0.00
 012248,0.00028409,0.00058461,-0.00004992,-0.00088426,0.00014832,-0.000
 19326,0.00061878,0.00044157,0.00010765,-0.00011202,-0.00013254,-0.0000
 5879,0.00009797,-0.00035770,-0.00009347,0.00040860,0.00013238,-0.00000
 543,0.00010287,-0.00022859,0.00000277,0.00002295,0.00008068,-0.0000046
 2,0.00005256,0.00028197,0.00000116,0.00005402,-0.00008965,0.00000889,-
 0.00169682,-0.00078070,0.00019342,-0.00041703,0.00558989,-0.00007693,-
 0.04394644,-0.01375391,0.00004405,-0.40379627,-0.15530464,-0.00001522,
 0.00719161,-0.00624358,0.00000354,-0.00002461,0.00002112,0.00000095,-0
 .00002396,-0.00001960,-0.00000211,-0.00003187,-0.00006243,0.00000127,0
 .00001660,-0.00001010,-0.00000082,-0.00001185,-0.00000535,0.00000374,-
 0.00001439,-0.00000554,-0.00000489,-0.00002064,0.00000190,-0.00000637,
 -0.00002077,-0.00000064,0.00000410,0.00001375,0.00001721,0.00000008,-0
 .00014282,0.00009724,-0.00000102,0.00069837,-0.00003004,-0.00000033,0.
 44197354,0.00008031,-0.00002014,0.00003768,0.00011998,-0.00001171,-0.0
 0001564,-0.00014530,0.00006106,-0.00006021,0.00022550,-0.00031495,0.00
 003372,-0.00007976,-0.00002757,-0.00001841,0.00000531,0.00010132,-0.00
 002895,-0.00009808,-0.00002869,-0.00000139,-0.00001988,0.00000859,0.00
 000101,0.00001483,0.00000146,-0.00000128,-0.00001503,-0.00010533,0.000
 00040,-0.00002947,0.00005092,0.00000276,0.00122839,0.00077423,0.000060
 34,0.00257413,-0.00401373,-0.00002253,0.03869576,0.02026662,0.00001561
 ,-0.20653097,-0.13860771,-0.00000371,-0.00597672,-0.00298320,0.0000000
 4,0.00001322,-0.00000755,0.00000020,0.00001217,0.00001943,-0.00000079,
 0.00000813,0.00001660,0.00000024,-0.00000324,0.00000121,-0.00000033,0.
 00000326,0.00000106,-0.00000613,0.00000247,0.00000100,0.00000566,0.000
 00713,0.00000212,0.00000075,0.00000728,0.00000131,-0.00000137,-0.00000
 523,-0.00000495,-0.00000004,0.00002331,-0.00000380,-0.00000028,0.00012
 466,0.00013541,-0.00000014,0.16975785,0.12468699,-0.00000012,-0.000000
 87,-0.00005292,0.00000092,0.00000177,0.00011800,-0.00000224,0.00000060
 ,-0.00026827,0.00000107,-0.00000043,-0.00045304,0.00000008,0.00000042,
 0.00000861,0.00000065,0.00000067,0.00005137,-0.00000013,-0.00000018,-0
 .00000756,0.00000030,-0.00000012,0.00000179,-0.00000001,-0.00000014,0.
 00003043,0.00000004,-0.00000001,-0.00000968,-0.00000006,-0.00000022,0.
 00003512,0.00000026,0.00000042,0.00090371,-0.00000033,0.00000076,0.004
 48630,-0.00000872,-0.00000240,0.00409494,-0.00001226,-0.00000088,-0.01
 550025,0.00000187,-0.00000042,-0.00572884,-0.00000023,-0.00000071,-0.0
 0001568,0.00000020,-0.00000016,-0.00000147,-0.00000012,-0.00000002,0.0
 0000983,-0.00000002,-0.00000003,0.00000121,-0.00000146,-0.00000158,-0.
 00000481,0.00000124,0.00000156,-0.00000474,0.00000164,0.00000105,-0.00
 000683,-0.00000149,-0.00000116,-0.00000655,-0.00000011,0.,0.00000020,-
 0.00000017,-0.00000055,0.00016772,0.00000010,-0.00000013,-0.00028913,0
 .00001908,0.00000279,0.01244054\\0.00001961,0.00001125,-0.00000006,0.0
 0001693,-0.00001460,-0.00000009,-0.00001362,-0.00001418,-0.00000009,-0
 .00002542,-0.00001238,-0.00000065,0.00000111,0.00001281,0.00000007,0.0
 0001277,0.00002765,-0.00000002,-0.00001757,0.00000539,0.00000007,-0.00
 003199,-0.00001554,0.00000021,0.00003189,0.00002123,-0.00000011,-0.000
 03794,0.00000376,0.,0.00003043,-0.00002152,-0.00000003,0.00001512,-0.0
 0001015,0.00000098,0.00000993,0.00002486,0.00000598,-0.00000448,0.0000
 1668,-0.00002114,0.00000589,0.00000115,0.00000626,-0.00000638,-0.00003
 770,0.00000812,0.00000582,0.00001045,-0.00000004,0.00000438,-0.0000023
 1,0.00000003,0.00000826,0.00000123,-0.00000003,-0.00000898,0.00000290,
 0.,0.00000335,-0.00000058,0.00000860,0.00000338,-0.00000062,-0.0000085
 8,-0.00000238,-0.00000071,-0.00000838,-0.00000238,-0.00000070,0.000008
 38,-0.00001241,-0.00000095,0.,0.00000223,0.00000481,0.00000018,-0.0000
 0091,-0.00001042,0.00000025,-0.00000665,-0.00000178,0.00000007\\\@


 OLD HORSE! OLD HORSE! WHAT BROUGHT YOU HERE?
 FROM SACARAP' TO PORTLAND PIER
 I'VE CARTED STONE THIS MANY A YEAR;
 TILL, KILLED BY BLOWS AND SORE ABUSE,
 THEY SALTED ME DOWN FOR SAILORS' USE.
 THE SAILORS THEY DO ME DESPISE;
 THEY TURN ME OVER AND DAMN MY EYES;
 CUT OFF MY MEAT, AND SCRAPE MY BONES,
 AND PITCH ME OVER TO DAVY JONES.

    SAILORS' COMPLAINT ABOUT THE BEEF
    SERVED ON SHIPBOARD, CIRCA 1835.
 Job cpu time:       1 days  2 hours 16 minutes 33.2 seconds.
 File lengths (MBytes):  RWF= 102744 Int=      0 D2E=      0 Chk=     15 Scr=      1
 Normal termination of Gaussian 09 at Wed Dec 18 14:34:02 2024.
