 Entering Gaussian System, Link 0=g09
 Input=B2PLYPD3BJSAYang.gjf
 Output=B2PLYPD3BJSAYang.log
 Initial command:
 /home/c612/g09E/g09/l1.exe "/mnt/ja_sm883/scratch/Gau-1875383.inp" -scrdir="/mnt/ja_sm883/scratch/"
 Default is to use a total of  18 processors:
                               18 via shared-memory
                                1 via Linda
 Entering Link 1 = /home/c612/g09E/g09/l1.exe PID=   1875385.
  
 Copyright (c) 1988,1990,1992,1993,1995,1998,2003,2009,2015,
            Gaussian, Inc.  All Rights Reserved.
  
 This is part of the Gaussian(R) 09 program.  It is based on
 the Gaussian(R) 03 system (copyright 2003, Gaussian, Inc.),
 the Gaussian(R) 98 system (copyright 1998, Gaussian, Inc.),
 the Gaussian(R) 94 system (copyright 1995, Gaussian, Inc.),
 the Gaussian 92(TM) system (copyright 1992, Gaussian, Inc.),
 the Gaussian 90(TM) system (copyright 1990, Gaussian, Inc.),
 the Gaussian 88(TM) system (copyright 1988, Gaussian, Inc.),
 the Gaussian 86(TM) system (copyright 1986, Carnegie Mellon
 University), and the Gaussian 82(TM) system (copyright 1983,
 Carnegie Mellon University). Gaussian is a federally registered
 trademark of Gaussian, Inc.
  
 This software contains proprietary and confidential information,
 including trade secrets, belonging to Gaussian, Inc.
  
 This software is provided under written license and may be
 used, copied, transmitted, or stored only in accord with that
 written license.
  
 The following legend is applicable only to US Government
 contracts under FAR:
  
                    RESTRICTED RIGHTS LEGEND
  
 Use, reproduction and disclosure by the US Government is
 subject to restrictions as set forth in subparagraphs (a)
 and (c) of the Commercial Computer Software - Restricted
 Rights clause in FAR 52.227-19.
  
 Gaussian, Inc.
 340 Quinnipiac St., Bldg. 40, Wallingford CT 06492
  
  
 ---------------------------------------------------------------
 Warning -- This program may not be used in any manner that
 competes with the business of Gaussian, Inc. or will provide
 assistance to any competitor of Gaussian, Inc.  The licensee
 of this program is prohibited from giving any competitor of
 Gaussian, Inc. access to this program.  By using this program,
 the user acknowledges that Gaussian, Inc. is engaged in the
 business of creating and licensing software in the field of
 computational chemistry and represents and warrants to the
 licensee that it is not a competitor of Gaussian, Inc. and that
 it will not use this program in any manner prohibited above.
 ---------------------------------------------------------------
  

 Cite this work as:
 Gaussian 09, Revision E.01,
 M. J. Frisch, G. W. Trucks, H. B. Schlegel, G. E. Scuseria, 
 M. A. Robb, J. R. Cheeseman, G. Scalmani, V. Barone, B. Mennucci, 
 G. A. Petersson, H. Nakatsuji, M. Caricato, X. Li, H. P. Hratchian, 
 A. F. Izmaylov, J. Bloino, G. Zheng, J. L. Sonnenberg, M. Hada, 
 M. Ehara, K. Toyota, R. Fukuda, J. Hasegawa, M. Ishida, T. Nakajima, 
 Y. Honda, O. Kitao, H. Nakai, T. Vreven, J. A. Montgomery, Jr., 
 J. E. Peralta, F. Ogliaro, M. Bearpark, J. J. Heyd, E. Brothers, 
 K. N. Kudin, V. N. Staroverov, T. Keith, R. Kobayashi, J. Normand, 
 K. Raghavachari, A. Rendell, J. C. Burant, S. S. Iyengar, J. Tomasi, 
 M. Cossi, N. Rega, J. M. Millam, M. Klene, J. E. Knox, J. B. Cross, 
 V. Bakken, C. Adamo, J. Jaramillo, R. Gomperts, R. E. Stratmann, 
 O. Yazyev, A. J. Austin, R. Cammi, C. Pomelli, J. W. Ochterski, 
 R. L. Martin, K. Morokuma, V. G. Zakrzewski, G. A. Voth, 
 P. Salvador, J. J. Dannenberg, S. Dapprich, A. D. Daniels, 
 O. Farkas, J. B. Foresman, J. V. Ortiz, J. Cioslowski, 
 and D. J. Fox, Gaussian, Inc., Wallingford CT, 2013.
 
 ******************************************
 Gaussian 09:  ES64L-G09RevE.01 30-Nov-2015
                18-Dec-2024 
 ******************************************
 %chk=B2PLYPD3BJSAYang.chk
 -------------------------------------------------------
 # opt freq B2PLYP/6-31+g(d,p) EmpiricalDispersion=GD3BJ
 -------------------------------------------------------
 1/18=20,19=15,38=1/1,3;
 2/9=110,12=2,17=6,18=5,40=1/2;
 3/5=1,6=6,7=111,11=9,16=1,25=1,30=1,71=1,74=-47,124=41/1,2,3;
 4//1;
 5/5=2,38=5/2;
 8/6=4,10=2/1;
 9/15=2,16=-3/6;
 10/5=1/2;
 6/7=2,8=2,9=2,10=2/1;
 7/12=2/1,2,3,16;
 1/18=20,19=15/3(2);
 2/9=110/2;
 99//99;
 2/9=110/2;
 3/5=1,6=6,7=111,11=9,16=1,25=1,30=1,71=1,74=-47,124=41/1,2,3;
 4/5=5,16=3,69=1/1;
 5/5=2,38=5/2;
 8/6=4,10=2/1;
 9/15=2,16=-3/6;
 10/5=1/2;
 7/12=2/1,2,3,16;
 1/18=20,19=15/3(-8);
 2/9=110/2;
 6/7=2,8=2,9=2,10=2/1;
 99//99;
 ----------
 [No Title]
 ----------
 Symbolic Z-matrix:
 Charge =  1 Multiplicity = 1
 C                     2.39977   0.19741  -0.00093 
 C                     1.92442  -1.13829   0.00673 
 C                     0.55613  -1.34974   0.01083 
 C                    -0.35861  -0.26016   0.00797 
 C                     0.1316    1.07468  -0.00253 
 C                     1.49108   1.29181  -0.00528 
 O                     3.70376   0.4131   -0.00486 
 O                     2.87874  -2.07851   0.00902 
 C                     2.48492  -3.44701   0.01728 
 O                     2.12824   2.48355  -0.01383 
 C                     1.3542    3.68245  -0.01884 
 C                    -1.73644  -0.56583   0.01189 
 C                    -2.80391   0.32655   0.01727 
 C                    -4.11838  -0.11078  -0.00086 
 O                    -5.08312   0.78649   0.10787 
 O                    -4.4099   -1.39558  -0.13569 
 H                     0.16351  -2.36021   0.01665 
 H                    -0.5536    1.91277  -0.00816 
 H                     3.8654    1.37291  -0.01067 
 H                     3.41281  -4.01727   0.01828 
 H                     1.90922  -3.68398   0.91944 
 H                     1.90517  -3.69374  -0.87965 
 H                     2.07426   4.4994   -0.02479 
 H                     0.73121   3.73473  -0.91811 
 H                     0.73488   3.74454   0.88235 
 H                    -1.98951  -1.62459   0.00955 
 H                    -2.67214   1.40124   0.03745 
 H                    -5.96261   0.46538  -0.14042 
 H                    -5.3091   -1.63006   0.13677 
 

 GradGradGradGradGradGradGradGradGradGradGradGradGradGradGradGradGradGrad
 Berny optimization.
 Initialization pass.
                           ----------------------------
                           !    Initial Parameters    !
                           ! (Angstroms and Degrees)  !
 --------------------------                            --------------------------
 ! Name  Definition              Value          Derivative Info.                !
 --------------------------------------------------------------------------------
 ! R1    R(1,2)                  1.4178         estimate D2E/DX2                !
 ! R2    R(1,6)                  1.4225         estimate D2E/DX2                !
 ! R3    R(1,7)                  1.3217         estimate D2E/DX2                !
 ! R4    R(2,3)                  1.3845         estimate D2E/DX2                !
 ! R5    R(2,8)                  1.3397         estimate D2E/DX2                !
 ! R6    R(3,4)                  1.4227         estimate D2E/DX2                !
 ! R7    R(3,17)                 1.0841         estimate D2E/DX2                !
 ! R8    R(4,5)                  1.422          estimate D2E/DX2                !
 ! R9    R(4,12)                 1.4113         estimate D2E/DX2                !
 ! R10   R(5,6)                  1.3767         estimate D2E/DX2                !
 ! R11   R(5,18)                 1.0826         estimate D2E/DX2                !
 ! R12   R(6,10)                 1.3514         estimate D2E/DX2                !
 ! R13   R(7,19)                 0.9733         estimate D2E/DX2                !
 ! R14   R(8,9)                  1.4241         estimate D2E/DX2                !
 ! R15   R(9,20)                 1.0891         estimate D2E/DX2                !
 ! R16   R(9,21)                 1.0961         estimate D2E/DX2                !
 ! R17   R(9,22)                 1.0961         estimate D2E/DX2                !
 ! R18   R(10,11)                1.4271         estimate D2E/DX2                !
 ! R19   R(11,23)                1.089          estimate D2E/DX2                !
 ! R20   R(11,24)                1.0952         estimate D2E/DX2                !
 ! R21   R(11,25)                1.0952         estimate D2E/DX2                !
 ! R22   R(12,13)                1.3914         estimate D2E/DX2                !
 ! R23   R(12,26)                1.0886         estimate D2E/DX2                !
 ! R24   R(13,14)                1.3854         estimate D2E/DX2                !
 ! R25   R(13,27)                1.0829         estimate D2E/DX2                !
 ! R26   R(14,15)                1.322          estimate D2E/DX2                !
 ! R27   R(14,16)                1.3243         estimate D2E/DX2                !
 ! R28   R(15,28)                0.9686         estimate D2E/DX2                !
 ! R29   R(16,29)                0.9684         estimate D2E/DX2                !
 ! A1    A(2,1,6)              120.7072         estimate D2E/DX2                !
 ! A2    A(2,1,7)              118.9827         estimate D2E/DX2                !
 ! A3    A(6,1,7)              120.3101         estimate D2E/DX2                !
 ! A4    A(1,2,3)              118.3752         estimate D2E/DX2                !
 ! A5    A(1,2,8)              114.9834         estimate D2E/DX2                !
 ! A6    A(3,2,8)              126.6414         estimate D2E/DX2                !
 ! A7    A(2,3,4)              121.2292         estimate D2E/DX2                !
 ! A8    A(2,3,17)             120.0191         estimate D2E/DX2                !
 ! A9    A(4,3,17)             118.7517         estimate D2E/DX2                !
 ! A10   A(3,4,5)              119.82           estimate D2E/DX2                !
 ! A11   A(3,4,12)             117.5058         estimate D2E/DX2                !
 ! A12   A(5,4,12)             122.6739         estimate D2E/DX2                !
 ! A13   A(4,5,6)              119.2398         estimate D2E/DX2                !
 ! A14   A(4,5,18)             120.5675         estimate D2E/DX2                !
 ! A15   A(6,5,18)             120.1927         estimate D2E/DX2                !
 ! A16   A(1,6,5)              120.6284         estimate D2E/DX2                !
 ! A17   A(1,6,10)             112.1663         estimate D2E/DX2                !
 ! A18   A(5,6,10)             127.2053         estimate D2E/DX2                !
 ! A19   A(1,7,19)             108.9521         estimate D2E/DX2                !
 ! A20   A(2,8,9)              118.519          estimate D2E/DX2                !
 ! A21   A(8,9,20)             105.5198         estimate D2E/DX2                !
 ! A22   A(8,9,21)             110.9636         estimate D2E/DX2                !
 ! A23   A(8,9,22)             110.9666         estimate D2E/DX2                !
 ! A24   A(20,9,21)            109.4826         estimate D2E/DX2                !
 ! A25   A(20,9,22)            109.4818         estimate D2E/DX2                !
 ! A26   A(21,9,22)            110.3057         estimate D2E/DX2                !
 ! A27   A(6,10,11)            119.0223         estimate D2E/DX2                !
 ! A28   A(10,11,23)           105.761          estimate D2E/DX2                !
 ! A29   A(10,11,24)           110.5798         estimate D2E/DX2                !
 ! A30   A(10,11,25)           110.5762         estimate D2E/DX2                !
 ! A31   A(23,11,24)           109.6216         estimate D2E/DX2                !
 ! A32   A(23,11,25)           109.6247         estimate D2E/DX2                !
 ! A33   A(24,11,25)           110.5632         estimate D2E/DX2                !
 ! A34   A(4,12,13)            127.5975         estimate D2E/DX2                !
 ! A35   A(4,12,26)            115.9507         estimate D2E/DX2                !
 ! A36   A(13,12,26)           116.4517         estimate D2E/DX2                !
 ! A37   A(12,13,14)           121.6961         estimate D2E/DX2                !
 ! A38   A(12,13,27)           122.9022         estimate D2E/DX2                !
 ! A39   A(14,13,27)           115.4016         estimate D2E/DX2                !
 ! A40   A(13,14,15)           118.4934         estimate D2E/DX2                !
 ! A41   A(13,14,16)           121.0925         estimate D2E/DX2                !
 ! A42   A(15,14,16)           120.4115         estimate D2E/DX2                !
 ! A43   A(14,15,28)           114.6145         estimate D2E/DX2                !
 ! A44   A(14,16,29)           114.246          estimate D2E/DX2                !
 ! D1    D(6,1,2,3)             -0.0455         estimate D2E/DX2                !
 ! D2    D(6,1,2,8)            179.9438         estimate D2E/DX2                !
 ! D3    D(7,1,2,3)            179.9975         estimate D2E/DX2                !
 ! D4    D(7,1,2,8)             -0.0132         estimate D2E/DX2                !
 ! D5    D(2,1,6,5)             -0.0195         estimate D2E/DX2                !
 ! D6    D(2,1,6,10)          -179.9358         estimate D2E/DX2                !
 ! D7    D(7,1,6,5)            179.937          estimate D2E/DX2                !
 ! D8    D(7,1,6,10)             0.0207         estimate D2E/DX2                !
 ! D9    D(2,1,7,19)           179.9564         estimate D2E/DX2                !
 ! D10   D(6,1,7,19)            -0.0009         estimate D2E/DX2                !
 ! D11   D(1,2,3,4)             -0.0227         estimate D2E/DX2                !
 ! D12   D(1,2,3,17)           179.997          estimate D2E/DX2                !
 ! D13   D(8,2,3,4)            179.9894         estimate D2E/DX2                !
 ! D14   D(8,2,3,17)             0.0091         estimate D2E/DX2                !
 ! D15   D(1,2,8,9)            179.9705         estimate D2E/DX2                !
 ! D16   D(3,2,8,9)             -0.0412         estimate D2E/DX2                !
 ! D17   D(2,3,4,5)              0.1536         estimate D2E/DX2                !
 ! D18   D(2,3,4,12)           179.9711         estimate D2E/DX2                !
 ! D19   D(17,3,4,5)          -179.8659         estimate D2E/DX2                !
 ! D20   D(17,3,4,12)           -0.0483         estimate D2E/DX2                !
 ! D21   D(3,4,5,6)             -0.2158         estimate D2E/DX2                !
 ! D22   D(3,4,5,18)           179.7942         estimate D2E/DX2                !
 ! D23   D(12,4,5,6)           179.9765         estimate D2E/DX2                !
 ! D24   D(12,4,5,18)           -0.0135         estimate D2E/DX2                !
 ! D25   D(3,4,12,13)          179.6304         estimate D2E/DX2                !
 ! D26   D(3,4,12,26)           -0.4271         estimate D2E/DX2                !
 ! D27   D(5,4,12,13)           -0.5576         estimate D2E/DX2                !
 ! D28   D(5,4,12,26)          179.3848         estimate D2E/DX2                !
 ! D29   D(4,5,6,1)              0.1498         estimate D2E/DX2                !
 ! D30   D(4,5,6,10)          -179.9476         estimate D2E/DX2                !
 ! D31   D(18,5,6,1)          -179.8602         estimate D2E/DX2                !
 ! D32   D(18,5,6,10)            0.0425         estimate D2E/DX2                !
 ! D33   D(1,6,10,11)         -179.9872         estimate D2E/DX2                !
 ! D34   D(5,6,10,11)            0.1032         estimate D2E/DX2                !
 ! D35   D(2,8,9,20)          -179.9686         estimate D2E/DX2                !
 ! D36   D(2,8,9,21)           -61.4742         estimate D2E/DX2                !
 ! D37   D(2,8,9,22)            61.5364         estimate D2E/DX2                !
 ! D38   D(6,10,11,23)         179.9655         estimate D2E/DX2                !
 ! D39   D(6,10,11,24)         -61.4352         estimate D2E/DX2                !
 ! D40   D(6,10,11,25)          61.3643         estimate D2E/DX2                !
 ! D41   D(4,12,13,14)         178.9515         estimate D2E/DX2                !
 ! D42   D(4,12,13,27)          -1.159          estimate D2E/DX2                !
 ! D43   D(26,12,13,14)         -0.9908         estimate D2E/DX2                !
 ! D44   D(26,12,13,27)        178.8988         estimate D2E/DX2                !
 ! D45   D(12,13,14,15)        174.9439         estimate D2E/DX2                !
 ! D46   D(12,13,14,16)         -5.6498         estimate D2E/DX2                !
 ! D47   D(27,13,14,15)         -4.9534         estimate D2E/DX2                !
 ! D48   D(27,13,14,16)        174.4528         estimate D2E/DX2                !
 ! D49   D(13,14,15,28)        164.7182         estimate D2E/DX2                !
 ! D50   D(16,14,15,28)        -14.6922         estimate D2E/DX2                !
 ! D51   D(13,14,16,29)        161.7848         estimate D2E/DX2                !
 ! D52   D(15,14,16,29)        -18.8203         estimate D2E/DX2                !
 --------------------------------------------------------------------------------
 Trust Radius=3.00D-01 FncErr=1.00D-07 GrdErr=1.00D-07
 Number of steps in this run=    135 maximum allowed number of steps=    174.
 GradGradGradGradGradGradGradGradGradGradGradGradGradGradGradGradGradGrad

                          Input orientation:                          
 ---------------------------------------------------------------------
 Center     Atomic      Atomic             Coordinates (Angstroms)
 Number     Number       Type             X           Y           Z
 ---------------------------------------------------------------------
      1          6           0        2.399773    0.197409   -0.000930
      2          6           0        1.924415   -1.138293    0.006730
      3          6           0        0.556127   -1.349743    0.010830
      4          6           0       -0.358612   -0.260162    0.007972
      5          6           0        0.131600    1.074679   -0.002531
      6          6           0        1.491080    1.291807   -0.005278
      7          8           0        3.703759    0.413102   -0.004856
      8          8           0        2.878740   -2.078506    0.009017
      9          6           0        2.484923   -3.447013    0.017284
     10          8           0        2.128240    2.483546   -0.013832
     11          6           0        1.354202    3.682445   -0.018837
     12          6           0       -1.736436   -0.565825    0.011892
     13          6           0       -2.803912    0.326551    0.017270
     14          6           0       -4.118381   -0.110782   -0.000863
     15          8           0       -5.083118    0.786492    0.107872
     16          8           0       -4.409895   -1.395578   -0.135692
     17          1           0        0.163505   -2.360210    0.016650
     18          1           0       -0.553596    1.912774   -0.008157
     19          1           0        3.865395    1.372907   -0.010667
     20          1           0        3.412809   -4.017274    0.018279
     21          1           0        1.909223   -3.683977    0.919440
     22          1           0        1.905173   -3.693735   -0.879646
     23          1           0        2.074260    4.499404   -0.024791
     24          1           0        0.731210    3.734728   -0.918107
     25          1           0        0.734880    3.744538    0.882345
     26          1           0       -1.989511   -1.624591    0.009551
     27          1           0       -2.672137    1.401240    0.037453
     28          1           0       -5.962609    0.465381   -0.140424
     29          1           0       -5.309102   -1.630060    0.136774
 ---------------------------------------------------------------------
                    Distance matrix (angstroms):
                    1          2          3          4          5
     1  C    0.000000
     2  C    1.417788   0.000000
     3  C    2.406834   1.384536   0.000000
     4  C    2.796093   2.446084   1.422653   0.000000
     5  C    2.431916   2.848072   2.461346   1.422047   0.000000
     6  C    1.422480   2.468463   2.802175   2.414569   1.376713
     7  O    1.321710   2.360726   3.607694   4.117804   3.632906
     8  O    2.325790   1.339680   2.434262   3.713061   4.182043
     9  C    3.645462   2.375809   2.849357   4.271042   5.097472
    10  O    2.302242   3.627628   4.143218   3.703085   2.443687
    11  C    3.638546   4.854412   5.095166   4.298674   2.880185
    12  C    4.206057   3.705344   2.422885   1.411327   2.486166
    13  C    5.205319   4.950046   3.754979   2.514719   3.029409
    14  C    6.525436   6.129537   4.835927   3.762746   4.412217
    15  O    7.506831   7.267774   6.031086   4.840085   5.223842
    16  O    6.994809   6.341133   4.968395   4.209834   5.171564
    17  H    3.397443   2.143358   1.084080   2.163997   3.435091
    18  H    3.415394   3.930620   3.446137   2.181726   1.082556
    19  H    1.878813   3.173930   4.285387   4.528741   3.745695
    20  H    4.334762   3.240985   3.908505   5.323496   6.057619
    21  H    4.019064   2.704400   2.846944   4.206704   5.162827
    22  H    4.019673   2.704869   2.847309   4.207376   5.162622
    23  H    4.314358   5.639776   6.043055   5.345410   3.937406
    24  H    4.017206   5.101509   5.171598   4.243169   2.876399
    25  H    4.016736   5.101346   5.171382   4.242390   2.876647
    26  H    4.752432   3.944022   2.560433   2.126382   3.432975
    27  H    5.212960   5.251520   4.241498   2.848425   2.822974
    28  H    8.367837   8.049756   6.768417   5.652718   6.126144
    29  H    7.923721   7.251380   5.873274   5.138148   6.077521
                    6          7          8          9         10
     6  C    0.000000
     7  O    2.380771   0.000000
     8  O    3.644834   2.624683   0.000000
     9  C    4.841967   4.048029   1.424069   0.000000
    10  O    1.351402   2.601745   4.623428   5.941357   0.000000
    11  C    2.394592   4.026067   5.959324   7.218657   1.427066
    12  C    3.723970   5.527594   4.856754   5.110885   4.922910
    13  C    4.402179   6.508284   6.170648   6.497042   5.383281
    14  C    5.782156   7.839665   7.268544   7.398269   6.763947
    15  O    6.594560   8.795529   8.462220   8.672140   7.409351
    16  O    6.485411   8.313833   7.321990   7.195158   7.603267
    17  H    3.885893   4.497235   2.729820   2.563225   5.227149
    18  H    2.136892   4.513768   5.264175   6.161214   2.741908
    19  H    2.375706   0.973337   3.589725   5.013792   2.061853
    20  H    5.646232   4.439980   2.011004   1.089115   6.626599
    21  H    5.078225   4.567356   2.084795   1.096115   6.241579
    22  H    5.078545   4.567962   2.084831   1.096114   6.241650
    23  H    3.260239   4.399265   6.627008   7.957132   2.016610
    24  H    2.716344   4.550085   6.266190   7.451702   2.082033
    25  H    2.715806   4.549707   6.266313   7.451804   2.081991
    26  H    4.540937   6.046960   4.889367   4.831340   5.816632
    27  H    4.164874   6.452151   6.551464   7.078222   4.921142
    28  H    7.500582   9.667460   9.201258   9.310880   8.339715
    29  H    7.402700   9.242631   8.201109   8.003900   8.500500
                   11         12         13         14         15
    11  C    0.000000
    12  C    5.253645   0.000000
    13  C    5.343523   1.391355   0.000000
    14  C    6.658683   2.425054   1.385431   0.000000
    15  O    7.059865   3.610852   2.326915   1.321984   0.000000
    16  O    7.682759   2.803151   2.359726   1.324334   2.296515
    17  H    6.158953   2.613353   4.003030   4.836815   6.118587
    18  H    2.602219   2.746446   2.753302   4.099088   4.668891
    19  H    3.411762   5.927875   6.750948   8.120475   8.968490
    20  H    7.970252   6.198973   7.583959   8.484095   9.760378
    21  H    7.446649   4.882350   6.253950   7.067297   8.338859
    22  H    7.446650   4.882620   6.256408   7.063499   8.359655
    23  H    1.089009   6.338714   6.419582   7.720310   8.064203
    24  H    1.095235   5.044693   4.998769   6.256822   6.599329
    25  H    1.095237   5.044236   4.995402   6.260806   6.572590
    26  H    6.272627   1.088594   2.114300   2.612243   3.923441
    27  H    4.628009   2.178425   1.082926   2.092678   2.489117
    28  H    7.993748   4.352829   3.165677   1.937168   0.968642
    29  H    8.523294   3.729897   3.180972   1.935191   2.427268
                   16         17         18         19         20
    16  O    0.000000
    17  H    4.676506   0.000000
    18  H    5.082568   4.332810   0.000000
    19  H    8.727002   5.257461   4.451847   0.000000
    20  H    8.251769   3.647443   7.134321   5.409226   0.000000
    21  H    6.803038   2.369582   6.184621   5.501253   1.784362
    22  H    6.761293   2.369608   6.183687   5.501678   1.784352
    23  H    8.763982   7.120885   3.687351   3.603241   8.621332
    24  H    7.305010   6.192280   2.407956   4.027997   8.255987
    25  H    7.343426   6.192241   2.410088   4.027683   8.256127
    26  H    2.435529   2.275228   3.817737   6.577638   5.908474
    27  H    3.297268   4.710606   2.179900   6.537770   8.147836
    28  H    2.423657   6.748178   5.600881   9.870669  10.393163
    29  H    0.968397   5.522407   5.931907   9.654582   9.043482
                   21         22         23         24         25
    21  H    0.000000
    22  H    1.799117   0.000000
    23  H    8.239328   8.239350   0.000000
    24  H    7.733142   7.520753   1.785084   0.000000
    25  H    7.520857   7.733182   1.785121   1.800482   0.000000
    26  H    4.502121   4.498955   7.349743   6.081544   6.083718
    27  H    6.901173   6.910254   5.668402   4.235686   4.220504
    28  H    8.961374   8.930100   8.993218   7.490036   7.526971
    29  H    7.545552   7.572161   9.597420   8.147337   8.122309
                   26         27         28         29
    26  H    0.000000
    27  H    3.102001   0.000000
    28  H    4.491768   3.425592   0.000000
    29  H    3.322033   4.018984   2.212416   0.000000
 Stoichiometry    C11H13O5(1+)
 Framework group  C1[X(C11H13O5)]
 Deg. of freedom    81
 Full point group                 C1      NOp   1
 Largest Abelian subgroup         C1      NOp   1
 Largest concise Abelian subgroup C1      NOp   1
                         Standard orientation:                         
 ---------------------------------------------------------------------
 Center     Atomic      Atomic             Coordinates (Angstroms)
 Number     Number       Type             X           Y           Z
 ---------------------------------------------------------------------
      1          6           0       -2.399773    0.197409    0.000930
      2          6           0       -1.924415   -1.138293   -0.006730
      3          6           0       -0.556127   -1.349743   -0.010830
      4          6           0        0.358612   -0.260162   -0.007972
      5          6           0       -0.131600    1.074679    0.002531
      6          6           0       -1.491080    1.291807    0.005278
      7          8           0       -3.703759    0.413102    0.004856
      8          8           0       -2.878740   -2.078506   -0.009017
      9          6           0       -2.484923   -3.447013   -0.017284
     10          8           0       -2.128240    2.483546    0.013832
     11          6           0       -1.354202    3.682445    0.018837
     12          6           0        1.736436   -0.565825   -0.011892
     13          6           0        2.803912    0.326551   -0.017270
     14          6           0        4.118381   -0.110782    0.000863
     15          8           0        5.083118    0.786492   -0.107872
     16          8           0        4.409895   -1.395578    0.135692
     17          1           0       -0.163505   -2.360210   -0.016650
     18          1           0        0.553596    1.912774    0.008157
     19          1           0       -3.865395    1.372907    0.010667
     20          1           0       -3.412809   -4.017274   -0.018279
     21          1           0       -1.909223   -3.683977   -0.919440
     22          1           0       -1.905173   -3.693735    0.879646
     23          1           0       -2.074260    4.499404    0.024791
     24          1           0       -0.731210    3.734728    0.918107
     25          1           0       -0.734880    3.744538   -0.882345
     26          1           0        1.989511   -1.624591   -0.009551
     27          1           0        2.672137    1.401240   -0.037453
     28          1           0        5.962609    0.465381    0.140424
     29          1           0        5.309102   -1.630060   -0.136774
 ---------------------------------------------------------------------
 Rotational constants (GHZ):      0.7123006      0.2741089      0.1985303
 Standard basis: 6-31+G(d,p) (6D, 7F)
 There are   369 symmetry adapted cartesian basis functions of A   symmetry.
 There are   369 symmetry adapted basis functions of A   symmetry.
   369 basis functions,   603 primitive gaussians,   369 cartesian basis functions
    59 alpha electrons       59 beta electrons
       nuclear repulsion energy      1072.8770088524 Hartrees.
 NAtoms=   29 NActive=   29 NUniq=   29 SFac= 1.00D+00 NAtFMM=   60 NAOKFM=F Big=F
 Integral buffers will be    131072 words long.
 Regular integral format.
 Two-electron integral symmetry is turned on.
 Nuclear repulsion after empirical dispersion term =     1072.8456802134 Hartrees.
 One-electron integrals computed using PRISM.
 NBasis=   369 RedAO= T EigKep=  1.45D-06  NBF=   369
 NBsUse=   367 1.00D-06 EigRej=  7.85D-07 NBFU=   367
 ExpMin= 4.38D-02 ExpMax= 5.48D+03 ExpMxC= 8.25D+02 IAcc=2 IRadAn=         4 AccDes= 0.00D+00
 Harris functional with IExCor=  419 and IRadAn=       4 diagonalized for initial guess.
 HarFok:  IExCor=  419 AccDes= 0.00D+00 IRadAn=         4 IDoV= 1 UseB2=F ITyADJ=14
 ICtDFT=  3500011 ScaDFX=  1.000000  1.000000  1.000000  1.000000
 FoFCou: FMM=F IPFlag=           0 FMFlag=      100000 FMFlg1=           0
         NFxFlg=           0 DoJE=T BraDBF=F KetDBF=T FulRan=T
         wScrn=  0.000000 ICntrl=     500 IOpCl=  0 I1Cent=   200000004 NGrid=           0
         NMat0=    1 NMatS0=      1 NMatT0=    0 NMatD0=    1 NMtDS0=    0 NMtDT0=    0
 Petite list used in FoFCou.
 Requested convergence on RMS density matrix=1.00D-08 within 128 cycles.
 Requested convergence on MAX density matrix=1.00D-06.
 Requested convergence on             energy=1.00D-06.
 No special actions if energy rises.
 SCF Done:  E(RB2PLYP) =  -801.349098689     A.U. after   16 cycles
            NFock= 16  Conv=0.40D-08     -V/T= 2.0066
 DoSCS=T DFT=T ScalE2(SS,OS)=  0.270000  0.270000
 ExpMin= 4.38D-02 ExpMax= 5.48D+03 ExpMxC= 8.25D+02 IAcc=3 IRadAn=         5 AccDes= 0.00D+00
 HarFok:  IExCor=  205 AccDes= 0.00D+00 IRadAn=         5 IDoV=-2 UseB2=F ITyADJ=14
 ICtDFT= 12500011 ScaDFX=  1.000000  1.000000  1.000000  1.000000
 Range of M.O.s used for correlation:    17   367
 NBasis=   369 NAE=    59 NBE=    59 NFC=    16 NFV=     0
 NROrb=    351 NOA=    43 NOB=    43 NVA=   308 NVB=   308

 **** Warning!!: The largest alpha MO coefficient is  0.23915557D+03

 DoSCS=T DFT=T ScalE2(SS,OS)=  0.270000  0.270000
 Fully direct method using O(ONN) memory.
 JobTyp=1 Pass  1:  I=  17 to  17 NPSUse= 18 ParTrn=T ParDer=T DoDerP=T.
 JobTyp=1 Pass  2:  I=  18 to  18 NPSUse= 18 ParTrn=T ParDer=T DoDerP=T.
 JobTyp=1 Pass  3:  I=  19 to  19 NPSUse= 18 ParTrn=T ParDer=T DoDerP=T.
 JobTyp=1 Pass  4:  I=  20 to  20 NPSUse= 18 ParTrn=T ParDer=T DoDerP=T.
 JobTyp=1 Pass  5:  I=  21 to  21 NPSUse= 18 ParTrn=T ParDer=T DoDerP=T.
 JobTyp=1 Pass  6:  I=  22 to  22 NPSUse= 18 ParTrn=T ParDer=T DoDerP=T.
 JobTyp=1 Pass  7:  I=  23 to  23 NPSUse= 18 ParTrn=T ParDer=T DoDerP=T.
 JobTyp=1 Pass  8:  I=  24 to  24 NPSUse= 18 ParTrn=T ParDer=T DoDerP=T.
 JobTyp=1 Pass  9:  I=  25 to  25 NPSUse= 18 ParTrn=T ParDer=T DoDerP=T.
 JobTyp=1 Pass 10:  I=  26 to  26 NPSUse= 18 ParTrn=T ParDer=T DoDerP=T.
 JobTyp=1 Pass 11:  I=  27 to  27 NPSUse= 18 ParTrn=T ParDer=T DoDerP=T.
 JobTyp=1 Pass 12:  I=  28 to  28 NPSUse= 18 ParTrn=T ParDer=T DoDerP=T.
 JobTyp=1 Pass 13:  I=  29 to  29 NPSUse= 18 ParTrn=T ParDer=T DoDerP=T.
 JobTyp=1 Pass 14:  I=  30 to  30 NPSUse= 18 ParTrn=T ParDer=T DoDerP=T.
 JobTyp=1 Pass 15:  I=  31 to  31 NPSUse= 18 ParTrn=T ParDer=T DoDerP=T.
 JobTyp=1 Pass 16:  I=  32 to  32 NPSUse= 18 ParTrn=T ParDer=T DoDerP=T.
 JobTyp=1 Pass 17:  I=  33 to  33 NPSUse= 18 ParTrn=T ParDer=T DoDerP=T.
 JobTyp=1 Pass 18:  I=  34 to  34 NPSUse= 18 ParTrn=T ParDer=T DoDerP=T.
 JobTyp=1 Pass 19:  I=  35 to  35 NPSUse= 18 ParTrn=T ParDer=T DoDerP=T.
 JobTyp=1 Pass 20:  I=  36 to  36 NPSUse= 18 ParTrn=T ParDer=T DoDerP=T.
 JobTyp=1 Pass 21:  I=  37 to  37 NPSUse= 18 ParTrn=T ParDer=T DoDerP=T.
 JobTyp=1 Pass 22:  I=  38 to  38 NPSUse= 18 ParTrn=T ParDer=T DoDerP=T.
 JobTyp=1 Pass 23:  I=  39 to  39 NPSUse= 18 ParTrn=T ParDer=T DoDerP=T.
 JobTyp=1 Pass 24:  I=  40 to  40 NPSUse= 18 ParTrn=T ParDer=T DoDerP=T.
 JobTyp=1 Pass 25:  I=  41 to  41 NPSUse= 18 ParTrn=T ParDer=T DoDerP=T.
 JobTyp=1 Pass 26:  I=  42 to  42 NPSUse= 18 ParTrn=T ParDer=T DoDerP=T.
 JobTyp=1 Pass 27:  I=  43 to  43 NPSUse= 18 ParTrn=T ParDer=T DoDerP=T.
 JobTyp=1 Pass 28:  I=  44 to  44 NPSUse= 18 ParTrn=T ParDer=T DoDerP=T.
 JobTyp=1 Pass 29:  I=  45 to  45 NPSUse= 18 ParTrn=T ParDer=T DoDerP=T.
 JobTyp=1 Pass 30:  I=  46 to  46 NPSUse= 18 ParTrn=T ParDer=T DoDerP=T.
 JobTyp=1 Pass 31:  I=  47 to  47 NPSUse= 18 ParTrn=T ParDer=T DoDerP=T.
 JobTyp=1 Pass 32:  I=  48 to  48 NPSUse= 18 ParTrn=T ParDer=T DoDerP=T.
 JobTyp=1 Pass 33:  I=  49 to  49 NPSUse= 18 ParTrn=T ParDer=T DoDerP=T.
 JobTyp=1 Pass 34:  I=  50 to  50 NPSUse= 18 ParTrn=T ParDer=T DoDerP=T.
 JobTyp=1 Pass 35:  I=  51 to  51 NPSUse= 18 ParTrn=T ParDer=T DoDerP=T.
 JobTyp=1 Pass 36:  I=  52 to  52 NPSUse= 18 ParTrn=T ParDer=T DoDerP=T.
 JobTyp=1 Pass 37:  I=  53 to  53 NPSUse= 18 ParTrn=T ParDer=T DoDerP=T.
 JobTyp=1 Pass 38:  I=  54 to  54 NPSUse= 18 ParTrn=T ParDer=T DoDerP=T.
 JobTyp=1 Pass 39:  I=  55 to  55 NPSUse= 18 ParTrn=T ParDer=T DoDerP=T.
 JobTyp=1 Pass 40:  I=  56 to  56 NPSUse= 18 ParTrn=T ParDer=T DoDerP=T.
 JobTyp=1 Pass 41:  I=  57 to  57 NPSUse= 18 ParTrn=T ParDer=T DoDerP=T.
 JobTyp=1 Pass 42:  I=  58 to  58 NPSUse= 18 ParTrn=T ParDer=T DoDerP=T.
 JobTyp=1 Pass 43:  I=  59 to  59 NPSUse= 18 ParTrn=T ParDer=T DoDerP=T.
 Spin components of T(2) and E(2):
     alpha-alpha T2 =       0.1683719290D+00 E2=     -0.1063753481D+00
     alpha-beta  T2 =       0.8917774758D+00 E2=     -0.5792781073D+00
     beta-beta   T2 =       0.1683719290D+00 E2=     -0.1063753481D+00
 E2(B2PLYP) =    -0.7920288035D+00 E(B2PLYP) =    -0.80214112749290D+03
          IDoAtm=11111111111111111111111111111
          Differentiating once with respect to electric field.
                with respect to dipole field.
          Differentiating once with respect to nuclear coordinates.
          There are     1 degrees of freedom in the 1st order CPHF.  IDoFFX=0 NUNeed=     1.
 LinEq1:  Iter=  0 NonCon=     1 RMS=1.84D-03 Max=8.44D-02 NDo=     1
 AX will form     1 AO Fock derivatives at one time.
 LinEq1:  Iter=  1 NonCon=     1 RMS=8.01D-04 Max=3.58D-02 NDo=     1
 LinEq1:  Iter=  2 NonCon=     1 RMS=3.56D-04 Max=1.90D-02 NDo=     1
 LinEq1:  Iter=  3 NonCon=     1 RMS=2.49D-04 Max=1.24D-02 NDo=     1
 LinEq1:  Iter=  4 NonCon=     1 RMS=1.04D-04 Max=3.21D-03 NDo=     1
 LinEq1:  Iter=  5 NonCon=     1 RMS=4.33D-05 Max=1.46D-03 NDo=     1
 LinEq1:  Iter=  6 NonCon=     1 RMS=2.36D-05 Max=7.19D-04 NDo=     1
 LinEq1:  Iter=  7 NonCon=     1 RMS=1.17D-05 Max=8.05D-04 NDo=     1
 LinEq1:  Iter=  8 NonCon=     1 RMS=4.39D-06 Max=1.47D-04 NDo=     1
 LinEq1:  Iter=  9 NonCon=     1 RMS=2.04D-06 Max=7.04D-05 NDo=     1
 LinEq1:  Iter= 10 NonCon=     1 RMS=7.57D-07 Max=2.56D-05 NDo=     1
 LinEq1:  Iter= 11 NonCon=     1 RMS=4.54D-07 Max=1.89D-05 NDo=     1
 LinEq1:  Iter= 12 NonCon=     1 RMS=1.42D-07 Max=3.15D-06 NDo=     1
 LinEq1:  Iter= 13 NonCon=     1 RMS=4.93D-08 Max=1.30D-06 NDo=     1
 LinEq1:  Iter= 14 NonCon=     1 RMS=2.56D-08 Max=6.60D-07 NDo=     1
 LinEq1:  Iter= 15 NonCon=     1 RMS=9.01D-09 Max=2.42D-07 NDo=     1
 LinEq1:  Iter= 16 NonCon=     1 RMS=4.99D-09 Max=2.23D-07 NDo=     1
 LinEq1:  Iter= 17 NonCon=     1 RMS=1.49D-09 Max=4.94D-08 NDo=     1
 LinEq1:  Iter= 18 NonCon=     1 RMS=7.20D-10 Max=3.45D-08 NDo=     1
 LinEq1:  Iter= 19 NonCon=     1 RMS=3.30D-10 Max=1.21D-08 NDo=     1
 LinEq1:  Iter= 20 NonCon=     1 RMS=1.42D-10 Max=3.89D-09 NDo=     1
 LinEq1:  Iter= 21 NonCon=     1 RMS=6.46D-11 Max=1.75D-09 NDo=     1
 LinEq1:  Iter= 22 NonCon=     0 RMS=2.19D-11 Max=6.67D-10 NDo=     1
 Linear equations converged to 1.000D-10 1.000D-09 after    22 iterations.
 End of Minotr F.D. properties file   721 does not exist.
 End of Minotr F.D. properties file   722 does not exist.
 End of Minotr F.D. properties file   788 does not exist.

 **********************************************************************

            Population analysis using the SCF density.

 **********************************************************************

 Orbital symmetries:
       Occupied  (A) (A) (A) (A) (A) (A) (A) (A) (A) (A) (A) (A)
                 (A) (A) (A) (A) (A) (A) (A) (A) (A) (A) (A) (A)
                 (A) (A) (A) (A) (A) (A) (A) (A) (A) (A) (A) (A)
                 (A) (A) (A) (A) (A) (A) (A) (A) (A) (A) (A) (A)
                 (A) (A) (A) (A) (A) (A) (A) (A) (A) (A) (A)
       Virtual   (A) (A) (A) (A) (A) (A) (A) (A) (A) (A) (A) (A)
                 (A) (A) (A) (A) (A) (A) (A) (A) (A) (A) (A) (A)
                 (A) (A) (A) (A) (A) (A) (A) (A) (A) (A) (A) (A)
                 (A) (A) (A) (A) (A) (A) (A) (A) (A) (A) (A) (A)
                 (A) (A) (A) (A) (A) (A) (A) (A) (A) (A) (A) (A)
                 (A) (A) (A) (A) (A) (A) (A) (A) (A) (A) (A) (A)
                 (A) (A) (A) (A) (A) (A) (A) (A) (A) (A) (A) (A)
                 (A) (A) (A) (A) (A) (A) (A) (A) (A) (A) (A) (A)
                 (A) (A) (A) (A) (A) (A) (A) (A) (A) (A) (A) (A)
                 (A) (A) (A) (A) (A) (A) (A) (A) (A) (A) (A) (A)
                 (A) (A) (A) (A) (A) (A) (A) (A) (A) (A) (A) (A)
                 (A) (A) (A) (A) (A) (A) (A) (A) (A) (A) (A) (A)
                 (A) (A) (A) (A) (A) (A) (A) (A) (A) (A) (A) (A)
                 (A) (A) (A) (A) (A) (A) (A) (A) (A) (A) (A) (A)
                 (A) (A) (A) (A) (A) (A) (A) (A) (A) (A) (A) (A)
                 (A) (A) (A) (A) (A) (A) (A) (A) (A) (A) (A) (A)
                 (A) (A) (A) (A) (A) (A) (A) (A) (A) (A) (A) (A)
                 (A) (A) (A) (A) (A) (A) (A) (A) (A) (A) (A) (A)
                 (A) (A) (A) (A) (A) (A) (A) (A) (A) (A) (A) (A)
                 (A) (A) (A) (A) (A) (A) (A) (A) (A) (A) (A) (A)
                 (A) (A) (A) (A) (A) (A) (A) (A) (A) (A) (A) (A)
                 (A) (A) (A) (A) (A) (A) (A) (A) (A) (A) (A) (A)
                 (A) (A) (A) (A) (A) (A) (A) (A) (A) (A) (A) (A)
                 (A) (A) (A) (A) (A) (A) (A) (A) (A) (A) (A) (A)
                 (A) (A) (A) (A) (A) (A) (A) (A) (A) (A) (A) (A)
                 (A) (A) (A) (A) (A) (A) (A) (A)
 The electronic state is 1-A.
 Alpha  occ. eigenvalues --  -19.98546 -19.98332 -19.91624 -19.91302 -19.89203
 Alpha  occ. eigenvalues --  -10.96584 -10.84933 -10.83423 -10.82848 -10.82743
 Alpha  occ. eigenvalues --  -10.79807 -10.78814 -10.78724 -10.78250 -10.78007
 Alpha  occ. eigenvalues --  -10.77838  -1.46244  -1.38043  -1.37258  -1.34250
 Alpha  occ. eigenvalues --   -1.32761  -1.13298  -1.08849  -1.02525  -1.00955
 Alpha  occ. eigenvalues --   -0.95470  -0.94558  -0.90956  -0.88193  -0.87257
 Alpha  occ. eigenvalues --   -0.82654  -0.80148  -0.78253  -0.75966  -0.73863
 Alpha  occ. eigenvalues --   -0.72210  -0.71750  -0.70373  -0.68585  -0.68153
 Alpha  occ. eigenvalues --   -0.67569  -0.66061  -0.65107  -0.62979  -0.62462
 Alpha  occ. eigenvalues --   -0.62045  -0.61677  -0.60762  -0.59867  -0.58807
 Alpha  occ. eigenvalues --   -0.56458  -0.55857  -0.54168  -0.53853  -0.52140
 Alpha  occ. eigenvalues --   -0.51973  -0.46857  -0.40344  -0.37580
 Alpha virt. eigenvalues --   -0.19930  -0.12227  -0.08192  -0.07182  -0.06908
 Alpha virt. eigenvalues --   -0.06631  -0.05919  -0.05326  -0.04119  -0.03780
 Alpha virt. eigenvalues --   -0.03193  -0.02369  -0.02200  -0.02004  -0.01474
 Alpha virt. eigenvalues --   -0.00971  -0.00069   0.00797   0.01006   0.01425
 Alpha virt. eigenvalues --    0.01897   0.03023   0.03118   0.04459   0.04711
 Alpha virt. eigenvalues --    0.05487   0.06334   0.06631   0.06808   0.06983
 Alpha virt. eigenvalues --    0.07400   0.07720   0.07974   0.08456   0.08709
 Alpha virt. eigenvalues --    0.08739   0.09379   0.10185   0.10592   0.10969
 Alpha virt. eigenvalues --    0.12321   0.12524   0.13316   0.13417   0.14229
 Alpha virt. eigenvalues --    0.14346   0.14728   0.15797   0.16311   0.16545
 Alpha virt. eigenvalues --    0.17240   0.17401   0.17908   0.18839   0.19239
 Alpha virt. eigenvalues --    0.19606   0.19713   0.20140   0.20257   0.20502
 Alpha virt. eigenvalues --    0.20685   0.21598   0.21997   0.22670   0.23330
 Alpha virt. eigenvalues --    0.24248   0.24755   0.25012   0.25664   0.26032
 Alpha virt. eigenvalues --    0.26170   0.26584   0.27166   0.27384   0.28433
 Alpha virt. eigenvalues --    0.29220   0.30222   0.30440   0.30795   0.31619
 Alpha virt. eigenvalues --    0.32552   0.33227   0.33678   0.34330   0.36021
 Alpha virt. eigenvalues --    0.36393   0.37550   0.40089   0.41191   0.41504
 Alpha virt. eigenvalues --    0.43202   0.46069   0.49907   0.50430   0.54365
 Alpha virt. eigenvalues --    0.58822   0.61505   0.62533   0.62875   0.63257
 Alpha virt. eigenvalues --    0.65322   0.65978   0.66900   0.67137   0.68106
 Alpha virt. eigenvalues --    0.68698   0.68799   0.70677   0.71265   0.72017
 Alpha virt. eigenvalues --    0.72307   0.72707   0.74725   0.75445   0.77507
 Alpha virt. eigenvalues --    0.81868   0.82457   0.84361   0.86410   0.87875
 Alpha virt. eigenvalues --    0.88630   0.89542   0.90020   0.90736   0.91168
 Alpha virt. eigenvalues --    0.91719   0.93321   0.97982   0.98811   1.00773
 Alpha virt. eigenvalues --    1.01998   1.02943   1.04129   1.05833   1.07289
 Alpha virt. eigenvalues --    1.08730   1.09442   1.10609   1.11511   1.11877
 Alpha virt. eigenvalues --    1.14499   1.14978   1.16423   1.16603   1.16787
 Alpha virt. eigenvalues --    1.17755   1.18605   1.19527   1.20032   1.20307
 Alpha virt. eigenvalues --    1.21125   1.21650   1.23104   1.24340   1.25396
 Alpha virt. eigenvalues --    1.25866   1.26900   1.27747   1.28922   1.29208
 Alpha virt. eigenvalues --    1.30057   1.30481   1.30790   1.32825   1.35076
 Alpha virt. eigenvalues --    1.36046   1.36810   1.37251   1.39559   1.40755
 Alpha virt. eigenvalues --    1.44315   1.45571   1.47443   1.49745   1.51347
 Alpha virt. eigenvalues --    1.52972   1.53972   1.55721   1.57807   1.58220
 Alpha virt. eigenvalues --    1.58556   1.60400   1.64777   1.67245   1.70093
 Alpha virt. eigenvalues --    1.72539   1.74529   1.77171   1.78859   1.78930
 Alpha virt. eigenvalues --    1.82362   1.82789   1.83248   1.86585   1.86946
 Alpha virt. eigenvalues --    1.87219   1.88559   1.89618   1.92104   1.92631
 Alpha virt. eigenvalues --    1.93517   1.95220   1.96384   1.96974   1.98459
 Alpha virt. eigenvalues --    1.99280   2.02737   2.03015   2.04408   2.05377
 Alpha virt. eigenvalues --    2.07566   2.08726   2.08935   2.09418   2.11219
 Alpha virt. eigenvalues --    2.13983   2.14649   2.16694   2.17706   2.18899
 Alpha virt. eigenvalues --    2.20237   2.21924   2.24257   2.26357   2.26542
 Alpha virt. eigenvalues --    2.29021   2.32624   2.33136   2.35803   2.37469
 Alpha virt. eigenvalues --    2.38393   2.41531   2.43682   2.46905   2.47816
 Alpha virt. eigenvalues --    2.48835   2.50465   2.52006   2.53474   2.53499
 Alpha virt. eigenvalues --    2.54968   2.56111   2.57434   2.58660   2.60401
 Alpha virt. eigenvalues --    2.61466   2.62652   2.63436   2.65862   2.66741
 Alpha virt. eigenvalues --    2.68525   2.69342   2.70383   2.72006   2.73157
 Alpha virt. eigenvalues --    2.73398   2.76100   2.77367   2.79680   2.81743
 Alpha virt. eigenvalues --    2.84565   2.85736   2.85868   2.87824   2.89169
 Alpha virt. eigenvalues --    2.89788   2.92546   2.94782   2.97661   2.99440
 Alpha virt. eigenvalues --    3.01551   3.09390   3.10686   3.17922   3.21509
 Alpha virt. eigenvalues --    3.23046   3.23812   3.27674   3.29255   3.31718
 Alpha virt. eigenvalues --    3.39734   3.44192   3.45030   3.46491   3.46592
 Alpha virt. eigenvalues --    3.47185   3.51774   3.53127   3.58290   3.59767
 Alpha virt. eigenvalues --    3.63835   3.78125   4.22643   4.29184   4.32465
 Alpha virt. eigenvalues --    4.38907   4.39743   4.43810   4.45960   4.50584
 Alpha virt. eigenvalues --    4.53587   4.57441   4.62864   4.67505   4.72119
 Alpha virt. eigenvalues --    4.85136   4.89341   5.38741
          Condensed to atoms (all electrons):
               1          2          3          4          5          6
     1  C   22.962412  -0.696164  -7.242732   0.656814  -7.005689  -0.395495
     2  C   -0.696164  17.319944  -0.297587  -1.965429  -0.880139  -7.070239
     3  C   -7.242732  -0.297587  22.071281  -0.630020  -0.478029  -4.183231
     4  C    0.656814  -1.965429  -0.630020  13.575235  -1.868236  -1.567493
     5  C   -7.005689  -0.880139  -0.478029  -1.868236  13.072220   1.000882
     6  C   -0.395495  -7.070239  -4.183231  -1.567493   1.000882  17.797871
     7  O    0.217181  -0.856861   0.001633  -0.081022   0.145551   0.588383
     8  O   -0.653662   0.349214   0.295978  -0.012441   0.011637   0.029029
     9  C    0.137300  -0.074614  -0.110279  -0.174205   0.028653   0.086257
    10  O   -0.634199   0.080901   0.032465  -0.012179   0.222982   0.250201
    11  C   -0.048080   0.059302   0.035309  -0.051439   0.064326  -0.169876
    12  C   -1.302733  -0.097638  -2.143392  -1.170155   1.490894   0.017361
    13  C   -0.076434  -0.429308  -1.251653   0.052056  -0.035674  -0.186613
    14  C   -0.010640   0.016446  -0.667006  -0.929696   0.192168   0.157427
    15  O    0.000855   0.000375   0.001643   0.023583  -0.007262   0.001825
    16  O   -0.002987   0.001377  -0.013010  -0.012442  -0.005414  -0.005313
    17  H    0.024321  -0.051198   0.068606   0.117199   0.022627  -0.000917
    18  H    0.015274  -0.006512   0.038873   0.204211   0.156148  -0.087183
    19  H    0.188343   0.269189   0.019688  -0.000490  -0.050249  -0.438646
    20  H    0.063268   0.051047  -0.090701  -0.013887  -0.001597   0.010491
    21  H   -0.040525  -0.087494   0.094987   0.035226   0.003144  -0.010485
    22  H   -0.043946  -0.086102   0.104660   0.020701   0.002936  -0.009226
    23  H    0.032706   0.006602  -0.002429  -0.010081  -0.046811   0.038625
    24  H   -0.029048  -0.005532   0.005316   0.022099   0.055194  -0.054674
    25  H   -0.020482  -0.006765   0.003190   0.019737   0.038246  -0.038081
    26  H    0.015328   0.022089   0.232111   0.036561  -0.035017  -0.001947
    27  H   -0.000830   0.002004   0.020892   0.068928   0.010117  -0.010317
    28  H    0.000055  -0.000024   0.000575  -0.002597   0.003004   0.000432
    29  H   -0.000092   0.000370   0.008106   0.014138  -0.005043  -0.000466
               7          8          9         10         11         12
     1  C    0.217181  -0.653662   0.137300  -0.634199  -0.048080  -1.302733
     2  C   -0.856861   0.349214  -0.074614   0.080901   0.059302  -0.097638
     3  C    0.001633   0.295978  -0.110279   0.032465   0.035309  -2.143392
     4  C   -0.081022  -0.012441  -0.174205  -0.012179  -0.051439  -1.170155
     5  C    0.145551   0.011637   0.028653   0.222982   0.064326   1.490894
     6  C    0.588383   0.029029   0.086257   0.250201  -0.169876   0.017361
     7  O    8.255840   0.045484   0.002516  -0.011003  -0.000093   0.007032
     8  O    0.045484   8.476355   0.037729  -0.001659  -0.000163  -0.017255
     9  C    0.002516   0.037729   4.914897  -0.000110   0.000782  -0.014602
    10  O   -0.011003  -0.001659  -0.000110   8.636094   0.049025   0.001873
    11  C   -0.000093  -0.000163   0.000782   0.049025   4.877055   0.005688
    12  C    0.007032  -0.017255  -0.014602   0.001873   0.005688   9.588233
    13  C   -0.000768  -0.003211  -0.006727  -0.000762  -0.004329  -1.314930
    14  C    0.000305  -0.000205  -0.000943   0.000270  -0.003981   0.455465
    15  O    0.000000   0.000001  -0.000005  -0.000000  -0.000037  -0.156946
    16  O    0.000000  -0.000006   0.000072  -0.000001   0.000048   0.109949
    17  H   -0.000606  -0.010072  -0.001309   0.000116  -0.000013   0.125904
    18  H   -0.000417   0.000126   0.000029  -0.011235   0.001411  -0.029237
    19  H    0.193126  -0.002205  -0.000306   0.040173   0.005052   0.000750
    20  H   -0.000803  -0.074005   0.431439  -0.000003   0.000007  -0.001228
    21  H    0.000116  -0.035041   0.402529   0.000002  -0.000016   0.001014
    22  H    0.000126  -0.035055   0.405428   0.000001  -0.000012   0.003858
    23  H    0.000007  -0.000002   0.000006  -0.066498   0.423148   0.000071
    24  H   -0.000132  -0.000000  -0.000005  -0.040859   0.413105   0.000087
    25  H   -0.000157   0.000001  -0.000012  -0.040747   0.411536  -0.000238
    26  H   -0.000014   0.000083   0.000546   0.000031   0.000069   0.254284
    27  H   -0.000005   0.000002   0.000021   0.000116   0.000521   0.018474
    28  H   -0.000000   0.000000  -0.000000  -0.000000  -0.000003   0.061873
    29  H   -0.000000  -0.000000   0.000012  -0.000000   0.000003  -0.004311
              13         14         15         16         17         18
     1  C   -0.076434  -0.010640   0.000855  -0.002987   0.024321   0.015274
     2  C   -0.429308   0.016446   0.000375   0.001377  -0.051198  -0.006512
     3  C   -1.251653  -0.667006   0.001643  -0.013010   0.068606   0.038873
     4  C    0.052056  -0.929696   0.023583  -0.012442   0.117199   0.204211
     5  C   -0.035674   0.192168  -0.007262  -0.005414   0.022627   0.156148
     6  C   -0.186613   0.157427   0.001825  -0.005313  -0.000917  -0.087183
     7  O   -0.000768   0.000305   0.000000   0.000000  -0.000606  -0.000417
     8  O   -0.003211  -0.000205   0.000001  -0.000006  -0.010072   0.000126
     9  C   -0.006727  -0.000943  -0.000005   0.000072  -0.001309   0.000029
    10  O   -0.000762   0.000270  -0.000000  -0.000001   0.000116  -0.011235
    11  C   -0.004329  -0.003981  -0.000037   0.000048  -0.000013   0.001411
    12  C   -1.314930   0.455465  -0.156946   0.109949   0.125904  -0.029237
    13  C   10.947672  -1.324825   0.318687  -0.156885   0.026194   0.019519
    14  C   -1.324825   7.042391  -0.022080   0.232526  -0.000366   0.018580
    15  O    0.318687  -0.022080   8.164171  -0.095630   0.000000   0.000085
    16  O   -0.156885   0.232526  -0.095630   8.227233  -0.000102   0.000045
    17  H    0.026194  -0.000366   0.000000  -0.000102   0.512556  -0.000107
    18  H    0.019519   0.018580   0.000085   0.000045  -0.000107   0.528453
    19  H    0.000605   0.000030   0.000000  -0.000000   0.000003  -0.000024
    20  H    0.000022  -0.000003   0.000000  -0.000000   0.000093   0.000000
    21  H   -0.000101  -0.000025   0.000000  -0.000000  -0.000990   0.000000
    22  H   -0.000101   0.000043  -0.000000   0.000001  -0.000999   0.000000
    23  H    0.000223   0.000048  -0.000000   0.000000  -0.000000   0.000094
    24  H   -0.000284  -0.000458  -0.000001   0.000000   0.000000  -0.000834
    25  H   -0.001020  -0.000358   0.000001  -0.000000   0.000000  -0.000925
    26  H   -0.169039  -0.041986   0.000757  -0.007282   0.002284  -0.000030
    27  H    0.302004  -0.079802  -0.009669   0.006595  -0.000001  -0.000247
    28  H   -0.098785   0.045936   0.229643  -0.000344   0.000000  -0.000000
    29  H    0.050260  -0.047042  -0.000494   0.220193  -0.000000   0.000000
              19         20         21         22         23         24
     1  C    0.188343   0.063268  -0.040525  -0.043946   0.032706  -0.029048
     2  C    0.269189   0.051047  -0.087494  -0.086102   0.006602  -0.005532
     3  C    0.019688  -0.090701   0.094987   0.104660  -0.002429   0.005316
     4  C   -0.000490  -0.013887   0.035226   0.020701  -0.010081   0.022099
     5  C   -0.050249  -0.001597   0.003144   0.002936  -0.046811   0.055194
     6  C   -0.438646   0.010491  -0.010485  -0.009226   0.038625  -0.054674
     7  O    0.193126  -0.000803   0.000116   0.000126   0.000007  -0.000132
     8  O   -0.002205  -0.074005  -0.035041  -0.035055  -0.000002  -0.000000
     9  C   -0.000306   0.431439   0.402529   0.405428   0.000006  -0.000005
    10  O    0.040173  -0.000003   0.000002   0.000001  -0.066498  -0.040859
    11  C    0.005052   0.000007  -0.000016  -0.000012   0.423148   0.413105
    12  C    0.000750  -0.001228   0.001014   0.003858   0.000071   0.000087
    13  C    0.000605   0.000022  -0.000101  -0.000101   0.000223  -0.000284
    14  C    0.000030  -0.000003  -0.000025   0.000043   0.000048  -0.000458
    15  O    0.000000   0.000000   0.000000  -0.000000  -0.000000  -0.000001
    16  O   -0.000000  -0.000000  -0.000000   0.000001   0.000000   0.000000
    17  H    0.000003   0.000093  -0.000990  -0.000999  -0.000000   0.000000
    18  H   -0.000024   0.000000   0.000000   0.000000   0.000094  -0.000834
    19  H    0.338107  -0.000001   0.000000   0.000000  -0.000069   0.000031
    20  H   -0.000001   0.499838  -0.024382  -0.024400  -0.000000   0.000000
    21  H    0.000000  -0.024382   0.560433  -0.042848   0.000000  -0.000000
    22  H    0.000000  -0.024400  -0.042848   0.560159   0.000000  -0.000000
    23  H   -0.000069  -0.000000   0.000000   0.000000   0.498215  -0.024048
    24  H    0.000031   0.000000  -0.000000  -0.000000  -0.024048   0.548469
    25  H    0.000032   0.000000  -0.000000  -0.000000  -0.024013  -0.039982
    26  H   -0.000000   0.000000  -0.000001  -0.000002  -0.000000   0.000000
    27  H   -0.000000  -0.000000   0.000000  -0.000000  -0.000000  -0.000004
    28  H    0.000000   0.000000   0.000000  -0.000000  -0.000000  -0.000000
    29  H   -0.000000  -0.000000  -0.000000   0.000000   0.000000   0.000000
              25         26         27         28         29
     1  C   -0.020482   0.015328  -0.000830   0.000055  -0.000092
     2  C   -0.006765   0.022089   0.002004  -0.000024   0.000370
     3  C    0.003190   0.232111   0.020892   0.000575   0.008106
     4  C    0.019737   0.036561   0.068928  -0.002597   0.014138
     5  C    0.038246  -0.035017   0.010117   0.003004  -0.005043
     6  C   -0.038081  -0.001947  -0.010317   0.000432  -0.000466
     7  O   -0.000157  -0.000014  -0.000005  -0.000000  -0.000000
     8  O    0.000001   0.000083   0.000002   0.000000  -0.000000
     9  C   -0.000012   0.000546   0.000021  -0.000000   0.000012
    10  O   -0.040747   0.000031   0.000116  -0.000000  -0.000000
    11  C    0.411536   0.000069   0.000521  -0.000003   0.000003
    12  C   -0.000238   0.254284   0.018474   0.061873  -0.004311
    13  C   -0.001020  -0.169039   0.302004  -0.098785   0.050260
    14  C   -0.000358  -0.041986  -0.079802   0.045936  -0.047042
    15  O    0.000001   0.000757  -0.009669   0.229643  -0.000494
    16  O   -0.000000  -0.007282   0.006595  -0.000344   0.220193
    17  H    0.000000   0.002284  -0.000001   0.000000  -0.000000
    18  H   -0.000925  -0.000030  -0.000247  -0.000000   0.000000
    19  H    0.000032  -0.000000  -0.000000   0.000000  -0.000000
    20  H    0.000000   0.000000  -0.000000   0.000000  -0.000000
    21  H   -0.000000  -0.000001   0.000000   0.000000  -0.000000
    22  H   -0.000000  -0.000002  -0.000000  -0.000000   0.000000
    23  H   -0.024013  -0.000000  -0.000000  -0.000000   0.000000
    24  H   -0.039982   0.000000  -0.000004  -0.000000   0.000000
    25  H    0.548348   0.000000  -0.000001   0.000000  -0.000000
    26  H    0.000000   0.501038   0.002714   0.000010  -0.000015
    27  H   -0.000001   0.002714   0.491819   0.000019  -0.000156
    28  H    0.000000   0.000010   0.000019   0.362516   0.001679
    29  H   -0.000000  -0.000015  -0.000156   0.001679   0.363893
 Mulliken charges:
               1
     1  C   -0.110118
     2  C    0.432746
     3  C    0.074756
     4  C   -0.344677
     5  C   -0.101569
     6  C    0.251419
     7  O   -0.505422
     8  O   -0.400656
     9  C   -0.065100
    10  O   -0.494995
    11  C   -0.068346
    12  C    0.109854
    13  C   -0.655795
    14  C    0.967779
    15  O   -0.449504
    16  O   -0.498621
    17  H    0.166777
    18  H    0.153906
    19  H    0.436861
    20  H    0.174804
    21  H    0.144457
    22  H    0.144776
    23  H    0.174206
    24  H    0.151560
    25  H    0.151690
    26  H    0.187428
    27  H    0.176808
    28  H    0.396010
    29  H    0.398966
 Sum of Mulliken charges =   1.00000
 Mulliken charges with hydrogens summed into heavy atoms:
               1
     1  C   -0.110118
     2  C    0.432746
     3  C    0.241533
     4  C   -0.344677
     5  C    0.052337
     6  C    0.251419
     7  O   -0.068561
     8  O   -0.400656
     9  C    0.398937
    10  O   -0.494995
    11  C    0.409110
    12  C    0.297282
    13  C   -0.478986
    14  C    0.967779
    15  O   -0.053494
    16  O   -0.099656
 Electronic spatial extent (au):  <R**2>=           5078.2363
 Charge=              1.0000 electrons
 Dipole moment (field-independent basis, Debye):
    X=             10.7280    Y=             -0.1988    Z=             -0.0426  Tot=             10.7300
 Quadrupole moment (field-independent basis, Debye-Ang):
   XX=            -11.8539   YY=            -57.1229   ZZ=            -94.7576
   XY=            -11.8278   XZ=              0.1489   YZ=              1.4242
 Traceless Quadrupole moment (field-independent basis, Debye-Ang):
   XX=             42.7243   YY=             -2.5447   ZZ=            -40.1795
   XY=            -11.8278   XZ=              0.1489   YZ=              1.4242
 Octapole moment (field-independent basis, Debye-Ang**2):
  XXX=            458.5974  YYY=              8.1415  ZZZ=              0.2815  XYY=            -41.0852
  XXY=            -39.7930  XXZ=              3.2346  XZZ=              1.9616  YZZ=              0.3890
  YYZ=             -1.3154  XYZ=              6.3190
 Hexadecapole moment (field-independent basis, Debye-Ang**3):
 XXXX=          -1397.9934 YYYY=          -1435.8771 ZZZZ=           -111.8090 XXXY=           -395.9519
 XXXZ=             28.4675 YYYX=            -10.4933 YYYZ=              4.5414 ZZZX=              0.6228
 ZZZY=              0.2325 XXYY=           -808.7217 XXZZ=           -738.6894 YYZZ=           -338.8291
 XXYZ=             35.9040 YYXZ=             -6.8041 ZZXY=             -6.0370
 N-N= 1.072845680213D+03 E-N=-4.002321548075D+03  KE= 7.960590571379D+02
 Calling FoFJK, ICntrl=  10002127 FMM=F ISym2X=0 I1Cent= 0 IOpClX= 0 NMat=1 NMatS=1 NMatT=0.
 ***** Axes restored to original set *****
 -------------------------------------------------------------------
 Center     Atomic                   Forces (Hartrees/Bohr)
 Number     Number              X              Y              Z
 -------------------------------------------------------------------
      1        6          -0.004355347   -0.000667280    0.000002762
      2        6          -0.002431616    0.003062653   -0.000003376
      3        6          -0.001720591   -0.004146453   -0.000050596
      4        6          -0.000789731    0.000161590    0.000075897
      5        6          -0.003554816    0.003113232   -0.000181872
      6        6          -0.001242036   -0.003367059    0.000101235
      7        8           0.005683091   -0.000102768   -0.000004821
      8        8           0.005355525    0.001273785   -0.000025966
      9        6          -0.001626949   -0.007062451    0.000045671
     10        8           0.005080386    0.000479445   -0.000030409
     11        6          -0.003693634    0.006158602   -0.000020210
     12        6           0.000165874   -0.003111480    0.000279334
     13        6           0.000448636    0.003736031   -0.000109718
     14        6           0.003859634    0.001175822    0.000101276
     15        8          -0.002446077    0.003861430    0.000934438
     16        8           0.000274044   -0.004992161   -0.001134611
     17        1           0.000390865    0.001678021   -0.000006168
     18        1           0.000838602   -0.001338693    0.000019421
     19        1           0.000404378    0.000773124   -0.000005788
     20        1          -0.001637344    0.001485542   -0.000004595
     21        1           0.000765087    0.000875424   -0.001687697
     22        1           0.000771269    0.000892935    0.001677345
     23        1          -0.001113615   -0.001897062    0.000012251
     24        1           0.000998493   -0.000604266    0.001699005
     25        1           0.000988707   -0.000624384   -0.001697591
     26        1           0.000380686    0.001445270    0.000025692
     27        1          -0.000027185   -0.001725083   -0.000072214
     28        1          -0.000906318   -0.000369709   -0.000364222
     29        1          -0.000860017   -0.000164056    0.000425528
 -------------------------------------------------------------------
 Cartesian Forces:  Max     0.007062451 RMS     0.002175975

 GradGradGradGradGradGradGradGradGradGradGradGradGradGradGradGradGradGrad
 Berny optimization.
 FormGI is forming the generalized inverse of G from B-inverse, IUseBI=4.
 Internal  Forces:  Max     0.006115586 RMS     0.001373285
 Search for a local minimum.
 Step number   1 out of a maximum of  135
 All quantities printed in internal units (Hartrees-Bohrs-Radians)
 Mixed Optimization -- RFO/linear search
 Second derivative matrix not updated -- first step.
 ITU=  0
     Eigenvalues ---    0.01334   0.01373   0.01804   0.01834   0.01923
     Eigenvalues ---    0.01939   0.02002   0.02040   0.02072   0.02115
     Eigenvalues ---    0.02139   0.02169   0.02203   0.02225   0.02239
     Eigenvalues ---    0.02281   0.02335   0.02490   0.02496   0.02693
     Eigenvalues ---    0.02724   0.02727   0.10091   0.10146   0.10706
     Eigenvalues ---    0.10718   0.16000   0.16000   0.16000   0.16000
     Eigenvalues ---    0.16000   0.16000   0.16000   0.16000   0.16000
     Eigenvalues ---    0.16000   0.16000   0.16000   0.16000   0.22000
     Eigenvalues ---    0.22000   0.23473   0.23483   0.24999   0.25000
     Eigenvalues ---    0.25000   0.25000   0.25000   0.25000   0.25000
     Eigenvalues ---    0.25000   0.25000   0.34115   0.34116   0.34214
     Eigenvalues ---    0.34215   0.34915   0.34927   0.34976   0.35506
     Eigenvalues ---    0.35643   0.35687   0.39077   0.40643   0.41414
     Eigenvalues ---    0.41853   0.42076   0.42513   0.43794   0.46487
     Eigenvalues ---    0.47084   0.48123   0.49165   0.52701   0.53655
     Eigenvalues ---    0.53706   0.54724   0.57277   0.60864   0.61440
     Eigenvalues ---    0.61507
 RFO step:  Lambda=-5.48514919D-04 EMin= 1.33374290D-02
 Linear search not attempted -- first point.
 Iteration  1 RMS(Cart)=  0.01276651 RMS(Int)=  0.00004744
 Iteration  2 RMS(Cart)=  0.00007460 RMS(Int)=  0.00000270
 Iteration  3 RMS(Cart)=  0.00000000 RMS(Int)=  0.00000270
 Variable       Old X    -DE/DX   Delta X   Delta X   Delta X     New X
                                 (Linear)    (Quad)   (Total)
    R1        2.67923   0.00085   0.00000   0.00196   0.00196   2.68119
    R2        2.68810   0.00128   0.00000   0.00301   0.00301   2.69111
    R3        2.49767   0.00612   0.00000   0.00993   0.00993   2.50760
    R4        2.61639   0.00193   0.00000   0.00398   0.00398   2.62037
    R5        2.53163   0.00436   0.00000   0.00761   0.00761   2.53923
    R6        2.68843   0.00123   0.00000   0.00295   0.00295   2.69138
    R7        2.04861  -0.00171   0.00000  -0.00479  -0.00479   2.04382
    R8        2.68728   0.00095   0.00000   0.00230   0.00230   2.68958
    R9        2.66702  -0.00084   0.00000  -0.00192  -0.00192   2.66511
   R10        2.60161   0.00207   0.00000   0.00417   0.00417   2.60578
   R11        2.04574  -0.00157   0.00000  -0.00439  -0.00439   2.04135
   R12        2.55378   0.00416   0.00000   0.00760   0.00760   2.56138
   R13        1.83934   0.00083   0.00000   0.00157   0.00157   1.84091
   R14        2.69110   0.00415   0.00000   0.00989   0.00989   2.70099
   R15        2.05813  -0.00217   0.00000  -0.00622  -0.00622   2.05191
   R16        2.07136  -0.00198   0.00000  -0.00579  -0.00579   2.06557
   R17        2.07135  -0.00198   0.00000  -0.00579  -0.00579   2.06556
   R18        2.69676   0.00407   0.00000   0.00981   0.00981   2.70658
   R19        2.05793  -0.00216   0.00000  -0.00617  -0.00617   2.05176
   R20        2.06969  -0.00199   0.00000  -0.00582  -0.00582   2.06388
   R21        2.06970  -0.00199   0.00000  -0.00581  -0.00581   2.06388
   R22        2.62928   0.00072   0.00000   0.00154   0.00154   2.63082
   R23        2.05715  -0.00150   0.00000  -0.00427  -0.00427   2.05288
   R24        2.61808   0.00023   0.00000   0.00047   0.00047   2.61855
   R25        2.04643  -0.00171   0.00000  -0.00480  -0.00480   2.04163
   R26        2.49819   0.00487   0.00000   0.00792   0.00792   2.50610
   R27        2.50263   0.00520   0.00000   0.00853   0.00853   2.51116
   R28        1.83047   0.00104   0.00000   0.00193   0.00193   1.83240
   R29        1.83001   0.00096   0.00000   0.00178   0.00178   1.83179
    A1        2.10674  -0.00042   0.00000  -0.00168  -0.00168   2.10506
    A2        2.07664  -0.00046   0.00000  -0.00184  -0.00184   2.07480
    A3        2.09981   0.00088   0.00000   0.00352   0.00352   2.10332
    A4        2.06604   0.00064   0.00000   0.00260   0.00260   2.06864
    A5        2.00684  -0.00022   0.00000  -0.00089  -0.00089   2.00595
    A6        2.21031  -0.00043   0.00000  -0.00172  -0.00171   2.20859
    A7        2.11585  -0.00075   0.00000  -0.00326  -0.00326   2.11259
    A8        2.09473   0.00063   0.00000   0.00319   0.00319   2.09792
    A9        2.07261   0.00013   0.00000   0.00007   0.00007   2.07268
   A10        2.09125   0.00073   0.00000   0.00311   0.00311   2.09437
   A11        2.05086   0.00033   0.00000   0.00121   0.00121   2.05208
   A12        2.14106  -0.00106   0.00000  -0.00433  -0.00433   2.13673
   A13        2.08113  -0.00058   0.00000  -0.00241  -0.00241   2.07872
   A14        2.10430   0.00009   0.00000  -0.00005  -0.00005   2.10425
   A15        2.09776   0.00049   0.00000   0.00246   0.00246   2.10022
   A16        2.10536   0.00039   0.00000   0.00163   0.00163   2.10699
   A17        1.95767   0.00051   0.00000   0.00198   0.00199   1.95966
   A18        2.22015  -0.00089   0.00000  -0.00361  -0.00361   2.21654
   A19        1.90157   0.00050   0.00000   0.00311   0.00311   1.90469
   A20        2.06855  -0.00205   0.00000  -0.00817  -0.00817   2.06037
   A21        1.84167  -0.00026   0.00000  -0.00093  -0.00093   1.84074
   A22        1.93668  -0.00048   0.00000  -0.00338  -0.00339   1.93329
   A23        1.93673  -0.00048   0.00000  -0.00336  -0.00337   1.93336
   A24        1.91083   0.00058   0.00000   0.00433   0.00433   1.91516
   A25        1.91082   0.00058   0.00000   0.00433   0.00433   1.91515
   A26        1.92520   0.00008   0.00000  -0.00074  -0.00075   1.92445
   A27        2.07733  -0.00229   0.00000  -0.00916  -0.00916   2.06817
   A28        1.84588  -0.00029   0.00000  -0.00114  -0.00114   1.84474
   A29        1.92998  -0.00048   0.00000  -0.00337  -0.00337   1.92661
   A30        1.92992  -0.00048   0.00000  -0.00336  -0.00337   1.92655
   A31        1.91326   0.00059   0.00000   0.00436   0.00436   1.91762
   A32        1.91331   0.00059   0.00000   0.00438   0.00438   1.91769
   A33        1.92969   0.00008   0.00000  -0.00072  -0.00073   1.92896
   A34        2.22700  -0.00150   0.00000  -0.00681  -0.00681   2.22018
   A35        2.02372   0.00072   0.00000   0.00319   0.00319   2.02692
   A36        2.03247   0.00079   0.00000   0.00362   0.00362   2.03608
   A37        2.12400  -0.00105   0.00000  -0.00477  -0.00477   2.11922
   A38        2.14505   0.00034   0.00000   0.00121   0.00121   2.14626
   A39        2.01414   0.00071   0.00000   0.00356   0.00355   2.01769
   A40        2.06810   0.00000   0.00000   0.00001   0.00001   2.06811
   A41        2.11346  -0.00065   0.00000  -0.00259  -0.00259   2.11087
   A42        2.10158   0.00065   0.00000   0.00258   0.00258   2.10416
   A43        2.00040  -0.00010   0.00000  -0.00062  -0.00062   1.99978
   A44        1.99397  -0.00018   0.00000  -0.00114  -0.00114   1.99283
    D1       -0.00079  -0.00001   0.00000  -0.00046  -0.00046  -0.00125
    D2        3.14061  -0.00000   0.00000  -0.00027  -0.00026   3.14035
    D3        3.14155  -0.00001   0.00000  -0.00042  -0.00042   3.14113
    D4       -0.00023  -0.00000   0.00000  -0.00022  -0.00022  -0.00045
    D5       -0.00034  -0.00001   0.00000  -0.00015  -0.00015  -0.00049
    D6       -3.14047   0.00001   0.00000   0.00034   0.00034  -3.14013
    D7        3.14049  -0.00001   0.00000  -0.00020  -0.00020   3.14030
    D8        0.00036   0.00001   0.00000   0.00029   0.00029   0.00066
    D9        3.14083  -0.00000   0.00000  -0.00003  -0.00003   3.14080
   D10       -0.00002  -0.00000   0.00000   0.00001   0.00001  -0.00000
   D11       -0.00040  -0.00001   0.00000  -0.00034  -0.00034  -0.00073
   D12        3.14154   0.00001   0.00000   0.00035   0.00035  -3.14129
   D13        3.14141  -0.00001   0.00000  -0.00056  -0.00056   3.14085
   D14        0.00016   0.00000   0.00000   0.00013   0.00013   0.00029
   D15        3.14108  -0.00001   0.00000  -0.00042  -0.00042   3.14066
   D16       -0.00072  -0.00001   0.00000  -0.00020  -0.00020  -0.00092
   D17        0.00268   0.00003   0.00000   0.00173   0.00174   0.00442
   D18        3.14109  -0.00000   0.00000  -0.00001  -0.00001   3.14108
   D19       -3.13925   0.00002   0.00000   0.00105   0.00106  -3.13820
   D20       -0.00084  -0.00001   0.00000  -0.00069  -0.00069  -0.00154
   D21       -0.00377  -0.00005   0.00000  -0.00231  -0.00231  -0.00608
   D22        3.13800  -0.00001   0.00000  -0.00078  -0.00078   3.13722
   D23        3.14118  -0.00001   0.00000  -0.00049  -0.00049   3.14069
   D24       -0.00024   0.00002   0.00000   0.00104   0.00104   0.00080
   D25        3.13514   0.00003   0.00000   0.00147   0.00147   3.13661
   D26       -0.00745  -0.00002   0.00000  -0.00081  -0.00081  -0.00827
   D27       -0.00973  -0.00000   0.00000  -0.00031  -0.00031  -0.01004
   D28        3.13086  -0.00005   0.00000  -0.00259  -0.00259   3.12827
   D29        0.00261   0.00003   0.00000   0.00153   0.00153   0.00414
   D30       -3.14068   0.00002   0.00000   0.00096   0.00096  -3.13971
   D31       -3.13915  -0.00000   0.00000   0.00001   0.00000  -3.13915
   D32        0.00074  -0.00001   0.00000  -0.00056  -0.00056   0.00018
   D33       -3.14137  -0.00000   0.00000  -0.00007  -0.00007  -3.14144
   D34        0.00180   0.00001   0.00000   0.00045   0.00045   0.00225
   D35       -3.14104  -0.00000   0.00000  -0.00011  -0.00011  -3.14116
   D36       -1.07293   0.00029   0.00000   0.00273   0.00273  -1.07020
   D37        1.07401  -0.00029   0.00000  -0.00297  -0.00296   1.07105
   D38        3.14099  -0.00000   0.00000  -0.00014  -0.00014   3.14085
   D39       -1.07225   0.00028   0.00000   0.00262   0.00261  -1.06963
   D40        1.07101  -0.00029   0.00000  -0.00293  -0.00292   1.06809
   D41        3.12329  -0.00009   0.00000  -0.00388  -0.00388   3.11941
   D42       -0.02023  -0.00012   0.00000  -0.00550  -0.00550  -0.02573
   D43       -0.01729  -0.00004   0.00000  -0.00159  -0.00159  -0.01888
   D44        3.12237  -0.00007   0.00000  -0.00321  -0.00321   3.11916
   D45        3.05335  -0.00019   0.00000  -0.00809  -0.00809   3.04526
   D46       -0.09861  -0.00017   0.00000  -0.00724  -0.00724  -0.10585
   D47       -0.08645  -0.00016   0.00000  -0.00658  -0.00658  -0.09303
   D48        3.04478  -0.00013   0.00000  -0.00573  -0.00573   3.03905
   D49        2.87487  -0.00007   0.00000  -0.00236  -0.00235   2.87252
   D50       -0.25643  -0.00008   0.00000  -0.00317  -0.00317  -0.25960
   D51        2.82368  -0.00013   0.00000  -0.00473  -0.00474   2.81894
   D52       -0.32848  -0.00011   0.00000  -0.00388  -0.00388  -0.33236
         Item               Value     Threshold  Converged?
 Maximum Force            0.006116     0.000450     NO 
 RMS     Force            0.001373     0.000300     NO 
 Maximum Displacement     0.064090     0.001800     NO 
 RMS     Displacement     0.012780     0.001200     NO 
 Predicted change in Energy=-2.747373D-04
 GradGradGradGradGradGradGradGradGradGradGradGradGradGradGradGradGradGrad

                          Input orientation:                          
 ---------------------------------------------------------------------
 Center     Atomic      Atomic             Coordinates (Angstroms)
 Number     Number       Type             X           Y           Z
 ---------------------------------------------------------------------
      1          6           0        2.404176    0.197137   -0.001331
      2          6           0        1.929421   -1.139875    0.006798
      3          6           0        0.559764   -1.356179    0.011962
      4          6           0       -0.356031   -0.265443    0.010103
      5          6           0        0.130357    1.072071   -0.002594
      6          6           0        1.491849    1.290585   -0.005645
      7          8           0        3.713591    0.412210   -0.005774
      8          8           0        2.888117   -2.081386    0.008685
      9          6           0        2.483830   -3.452290    0.017952
     10          8           0        2.125668    2.488651   -0.015137
     11          6           0        1.332598    3.681288   -0.020242
     12          6           0       -1.733217   -0.569281    0.015024
     13          6           0       -2.794159    0.332114    0.019833
     14          6           0       -4.110223   -0.101029   -0.001820
     15          8           0       -5.075183    0.801006    0.116150
     16          8           0       -4.403411   -1.388828   -0.148289
     17          1           0        0.168183   -2.364324    0.018474
     18          1           0       -0.556062    1.906162   -0.008176
     19          1           0        3.879435    1.372137   -0.011898
     20          1           0        3.405688   -4.026044    0.018335
     21          1           0        1.906960   -3.680204    0.917972
     22          1           0        1.901187   -3.690700   -0.875604
     23          1           0        2.040345    4.504629   -0.026814
     24          1           0        0.709627    3.720089   -0.916460
     25          1           0        0.713971    3.730587    0.878471
     26          1           0       -1.990378   -1.624735    0.011842
     27          1           0       -2.655493    1.403299    0.043592
     28          1           0       -5.956128    0.484706   -0.137106
     29          1           0       -5.302475   -1.625101    0.126445
 ---------------------------------------------------------------------
                    Distance matrix (angstroms):
                    1          2          3          4          5
     1  C    0.000000
     2  C    1.418824   0.000000
     3  C    2.411395   1.386641   0.000000
     4  C    2.798724   2.447025   1.424215   0.000000
     5  C    2.436343   2.851215   2.465969   1.423263   0.000000
     6  C    1.424075   2.469568   2.806146   2.415809   1.378919
     7  O    1.326967   2.364823   3.615818   4.125686   3.643486
     8  O    2.329371   1.343705   2.438681   3.717815   4.189231
     9  C    3.650347   2.377973   2.845302   4.268590   5.099912
    10  O    2.308418   3.633896   4.151567   3.707357   2.447064
    11  C    3.645263   4.858039   5.096507   4.292909   2.872926
    12  C    4.207813   3.706827   2.424249   1.410313   2.483396
    13  C    5.200131   4.947639   3.754890   2.510306   3.016759
    14  C    6.521219   6.128341   4.835738   3.757809   4.399850
    15  O    7.504617   7.269350   6.034644   4.839314   5.213945
    16  O    6.991433   6.339620   4.965869   4.203376   5.160650
    17  H    3.400168   2.145080   1.081543   2.163371   3.436668
    18  H    3.418160   3.931436   3.447947   2.180874   1.080235
    19  H    1.886033   3.180112   4.297033   4.541071   3.761078
    20  H    4.340354   3.241831   3.902243   5.319090   6.059621
    21  H    4.015733   2.698890   2.834940   4.195944   5.156343
    22  H    4.016544   2.699284   2.834991   4.196653   5.155771
    23  H    4.322905   5.645694   6.045055   5.338311   3.928243
    24  H    4.014990   5.095052   5.162646   4.228310   2.860542
    25  H    4.014488   5.094952   5.162345   4.226964   2.860872
    26  H    4.757258   3.949675   2.564244   2.125739   3.430815
    27  H    5.201644   5.243140   4.237168   2.841363   2.805852
    28  H    8.366351   8.052444   6.772587   5.652034   6.116240
    29  H    7.920187   7.249143   5.869521   5.131229   6.066882
                    6          7          8          9         10
     6  C    0.000000
     7  O    2.389076   0.000000
     8  O    3.649652   2.626716   0.000000
     9  C    4.845560   4.055519   1.429305   0.000000
    10  O    1.355425   2.614038   4.633264   5.951819   0.000000
    11  C    2.396045   4.044281   5.968993   7.225976   1.432260
    12  C    3.722980   5.534571   4.862431   5.108350   4.923703
    13  C    4.391945   6.508293   6.173603   6.494527   5.371831
    14  C    5.772331   7.840630   7.273148   7.396815   6.752255
    15  O    6.586382   8.798215   8.469586   8.674033   7.397137
    16  O    6.477167   8.315634   7.326026   7.191634   7.594830
    17  H    3.887292   4.503293   2.734627   2.558493   5.232996
    18  H    2.138429   4.523476   5.269078   6.160732   2.744269
    19  H    2.388987   0.974167   3.593042   5.022320   2.079018
    20  H    5.650655   4.448986   2.012379   1.085825   6.639339
    21  H    5.072882   4.567829   2.084631   1.093050   6.242859
    22  H    5.073222   4.568947   2.084679   1.093048   6.243010
    23  H    3.260578   4.421322   6.640449   7.969394   2.017816
    24  H    2.709971   4.560176   6.265686   7.447411   2.081824
    25  H    2.709311   4.559741   6.265977   7.447591   2.081785
    26  H    4.541509   6.056791   4.899821   4.833066   5.819150
    27  H    4.149165   6.445923   6.547966   7.070363   4.903155
    28  H    7.492602   9.670883   9.210144   9.314337   8.327430
    29  H    7.394695   9.244326   8.204137   7.998558   8.492367
                   11         12         13         14         15
    11  C    0.000000
    12  C    5.240973   0.000000
    13  C    5.314950   1.392169   0.000000
    14  C    6.628013   2.422746   1.385678   0.000000
    15  O    7.026684   3.613398   2.330709   1.326172   0.000000
    16  O    7.656649   2.797903   2.362118   1.328849   2.305771
    17  H    6.156849   2.614865   4.005778   4.840214   6.125500
    18  H    2.591960   2.741176   2.736328   4.081778   4.653954
    19  H    3.437823   5.938998   6.754222   8.124343   8.973727
    20  H    7.981363   6.193349   7.578367   8.479096   9.758850
    21  H    7.443231   4.872787   6.245468   7.061374   8.335136
    22  H    7.443194   4.872922   6.247489   7.055940   8.356359
    23  H    1.085744   6.323455   6.386273   7.683892   8.022967
    24  H    1.092156   5.023330   4.963017   6.218397   6.561353
    25  H    1.092161   5.022264   4.959219   6.223266   6.532831
    26  H    6.260757   1.086336   2.115511   2.610672   3.925700
    27  H    4.593275   2.177723   1.080384   2.093156   2.494579
[...]
 0,-0.00001718,-0.00001976,-0.00000220,0.00000225,-0.00003307,-0.000026
 44,-0.00000407,0.00003335,-0.00002311,-0.00000046,0.00052860,-0.000415
 72,0.00000406,-0.00002839,0.00016911,-0.00000086,0.00000559,0.00001123
 ,-0.00000007,-0.00000270,0.00000272,-0.00000136,-0.00000319,0.00000206
 ,0.00000262,0.19352741,-0.00123547,-0.00141370,0.00001078,0.00046477,0
 .00008628,-0.00003788,-0.00002290,-0.00004744,-0.00000530,-0.00041178,
 -0.00013154,0.00014026,0.00080377,0.00019968,-0.00014107,0.00437626,-0
 .00178477,-0.00005002,0.00018417,0.00022010,-0.00000184,0.00001313,-0.
 00030545,-0.00000048,0.00005584,0.00006401,0.00000145,-0.01443331,-0.0
 3469172,0.00026215,-0.14127902,-0.20293835,0.00121840,0.00026942,-0.00
 009497,0.00011833,-0.00024131,0.00000706,-0.00002101,0.00032234,0.0001
 1713,-0.00002830,-0.00019106,0.00008946,0.00003000,-0.00007418,-0.0001
 2863,-0.00002675,-0.00002337,0.00001359,0.00000017,-0.00022187,0.00023
 294,-0.00000352,-0.00009342,-0.00024630,0.00000257,-0.00000328,-0.0000
 2088,0.00000013,-0.00000823,-0.00000840,-0.00000014,-0.00001014,-0.000
 00794,-0.00000024,0.15018067,0.23352479,-0.00000529,0.00001664,0.00039
 867,-0.00002670,-0.00000796,-0.00007097,0.00001702,0.00001198,-0.00002
 122,-0.00002352,0.00002256,0.00020533,0.00001115,-0.00001644,0.0001565
 2,0.00000569,0.00000436,0.00059329,-0.00000407,-0.00000069,-0.00013212
 ,0.00000051,0.00000244,-0.00003328,-0.00000043,-0.00000106,-0.00000324
 ,0.00004644,0.00012419,0.00003690,0.00116287,0.00125908,-0.05332162,0.
 00001991,-0.00001123,-0.00000743,-0.00001610,0.00000095,0.00002122,0.0
 0000564,-0.00000348,0.00000910,0.00000018,0.00000103,0.00000263,0.0000
 0063,0.00000079,-0.00000121,-0.00000021,-0.00000108,-0.00002340,0.0000
 0198,-0.00000094,-0.00047646,0.00000107,0.00000215,0.00020652,-0.00000
 019,0.00000027,0.00000250,0.00000194,0.00000051,-0.00000048,-0.0000020
 4,-0.00000003,0.00000017,-0.00123499,-0.00145047,0.04844957,-0.0002631
 2,0.00065057,0.00005479,0.00003458,-0.00021434,0.00006931,0.00004357,0
 .00027467,-0.00001729,0.00024461,-0.00012173,-0.00028611,0.00020252,0.
 00054727,0.00028420,-0.00067983,-0.00373497,0.00046919,0.00008967,0.00
 031728,0.00013081,-0.00005012,0.00020891,-0.00000410,-0.00002513,-0.00
 009320,-0.00001723,-0.01592947,0.01384094,-0.01397904,-0.13401608,-0.0
 0222329,-0.12195461,-0.00033535,0.00019908,0.00000248,0.00037187,-0.00
 003215,-0.00001678,-0.00050315,-0.00014974,-0.00000649,0.00027173,-0.0
 0011949,-0.00003746,0.00013413,0.00020391,0.00004569,0.00001661,-0.000
 00230,0.00001393,0.00005484,-0.00056343,0.00048782,0.00056445,-0.00042
 748,-0.00027723,-0.00000543,0.00001012,-0.00000209,0.00001153,0.000013
 33,0.00000641,0.00001310,0.00000882,-0.00000410,-0.00935085,0.00066438
 ,-0.01833200,0.14681047,0.00126285,-0.00108794,-0.00085691,0.00043683,
 0.00034403,-0.00002971,-0.00028982,0.00017403,-0.00011045,-0.00040538,
 -0.00043779,-0.00027082,-0.00100679,0.00065688,-0.00036229,0.00334558,
 0.00595630,0.00189622,-0.00066242,-0.00066103,-0.00000187,0.00001444,-
 0.00012774,0.00002587,0.00000287,0.00003446,0.00004308,0.02585919,-0.0
 1616447,0.02562578,-0.00599459,-0.05130714,-0.00446456,0.00031808,-0.0
 0014788,0.00008947,-0.00020126,0.00002037,-0.00005536,0.00023936,0.000
 12748,-0.00000563,-0.00014532,0.00006755,0.00002716,-0.00004798,-0.000
 11520,-0.00002732,-0.00002311,0.00000649,0.00003219,-0.00053401,-0.001
 08998,0.00122151,-0.00062773,0.00049150,0.00021684,-0.00000070,-0.0000
 0422,0.00000008,-0.00000124,-0.00002414,-0.00000106,-0.00000269,-0.000
 00428,-0.00000607,-0.01216802,0.00350831,-0.02081077,-0.00776390,0.057
 73580,-0.00016883,0.00051521,-0.00022950,-0.00029869,-0.00006407,0.000
 00698,0.00012531,-0.00001026,-0.00003697,0.00042602,-0.00004582,-0.000
 24701,-0.00103906,0.00035391,0.00005183,-0.00026900,-0.00119579,0.0006
 0439,0.00027532,-0.00005506,0.00002430,0.00011452,-0.00007786,0.000015
 84,0.00000893,0.00003462,0.00000156,0.00122267,0.00389008,0.00730091,-
 0.12482005,0.00060385,-0.24337491,-0.00005429,0.00005481,-0.00009582,0
 .00001696,0.00005427,0.00001539,0.00000594,-0.00000378,0.00003634,0.00
 002665,-0.00003809,0.00000282,-0.00003092,-0.00002930,-0.00000054,0.00
 004013,-0.00004125,-0.00000110,0.00063857,0.00006353,-0.00003216,0.000
 04720,-0.00010520,0.00000134,0.00000175,-0.00000031,-0.00000040,-0.000
 00814,-0.00000372,-0.00000196,-0.00000718,0.00000164,0.00000230,0.0021
 9545,-0.00006993,0.00218406,0.13749490,-0.00291616,0.25307001,-0.00021
 855,0.00061856,-0.00006800,0.00010961,-0.00019387,-0.00007360,-0.00001
 041,0.00024183,0.00001040,0.00032206,-0.00018835,0.00033937,0.00015526
 ,0.00060559,-0.00033253,-0.00073412,-0.00372665,-0.00041772,0.00008901
 ,0.00031085,-0.00013812,-0.00005087,0.00020615,0.00000236,-0.00002420,
 -0.00009121,0.00001687,-0.01587332,0.01396531,0.01395878,-0.13263912,-
 0.00088207,0.12135545,-0.00039640,0.00024559,0.00001514,0.00041599,-0.
 00004563,0.00002279,-0.00051730,-0.00013862,-0.00001163,0.00027235,-0.
 00012482,-0.00003622,0.00013176,0.00019978,0.00003547,0.00001713,-0.00
 000020,-0.00001533,0.00005399,-0.00055983,-0.00048118,0.00056307,-0.00
 041997,0.00028230,-0.00000495,0.00000980,0.00000184,0.00001330,0.00000
 844,0.00000541,0.00001187,0.00001238,-0.00000646,-0.00925100,0.0008765
 2,0.01837149,0.01239340,-0.00163280,-0.01599957,0.14527257,0.00128020,
 -0.00106420,0.00086226,0.00042159,0.00034519,-0.00002319,-0.00028243,0
 .00017845,0.00011212,-0.00042282,-0.00043886,0.00041095,-0.00098417,0.
 00066321,0.00020531,0.00334271,0.00596292,-0.00202280,-0.00067234,-0.0
 0066048,0.00001226,0.00001928,-0.00012579,-0.00002732,0.00000242,0.000
 03006,-0.00004246,0.02570467,-0.01650990,-0.02548296,-0.00460073,-0.05
 129529,0.00236931,0.00033592,-0.00014347,0.00003981,-0.00021567,0.0000
 2661,0.00003128,0.00024506,0.00012198,-0.00002898,-0.00014594,0.000072
 95,0.00002567,-0.00004904,-0.00011995,-0.00001125,-0.00002414,0.000003
 98,-0.00003216,-0.00052608,-0.00110281,-0.00120317,-0.00062961,0.00048
 690,-0.00022094,-0.00000134,-0.00000416,0.00000013,-0.00000218,-0.0000
 0344,0.00000517,-0.00000261,-0.00002334,0.00000313,-0.01206701,0.00373
 989,0.02085929,-0.00146756,0.00201405,-0.00093307,-0.00927882,0.057820
 04,0.00009821,-0.00047729,-0.00023628,0.00019140,0.00003043,-0.0000352
 5,-0.00004614,0.00005082,-0.00003821,-0.00053439,0.00014817,-0.0001099
 4,0.00110508,-0.00044631,-0.00010035,0.00032833,0.00114420,0.00058791,
 -0.00027349,0.00006485,0.00002404,-0.00011350,0.00008201,0.00001369,-0
 .00001037,-0.00003617,0.00000270,-0.00137599,-0.00368827,0.00754624,0.
 12426408,-0.00272147,-0.24476366,0.00014178,-0.00011667,0.00003014,-0.
 00008431,-0.00004665,-0.00001019,0.00002159,-0.00001144,-0.00001351,-0
 .00003235,0.00004087,0.00001777,0.00003603,0.00003405,0.00000639,-0.00
 004034,0.00003827,-0.00000129,-0.00062531,-0.00004489,-0.00002221,-0.0
 0004121,0.00009939,0.00000123,-0.00000234,0.00000078,-0.00000048,0.000
 00764,-0.00000094,0.00000191,0.00000720,0.00000424,-0.00000066,-0.0020
 0615,0.00004627,0.00187060,0.01584604,0.00070867,-0.01924324,-0.136802
 62,0.00511935,0.25451227,-0.00006974,-0.00027383,-0.00001770,0.0004129
 6,0.00065715,-0.00007054,0.00002631,-0.00223915,0.00004574,-0.00532467
 ,-0.03079728,0.00002022,-0.00559640,0.00091862,-0.00024784,0.00035871,
 -0.00175853,-0.00003437,0.00021888,0.00024016,0.00000789,0.00005005,0.
 00002917,-0.00000752,-0.00005148,-0.00007849,0.00000419,-0.00059853,0.
 00004504,0.00001763,-0.00002423,0.00009321,0.00000314,-0.07491518,-0.0
 6444690,-0.00026942,0.00841651,0.02589574,0.00037882,0.00076470,0.0033
 7086,0.00008286,0.00032474,-0.00067875,-0.00006315,-0.00251642,-0.0013
 1194,-0.00062616,-0.00092044,0.00103571,-0.00000492,0.00011907,0.00005
 376,-0.00000273,0.00004861,-0.00009213,0.00000188,0.00003168,0.0000233
 4,-0.00000009,-0.00000535,0.00000226,-0.00005238,-0.00000776,0.0000071
 2,0.00005317,0.00000221,-0.00000412,-0.00000033,0.00000371,0.00000850,
 -0.00000599,0.00000488,0.00000557,0.00000350,0.08290698,0.00015886,-0.
 00033803,-0.00003381,0.00082213,0.00078991,-0.00020486,0.00170661,0.00
 113308,0.00013894,0.00050483,-0.00536010,0.00051149,-0.00097425,0.0014
 7779,-0.00089394,-0.00017924,-0.00040057,-0.00015534,0.00017826,0.0000
 9990,-0.00000260,0.00002790,-0.00016491,-0.00002346,0.00000695,0.00004
 618,0.00000261,-0.00011044,0.00009669,0.00002948,0.00006162,-0.0000291
 2,0.00000659,-0.06492336,-0.32757088,-0.00103984,-0.00493544,-0.018132
 19,-0.00047193,-0.00098266,-0.00202760,-0.00042708,0.00010073,0.000287
 11,0.00006910,-0.00135150,0.00128254,0.00015730,-0.00006345,0.00058709
 ,-0.00001432,0.00009886,0.00009438,-0.00000052,0.00000128,-0.00004084,
 -0.00000303,-0.00000105,-0.00000863,-0.00000060,0.00000123,-0.00000537
 ,0.00001607,-0.00000456,-0.00000811,-0.00001116,-0.00001082,0.00000695
 ,-0.00000148,0.00000086,0.00001088,-0.00001755,0.00000465,0.00000418,0
 .00001341,0.06750199,0.34773922,0.00015177,-0.00007134,0.00057917,0.00
 036396,0.00016862,0.00025073,-0.00033416,-0.00014133,-0.00364319,0.000
 81210,-0.00016674,0.00603654,-0.00025303,0.00027426,0.00548479,-0.0002
 5751,-0.00003341,0.00003224,0.00008213,0.00000335,-0.00018183,0.000012
 34,-0.00003629,0.00021378,0.00000986,0.00000930,0.00002877,0.00001608,
 0.00003885,-0.00101349,0.00003595,-0.00002237,0.00011080,-0.00123462,-
 0.00152960,-0.04339546,0.00101536,-0.00033291,0.00607394,-0.00035296,-
 0.00042903,-0.00425722,0.00045599,0.00009612,0.00002690,-0.00099868,0.
 00054340,0.00037319,-0.00001196,0.00000392,0.00022788,-0.00000050,-0.0
 0000776,-0.00001172,-0.00001582,-0.00000765,-0.00004395,0.00000196,-0.
 00000238,-0.00000989,-0.00000049,0.00002979,-0.00002402,-0.00000447,-0
 .00003049,-0.00002156,-0.00000171,0.00000320,-0.00001360,0.00000790,0.
 00001861,0.00000328,-0.00001349,-0.00001692,0.00000217,0.00045104,0.00
 231100,0.02645434,0.00030816,0.00026769,0.00002139,-0.00051025,-0.0005
 2148,0.00001979,0.00060898,-0.00028364,-0.00003599,-0.00014225,-0.0010
 8603,0.00002562,-0.00062055,0.00094537,0.00000532,-0.00018871,-0.00028
 604,0.00004259,-0.00021715,-0.00018083,-0.00001510,0.00013815,-0.00011
 809,0.00000268,0.00003405,0.00008349,-0.00000173,0.00012157,0.00001294
 ,-0.00000270,-0.00005134,0.00007860,0.00000179,0.01094100,0.02538554,0
 .00073194,-0.06425869,-0.03606045,-0.00156560,-0.00055159,-0.03200858,
 -0.00148999,0.00036984,0.00023995,0.00009431,-0.00653573,-0.00164201,0
 .00103621,0.00012282,-0.00015580,-0.00000217,-0.00254409,-0.00093432,0
 .00012494,-0.00005605,0.00007451,0.00000184,-0.00000162,-0.00000522,0.
 00000018,-0.00000931,0.00000191,0.00000952,-0.00000877,0.00000109,-0.0
 0000939,0.00003829,-0.00001540,-0.00000136,-0.00001106,-0.00002227,0.0
 0005560,-0.00001475,-0.00002803,-0.00005803,-0.00367371,0.00254114,-0.
 00009805,0.06654030,-0.00009210,-0.00027700,0.00001416,0.00029564,0.00
 020678,-0.00003583,-0.00018098,-0.00007454,0.00001460,-0.00099678,-0.0
 0021570,0.00026388,-0.00071151,-0.00004513,-0.00011290,0.00002123,0.00
 054337,-0.00002890,-0.00004423,0.00005319,-0.00001632,0.00000752,0.000
 00300,-0.00000530,-0.00001065,-0.00002172,-0.00000077,0.00003904,-0.00
 019270,0.00000371,-0.00005642,0.00011430,0.00000489,-0.00287131,-0.014
 47648,-0.00029482,-0.04344629,-0.35137618,-0.01054725,0.00128834,-0.00
 837389,-0.00054970,0.00156708,0.00048166,0.00021825,-0.00074219,0.0014
 4016,0.00051669,-0.00001723,0.00009693,-0.00000553,-0.00110419,0.00092
 608,-0.00001521,0.00001048,0.00000457,0.00000156,0.00000073,0.00000198
 ,-0.00000006,0.00000257,-0.00000270,-0.00000482,0.00000120,-0.00000283
 ,0.00000648,0.00000001,-0.00000859,-0.00000133,-0.00000246,0.00000390,
 0.00002838,-0.00000220,0.00000152,-0.00003229,0.00217494,-0.00009991,-
 0.00022566,0.04471211,0.37106036,-0.00026002,-0.00000800,-0.00035790,-
 0.00010799,0.00005916,0.00000138,-0.00000826,0.00018081,-0.00014274,0.
 00010467,0.00030973,-0.00311552,0.00007831,-0.00029888,-0.00033892,0.0
 0022471,-0.00005099,-0.00023964,0.00008611,0.00004915,0.00025502,0.000
 00497,-0.00003909,0.00004399,0.00000144,0.00002120,0.00002870,-0.00001
 338,0.00004669,0.00002308,0.00000560,-0.00002034,0.00019938,-0.0005900
 1,-0.00003713,0.00112037,-0.00078241,-0.01051094,-0.03024588,-0.000828
 66,-0.00114496,-0.00117293,0.00072664,-0.00001243,-0.00224600,-0.00041
 354,0.00090820,0.00525059,-0.00000133,0.00000143,0.00014975,0.00011826
 ,0.00006347,0.00131168,0.00000633,-0.00002211,0.00001252,-0.00000032,-
 0.00000113,-0.00000078,0.00000060,-0.00000531,-0.00000496,-0.00000197,
 -0.00000239,-0.00000834,-0.00000123,0.00000279,-0.00003161,0.00002294,
 0.00001692,-0.00004669,-0.00002020,-0.00001006,-0.00003359,0.00011892,
 0.00012172,0.00663266,0.00196237,0.01125716,0.02228343,-0.00180647,-0.
 00027316,0.00001576,0.00011876,0.00156392,0.00000895,-0.00096881,0.000
 54813,-0.00010839,0.00219949,0.00090534,-0.00005641,-0.00053612,-0.000
 90062,0.00010605,0.00074295,-0.00137550,0.00004916,0.00154566,0.000498
 66,-0.00000859,0.00038114,-0.00083407,0.00002242,0.00008035,0.00039133
 ,-0.00000506,0.00009499,0.00094818,-0.00000771,0.00021538,-0.00038554,
 -0.00000381,-0.00443083,0.00053525,0.00061855,0.00470149,0.00392635,-0
 .00052715,-0.03808942,-0.01428657,-0.00780706,-0.40321719,-0.11698452,
 -0.12316299,0.00571495,-0.00411377,0.00053566,-0.00004476,-0.00000889,
 -0.00000538,-0.00005507,-0.00000950,-0.00001423,-0.00010329,-0.0002968
 8,0.00000118,0.00001566,-0.00002936,0.00000062,-0.00003613,-0.00004328
 ,-0.00000279,-0.00003612,-0.00004126,0.00000243,0.00000915,0.00003188,
 0.00000031,-0.00005045,0.00002340,0.00000373,-0.00005104,0.00002292,-0
 .00000189,-0.00012966,0.00008012,-0.00008554,0.00042630,0.00008229,-0.
 00026616,0.43183069,-0.00027887,-0.00007165,0.00002534,0.00009306,0.00
 030635,-0.00003910,-0.00021190,0.00014517,0.00005720,0.00061173,-0.000
 13926,0.00039296,-0.00022473,-0.00021350,-0.00005204,0.00016792,-0.000
 18100,-0.00003055,0.00025264,0.00007257,-0.00000121,0.00006087,-0.0001
 8018,-0.00001815,0.00003462,0.00010019,0.00000364,-0.00000725,0.000062
 44,-0.00000318,0.00001403,-0.00002418,-0.00001028,-0.00010423,0.001196
 87,-0.00076527,0.00277519,-0.00330796,-0.00144447,0.03560321,0.0088186
 6,0.01117832,-0.16595454,-0.09332921,-0.06372126,-0.00194010,0.0004694
 9,-0.00101289,0.00001150,-0.00001632,0.00000938,0.00000543,0.00002522,
 -0.00000557,-0.00001174,-0.00004220,-0.00000308,0.00000057,-0.00000804
 ,-0.00000053,-0.00000569,-0.00000752,0.00000782,-0.00000522,-0.0000095
 8,-0.00000698,-0.00000410,0.00000425,0.00000047,-0.00000323,0.00000770
 ,0.00000139,-0.00000179,0.00000684,0.00000233,0.00003739,-0.00000539,-
 0.00012906,0.00015654,0.00026536,0.00007609,0.12770540,0.08953665,0.00
 077756,0.00007484,-0.00000728,0.00000157,-0.00057266,0.00002025,0.0003
 6167,-0.00029330,-0.00034131,-0.00077977,-0.00046997,-0.00043573,0.000
 23717,0.00051465,-0.00004187,-0.00047758,0.00049865,-0.00006140,-0.000
 55697,-0.00018340,-0.00001892,-0.00011111,0.00030577,0.00003944,-0.000
 03380,-0.00014829,0.00001468,-0.00000004,-0.00029121,-0.00000112,-0.00
 005821,0.00011671,0.00003342,0.00230242,-0.00051543,0.00263634,-0.0007
 6004,-0.00121823,0.00290957,0.01158418,0.00097939,-0.00298405,-0.14352
 599,-0.05321397,-0.05024591,0.00024489,-0.00106616,-0.00328824,0.00000
 283,0.00001425,-0.00002175,0.00000567,-0.00002059,-0.00000668,0.000025
 17,0.00010926,0.00001172,-0.00000280,0.00001149,0.00000145,0.00001339,
 0.00001709,-0.00000712,0.00000694,0.00001606,0.00000231,-0.00000074,-0
 .00001091,0.00000016,0.00001285,-0.00001013,-0.00000234,0.00001336,-0.
 00001064,-0.00000793,-0.00006597,-0.00000181,0.00010847,-0.00004094,-0
 .00006142,-0.00089325,0.13123382,0.05380438,0.05058410,-0.00156989,-0.
 00024349,0.00003145,0.00001891,0.00129104,0.00003021,-0.00067205,0.000
 55807,0.00001708,0.00180873,0.00040380,-0.00034844,-0.00048320,-0.0008
 4799,0.00008044,0.00071166,-0.00114462,0.00007568,0.00129932,0.0004280
 2,-0.00000837,0.00033650,-0.00071701,-0.00000441,0.00006916,0.00034354
 ,0.00000977,0.00005961,0.00076316,-0.00000224,0.00016820,-0.00030857,0
 .00000080,-0.00303646,0.00159911,0.00013457,0.00705873,-0.00117589,0.0
 0149289,-0.01328676,-0.00303041,-0.00009128,0.00114752,0.00473548,0.00
 020449,-0.42962930,-0.11975932,0.14500286,-0.00003753,-0.00001410,0.00
 001253,-0.00004713,0.00001227,-0.00000763,-0.00008260,-0.00025186,0.00
 000479,0.00001308,-0.00002529,-0.00000109,-0.00003334,-0.00003532,-0.0
 0000373,-0.00003090,-0.00003681,-0.00000072,0.00000587,0.00002571,0.00
 000039,-0.00004075,0.00001892,0.00000209,-0.00004023,0.00002015,-0.000
 00245,0.00014356,-0.00026125,0.00024655,-0.00025384,0.00007536,-0.0001
 6640,0.00147842,0.00122329,-0.00040952,0.43492470,-0.00075484,-0.00013
 912,0.00007232,0.00003040,0.00069553,-0.00005532,-0.00033672,0.0002571
 6,-0.00006812,0.00078396,0.00039986,0.00046390,-0.00015500,-0.00033652
 ,-0.00011398,0.00025524,-0.00047603,-0.00003959,0.00066150,0.00019620,
 -0.00002062,0.00021810,-0.00050019,0.00000767,0.00007141,0.00026649,0.
 00000192,0.00007735,0.00034192,-0.00000453,0.00005980,-0.00013343,0.00
 000555,-0.00037223,0.00033142,0.00032880,0.00345502,-0.00553560,-0.001
 05056,-0.05044042,-0.01709467,0.01406042,0.00263286,0.00479089,-0.0011
 0160,-0.07311435,-0.06111897,0.01936533,-0.00002722,0.00002417,-0.0000
 1013,-0.00002942,0.00001404,-0.00003128,-0.00005188,-0.00010784,0.0000
 0028,0.00001060,-0.00001688,0.00000130,-0.00001859,-0.00002173,0.00001
 042,-0.00002152,-0.00001909,-0.00001147,0.00000372,0.00001425,0.000000
 24,-0.00002087,0.00001209,0.00000553,-0.00001862,0.00001290,-0.0000057
 3,-0.00041939,0.00053573,-0.00031747,-0.00115266,-0.00003578,-0.000950
 77,0.00231973,-0.00348179,0.00162557,0.11635401,0.08112496,-0.00065336
 ,-0.00015267,0.00002219,0.00010173,0.00061522,-0.00003385,-0.00039966,
 0.00023159,-0.00010358,0.00094420,0.00013816,0.00009605,-0.00031199,-0
 .00041509,0.00011887,0.00028976,-0.00048454,-0.00009442,0.00055269,0.0
 0018760,0.00001895,0.00011920,-0.00029299,-0.00002064,0.00003100,0.000
 13595,0.00004469,-0.00000282,0.00031343,-0.00003676,0.00008457,-0.0001
 3515,0.00003819,-0.00171473,0.00096867,-0.00045655,0.00248151,-0.00307
 273,0.00197733,-0.01161101,-0.00719146,-0.00227157,0.00026875,-0.00093
 791,-0.00313028,0.15727961,0.04113882,-0.05645607,-0.00000788,-0.00001
 069,0.00003962,-0.00000611,0.00003644,0.00009938,-0.00002739,-0.000109
 03,0.00000719,0.00000416,-0.00001074,-0.00000067,-0.00000969,-0.000015
 95,-0.00000604,-0.00001251,-0.00001507,-0.00000850,-0.00000022,0.00001
 136,-0.00000061,-0.00001473,0.00000671,-0.00000871,-0.00001435,0.00000
 986,-0.00000028,0.00028009,-0.00007439,-0.00002371,-0.00081504,-0.0003
 9164,0.00156620,-0.00053547,0.00168429,0.00200298,-0.14630028,-0.03216
 807,0.05662060\\0.00003154,-0.00002461,-0.00000542,-0.00000304,-0.0000
 5965,0.00000924,0.00003431,0.00005544,-0.00000596,-0.00001043,-0.00000
 169,0.00000682,0.00002366,-0.00003175,-0.00000801,-0.00000159,0.000054
 65,0.00000688,-0.00003709,-0.00000288,0.00000136,-0.00002705,0.0000472
 6,-0.00000311,-0.00001166,-0.00002257,0.00000152,-0.00000955,-0.000049
 25,-0.00000117,-0.00001411,0.00000970,0.00000037,0.00001027,0.00002858
 ,-0.00000496,0.00000227,-0.00002116,0.00001102,-0.00002303,0.00000786,
 -0.00000627,0.00001542,-0.00001997,-0.00001300,-0.00000377,0.00002488,
 0.00000033,-0.00000338,-0.00000282,0.00000049,-0.00000853,0.00000324,-
 0.00000162,0.00000940,-0.00000089,-0.00000069,0.00000320,-0.00000380,-
 0.00000004,-0.00000019,0.00000169,0.00000377,0.00000048,0.00000117,-0.
 00000448,0.00000834,-0.00000085,0.00000015,0.00000367,-0.00000060,-0.0
 0000458,0.00000365,-0.00000082,0.00000494,-0.00000233,-0.00000545,-0.0
 0000166,0.00000199,0.00000902,0.00000427,0.00000265,0.00000739,0.00000
 679,0.00000492,-0.00000213,0.00000300\\\@


 REPARTEE - WHAT YOU THINK OF AFTER YOU BECOME A DEPARTEE.
 Job cpu time:       1 days  7 hours 35 minutes  8.9 seconds.
 File lengths (MBytes):  RWF= 106985 Int=      0 D2E=      0 Chk=     15 Scr=      1
 Normal termination of Gaussian 09 at Wed Dec 18 10:47:17 2024.
