 Entering Gaussian System, Link 0=g09
 Input=lw+b3lypSA.gjf
 Output=lw+b3lypSA.log
 Initial command:
 /home/phzd/g09E/g09/l1.exe "/home/phzd/g09E/scratch/Gau-3237303.inp" -scrdir="/home/phzd/g09E/scratch/"
 Default is to use a total of  18 processors:
                               18 via shared-memory
                                1 via Linda
 Entering Link 1 = /home/phzd/g09E/g09/l1.exe PID=   3237305.
  
 Copyright (c) 1988,1990,1992,1993,1995,1998,2003,2009,2015,
            Gaussian, Inc.  All Rights Reserved.
  
 This is part of the Gaussian(R) 09 program.  It is based on
 the Gaussian(R) 03 system (copyright 2003, Gaussian, Inc.),
 the Gaussian(R) 98 system (copyright 1998, Gaussian, Inc.),
 the Gaussian(R) 94 system (copyright 1995, Gaussian, Inc.),
 the Gaussian 92(TM) system (copyright 1992, Gaussian, Inc.),
 the Gaussian 90(TM) system (copyright 1990, Gaussian, Inc.),
 the Gaussian 88(TM) system (copyright 1988, Gaussian, Inc.),
 the Gaussian 86(TM) system (copyright 1986, Carnegie Mellon
 University), and the Gaussian 82(TM) system (copyright 1983,
 Carnegie Mellon University). Gaussian is a federally registered
 trademark of Gaussian, Inc.
  
 This software contains proprietary and confidential information,
 including trade secrets, belonging to Gaussian, Inc.
  
 This software is provided under written license and may be
 used, copied, transmitted, or stored only in accord with that
 written license.
  
 The following legend is applicable only to US Government
 contracts under FAR:
  
                    RESTRICTED RIGHTS LEGEND
  
 Use, reproduction and disclosure by the US Government is
 subject to restrictions as set forth in subparagraphs (a)
 and (c) of the Commercial Computer Software - Restricted
 Rights clause in FAR 52.227-19.
  
 Gaussian, Inc.
 340 Quinnipiac St., Bldg. 40, Wallingford CT 06492
  
  
 ---------------------------------------------------------------
 Warning -- This program may not be used in any manner that
 competes with the business of Gaussian, Inc. or will provide
 assistance to any competitor of Gaussian, Inc.  The licensee
 of this program is prohibited from giving any competitor of
 Gaussian, Inc. access to this program.  By using this program,
 the user acknowledges that Gaussian, Inc. is engaged in the
 business of creating and licensing software in the field of
 computational chemistry and represents and warrants to the
 licensee that it is not a competitor of Gaussian, Inc. and that
 it will not use this program in any manner prohibited above.
 ---------------------------------------------------------------
  

 Cite this work as:
 Gaussian 09, Revision E.01,
 M. J. Frisch, G. W. Trucks, H. B. Schlegel, G. E. Scuseria, 
 M. A. Robb, J. R. Cheeseman, G. Scalmani, V. Barone, B. Mennucci, 
 G. A. Petersson, H. Nakatsuji, M. Caricato, X. Li, H. P. Hratchian, 
 A. F. Izmaylov, J. Bloino, G. Zheng, J. L. Sonnenberg, M. Hada, 
 M. Ehara, K. Toyota, R. Fukuda, J. Hasegawa, M. Ishida, T. Nakajima, 
 Y. Honda, O. Kitao, H. Nakai, T. Vreven, J. A. Montgomery, Jr., 
 J. E. Peralta, F. Ogliaro, M. Bearpark, J. J. Heyd, E. Brothers, 
 K. N. Kudin, V. N. Staroverov, T. Keith, R. Kobayashi, J. Normand, 
 K. Raghavachari, A. Rendell, J. C. Burant, S. S. Iyengar, J. Tomasi, 
 M. Cossi, N. Rega, J. M. Millam, M. Klene, J. E. Knox, J. B. Cross, 
 V. Bakken, C. Adamo, J. Jaramillo, R. Gomperts, R. E. Stratmann, 
 O. Yazyev, A. J. Austin, R. Cammi, C. Pomelli, J. W. Ochterski, 
 R. L. Martin, K. Morokuma, V. G. Zakrzewski, G. A. Voth, 
 P. Salvador, J. J. Dannenberg, S. Dapprich, A. D. Daniels, 
 O. Farkas, J. B. Foresman, J. V. Ortiz, J. Cioslowski, 
 and D. J. Fox, Gaussian, Inc., Wallingford CT, 2013.
 
 ******************************************
 Gaussian 09:  ES64L-G09RevE.01 30-Nov-2015
                19-May-2024 
 ******************************************
 %chk=lw+b3lypSA.chk
 -------------------------------------
 # opt freq b3lyp/6-31+g(d,p) em=gd3bj
 -------------------------------------
 1/14=-1,18=20,19=15,26=3,38=1/1,3;
 2/9=110,12=2,17=6,18=5,40=1/2;
 3/5=1,6=6,7=111,11=2,16=1,25=1,30=1,71=1,74=-5,124=41/1,2,3;
 4//1;
 5/5=2,38=5/2;
 6/7=2,8=2,9=2,10=2,28=1/1;
 7//1,2,3,16;
 1/14=-1,18=20,19=15,26=3/3(2);
 2/9=110/2;
 99//99;
 2/9=110/2;
 3/5=1,6=6,7=111,11=2,16=1,25=1,30=1,71=1,74=-5,124=41/1,2,3;
 4/5=5,16=3,69=1/1;
 5/5=2,38=5/2;
 7//1,2,3,16;
 1/14=-1,18=20,19=15,26=3/3(-5);
 2/9=110/2;
 6/7=2,8=2,9=2,10=2,19=2,28=1/1;
 99/9=1/99;
 ----------
 [No Title]
 ----------
 Symbolic Z-matrix:
 Charge =  0 Multiplicity = 1
 C                     2.26981  -0.11633   0.00019 
 C                     1.69018   1.17006   0.00022 
 C                     0.31502   1.33155   0.00023 
 C                    -0.52746   0.21023   0.00019 
 C                     0.04213  -1.05533   0.00012 
 C                     1.42504  -1.2324    0.00002 
 O                     3.63447  -0.12438   0.00001 
 O                     2.58289   2.18975   0.00027 
 C                     2.08306   3.51223   0.00026 
 O                     1.79258  -2.55515  -0.00027 
 C                     3.13     -3.00371  -0.00035 
 C                    -1.97228   0.43013   0.0002 
 C                    -2.93892  -0.49717  -0.00034 
 C                    -4.34731  -0.08051  -0.00023 
 O                    -5.18613  -1.14228  -0.00098 
 O                    -4.76324   1.05994   0.0004 
 H                    -0.12226   2.32118   0.00029 
 H                    -0.56348  -1.9531    0.00008 
 H                     3.98295  -1.01784   0.00235 
 H                     2.95829   4.16061   0.00028 
 H                     1.48251   3.71141  -0.89467 
 H                     1.48248   3.7114    0.89518 
 H                     3.07514  -4.09227  -0.00071 
 H                     3.66785  -2.69706  -0.90673 
 H                     3.66765  -2.6978    0.90645 
 H                    -2.29753   1.46865   0.00068 
 H                    -2.74459  -1.56314  -0.00089 
 H                    -6.08903  -0.78766  -0.00087 
 

 GradGradGradGradGradGradGradGradGradGradGradGradGradGradGradGradGradGrad
 Berny optimization.
 Initialization pass.
                           ----------------------------
                           !    Initial Parameters    !
                           ! (Angstroms and Degrees)  !
 --------------------------                            --------------------------
 ! Name  Definition              Value          Derivative Info.                !
 --------------------------------------------------------------------------------
 ! R1    R(1,2)                  1.4109         estimate D2E/DX2                !
 ! R2    R(1,6)                  1.3997         estimate D2E/DX2                !
 ! R3    R(1,7)                  1.3647         estimate D2E/DX2                !
 ! R4    R(2,3)                  1.3846         estimate D2E/DX2                !
 ! R5    R(2,8)                  1.3553         estimate D2E/DX2                !
 ! R6    R(3,4)                  1.4026         estimate D2E/DX2                !
 ! R7    R(3,17)                 1.0819         estimate D2E/DX2                !
 ! R8    R(4,5)                  1.3878         estimate D2E/DX2                !
 ! R9    R(4,12)                 1.4615         estimate D2E/DX2                !
 ! R10   R(5,6)                  1.3942         estimate D2E/DX2                !
 ! R11   R(5,18)                 1.0829         estimate D2E/DX2                !
 ! R12   R(6,10)                 1.3729         estimate D2E/DX2                !
 ! R13   R(7,19)                 0.959          estimate D2E/DX2                !
 ! R14   R(8,9)                  1.4138         estimate D2E/DX2                !
 ! R15   R(9,20)                 1.0892         estimate D2E/DX2                !
 ! R16   R(9,21)                 1.096          estimate D2E/DX2                !
 ! R17   R(9,22)                 1.096          estimate D2E/DX2                !
 ! R18   R(10,11)                1.4106         estimate D2E/DX2                !
 ! R19   R(11,23)                1.0899         estimate D2E/DX2                !
 ! R20   R(11,24)                1.0977         estimate D2E/DX2                !
 ! R21   R(11,25)                1.0977         estimate D2E/DX2                !
 ! R22   R(12,13)                1.3395         estimate D2E/DX2                !
 ! R23   R(12,26)                1.0883         estimate D2E/DX2                !
 ! R24   R(13,14)                1.4687         estimate D2E/DX2                !
 ! R25   R(13,27)                1.0835         estimate D2E/DX2                !
 ! R26   R(14,15)                1.3531         estimate D2E/DX2                !
 ! R27   R(14,16)                1.2139         estimate D2E/DX2                !
 ! R28   R(15,28)                0.97           estimate D2E/DX2                !
 ! A1    A(2,1,6)              118.622          estimate D2E/DX2                !
 ! A2    A(2,1,7)              114.5937         estimate D2E/DX2                !
 ! A3    A(6,1,7)              126.7842         estimate D2E/DX2                !
 ! A4    A(1,2,3)              120.9534         estimate D2E/DX2                !
 ! A5    A(1,2,8)              114.543          estimate D2E/DX2                !
 ! A6    A(3,2,8)              124.5036         estimate D2E/DX2                !
 ! A7    A(2,3,4)              120.2205         estimate D2E/DX2                !
 ! A8    A(2,3,17)             120.5368         estimate D2E/DX2                !
 ! A9    A(4,3,17)             119.2427         estimate D2E/DX2                !
 ! A10   A(3,4,5)              118.8504         estimate D2E/DX2                !
 ! A11   A(3,4,12)             118.2641         estimate D2E/DX2                !
 ! A12   A(5,4,12)             122.8854         estimate D2E/DX2                !
 ! A13   A(4,5,6)              121.5275         estimate D2E/DX2                !
 ! A14   A(4,5,18)             121.7664         estimate D2E/DX2                !
 ! A15   A(6,5,18)             116.7062         estimate D2E/DX2                !
 ! A16   A(1,6,5)              119.8261         estimate D2E/DX2                !
 ! A17   A(1,6,10)             127.3493         estimate D2E/DX2                !
 ! A18   A(5,6,10)             112.8246         estimate D2E/DX2                !
 ! A19   A(1,7,19)             111.6456         estimate D2E/DX2                !
 ! A20   A(2,8,9)              118.0944         estimate D2E/DX2                !
 ! A21   A(8,9,20)             105.8273         estimate D2E/DX2                !
 ! A22   A(8,9,21)             111.3282         estimate D2E/DX2                !
 ! A23   A(8,9,22)             111.3284         estimate D2E/DX2                !
 ! A24   A(20,9,21)            109.398          estimate D2E/DX2                !
 ! A25   A(20,9,22)            109.3978         estimate D2E/DX2                !
 ! A26   A(21,9,22)            109.4779         estimate D2E/DX2                !
 ! A27   A(6,10,11)            124.0692         estimate D2E/DX2                !
 ! A28   A(10,11,23)           105.6558         estimate D2E/DX2                !
 ! A29   A(10,11,24)           112.0723         estimate D2E/DX2                !
 ! A30   A(10,11,25)           112.0689         estimate D2E/DX2                !
 ! A31   A(23,11,24)           107.6618         estimate D2E/DX2                !
 ! A32   A(23,11,25)           107.6537         estimate D2E/DX2                !
 ! A33   A(24,11,25)           111.3634         estimate D2E/DX2                !
 ! A34   A(4,12,13)            127.5355         estimate D2E/DX2                !
 ! A35   A(4,12,26)            116.0444         estimate D2E/DX2                !
 ! A36   A(13,12,26)           116.4201         estimate D2E/DX2                !
 ! A37   A(12,13,14)           119.7095         estimate D2E/DX2                !
 ! A38   A(12,13,27)           123.4782         estimate D2E/DX2                !
 ! A39   A(14,13,27)           116.8122         estimate D2E/DX2                !
 ! A40   A(13,14,15)           111.8292         estimate D2E/DX2                !
 ! A41   A(13,14,16)           126.5174         estimate D2E/DX2                !
 ! A42   A(15,14,16)           121.6533         estimate D2E/DX2                !
 ! A43   A(14,15,28)           106.8663         estimate D2E/DX2                !
 ! D1    D(6,1,2,3)              0.0065         estimate D2E/DX2                !
 ! D2    D(6,1,2,8)           -179.9947         estimate D2E/DX2                !
 ! D3    D(7,1,2,3)            179.9922         estimate D2E/DX2                !
 ! D4    D(7,1,2,8)             -0.009          estimate D2E/DX2                !
 ! D5    D(2,1,6,5)             -0.0107         estimate D2E/DX2                !
 ! D6    D(2,1,6,10)           179.9876         estimate D2E/DX2                !
 ! D7    D(7,1,6,5)           -179.9945         estimate D2E/DX2                !
 ! D8    D(7,1,6,10)             0.0038         estimate D2E/DX2                !
 ! D9    D(2,1,7,19)           179.8489         estimate D2E/DX2                !
 ! D10   D(6,1,7,19)            -0.1668         estimate D2E/DX2                !
 ! D11   D(1,2,3,4)             -0.0007         estimate D2E/DX2                !
 ! D12   D(1,2,3,17)           179.9975         estimate D2E/DX2                !
 ! D13   D(8,2,3,4)           -179.9994         estimate D2E/DX2                !
 ! D14   D(8,2,3,17)            -0.0012         estimate D2E/DX2                !
 ! D15   D(1,2,8,9)            179.9982         estimate D2E/DX2                !
 ! D16   D(3,2,8,9)             -0.003          estimate D2E/DX2                !
 ! D17   D(2,3,4,5)             -0.0008         estimate D2E/DX2                !
 ! D18   D(2,3,4,12)           179.9999         estimate D2E/DX2                !
 ! D19   D(17,3,4,5)          -179.999          estimate D2E/DX2                !
 ! D20   D(17,3,4,12)            0.0017         estimate D2E/DX2                !
 ! D21   D(3,4,5,6)             -0.0036         estimate D2E/DX2                !
 ! D22   D(3,4,5,18)          -179.9991         estimate D2E/DX2                !
 ! D23   D(12,4,5,6)           179.9957         estimate D2E/DX2                !
 ! D24   D(12,4,5,18)            0.0002         estimate D2E/DX2                !
 ! D25   D(3,4,12,13)          179.9728         estimate D2E/DX2                !
 ! D26   D(3,4,12,26)           -0.0256         estimate D2E/DX2                !
 ! D27   D(5,4,12,13)           -0.0265         estimate D2E/DX2                !
 ! D28   D(5,4,12,26)          179.9752         estimate D2E/DX2                !
 ! D29   D(4,5,6,1)              0.0095         estimate D2E/DX2                !
 ! D30   D(4,5,6,10)          -179.989          estimate D2E/DX2                !
 ! D31   D(18,5,6,1)          -179.9948         estimate D2E/DX2                !
 ! D32   D(18,5,6,10)            0.0067         estimate D2E/DX2                !
 ! D33   D(1,6,10,11)            0.0056         estimate D2E/DX2                !
 ! D34   D(5,6,10,11)         -179.996          estimate D2E/DX2                !
 ! D35   D(2,8,9,20)          -179.9988         estimate D2E/DX2                !
 ! D36   D(2,8,9,21)           -61.2294         estimate D2E/DX2                !
 ! D37   D(2,8,9,22)            61.232          estimate D2E/DX2                !
 ! D38   D(6,10,11,23)        -179.9935         estimate D2E/DX2                !
 ! D39   D(6,10,11,24)         -63.0154         estimate D2E/DX2                !
 ! D40   D(6,10,11,25)          63.04           estimate D2E/DX2                !
 ! D41   D(4,12,13,14)        -179.9998         estimate D2E/DX2                !
 ! D42   D(4,12,13,27)          -0.0013         estimate D2E/DX2                !
 ! D43   D(26,12,13,14)         -0.0014         estimate D2E/DX2                !
 ! D44   D(26,12,13,27)        179.997          estimate D2E/DX2                !
 ! D45   D(12,13,14,15)        179.9928         estimate D2E/DX2                !
 ! D46   D(12,13,14,16)         -0.0052         estimate D2E/DX2                !
 ! D47   D(27,13,14,15)         -0.0058         estimate D2E/DX2                !
 ! D48   D(27,13,14,16)        179.9963         estimate D2E/DX2                !
 ! D49   D(13,14,15,28)       -179.9992         estimate D2E/DX2                !
 ! D50   D(16,14,15,28)         -0.0012         estimate D2E/DX2                !
 --------------------------------------------------------------------------------
 Trust Radius=3.00D-01 FncErr=1.00D-07 GrdErr=1.00D-06
 Number of steps in this run=    131 maximum allowed number of steps=    168.
 GradGradGradGradGradGradGradGradGradGradGradGradGradGradGradGradGradGrad

                          Input orientation:                          
 ---------------------------------------------------------------------
 Center     Atomic      Atomic             Coordinates (Angstroms)
 Number     Number       Type             X           Y           Z
 ---------------------------------------------------------------------
      1          6           0        2.269805   -0.116325    0.000187
      2          6           0        1.690179    1.170062    0.000220
      3          6           0        0.315019    1.331554    0.000227
      4          6           0       -0.527462    0.210225    0.000187
      5          6           0        0.042130   -1.055333    0.000123
      6          6           0        1.425041   -1.232397    0.000023
      7          8           0        3.634465   -0.124379    0.000014
      8          8           0        2.582894    2.189751    0.000268
      9          6           0        2.083060    3.512234    0.000264
     10          8           0        1.792577   -2.555150   -0.000271
     11          6           0        3.129998   -3.003706   -0.000345
     12          6           0       -1.972280    0.430133    0.000199
     13          6           0       -2.938919   -0.497171   -0.000338
     14          6           0       -4.347312   -0.080514   -0.000229
     15          8           0       -5.186134   -1.142285   -0.000983
     16          8           0       -4.763242    1.059942    0.000404
     17          1           0       -0.122263    2.321184    0.000293
     18          1           0       -0.563478   -1.953101    0.000075
     19          1           0        3.982948   -1.017843    0.002349
     20          1           0        2.958288    4.160613    0.000284
     21          1           0        1.482513    3.711405   -0.894671
     22          1           0        1.482479    3.711400    0.895178
     23          1           0        3.075139   -4.092266   -0.000714
     24          1           0        3.667848   -2.697056   -0.906725
     25          1           0        3.667649   -2.697799    0.906446
     26          1           0       -2.297534    1.468649    0.000675
     27          1           0       -2.744586   -1.563135   -0.000886
     28          1           0       -6.089031   -0.787658   -0.000871
 ---------------------------------------------------------------------
                    Distance matrix (angstroms):
                    1          2          3          4          5
     1  C    0.000000
     2  C    1.410942   0.000000
     3  C    2.432600   1.384610   0.000000
     4  C    2.816263   2.416448   1.402552   0.000000
     5  C    2.417493   2.769196   2.402436   1.387830   0.000000
     6  C    1.399730   2.417045   2.793921   2.427638   1.394200
     7  O    1.364684   2.335771   3.624702   4.175356   3.711003
     8  O    2.327233   1.355251   2.424821   3.686847   4.121414
     9  C    3.633361   2.374895   2.807371   4.209286   5.002806
    10  O    2.485078   3.726619   4.158082   3.609693   2.305106
    11  C    3.012790   4.415135   5.169002   4.868918   3.651176
    12  C    4.277137   3.736456   2.458515   1.461458   2.502890
    13  C    5.222629   4.920184   3.732606   2.513073   3.032853
    14  C    6.617214   6.165650   4.871475   3.830899   4.496384
    15  O    7.526196   7.254697   6.031796   4.851032   5.228987
    16  O    7.130733   6.454360   5.085519   4.320168   5.250332
    17  H    3.415178   2.147098   1.081935   2.149496   3.380517
    18  H    3.376572   3.851379   3.400105   2.163626   1.082935
    19  H    1.935871   3.169183   4.355844   4.674607   3.940997
    20  H    4.331998   3.248307   3.871750   5.268398   5.975790
    21  H    4.009004   2.702291   2.797780   4.135098   5.059363
    22  H    4.009036   2.702312   2.797779   4.135106   5.059394
    23  H    4.056682   5.441527   6.085728   5.611610   4.292098
    24  H    3.072000   4.437153   5.319184   5.184149   4.082090
    25  H    3.072341   4.437565   5.319497   5.184290   4.082096
    26  H    4.834535   3.998876   2.616148   2.171816   3.441586
    27  H    5.218944   5.209367   4.211936   2.839092   2.832605
    28  H    8.385752   8.021769   6.745585   5.650382   6.137001
                    6          7          8          9         10
     6  C    0.000000
     7  O    2.471691   0.000000
     8  O    3.612717   2.541850   0.000000
     9  C    4.790043   3.953709   1.413788   0.000000
    10  O    1.372865   3.049787   4.810269   6.074334   0.000000
    11  C    2.458539   2.923185   5.222195   6.599512   1.410637
    12  C    3.782300   5.634099   4.883223   5.093636   4.804796
    13  C    4.425461   6.583946   6.140844   6.426165   5.159683
    14  C    5.886161   7.981898   7.292589   7.365971   6.619823
    15  O    6.611789   8.879138   8.453417   8.631670   7.120295
    16  O    6.599217   8.480808   7.432508   7.272248   7.486498
    17  H    3.875834   4.482609   2.708348   2.506402   5.238821
    18  H    2.115094   4.578968   5.202199   6.072401   2.431760
    19  H    2.566891   0.959022   3.499831   4.912349   2.676013
    20  H    5.606728   4.338015   2.006295   1.089229   6.816183
    21  H    5.024436   4.488273   2.080189   1.096008   6.337650
    22  H    5.024513   4.488381   2.080191   1.096009   6.337794
    23  H    3.301768   4.007115   6.301273   7.668940   2.001922
    24  H    2.828003   2.727995   5.087302   6.472207   2.087687
    25  H    2.828126   2.728591   5.087828   6.472758   2.087673
    26  H    4.599262   6.142178   4.933413   4.833823   5.737592
    27  H    4.182724   6.539290   6.516609   7.004680   4.644345
    28  H    7.527222   9.746092   9.168819   9.234292   8.077362
                   11         12         13         14         15
    11  C    0.000000
    12  C    6.150162   0.000000
    13  C    6.566161   1.339509   0.000000
    14  C    8.028401   2.429308   1.468732   0.000000
    15  O    8.521909   3.577898   2.337979   1.353137   0.000000
    16  O    8.877864   2.861141   2.398490   1.213935   2.242464
    17  H    6.239524   2.645494   3.984555   4.859958   6.135015
    18  H    3.839992   2.768488   2.786118   4.221846   4.693226
    19  H    2.161292   6.128734   6.941423   8.382829   9.169927
    20  H    7.166376   6.182797   7.514786   8.447423   9.718659
    21  H    6.971854   4.848003   6.169360   7.011814   8.296254
    22  H    6.972010   4.847995   6.169504   7.011906   8.296491
    23  H    1.089942   6.777059   7.006683   8.437235   8.772173
    24  H    1.097653   6.512516   7.022137   8.480025   9.034970
    25  H    1.097687   6.512606   7.022233   8.480085   9.035072
    26  H    7.032785   1.088258   2.067807   2.569338   3.893711
    27  H    6.048635   2.137656   1.083534   2.183322   2.477554
    28  H    9.481633   4.293094   3.163477   1.879797   0.970043
                   16         17         18         19         20
    16  O    0.000000
    17  H    4.809305   0.000000
    18  H    5.168795   4.296997   0.000000
    19  H    8.989607   5.291679   4.641627   0.000000
    20  H    8.320828   3.587937   7.055518   5.278858   0.000000
    21  H    6.844039   2.304123   6.088783   5.424261   1.783436
    22  H    6.843967   2.304065   6.088819   5.423581   1.783435
    23  H    9.380057   7.166291   4.220848   3.205652   8.253706
    24  H    9.274761   6.353767   4.390885   1.935319   6.953687
    25  H    9.274775   6.354112   4.390731   1.933664   6.954289
    26  H    2.499351   2.336369   3.836056   6.754783   5.905111
    27  H    3.309910   4.686631   2.215695   6.749598   8.079855
    28  H    2.274059   6.728092   5.647123  10.074609  10.312098
                   21         22         23         24         25
    21  H    0.000000
    22  H    1.789849   0.000000
    23  H    8.014543   8.014761   0.000000
    24  H    6.770835   7.006497   1.766004   0.000000
    25  H    7.006906   6.771479   1.765940   1.813171   0.000000
    26  H    4.485572   4.485372   7.732360   7.332275   7.332334
    27  H    6.818210   6.818484   6.345526   6.574620   6.574760
    28  H    8.852611   8.852807   9.741789   9.983139   9.983219
                   26         27         28
    26  H    0.000000
    27  H    3.064567   0.000000
    28  H    4.412071   3.433173   0.000000
 Stoichiometry    C11H12O5
 Framework group  C1[X(C11H12O5)]
 Deg. of freedom    78
 Full point group                 C1      NOp   1
 Largest Abelian subgroup         C1      NOp   1
 Largest concise Abelian subgroup C1      NOp   1
                         Standard orientation:                         
 ---------------------------------------------------------------------
 Center     Atomic      Atomic             Coordinates (Angstroms)
 Number     Number       Type             X           Y           Z
 ---------------------------------------------------------------------
      1          6           0        2.269805   -0.116325    0.000187
      2          6           0        1.690179    1.170062    0.000220
      3          6           0        0.315019    1.331554    0.000227
      4          6           0       -0.527462    0.210225    0.000187
      5          6           0        0.042130   -1.055333    0.000123
      6          6           0        1.425041   -1.232397    0.000023
      7          8           0        3.634465   -0.124379    0.000014
      8          8           0        2.582894    2.189751    0.000268
      9          6           0        2.083060    3.512234    0.000264
     10          8           0        1.792577   -2.555150   -0.000271
     11          6           0        3.129998   -3.003706   -0.000345
     12          6           0       -1.972280    0.430133    0.000199
     13          6           0       -2.938919   -0.497171   -0.000338
     14          6           0       -4.347312   -0.080514   -0.000229
     15          8           0       -5.186134   -1.142285   -0.000983
     16          8           0       -4.763242    1.059942    0.000404
     17          1           0       -0.122263    2.321184    0.000293
     18          1           0       -0.563478   -1.953101    0.000075
     19          1           0        3.982948   -1.017843    0.002349
     20          1           0        2.958288    4.160613    0.000284
     21          1           0        1.482513    3.711405   -0.894671
     22          1           0        1.482479    3.711400    0.895178
     23          1           0        3.075139   -4.092266   -0.000714
     24          1           0        3.667848   -2.697056   -0.906725
     25          1           0        3.667649   -2.697799    0.906446
     26          1           0       -2.297534    1.468649    0.000675
     27          1           0       -2.744586   -1.563135   -0.000886
     28          1           0       -6.089031   -0.787658   -0.000871
 ---------------------------------------------------------------------
 Rotational constants (GHZ):      0.7807112      0.2586725      0.1947863
 Standard basis: 6-31+G(d,p) (6D, 7F)
 There are   364 symmetry adapted cartesian basis functions of A   symmetry.
 There are   364 symmetry adapted basis functions of A   symmetry.
   364 basis functions,   596 primitive gaussians,   364 cartesian basis functions
    59 alpha electrons       59 beta electrons
       nuclear repulsion energy      1054.3559753123 Hartrees.
 NAtoms=   28 NActive=   28 NUniq=   28 SFac= 1.00D+00 NAtFMM=   60 NAOKFM=F Big=F
 Integral buffers will be    131072 words long.
 Raffenetti 2 integral format.
 Two-electron integral symmetry is turned on.
 Nuclear repulsion after empirical dispersion term =     1054.3054382288 Hartrees.
 One-electron integrals computed using PRISM.
 NBasis=   364 RedAO= T EigKep=  1.37D-06  NBF=   364
 NBsUse=   362 1.00D-06 EigRej=  5.12D-07 NBFU=   362
 ExpMin= 4.38D-02 ExpMax= 5.48D+03 ExpMxC= 8.25D+02 IAcc=2 IRadAn=         4 AccDes= 0.00D+00
 Harris functional with IExCor=  402 and IRadAn=       4 diagonalized for initial guess.
 HarFok:  IExCor=  402 AccDes= 0.00D+00 IRadAn=         4 IDoV= 1 UseB2=F ITyADJ=14
 ICtDFT=  3500011 ScaDFX=  1.000000  1.000000  1.000000  1.000000
 FoFCou: FMM=F IPFlag=           0 FMFlag=      100000 FMFlg1=           0
         NFxFlg=           0 DoJE=T BraDBF=F KetDBF=T FulRan=T
         wScrn=  0.000000 ICntrl=     500 IOpCl=  0 I1Cent=   200000004 NGrid=           0
         NMat0=    1 NMatS0=      1 NMatT0=    0 NMatD0=    1 NMtDS0=    0 NMtDT0=    0
 Petite list used in FoFCou.
 Requested convergence on RMS density matrix=1.00D-08 within 128 cycles.
 Requested convergence on MAX density matrix=1.00D-06.
 Requested convergence on             energy=1.00D-06.
 No special actions if energy rises.
 SCF Done:  E(RB3LYP) =  -802.577371789     A.U. after   16 cycles
            NFock= 16  Conv=0.36D-08     -V/T= 2.0089

 **********************************************************************

            Population analysis using the SCF density.

 **********************************************************************

 Orbital symmetries:
       Occupied  (A) (A) (A) (A) (A) (A) (A) (A) (A) (A) (A) (A)
                 (A) (A) (A) (A) (A) (A) (A) (A) (A) (A) (A) (A)
                 (A) (A) (A) (A) (A) (A) (A) (A) (A) (A) (A) (A)
                 (A) (A) (A) (A) (A) (A) (A) (A) (A) (A) (A) (A)
                 (A) (A) (A) (A) (A) (A) (A) (A) (A) (A) (A)
       Virtual   (A) (A) (A) (A) (A) (A) (A) (A) (A) (A) (A) (A)
                 (A) (A) (A) (A) (A) (A) (A) (A) (A) (A) (A) (A)
                 (A) (A) (A) (A) (A) (A) (A) (A) (A) (A) (A) (A)
                 (A) (A) (A) (A) (A) (A) (A) (A) (A) (A) (A) (A)
                 (A) (A) (A) (A) (A) (A) (A) (A) (A) (A) (A) (A)
                 (A) (A) (A) (A) (A) (A) (A) (A) (A) (A) (A) (A)
                 (A) (A) (A) (A) (A) (A) (A) (A) (A) (A) (A) (A)
                 (A) (A) (A) (A) (A) (A) (A) (A) (A) (A) (A) (A)
                 (A) (A) (A) (A) (A) (A) (A) (A) (A) (A) (A) (A)
                 (A) (A) (A) (A) (A) (A) (A) (A) (A) (A) (A) (A)
                 (A) (A) (A) (A) (A) (A) (A) (A) (A) (A) (A) (A)
                 (A) (A) (A) (A) (A) (A) (A) (A) (A) (A) (A) (A)
                 (A) (A) (A) (A) (A) (A) (A) (A) (A) (A) (A) (A)
                 (A) (A) (A) (A) (A) (A) (A) (A) (A) (A) (A) (A)
                 (A) (A) (A) (A) (A) (A) (A) (A) (A) (A) (A) (A)
                 (A) (A) (A) (A) (A) (A) (A) (A) (A) (A) (A) (A)
                 (A) (A) (A) (A) (A) (A) (A) (A) (A) (A) (A) (A)
                 (A) (A) (A) (A) (A) (A) (A) (A) (A) (A) (A) (A)
                 (A) (A) (A) (A) (A) (A) (A) (A) (A) (A) (A) (A)
                 (A) (A) (A) (A) (A) (A) (A) (A) (A) (A) (A) (A)
                 (A) (A) (A) (A) (A) (A) (A) (A) (A) (A) (A) (A)
                 (A) (A) (A) (A) (A) (A) (A) (A) (A) (A) (A) (A)
                 (A) (A) (A) (A) (A) (A) (A) (A) (A) (A) (A) (A)
                 (A) (A) (A) (A) (A) (A) (A) (A) (A) (A) (A) (A)
                 (A) (A) (A) (A) (A) (A) (A) (A) (A) (A) (A) (A)
                 (A) (A) (A)
 The electronic state is 1-A.
 Alpha  occ. eigenvalues --  -19.20363 -19.20138 -19.20065 -19.19395 -19.13950
 Alpha  occ. eigenvalues --  -10.32064 -10.27183 -10.26968 -10.26909 -10.26281
 Alpha  occ. eigenvalues --  -10.24895 -10.21683 -10.21185 -10.20083 -10.19982
 Alpha  occ. eigenvalues --  -10.19740  -1.10944  -1.09931  -1.08566  -1.06903
 Alpha  occ. eigenvalues --   -1.01580  -0.87662  -0.81602  -0.78517  -0.76509
 Alpha  occ. eigenvalues --   -0.72077  -0.71174  -0.68007  -0.63697  -0.61955
 Alpha  occ. eigenvalues --   -0.57639  -0.56030  -0.54206  -0.52711  -0.51336
 Alpha  occ. eigenvalues --   -0.50068  -0.49809  -0.48186  -0.47999  -0.47038
 Alpha  occ. eigenvalues --   -0.45801  -0.44893  -0.43774  -0.42926  -0.42111
 Alpha  occ. eigenvalues --   -0.41114  -0.40395  -0.38694  -0.37977  -0.37341
 Alpha  occ. eigenvalues --   -0.36177  -0.34787  -0.34236  -0.34060  -0.32241
 Alpha  occ. eigenvalues --   -0.28109  -0.27869  -0.23378  -0.21793
 Alpha virt. eigenvalues --   -0.07038  -0.01378  -0.00610   0.00350   0.00800
 Alpha virt. eigenvalues --    0.01347   0.01635   0.01951   0.03108   0.03806
 Alpha virt. eigenvalues --    0.03820   0.04628   0.04916   0.05969   0.06376
 Alpha virt. eigenvalues --    0.06450   0.07546   0.07678   0.08149   0.08672
 Alpha virt. eigenvalues --    0.09418   0.10115   0.10242   0.10725   0.11587
 Alpha virt. eigenvalues --    0.11824   0.12245   0.12523   0.13751   0.14384
 Alpha virt. eigenvalues --    0.14606   0.14857   0.14885   0.15608   0.16436
 Alpha virt. eigenvalues --    0.17562   0.18096   0.18535   0.18757   0.19019
 Alpha virt. eigenvalues --    0.19149   0.19291   0.19662   0.20010   0.20953
 Alpha virt. eigenvalues --    0.20994   0.21634   0.22504   0.22820   0.23105
 Alpha virt. eigenvalues --    0.23303   0.24028   0.24328   0.25446   0.25633
 Alpha virt. eigenvalues --    0.25647   0.26681   0.26841   0.27334   0.27625
 Alpha virt. eigenvalues --    0.27739   0.28355   0.29493   0.29767   0.30053
 Alpha virt. eigenvalues --    0.30198   0.30351   0.31069   0.31134   0.32789
 Alpha virt. eigenvalues --    0.33041   0.33535   0.34152   0.34436   0.34647
 Alpha virt. eigenvalues --    0.35469   0.36310   0.37015   0.37451   0.38139
 Alpha virt. eigenvalues --    0.38450   0.40256   0.41536   0.42522   0.43162
 Alpha virt. eigenvalues --    0.44097   0.44324   0.46444   0.47466   0.49167
 Alpha virt. eigenvalues --    0.51654   0.53043   0.56042   0.59886   0.62545
 Alpha virt. eigenvalues --    0.65133   0.65604   0.65831   0.66983   0.68680
 Alpha virt. eigenvalues --    0.68823   0.69661   0.69833   0.71352   0.72169
 Alpha virt. eigenvalues --    0.72261   0.73851   0.75206   0.75477   0.76603
 Alpha virt. eigenvalues --    0.78262   0.79694   0.80289   0.81443   0.85168
 Alpha virt. eigenvalues --    0.86113   0.86686   0.88676   0.90298   0.90519
 Alpha virt. eigenvalues --    0.90739   0.92330   0.93526   0.95553   0.96602
 Alpha virt. eigenvalues --    0.98126   1.00017   1.01877   1.04591   1.05939
 Alpha virt. eigenvalues --    1.08511   1.09386   1.11480   1.12035   1.13292
 Alpha virt. eigenvalues --    1.15239   1.15382   1.16055   1.16259   1.18156
 Alpha virt. eigenvalues --    1.18225   1.19756   1.20216   1.20600   1.21316
 Alpha virt. eigenvalues --    1.22211   1.23360   1.24220   1.24728   1.24864
 Alpha virt. eigenvalues --    1.26942   1.27673   1.28035   1.30486   1.31030
 Alpha virt. eigenvalues --    1.31243   1.32304   1.33237   1.33739   1.34527
 Alpha virt. eigenvalues --    1.34869   1.37213   1.37535   1.38082   1.38568
 Alpha virt. eigenvalues --    1.39843   1.42056   1.44104   1.45703   1.47049
 Alpha virt. eigenvalues --    1.48403   1.50697   1.51962   1.53870   1.57945
 Alpha virt. eigenvalues --    1.58366   1.59177   1.59405   1.63889   1.66646
 Alpha virt. eigenvalues --    1.69681   1.74762   1.75399   1.76951   1.77429
 Alpha virt. eigenvalues --    1.78791   1.79144   1.80615   1.82958   1.83550
 Alpha virt. eigenvalues --    1.83932   1.85998   1.88024   1.88438   1.90842
 Alpha virt. eigenvalues --    1.91282   1.92630   1.92752   1.95307   1.95753
 Alpha virt. eigenvalues --    1.96626   1.97442   1.98063   1.98743   2.00978
 Alpha virt. eigenvalues --    2.01450   2.02935   2.03934   2.04742   2.06136
 Alpha virt. eigenvalues --    2.08279   2.08672   2.10812   2.11469   2.11704
 Alpha virt. eigenvalues --    2.14554   2.15885   2.20169   2.20792   2.21520
 Alpha virt. eigenvalues --    2.22751   2.25433   2.27641   2.31332   2.31878
 Alpha virt. eigenvalues --    2.34952   2.38088   2.40053   2.40992   2.43585
 Alpha virt. eigenvalues --    2.45398   2.47092   2.47417   2.48301   2.50865
 Alpha virt. eigenvalues --    2.52289   2.52565   2.54543   2.55395   2.56893
 Alpha virt. eigenvalues --    2.60621   2.61651   2.61799   2.62824   2.64010
 Alpha virt. eigenvalues --    2.64287   2.64984   2.67264   2.69486   2.70289
 Alpha virt. eigenvalues --    2.73688   2.74254   2.77060   2.77372   2.78544
 Alpha virt. eigenvalues --    2.79299   2.81874   2.82884   2.83183   2.84840
 Alpha virt. eigenvalues --    2.85938   2.90251   2.91130   2.94810   2.98114
 Alpha virt. eigenvalues --    3.02174   3.05623   3.08880   3.13122   3.15896
 Alpha virt. eigenvalues --    3.18321   3.20357   3.22241   3.24589   3.25397
 Alpha virt. eigenvalues --    3.30491   3.38781   3.40782   3.41240   3.43954
 Alpha virt. eigenvalues --    3.45485   3.47399   3.48220   3.54598   3.59413
 Alpha virt. eigenvalues --    3.63907   3.77715   4.17616   4.23003   4.29244
 Alpha virt. eigenvalues --    4.33989   4.38476   4.40185   4.42968   4.45847
 Alpha virt. eigenvalues --    4.50657   4.56456   4.61217   4.61519   4.67734
 Alpha virt. eigenvalues --    4.74931   4.84382   5.31640
          Condensed to atoms (all electrons):
               1          2          3          4          5          6
     1  C   33.826759 -12.460343 -12.906064   2.415017  -3.411540   2.742659
     2  C  -12.460343  31.144970  -0.048165  -2.592581  -0.082542  -9.433536
     3  C  -12.906064  -0.048165  32.351742  -2.154869  -5.523215  -3.491690
     4  C    2.415017  -2.592581  -2.154869  13.934626  -0.931700  -0.603319
     5  C   -3.411540  -0.082542  -5.523215  -0.931700  11.791967   1.775019
     6  C    2.742659  -9.433536  -3.491690  -0.603319   1.775019  15.278877
     7  O    0.129932  -1.067150   0.166024  -0.081221   0.110955   0.594971
     8  O   -0.840269   0.353657   0.481122  -0.036869  -0.025288   0.064999
     9  C    0.053073  -0.058887  -0.055441  -0.161869  -0.015206   0.055865
    10  O    0.396540   0.078650  -0.052814   0.008619  -0.416538  -0.068831
    11  C   -0.246765  -0.194235  -0.004221   0.030011   0.091360   0.236358
    12  C   -3.767024   0.797404  -0.477709  -2.601728   1.571464  -1.047254
    13  C    0.007626  -0.900516  -2.662008  -0.869170   1.229420   0.208387
    14  C   -0.094814   0.092896  -0.272239  -0.770433   0.094533   0.024998
    15  O   -0.000042   0.002120   0.021336   0.092917  -0.036668  -0.002223
    16  O   -0.000593  -0.003832   0.053489   0.117914  -0.030191  -0.000004
    17  H    0.065305  -0.218330   0.165372   0.193569   0.038899  -0.005736
    18  H    0.007531   0.012792   0.126828   0.141963   0.178223  -0.097008
    19  H   -0.005213   0.419020   0.021919  -0.000939  -0.010781  -0.406578
    20  H    0.107302   0.119339  -0.190058  -0.029787  -0.002850   0.014435
    21  H   -0.052076  -0.145272   0.136728   0.042018   0.007337  -0.008864
    22  H   -0.051875  -0.145075   0.136398   0.042027   0.007323  -0.008850
    23  H   -0.062366  -0.009406  -0.003430   0.001406   0.009235   0.076418
    24  H    0.059648   0.012607   0.003934  -0.001598  -0.008813  -0.069427
    25  H    0.060858   0.013037   0.003878  -0.001577  -0.009032  -0.070560
    26  H    0.018667   0.021453   0.109835   0.016355   0.002815   0.000535
    27  H    0.002535  -0.002182   0.034122   0.098796  -0.031835   0.000978
    28  H    0.000060   0.000015  -0.000795  -0.006921   0.004425   0.000188
               7          8          9         10         11         12
     1  C    0.129932  -0.840269   0.053073   0.396540  -0.246765  -3.767024
     2  C   -1.067150   0.353657  -0.058887   0.078650  -0.194235   0.797404
     3  C    0.166024   0.481122  -0.055441  -0.052814  -0.004221  -0.477709
     4  C   -0.081221  -0.036869  -0.161869   0.008619   0.030011  -2.601728
     5  C    0.110955  -0.025288  -0.015206  -0.416538   0.091360   1.571464
     6  C    0.594971   0.064999   0.055865  -0.068831   0.236358  -1.047254
     7  O    8.514255   0.046940  -0.007783  -0.024782   0.005762   0.028653
     8  O    0.046940   8.491656   0.044581  -0.001489   0.001402  -0.038694
     9  C   -0.007783   0.044581   5.023577  -0.000271   0.000018   0.001040
    10  O   -0.024782  -0.001489  -0.000271   8.623383   0.021820  -0.022808
    11  C    0.005762   0.001402   0.000018   0.021820   4.995078  -0.013623
    12  C    0.028653  -0.038694   0.001040  -0.022808  -0.013623  12.304075
    13  C    0.000180  -0.004066  -0.009859   0.010530   0.001223  -2.210634
    14  C    0.000556  -0.000245   0.000111  -0.000214  -0.000360   0.926761
    15  O    0.000000   0.000001   0.000002   0.000003   0.000001  -0.042253
    16  O    0.000000   0.000002   0.000102  -0.000004   0.000007   0.055938
    17  H   -0.000910  -0.015226  -0.005527   0.000164   0.000146   0.046783
    18  H   -0.000412   0.000133   0.000340  -0.018450  -0.002899  -0.044902
    19  H    0.142907  -0.003780   0.001127   0.004942   0.020546   0.005489
    20  H   -0.001034  -0.080107   0.427368  -0.000004   0.000034  -0.004709
    21  H    0.000032  -0.038011   0.405164   0.000004  -0.000026   0.007599
    22  H    0.000031  -0.038016   0.405139   0.000004  -0.000026   0.007555
    23  H    0.002752   0.000007   0.000015  -0.075858   0.421531   0.000031
    24  H   -0.013315  -0.000131  -0.000074  -0.043799   0.397823  -0.000134
    25  H   -0.013503  -0.000134  -0.000075  -0.043786   0.397489  -0.000129
    26  H   -0.000013   0.000085   0.000263   0.000020   0.000001   0.288471
    27  H   -0.000004   0.000004   0.000052   0.000010   0.000107  -0.104616
    28  H   -0.000000   0.000000  -0.000001   0.000000  -0.000000   0.025623
              13         14         15         16         17         18
     1  C    0.007626  -0.094814  -0.000042  -0.000593   0.065305   0.007531
     2  C   -0.900516   0.092896   0.002120  -0.003832  -0.218330   0.012792
     3  C   -2.662008  -0.272239   0.021336   0.053489   0.165372   0.126828
     4  C   -0.869170  -0.770433   0.092917   0.117914   0.193569   0.141963
     5  C    1.229420   0.094533  -0.036668  -0.030191   0.038899   0.178223
     6  C    0.208387   0.024998  -0.002223  -0.000004  -0.005736  -0.097008
     7  O    0.000180   0.000556   0.000000   0.000000  -0.000910  -0.000412
     8  O   -0.004066  -0.000245   0.000001   0.000002  -0.015226   0.000133
     9  C   -0.009859   0.000111   0.000002   0.000102  -0.005527   0.000340
    10  O    0.010530  -0.000214   0.000003  -0.000004   0.000164  -0.018450
    11  C    0.001223  -0.000360   0.000001   0.000007   0.000146  -0.002899
    12  C   -2.210634   0.926761  -0.042253   0.055938   0.046783  -0.044902
    13  C   13.365049  -1.660280   0.134329  -0.159206   0.028519  -0.019393
    14  C   -1.660280   6.740794  -0.169316   0.269705   0.000727   0.010958
    15  O    0.134329  -0.169316   8.428739  -0.149100   0.000002   0.000096
    16  O   -0.159206   0.269705  -0.149100   8.358042  -0.000085   0.000046
    17  H    0.028519   0.000727   0.000002  -0.000085   0.583575  -0.000148
    18  H   -0.019393   0.010958   0.000096   0.000046  -0.000148   0.582240
    19  H    0.000451   0.000037   0.000000   0.000000   0.000004  -0.000010
    20  H   -0.000126  -0.000002   0.000000  -0.000000   0.000155  -0.000000
    21  H    0.000577  -0.000035  -0.000000   0.000000  -0.001152   0.000000
    22  H    0.000573  -0.000034  -0.000000   0.000000  -0.001151   0.000000
    23  H   -0.000363  -0.000011   0.000000  -0.000000   0.000000  -0.000040
    24  H    0.000219   0.000006  -0.000000   0.000000  -0.000000   0.000004
    25  H    0.000222   0.000006  -0.000000   0.000000  -0.000000   0.000004
    26  H   -0.144532  -0.022943   0.001213  -0.004678   0.003220  -0.000028
    27  H    0.334144  -0.029218  -0.005976   0.005702  -0.000001   0.001047
    28  H   -0.021195   0.034483   0.189521   0.007435  -0.000000  -0.000000
              19         20         21         22         23         24
     1  C   -0.005213   0.107302  -0.052076  -0.051875  -0.062366   0.059648
     2  C    0.419020   0.119339  -0.145272  -0.145075  -0.009406   0.012607
     3  C    0.021919  -0.190058   0.136728   0.136398  -0.003430   0.003934
     4  C   -0.000939  -0.029787   0.042018   0.042027   0.001406  -0.001598
     5  C   -0.010781  -0.002850   0.007337   0.007323   0.009235  -0.008813
     6  C   -0.406578   0.014435  -0.008864  -0.008850   0.076418  -0.069427
     7  O    0.142907  -0.001034   0.000032   0.000031   0.002752  -0.013315
     8  O   -0.003780  -0.080107  -0.038011  -0.038016   0.000007  -0.000131
     9  C    0.001127   0.427368   0.405164   0.405139   0.000015  -0.000074
    10  O    0.004942  -0.000004   0.000004   0.000004  -0.075858  -0.043799
    11  C    0.020546   0.000034  -0.000026  -0.000026   0.421531   0.397823
    12  C    0.005489  -0.004709   0.007599   0.007555   0.000031  -0.000134
    13  C    0.000451  -0.000126   0.000577   0.000573  -0.000363   0.000219
    14  C    0.000037  -0.000002  -0.000035  -0.000034  -0.000011   0.000006
    15  O    0.000000   0.000000  -0.000000  -0.000000   0.000000  -0.000000
    16  O    0.000000  -0.000000   0.000000   0.000000  -0.000000   0.000000
    17  H    0.000004   0.000155  -0.001152  -0.001151   0.000000  -0.000000
    18  H   -0.000010  -0.000000   0.000000   0.000000  -0.000040   0.000004
    19  H    0.439407  -0.000003   0.000001   0.000001  -0.000807   0.007753
    20  H   -0.000003   0.546135  -0.028363  -0.028366  -0.000000  -0.000000
    21  H    0.000001  -0.028363   0.574744  -0.045563   0.000000  -0.000000
    22  H    0.000001  -0.028366  -0.045563   0.574755   0.000000   0.000000
    23  H   -0.000807  -0.000000   0.000000   0.000000   0.535634  -0.028916
    24  H    0.007753  -0.000000  -0.000000   0.000000  -0.028916   0.590687
    25  H    0.007891  -0.000000   0.000000  -0.000000  -0.028921  -0.049773
    26  H   -0.000000   0.000000  -0.000003  -0.000003   0.000000  -0.000000
    27  H   -0.000000   0.000000  -0.000000  -0.000000   0.000000  -0.000000
    28  H    0.000000   0.000000   0.000000   0.000000   0.000000   0.000000
              25         26         27         28
     1  C    0.060858   0.018667   0.002535   0.000060
     2  C    0.013037   0.021453  -0.002182   0.000015
     3  C    0.003878   0.109835   0.034122  -0.000795
     4  C   -0.001577   0.016355   0.098796  -0.006921
     5  C   -0.009032   0.002815  -0.031835   0.004425
     6  C   -0.070560   0.000535   0.000978   0.000188
     7  O   -0.013503  -0.000013  -0.000004  -0.000000
     8  O   -0.000134   0.000085   0.000004   0.000000
     9  C   -0.000075   0.000263   0.000052  -0.000001
    10  O   -0.043786   0.000020   0.000010   0.000000
    11  C    0.397489   0.000001   0.000107  -0.000000
    12  C   -0.000129   0.288471  -0.104616   0.025623
    13  C    0.000222  -0.144532   0.334144  -0.021195
    14  C    0.000006  -0.022943  -0.029218   0.034483
    15  O   -0.000000   0.001213  -0.005976   0.189521
    16  O    0.000000  -0.004678   0.005702   0.007435
    17  H   -0.000000   0.003220  -0.000001  -0.000000
    18  H    0.000004  -0.000028   0.001047  -0.000000
    19  H    0.007891  -0.000000  -0.000000   0.000000
    20  H   -0.000000   0.000000   0.000000   0.000000
    21  H    0.000000  -0.000003  -0.000000   0.000000
    22  H   -0.000000  -0.000003  -0.000000   0.000000
    23  H   -0.028921   0.000000   0.000000   0.000000
    24  H   -0.049773  -0.000000  -0.000000   0.000000
    25  H    0.591033  -0.000000  -0.000000   0.000000
    26  H   -0.000000   0.554199   0.004605  -0.000005
    27  H   -0.000000   0.004605   0.560799   0.000007
    28  H    0.000000  -0.000005   0.000007   0.394679
 Mulliken charges:
               1
     1  C    0.005473
     2  C    0.294089
     3  C    0.029989
     4  C   -0.290654
     5  C   -0.376776
     6  C    0.239191
     7  O   -0.533825
     8  O   -0.362263
     9  C   -0.102846
    10  O   -0.375042
    11  C   -0.158560
    12  C    0.309332
    13  C   -0.660101
    14  C    0.823573
    15  O   -0.464701
    16  O   -0.520689
    17  H    0.121824
    18  H    0.121084
    19  H    0.356615
    20  H    0.150640
    21  H    0.145160
    22  H    0.145154
    23  H    0.163087
    24  H    0.143299
    25  H    0.143071
    26  H    0.150468
    27  H    0.130925
    28  H    0.372482
 Sum of Mulliken charges =  -0.00000
 Mulliken charges with hydrogens summed into heavy atoms:
               1
     1  C    0.005473
     2  C    0.294089
     3  C    0.151814
     4  C   -0.290654
     5  C   -0.255692
     6  C    0.239191
     7  O   -0.177209
     8  O   -0.362263
     9  C    0.338108
    10  O   -0.375042
    11  C    0.290898
    12  C    0.459800
    13  C   -0.529176
    14  C    0.823573
    15  O   -0.092219
    16  O   -0.520689
 Electronic spatial extent (au):  <R**2>=           5213.2074
 Charge=             -0.0000 electrons
 Dipole moment (field-independent basis, Debye):
    X=              3.5845    Y=             -1.7041    Z=              0.0024  Tot=              3.9689
 Quadrupole moment (field-independent basis, Debye-Ang):
   XX=            -92.3688   YY=            -81.0700   ZZ=            -96.3217
   XY=             -3.1867   XZ=              0.0178   YZ=             -0.0044
 Traceless Quadrupole moment (field-independent basis, Debye-Ang):
   XX=             -2.4487   YY=              8.8502   ZZ=             -6.4015
   XY=             -3.1867   XZ=              0.0178   YZ=             -0.0044
 Octapole moment (field-independent basis, Debye-Ang**2):
  XXX=              0.2368  YYY=             18.7928  ZZZ=             -0.0035  XYY=             65.4160
  XXY=            -94.5142  XXZ=              0.0275  XZZ=              1.4138  YZZ=             -0.9731
  YYZ=              0.0010  XYZ=             -0.0044
 Hexadecapole moment (field-independent basis, Debye-Ang**3):
 XXXX=          -4162.6719 YYYY=          -1553.9341 ZZZZ=           -117.3142 XXXY=             44.8385
 XXXZ=              0.3299 YYYX=             -1.4699 YYYZ=             -0.0765 ZZZX=             -0.1178
 ZZZY=             -0.1062 XXYY=          -1041.8559 XXZZ=           -812.2071 YYZZ=           -321.4780
 XXYZ=             -0.1437 YYXZ=             -0.0412 ZZXY=             -4.5449
 N-N= 1.054305438229D+03 E-N=-3.981753716015D+03  KE= 7.954984965481D+02
 Calling FoFJK, ICntrl=      2127 FMM=F ISym2X=0 I1Cent= 0 IOpClX= 0 NMat=1 NMatS=1 NMatT=0.
 ***** Axes restored to original set *****
 -------------------------------------------------------------------
 Center     Atomic                   Forces (Hartrees/Bohr)
 Number     Number              X              Y              Z
 -------------------------------------------------------------------
      1        6           0.002398810    0.000042803    0.000004453
      2        6          -0.000132180    0.001538079   -0.000001953
      3        6          -0.001460998    0.004431264    0.000001542
      4        6          -0.008039004    0.002205384    0.000000485
      5        6          -0.000914860   -0.005341703   -0.000002062
      6        6          -0.001281190   -0.002104616   -0.000004235
      7        8           0.004056041    0.001914021   -0.000004015
      8        8           0.004794276   -0.000313678    0.000000160
      9        6          -0.000877635    0.003366187    0.000000204
     10        8          -0.002742081   -0.003089435    0.000007175
     11        6           0.002694291   -0.001212171   -0.000008725
     12        6           0.008380040    0.004845371    0.000003908
     13        6          -0.006245425   -0.005484409   -0.000001320
     14        6           0.006218029   -0.003308523   -0.000004861
     15        8          -0.003263774   -0.007549292   -0.000003076
     16        8          -0.003545611    0.010492230    0.000006909
     17        1          -0.000144663    0.000153466    0.000000004
     18        1          -0.000321009   -0.000098125   -0.000000488
     19        1           0.000269490   -0.001627744    0.000002789
     20        1           0.000589162    0.000481084   -0.000000037
     21        1          -0.000596408    0.000364811   -0.000603472
     22        1          -0.000596489    0.000364765    0.000603478
     23        1           0.000070630   -0.000838711    0.000001189
     24        1           0.000740047    0.000126819   -0.000670855
     25        1           0.000741771    0.000121236    0.000674502
     26        1           0.000153122    0.000387890   -0.000001069
     27        1           0.000287826   -0.000450115   -0.000000696
     28        1          -0.001232206    0.000583111    0.000000067
 -------------------------------------------------------------------
 Cartesian Forces:  Max     0.010492230 RMS     0.002736125

 GradGradGradGradGradGradGradGradGradGradGradGradGradGradGradGradGradGrad
 Berny optimization.
 FormGI is forming the generalized inverse of G from B-inverse, IUseBI=4.
 Internal  Forces:  Max     0.011070269 RMS     0.002337035
 Search for a local minimum.
 Step number   1 out of a maximum of  131
 All quantities printed in internal units (Hartrees-Bohrs-Radians)
 Mixed Optimization -- RFO/linear search
 Second derivative matrix not updated -- first step.
 ITU=  0
     Eigenvalues ---    0.01180   0.01276   0.01509   0.01529   0.01551
     Eigenvalues ---    0.01878   0.02023   0.02051   0.02068   0.02085
     Eigenvalues ---    0.02092   0.02114   0.02135   0.02158   0.02159
     Eigenvalues ---    0.02181   0.02211   0.02216   0.02284   0.02312
     Eigenvalues ---    0.02889   0.09854   0.10098   0.10698   0.10760
     Eigenvalues ---    0.16000   0.16000   0.16000   0.16000   0.16000
     Eigenvalues ---    0.16000   0.16000   0.16000   0.16000   0.16000
     Eigenvalues ---    0.16000   0.16000   0.22000   0.22000   0.23469
     Eigenvalues ---    0.23487   0.25000   0.25000   0.25000   0.25000
     Eigenvalues ---    0.25000   0.25000   0.25000   0.25000   0.25000
     Eigenvalues ---    0.33939   0.33943   0.34127   0.34127   0.34819
     Eigenvalues ---    0.34902   0.35015   0.35571   0.35642   0.35762
     Eigenvalues ---    0.35892   0.36782   0.41511   0.42251   0.43410
     Eigenvalues ---    0.43902   0.45283   0.45495   0.47064   0.47833
     Eigenvalues ---    0.50430   0.52012   0.53368   0.53919   0.54359
     Eigenvalues ---    0.55684   0.57315   0.98122
 RFO step:  Lambda=-1.24723983D-03 EMin= 1.17956213D-02
 Linear search not attempted -- first point.
 Iteration  1 RMS(Cart)=  0.01647027 RMS(Int)=  0.00001696
 Iteration  2 RMS(Cart)=  0.00004167 RMS(Int)=  0.00000053
 Iteration  3 RMS(Cart)=  0.00000000 RMS(Int)=  0.00000053
 Variable       Old X    -DE/DX   Delta X   Delta X   Delta X     New X
                                 (Linear)    (Quad)   (Total)
    R1        2.66629   0.00641   0.00000   0.01461   0.01461   2.68091
    R2        2.64511   0.00763   0.00000   0.01671   0.01671   2.66182
    R3        2.57888   0.00432   0.00000   0.00829   0.00829   2.58717
    R4        2.61653   0.00555   0.00000   0.01144   0.01144   2.62797
    R5        2.56105   0.00539   0.00000   0.00997   0.00997   2.57102
    R6        2.65044   0.00592   0.00000   0.01302   0.01302   2.66346
    R7        2.04456   0.00020   0.00000   0.00055   0.00055   2.04512
    R8        2.62262   0.00697   0.00000   0.01454   0.01454   2.63716
    R9        2.76175  -0.00082   0.00000  -0.00222  -0.00222   2.75954
   R10        2.63466   0.00461   0.00000   0.00990   0.00990   2.64456
   R11        2.04645   0.00026   0.00000   0.00073   0.00073   2.04718
   R12        2.59434   0.00511   0.00000   0.01011   0.01011   2.60445
   R13        1.81229   0.00161   0.00000   0.00289   0.00289   1.81518
   R14        2.67167   0.00481   0.00000   0.01105   0.01105   2.68272
   R15        2.05834   0.00076   0.00000   0.00217   0.00217   2.06051
   R16        2.07116   0.00089   0.00000   0.00259   0.00259   2.07374
   R17        2.07116   0.00089   0.00000   0.00259   0.00259   2.07375
   R18        2.66572   0.00460   0.00000   0.01045   0.01045   2.67617
   R19        2.05969   0.00083   0.00000   0.00238   0.00238   2.06207
   R20        2.07426   0.00095   0.00000   0.00280   0.00280   2.07706
   R21        2.07433   0.00096   0.00000   0.00280   0.00280   2.07713
   R22        2.53130   0.00958   0.00000   0.01668   0.01668   2.54798
   R23        2.05651   0.00032   0.00000   0.00092   0.00092   2.05743
   R24        2.77550   0.00181   0.00000   0.00502   0.00502   2.78052
   R25        2.04758   0.00050   0.00000   0.00139   0.00139   2.04897
   R26        2.55706   0.00826   0.00000   0.01515   0.01515   2.57221
   R27        2.29400   0.01107   0.00000   0.01127   0.01127   2.30527
   R28        1.83312   0.00136   0.00000   0.00254   0.00254   1.83566
    A1        2.07035   0.00007   0.00000   0.00037   0.00037   2.07072
    A2        2.00004  -0.00014   0.00000  -0.00058  -0.00058   1.99946
    A3        2.21280   0.00006   0.00000   0.00020   0.00020   2.21301
    A4        2.11104  -0.00036   0.00000  -0.00150  -0.00150   2.10954
    A5        1.99915   0.00014   0.00000   0.00058   0.00058   1.99974
    A6        2.17300   0.00022   0.00000   0.00092   0.00091   2.17391
    A7        2.09824   0.00054   0.00000   0.00217   0.00217   2.10041
    A8        2.10376  -0.00020   0.00000  -0.00063  -0.00063   2.10313
    A9        2.08118  -0.00034   0.00000  -0.00153  -0.00153   2.07964
   A10        2.07433  -0.00034   0.00000  -0.00158  -0.00158   2.07275
   A11        2.06410   0.00012   0.00000   0.00057   0.00058   2.06467
   A12        2.14476   0.00022   0.00000   0.00101   0.00101   2.14576
   A13        2.12105   0.00037   0.00000   0.00160   0.00160   2.12266
   A14        2.12522  -0.00040   0.00000  -0.00214  -0.00214   2.12309
   A15        2.03691   0.00003   0.00000   0.00053   0.00053   2.03744
   A16        2.09136  -0.00029   0.00000  -0.00106  -0.00106   2.09030
   A17        2.22266   0.00061   0.00000   0.00238   0.00238   2.22504
   A18        1.96916  -0.00032   0.00000  -0.00131  -0.00132   1.96785
   A19        1.94858  -0.00062   0.00000  -0.00382  -0.00382   1.94477
   A20        2.06114   0.00091   0.00000   0.00362   0.00362   2.06476
   A21        1.84704  -0.00003   0.00000  -0.00018  -0.00018   1.84686
   A22        1.94304   0.00029   0.00000   0.00176   0.00176   1.94481
   A23        1.94305   0.00029   0.00000   0.00176   0.00176   1.94481
   A24        1.90935  -0.00011   0.00000  -0.00066  -0.00066   1.90870
   A25        1.90935  -0.00011   0.00000  -0.00066  -0.00066   1.90870
   A26        1.91075  -0.00032   0.00000  -0.00203  -0.00203   1.90872
   A27        2.16542   0.00131   0.00000   0.00521   0.00521   2.17063
   A28        1.84404   0.00002   0.00000  -0.00006  -0.00006   1.84399
   A29        1.95603   0.00037   0.00000   0.00240   0.00240   1.95843
   A30        1.95597   0.00038   0.00000   0.00242   0.00242   1.95839
   A31        1.87905  -0.00022   0.00000  -0.00150  -0.00150   1.87755
   A32        1.87891  -0.00022   0.00000  -0.00154  -0.00154   1.87737
   A33        1.94366  -0.00036   0.00000  -0.00196  -0.00197   1.94169
   A34        2.22591   0.00059   0.00000   0.00266   0.00266   2.22857
   A35        2.02536  -0.00056   0.00000  -0.00300  -0.00300   2.02236
   A36        2.03191  -0.00003   0.00000   0.00034   0.00034   2.03225
   A37        2.08933   0.00157   0.00000   0.00708   0.00708   2.09640
   A38        2.15510  -0.00099   0.00000  -0.00483  -0.00483   2.15028
   A39        2.03876  -0.00058   0.00000  -0.00225  -0.00225   2.03651
   A40        1.95179  -0.00104   0.00000  -0.00415  -0.00415   1.94764
   A41        2.20815   0.00022   0.00000   0.00087   0.00087   2.20902
   A42        2.12325   0.00082   0.00000   0.00327   0.00327   2.12653
   A43        1.86517  -0.00017   0.00000  -0.00102  -0.00102   1.86414
    D1        0.00011   0.00000   0.00000   0.00002   0.00002   0.00013
    D2       -3.14150   0.00000   0.00000   0.00001   0.00001  -3.14149
    D3        3.14146  -0.00000   0.00000  -0.00001  -0.00001   3.14145
    D4       -0.00016  -0.00000   0.00000  -0.00001  -0.00001  -0.00017
    D5       -0.00019  -0.00000   0.00000  -0.00001  -0.00001  -0.00020
    D6        3.14138  -0.00000   0.00000  -0.00003  -0.00003   3.14135
    D7       -3.14150   0.00000   0.00000   0.00002   0.00002  -3.14148
    D8        0.00007  -0.00000   0.00000   0.00000   0.00000   0.00007
    D9        3.13896   0.00000   0.00000   0.00007   0.00007   3.13902
   D10       -0.00291   0.00000   0.00000   0.00004   0.00004  -0.00287
   D11       -0.00001  -0.00000   0.00000  -0.00001  -0.00001  -0.00003
   D12        3.14155  -0.00000   0.00000  -0.00001  -0.00001   3.14154
   D13       -3.14158  -0.00000   0.00000  -0.00001  -0.00001  -3.14159
   D14       -0.00002   0.00000   0.00000   0.00000   0.00000  -0.00002
   D15        3.14156   0.00000   0.00000   0.00000   0.00000   3.14157
   D16       -0.00005  -0.00000   0.00000  -0.00000  -0.00000  -0.00006
   D17       -0.00001  -0.00000   0.00000   0.00000   0.00000  -0.00001
   D18        3.14159   0.00000   0.00000   0.00001   0.00001  -3.14159
   D19       -3.14158  -0.00000   0.00000  -0.00001  -0.00001  -3.14158
   D20        0.00003  -0.00000   0.00000  -0.00000  -0.00000   0.00003
   D21       -0.00006   0.00000   0.00000   0.00001   0.00001  -0.00005
   D22       -3.14158   0.00000   0.00000   0.00002   0.00002  -3.14156
   D23        3.14152   0.00000   0.00000   0.00000   0.00000   3.14152
   D24        0.00000   0.00000   0.00000   0.00001   0.00001   0.00001
   D25        3.14112   0.00000   0.00000   0.00008   0.00008   3.14120
   D26       -0.00045   0.00000   0.00000   0.00008   0.00008  -0.00036
   D27       -0.00046   0.00000   0.00000   0.00008   0.00008  -0.00038
   D28        3.14116   0.00000   0.00000   0.00009   0.00009   3.14125
   D29        0.00017  -0.00000   0.00000  -0.00000  -0.00000   0.00016
   D30       -3.14140   0.00000   0.00000   0.00001   0.00001  -3.14139
   D31       -3.14150  -0.00000   0.00000  -0.00001  -0.00001  -3.14151
   D32        0.00012   0.00000   0.00000   0.00000   0.00000   0.00012
   D33        0.00010  -0.00000   0.00000  -0.00012  -0.00012  -0.00002
   D34       -3.14152  -0.00000   0.00000  -0.00013  -0.00013   3.14153
   D35       -3.14157   0.00000   0.00000   0.00000   0.00000  -3.14157
   D36       -1.06865   0.00001   0.00000   0.00005   0.00005  -1.06860
   D37        1.06870  -0.00001   0.00000  -0.00005  -0.00005   1.06865
   D38       -3.14148   0.00000   0.00000   0.00013   0.00013  -3.14135
   D39       -1.09983  -0.00006   0.00000  -0.00045  -0.00046  -1.10028
   D40        1.10026   0.00006   0.00000   0.00075   0.00075   1.10101
   D41       -3.14159   0.00000   0.00000   0.00001   0.00001  -3.14158
   D42       -0.00002   0.00000   0.00000   0.00001   0.00001  -0.00001
   D43       -0.00002   0.00000   0.00000  -0.00000  -0.00000  -0.00003
   D44        3.14154   0.00000   0.00000   0.00000   0.00000   3.14154
   D45        3.14147   0.00000   0.00000   0.00011   0.00011   3.14158
   D46       -0.00009  -0.00000   0.00000  -0.00001  -0.00001  -0.00010
   D47       -0.00010   0.00000   0.00000   0.00011   0.00011   0.00001
   D48        3.14153  -0.00000   0.00000  -0.00002  -0.00002   3.14151
   D49       -3.14158  -0.00000   0.00000  -0.00005  -0.00005   3.14155
   D50       -0.00002   0.00000   0.00000   0.00006   0.00006   0.00004
         Item               Value     Threshold  Converged?
 Maximum Force            0.011070     0.000450     NO 
 RMS     Force            0.002337     0.000300     NO 
 Maximum Displacement     0.050501     0.001800     NO 
 RMS     Displacement     0.016492     0.001200     NO 
 Predicted change in Energy=-6.252266D-04
 GradGradGradGradGradGradGradGradGradGradGradGradGradGradGradGradGradGrad

                          Input orientation:                          
 ---------------------------------------------------------------------
 Center     Atomic      Atomic             Coordinates (Angstroms)
 Number     Number       Type             X           Y           Z
 ---------------------------------------------------------------------
      1          6           0        2.278513   -0.112957    0.000265
      2          6           0        1.695781    1.180511    0.000255
      3          6           0        0.314377    1.340715    0.000225
      4          6           0       -0.533054    0.214490    0.000173
      5          6           0        0.040794   -1.057591    0.000134
      6          6           0        1.428768   -1.236351    0.000081
      7          8           0        3.647566   -0.120323    0.000116
      8          8           0        2.591430    2.204644    0.000310
      9          6           0        2.093640    3.534142    0.000271
     10          8           0        1.795004   -2.565016   -0.000210
     11          6           0        3.134363   -3.025077   -0.000400
     12          6           0       -1.976679    0.434432    0.000138
     13          6           0       -2.952302   -0.496248   -0.000337
     14          6           0       -4.365011   -0.084867   -0.000301
     15          8           0       -5.199782   -1.159997   -0.000843
     16          8           0       -4.788875    1.059025    0.000231
     17          1           0       -0.123828    2.330258    0.000265
     18          1           0       -0.566175   -1.954905    0.000062
     19          1           0        3.993655   -1.016357    0.002426
     20          1           0        2.971908    4.180334    0.000303
     21          1           0        1.492628    3.737195   -0.895158
     22          1           0        1.492546    3.737220    0.895640
     23          1           0        3.071459   -4.114465   -0.000868
     24          1           0        3.677095   -2.723571   -0.907389
     25          1           0        3.676996   -2.724523    0.907011
     26          1           0       -2.298813    1.474430    0.000511
     27          1           0       -2.755682   -1.562540   -0.000779
     28          1           0       -6.106532   -0.811575   -0.000748
 ---------------------------------------------------------------------
                    Distance matrix (angstroms):
                    1          2          3          4          5
     1  C    0.000000
     2  C    1.418674   0.000000
     3  C    2.443561   1.390662   0.000000
     4  C    2.830570   2.429177   1.409440   0.000000
     5  C    2.428934   2.783538   2.413860   1.395525   0.000000
     6  C    1.408573   2.431567   2.807692   2.440017   1.399439
     7  O    1.369073   2.345556   3.639337   4.194005   3.726564
     8  O    2.338630   1.360527   2.435434   3.704471   4.141004
     9  C    3.651781   2.387021   2.824341   4.233156   5.029731
    10  O    2.499275   3.746842   4.176960   3.625674   2.312917
    11  C    3.035280   4.444827   5.197351   4.893336   3.666220
    12  C    4.290256   3.747479   2.463795   1.460284   2.509249
    13  C    5.244839   4.941275   3.747749   2.521490   3.045279
    14  C    6.643583   6.191477   4.891724   3.843633   4.511907
    15  O    7.551237   7.281948   6.054710   4.864933   5.241576
    16  O    7.163904   6.485794   5.111021   4.338808   5.273117
    17  H    3.426447   2.152415   1.082228   2.154980   3.391846
    18  H    3.388956   3.866171   3.411229   2.169648   1.083321
    19  H    1.938517   3.179065   4.369539   4.691063   3.953077
    20  H    4.348925   3.259975   3.889204   5.292700   6.002274
    21  H    4.030269   2.716555   2.816577   4.161064   5.089140
    22  H    4.030299   2.716575   2.816574   4.161075   5.089178
    23  H    4.079318   5.470765   6.112323   5.633149   4.304581
    24  H    3.097608   4.471161   5.352575   5.213562   4.101436
    25  H    3.098100   4.471768   5.353095   5.213892   4.101592
    26  H    4.844761   4.005393   2.616609   2.169183   3.447447
    27  H    5.238741   5.228753   4.225417   2.845684   2.841699
    28  H    8.414098   8.052608   6.772032   5.667139   6.152246
                    6          7          8          9         10
     6  C    0.000000
     7  O    2.483663   0.000000
     8  O    3.632110   2.553604   0.000000
     9  C    4.816602   3.971120   1.419634   0.000000
    10  O    1.378217   3.067330   4.835695   6.106465   0.000000
    11  C    2.471557   2.949741   5.257828   6.641269   1.416169
    12  C    3.793229   5.651538   4.899109   5.116219   4.818951
    13  C    4.443144   6.610565   6.166666   6.457985   5.178486
    14  C    5.907097   8.012655   7.323519   7.403473   6.640552
    15  O    6.628990   8.908226   8.486683   8.673462   7.134502
    16  O    6.627808   8.518474   7.468691   7.314043   7.515394
    17  H    3.889891   4.497638   2.718161   2.523193   5.257911
    18  H    2.120406   4.595792   5.222290   6.099529   2.438730
    19  H    2.574305   0.960552   3.512988   4.931237   2.689315
    20  H    5.632207   4.353408   2.011993   1.090376   6.847252
    21  H    5.053879   4.508405   2.087569   1.097378   6.372616
    22  H    5.053959   4.508516   2.087571   1.097379   6.372772
    23  H    3.313907   4.035477   6.337315   7.710857   2.007518
    24  H    2.844346   2.757053   5.127367   6.518447   2.095323
    25  H    2.844592   2.757750   5.128084   6.519209   2.095324
    26  H    4.609034   6.156514   4.944460   4.851398   5.751215
    27  H    4.197145   6.563656   6.540893   7.035062   4.659797
    28  H    7.547263   9.778560   9.206091   9.280521   8.093752
                   11         12         13         14         15
    11  C    0.000000
    12  C    6.171786   0.000000
    13  C    6.591089   1.348334   0.000000
    14  C    8.055150   2.444136   1.471388   0.000000
    15  O    8.540286   3.595914   2.343444   1.361156   0.000000
    16  O    8.913898   2.880723   2.406632   1.219898   2.256746
    17  H    6.268605   2.650889   3.998675   4.880622   6.160129
    18  H    3.852174   2.774609   2.796656   4.234171   4.701297
    19  H    2.184799   6.144077   6.965402   8.410409   9.194559
    20  H    7.207242   6.206472   7.547628   8.486597   9.761950
    21  H    7.015997   4.872976   6.203237   7.051303   8.340902
    22  H    7.016204   4.872972   6.203362   7.051385   8.341083
    23  H    1.091203   6.795305   7.026891   8.458058   8.783069
    24  H    1.099133   6.539247   7.052136   8.512406   9.059003
    25  H    1.099171   6.539530   7.052381   8.512631   9.059201
    26  H    7.054429   1.088746   2.076203   2.588549   3.918651
    27  H    6.068908   2.143535   1.084268   2.184824   2.477027
    28  H    9.502300   4.313724   3.169952   1.887061   0.971387
                   16         17         18         19         20
    16  O    0.000000
    17  H    4.835153   0.000000
    18  H    5.187964   4.307934   0.000000
    19  H    9.024414   5.305986   4.655419   0.000000
    20  H    8.364947   3.606434   7.082316   5.296184   0.000000
    21  H    6.887061   2.322539   6.118832   5.445828   1.785075
    22  H    6.886998   2.322478   6.118879   5.445170   1.785074
    23  H    9.410093   7.193352   4.230376   3.232450   8.295397
    24  H    9.316892   6.388430   4.406774   1.960243   6.998936
    25  H    9.317106   6.388995   4.406741   1.958668   6.999737
    26  H    2.524474   2.337307   3.842184   6.767509   5.924730
    27  H    3.317601   4.698993   2.224386   6.771401   8.110850
    28  H    2.288092   6.757504   5.657098  10.102262  10.360368
                   21         22         23         24         25
    21  H    0.000000
    22  H    1.790798   0.000000
    23  H    8.058600   8.058887   0.000000
    24  H    6.820085   7.054431   1.767246   0.000000
    25  H    7.055004   6.821003   1.767161   1.814400   0.000000
    26  H    4.505259   4.505094   7.750844   7.359279   7.359568
    27  H    6.850931   6.851165   6.361439   6.599285   6.599518
    28  H    8.901602   8.901743   9.754209  10.009849  10.010035
                   26         27         28
    26  H    0.000000
    27  H    3.071143   0.000000
    28  H    4.441232   3.433968   0.000000
 Stoichiometry    C11H12O5
 Framework group  C1[X(C11H12O5)]
 Deg. of freedom    78
 Full point group                 C1      NOp   1
 Largest Abelian subgroup         C1      NOp   1
 Largest concise Abelian subgroup C1      NOp   1
                         Standard orientation:                         
 ---------------------------------------------------------------------
 Center     Atomic      Atomic             Coordinates (Angstroms)
 Number     Number       Type             X           Y           Z
 ---------------------------------------------------------------------
      1          6           0        2.279599   -0.118123    0.000255
      2          6           0        1.699582    1.176564    0.000245
      3          6           0        0.318517    1.339665    0.000216
      4          6           0       -0.531274    0.215221    0.000163
      5          6           0        0.039904   -1.058061    0.000124
      6          6           0        1.427500   -1.239732    0.000072
      7          8           0        3.648634   -0.128361    0.000106
      8          8           0        2.597377    2.198816    0.000301
      9          6           0        2.102378    3.529355    0.000262
     10          8           0        1.790948   -2.569163   -0.000220
     11          6           0        3.129338   -3.032032   -0.000409
     12          6           0       -1.974435    0.438190    0.000129
     13          6           0       -2.952008   -0.490441   -0.000346
     14          6           0       -4.363851   -0.076098   -0.000311
     15          8           0       -5.200875   -1.149474   -0.000853
     16          8           0       -4.785315    1.068681    0.000221
     17          1           0       -0.117611    2.330125    0.000255
     18          1           0       -0.568946   -1.954100    0.000053
     19          1           0        3.992842   -1.025119    0.002416
     20          1           0        2.981999    4.173704    0.000294
     21          1           0        1.501793    3.733669   -0.895168
     22          1           0        1.501710    3.733694    0.895630
     23          1           0        3.064150   -4.121286   -0.000878
     24          1           0        3.672703   -2.731666   -0.907398
     25          1           0        3.672601   -2.732618    0.907001
     26          1           0       -2.294387    1.478862    0.000501
     27          1           0       -2.757625   -1.557143   -0.000788
     28          1           0       -6.106892   -0.799151   -0.000758
 ---------------------------------------------------------------------
 Rotational constants (GHZ):      0.7714433      0.2568382      0.1931691
 Standard basis: 6-31+G(d,p) (6D, 7F)
 There are   364 symmetry adapted cartesian basis functions of A   symmetry.
 There are   364 symmetry adapted basis functions of A   symmetry.
   364 basis functions,   596 primitive gaussians,   364 cartesian basis functions
    59 alpha electrons       59 beta electrons
       nuclear repulsion energy      1049.8192831119 Hartrees.
 NAtoms=   28 NActive=   28 NUniq=   28 SFac= 1.00D+00 NAtFMM=   60 NAOKFM=F Big=F
 Integral buffers will be    131072 words long.
 Raffenetti 2 integral format.
 Two-electron integral symmetry is turned on.
 Nuclear repulsion after empirical dispersion term =     1049.7689875078 Hartrees.
 One-electron integrals computed using PRISM.
 NBasis=   364 RedAO= T EigKep=  1.44D-06  NBF=   364
 NBsUse=   362 1.00D-06 EigRej=  5.37D-07 NBFU=   362
 Initial guess from the checkpoint file:  "lw+b3lypSA.chk"
 B after Tr=     0.000000   -0.000000    0.000000
         Rot=    1.000000    0.000003    0.000004    0.000762 Ang=   0.09 deg.
 ExpMin= 4.38D-02 ExpMax= 5.48D+03 ExpMxC= 8.25D+02 IAcc=2 IRadAn=         4 AccDes= 0.00D+00
 Harris functional with IExCor=  402 and IRadAn=       4 diagonalized for initial guess.
 HarFok:  IExCor=  402 AccDes= 0.00D+00 IRadAn=         4 IDoV= 1 UseB2=F ITyADJ=14
 ICtDFT=  3500011 ScaDFX=  1.000000  1.000000  1.000000  1.000000
 FoFCou: FMM=F IPFlag=           0 FMFlag=      100000 FMFlg1=           0
         NFxFlg=           0 DoJE=T BraDBF=F KetDBF=T FulRan=T
         wScrn=  0.000000 ICntrl=     500 IOpCl=  0 I1Cent=   200000004 NGrid=           0
         NMat0=    1 NMatS0=      1 NMatT0=    0 NMatD0=    1 NMtDS0=    0 NMtDT0=    0
 Petite list used in FoFCou.
 Requested convergence on RMS density matrix=1.00D-08 within 128 cycles.
 Requested convergence on MAX density matrix=1.00D-06.
 Requested convergence on             energy=1.00D-06.
 No special actions if energy rises.
 SCF Done:  E(RB3LYP) =  -802.577943477     A.U. after   12 cycles
            NFock= 12  Conv=0.78D-08     -V/T= 2.0092
 Calling FoFJK, ICntrl=      2127 FMM=F ISym2X=0 I1Cent= 0 IOpClX= 0 NMat=1 NMatS=1 NMatT=0.
 ***** Axes restored to original set *****
 -------------------------------------------------------------------
 Center     Atomic                   Forces (Hartrees/Bohr)
 Number     Number              X              Y              Z
 -------------------------------------------------------------------
      1        6          -0.000678978    0.000366374    0.000000691
      2        6          -0.001023007   -0.000601243   -0.000000398
      3        6           0.000734605   -0.000308938    0.000000735
      4        6          -0.001353951    0.000309588    0.000000766
      5        6           0.001338678   -0.000481668   -0.000001183
      6        6          -0.000512543    0.001014447   -0.000006363
      7        8           0.000150153    0.000240956    0.000000703
      8        8           0.001129254   -0.000961604   -0.000000056
      9        6          -0.001120999    0.001166682    0.000000008
     10        8          -0.001000764   -0.000200889    0.000010672
     11        6           0.001473610    0.000199267   -0.000005783
     12        6           0.001388735   -0.000041275   -0.000000325
     13        6          -0.001542910    0.000031917   -0.000003186
     14        6           0.003056165    0.001111862    0.000013800
     15        8          -0.000845145   -0.001352676   -0.000004169
     16        8          -0.000559894   -0.000028867   -0.000005281
     17        1           0.000066124    0.000117953    0.000000013
     18        1          -0.000063791    0.000132294   -0.000000598
     19        1          -0.000172548   -0.000712503    0.000000430
     20        1           0.000124622   -0.000376314    0.000000027
     21        1           0.000051496   -0.000302857    0.000029544
     22        1           0.000051542   -0.000302919   -0.000029476
     23        1          -0.000382418    0.000106787   -0.000000746
     24        1          -0.000179297    0.000291398    0.000098246
     25        1          -0.000179406    0.000290469   -0.000097050
     26        1          -0.000150604   -0.000060723   -0.000000966
     27        1           0.000151284    0.000068539   -0.000000120
     28        1           0.000049988    0.000283943    0.000000065
 -------------------------------------------------------------------
 Cartesian Forces:  Max     0.003056165 RMS     0.000647836

 GradGradGradGradGradGradGradGradGradGradGradGradGradGradGradGradGradGrad
[...]
 008885,-0.00010686,0.00002542,-0.00004576,0.00000987,-0.00000405,-0.00
 007308,0.00010139,0.00003445,0.00005875,-0.00001587,0.00000506,-0.0000
 2033,0.00009387,-0.00000900,-0.00002018,-0.00003853,0.00000393,0.00000
 976,-0.00007591,0.00001705,0.00066631,-0.00029885,-0.00014626,0.000027
 20,-0.00005833,0.00001499,0.00003916,-0.00002345,-0.00002181,0.0015463
 8,-0.00095383,0.00173164,0.12637220,-0.03604660,0.23991196,0.00034791,
 0.00019370,0.00000804,-0.00099677,-0.00244182,-0.00075621,0.00027363,0
 .00052252,-0.00044187,-0.00001461,-0.00036139,0.00034588,0.00006697,0.
 00042980,0.00006422,0.00018754,-0.00020042,-0.00003056,-0.00032939,0.0
 0005291,-0.00008421,-0.00718700,0.01323259,0.00817923,-0.12458323,0.01
 743008,0.11308491,-0.00008780,0.00017110,0.00001038,0.00010497,-0.0000
 2489,0.00001574,-0.00014242,0.00001110,-0.00004319,0.00020937,0.000036
 31,0.00000409,-0.00030192,0.00007853,0.00000407,0.00011620,0.00004797,
 -0.00000222,0.00012721,-0.00009979,-0.00000155,-0.00045822,-0.00107163
 ,-0.00087098,0.00000236,0.00000285,-0.00006043,0.00007175,-0.00003220,
 0.00004262,-0.01172843,0.00360464,0.02189167,0.01034958,-0.00373788,-0
 .01494328,0.13403400,0.00022953,-0.00170419,0.00070672,0.00536148,0.00
 612743,-0.00174238,-0.00090110,0.00070004,0.00020729,-0.00036298,-0.00
 062341,0.00041467,-0.00068692,0.00034375,-0.00005316,0.00096186,0.0005
 4651,0.00026149,-0.00021376,0.00001295,-0.00008686,0.02270871,-0.02450
 974,-0.02800352,0.01416780,-0.05393872,-0.02472035,-0.00006092,-0.0001
 2913,-0.00009303,-0.00004508,0.00000439,-0.00001518,0.00018184,-0.0000
 6261,-0.00003639,-0.00018046,-0.00001982,0.00004331,0.00015935,-0.0000
 6620,-0.00001305,-0.00005101,-0.00002125,0.00000336,-0.00005636,0.0000
 7112,0.00000667,-0.00096967,-0.00082003,-0.00118423,-0.00002114,0.0000
 1637,-0.00004862,-0.00012809,-0.00003956,0.00000666,-0.00852399,0.0050
 8655,0.01557007,-0.00373303,0.00293299,0.00269151,-0.02782878,0.066073
 67,-0.00020657,-0.00041416,-0.00027116,0.00127773,0.00151496,0.0006620
 1,0.00087159,-0.00075809,-0.00001570,-0.00041819,0.00031108,-0.0000630
 5,-0.00011838,-0.00001723,-0.00003072,0.00015104,0.00006371,-0.0000634
 4,-0.00005493,0.00008393,0.00008695,-0.00093529,-0.00623381,0.00709947
 ,0.11322942,-0.02932785,-0.22840762,-0.00008885,0.00010677,0.00002545,
 0.00004557,-0.00000991,-0.00000409,0.00007292,-0.00010123,0.00003407,-
 0.00005906,0.00001593,0.00000467,0.00001964,-0.00009397,-0.00000906,0.
 00002021,0.00003868,0.00000393,-0.00000950,0.00007589,0.00001704,-0.00
 066617,0.00029853,-0.00014636,-0.00002730,0.00005813,0.00001503,-0.000
 03913,0.00002356,-0.00002095,-0.00154845,0.00095434,0.00173372,0.01495
 767,-0.00270250,-0.02039547,-0.12640553,0.03610305,0.23977538,-0.00322
 856,0.00064141,-0.00000003,0.00042719,-0.00030378,-0.00000112,-0.00011
 803,0.00003830,0.00000020,-0.00030298,-0.00026441,-0.00000035,-0.00005
 879,0.00163594,-0.00000010,-0.00374020,-0.00024170,0.00001411,0.001689
 22,-0.00168504,-0.00000431,0.00009088,0.00019308,0.00000013,0.00003698
 ,0.00004166,0.00000006,-0.01240702,0.04592622,0.00003622,-0.04598827,-
 0.03638075,-0.00002563,0.00000766,0.00017391,-0.00000030,-0.00002758,0
 .00000744,0.,0.00007380,0.00002027,0.00000001,-0.00004037,-0.00002967,
 -0.00000002,-0.00003129,-0.00000466,0.,0.00001553,0.00001151,0.0000000
 5,-0.00001308,-0.00007692,0.00000051,0.00074941,0.00161761,0.00000864,
 -0.00000175,0.00001524,0.,0.00000258,-0.00000886,0.00000748,0.00000260
 ,-0.00000881,-0.00000750,0.06229449,-0.00028546,-0.00007065,0.00000067
 ,0.00009414,0.00018624,0.00000047,-0.00002423,-0.00010525,0.00000021,0
 .00030941,0.00002655,0.,-0.00006510,-0.00053632,-0.00000002,0.00044139
 ,0.00315139,-0.00000710,-0.00022385,0.00041881,-0.00000494,-0.00007178
 ,-0.00025312,0.00000018,-0.00004549,0.00013140,-0.00000009,0.00898901,
 -0.01265837,-0.00001002,-0.02235495,-0.32156377,-0.00017186,-0.0002456
 0,-0.00008098,0.00000001,0.00024449,0.00004282,0.00000011,-0.00032572,
 0.00004022,-0.00000010,0.00013182,0.00007617,0.00000006,0.00011831,-0.
 00007697,0.00000004,0.00001900,-0.00001345,-0.00000007,0.00001454,0.00
 001459,-0.00000009,0.00046485,-0.00048554,0.00000608,-0.00000919,-0.00
 001633,0.,0.00001978,-0.00001241,0.00000334,0.00001977,-0.00001244,-0.
 00000332,0.01696809,0.34695075,-0.00000162,-0.00000125,-0.00028147,0.0
 0000049,-0.00000066,-0.00006586,-0.00000033,-0.00000016,0.00004508,0.0
 0000091,0.00000024,-0.00010473,-0.00000006,-0.00000120,0.00015486,0.00
 000368,0.00000192,0.00050524,0.00000072,-0.00000252,0.00131870,0.00000
 017,-0.00000009,-0.00000399,-0.00000009,0.00000031,-0.00000263,0.00001
 961,-0.00005208,0.00146636,-0.00001041,-0.00016410,-0.04997319,-0.0000
 0040,-0.00000022,-0.00001871,0.00000033,0.00000005,0.00000122,-0.00000
 054,0.00000005,0.00000473,0.00000019,0.00000012,-0.00000856,0.00000021
 ,-0.00000006,-0.00000163,0.00000011,0.,0.00001234,0.00000012,0.0000000
 8,0.00002077,0.00000324,0.00001512,-0.00210524,-0.00000001,-0.00000001
 ,0.00000043,0.00000044,0.00000037,0.00000073,-0.00000031,-0.00000045,0
 .00000069,0.00000131,0.00020125,0.04714387,-0.00201599,0.00098754,-0.0
 0038774,-0.00006052,-0.00036764,-0.00002165,-0.00002555,0.00047589,-0.
 00002913,0.00016841,-0.00042877,-0.00034562,-0.00119360,0.00114586,-0.
 00028469,0.00267556,-0.00653795,0.00106587,0.00188032,-0.00119606,-0.0
 0033991,0.00018308,0.00037480,-0.00001283,0.00005470,-0.00008643,0.000
 01354,-0.03459564,-0.00031404,0.02578250,-0.09737308,-0.03307147,0.089
 14403,0.00012157,0.00009480,0.00002172,-0.00018670,-0.00003937,-0.0000
 4566,0.00032986,-0.00003563,0.00001485,-0.00013749,-0.00006914,-0.0000
 0365,-0.00013983,0.00008412,-0.00000568,0.00001346,0.00001643,0.000054
 72,0.00024711,-0.00000438,0.00024570,0.00079514,0.00039212,0.00067217,
 0.00001414,0.00002330,-0.00000086,-0.00001932,0.00000236,0.00000603,-0
 .00001520,0.00000062,-0.00001267,0.00030350,-0.00208663,0.00311439,0.1
 1866017,0.00043284,0.00026347,0.00028896,-0.00004722,-0.00012284,0.000
 02689,-0.00001340,0.00003859,0.00001866,-0.00009801,0.00015386,0.00004
 015,0.00036313,-0.00026096,0.00027255,-0.00013467,0.00217583,-0.001593
 38,-0.00150616,-0.00148424,-0.00105722,0.00002455,0.00014206,0.0000337
 0,0.00002772,-0.00006133,-0.00001901,0.01013925,0.00523377,-0.01076666
 ,-0.03584138,-0.07478344,0.06294441,0.00015719,0.00000961,-0.00002593,
 -0.00013558,-0.00002514,0.00007225,0.00016793,-0.00003224,-0.00001885,
 -0.00006468,-0.00003509,-0.00000990,-0.00006049,0.00004648,0.00000056,
 -0.00001439,0.00000278,0.00004828,-0.00007593,-0.00003165,-0.00012279,
 0.00023603,-0.00302611,-0.00135579,0.00000469,0.00000942,-0.00000177,-
 0.00000533,0.00001122,0.00000102,-0.00001237,0.00000190,0.00000142,-0.
 01412173,-0.00758245,0.02786256,0.03593896,0.07565137,0.00344865,-0.00
 069961,-0.00056926,-0.00038478,0.00037495,0.00002883,0.00020240,-0.000
 10890,0.00003230,-0.00027483,0.00013670,-0.00003783,0.00022939,-0.0004
 6360,-0.00016146,-0.00088229,0.00139792,0.00034087,-0.00221150,0.00230
 581,0.00177932,-0.00011746,-0.00010964,0.00000865,-0.00000312,-0.00008
 487,-0.00000613,0.00435022,-0.00499385,0.00791337,0.09226111,0.0632354
 7,-0.22981237,0.00011344,-0.00003952,-0.00000075,-0.00008882,-0.000009
 17,0.00001802,0.00004873,-0.00001230,-0.00000703,-0.00001468,-0.000016
 91,0.00000286,-0.00000162,0.00000909,0.00000370,-0.00003019,0.00000002
 ,-0.00002615,-0.00009693,0.00003119,0.00002832,-0.00015175,-0.00317121
 ,-0.00255374,0.00000040,-0.00000813,-0.00000200,-0.00000781,0.00001382
 ,-0.00000992,-0.00001615,0.00001624,0.00001291,-0.00100255,-0.00007085
 ,0.00096479,-0.10698880,-0.06718946,0.24088055,-0.00203621,0.00099049,
 0.00038453,-0.00005723,-0.00037094,0.00002550,-0.00002712,0.00047582,0
 .00002854,0.00016844,-0.00042842,0.00034489,-0.00119535,0.00115179,0.0
 0028504,0.00267033,-0.00655112,-0.00107199,0.00189760,-0.00121214,0.00
 034465,0.00018425,0.00037641,0.00001265,0.00005487,-0.00008618,-0.0000
 1376,-0.03467004,-0.00024118,-0.02569465,-0.09765209,-0.03303177,-0.08
 938436,0.00012095,0.00009585,-0.00002137,-0.00018652,-0.00003938,0.000
 04579,0.00032992,-0.00003575,-0.00001453,-0.00013752,-0.00006904,0.000
 00353,-0.00014007,0.00008409,0.00000551,0.00001370,0.00001639,-0.00005
 518,0.00024826,-0.00000444,-0.00024574,0.00080073,0.00041366,-0.000691
 84,0.00001427,0.00002349,0.00000081,-0.00001517,0.00000065,0.00001281,
 -0.00001945,0.00000211,-0.00000611,0.00029605,-0.00208651,-0.00313218,
 0.01029133,0.00462491,0.01162438,0.11902158,0.00042720,0.00026576,-0.0
 0028090,-0.00004672,-0.00012368,-0.00002516,-0.00001310,0.00003990,-0.
 00001818,-0.00009628,0.00015197,-0.00004303,0.00036035,-0.00026120,-0.
 00027145,-0.00012119,0.00215828,0.00159159,-0.00150282,-0.00149892,0.0
 0104279,0.00002488,0.00014202,-0.00003267,0.00002748,-0.00006118,0.000
 01880,0.01013513,0.00522757,0.01073957,-0.03575850,-0.07453623,-0.0625
 2739,0.00015601,0.00000962,0.00002640,-0.00013495,-0.00002496,-0.00007
 151,0.00016648,-0.00003213,0.00001882,-0.00006435,-0.00003473,0.000009
 82,-0.00006002,0.00004624,-0.00000064,-0.00001427,0.00000276,-0.000048
 80,-0.00007576,-0.00003171,0.00012238,0.00024084,-0.00304580,0.0013621
 5,0.00000487,0.00000976,0.00000176,-0.00001235,0.00000187,-0.00000128,
 -0.00000547,0.00001102,-0.00000106,-0.01418061,-0.00754730,-0.02785924
 ,0.00466417,0.00369729,0.00946438,0.03586465,0.07542608,-0.00345600,0.
 00069650,-0.00057436,0.00038773,-0.00037411,0.00003298,-0.00020235,0.0
 0010774,0.00003133,0.00027579,-0.00013685,-0.00003841,-0.00022984,0.00
 046247,-0.00016156,0.00088369,-0.00139796,0.00034450,0.00221424,-0.002
 31633,0.00177842,0.00011739,0.00010957,0.00000778,0.00000325,0.0000854
 6,-0.00000627,-0.00427233,0.00501339,0.00799994,-0.09250010,-0.0628699
 7,-0.22956867,-0.00011456,0.00004003,-0.00000061,0.00008993,0.00000938
 ,0.00001784,-0.00004942,0.00001235,-0.00000694,0.00001514,0.00001720,0
 .00000293,0.00000168,-0.00000951,0.00000369,0.00003035,-0.00000020,-0.
 00002639,0.00009698,-0.00003115,0.00002868,0.00014998,0.00320831,-0.00
 253162,-0.00000039,0.00000808,-0.00000201,0.00001616,-0.00001630,0.000
 01300,0.00000781,-0.00001395,-0.00000990,0.00097311,0.00005610,0.00090
 985,-0.01168640,-0.00945112,-0.01881838,0.10724296,0.06678342,0.240583
 72,0.00009925,-0.00020957,0.,-0.00005652,-0.00006924,0.00000002,0.0011
 0299,0.00193726,-0.00000018,-0.00777796,0.02873404,-0.00000514,-0.0053
 8109,-0.00139483,-0.00000117,0.00065563,0.00144127,0.,-0.00007363,-0.0
 0010414,0.00000019,0.00004555,-0.00017721,0.00000005,-0.00009168,0.000
 12486,-0.00000011,-0.00058875,0.00001117,0.00000050,0.00002190,0.00008
 790,-0.00000035,-0.08089226,0.07773126,-0.00001159,0.01027002,-0.02377
 978,0.00000233,-0.00022000,-0.00427757,0.00000119,0.00089079,0.0016919
 0,0.00000041,-0.00036544,0.00183522,-0.00000049,-0.00072585,-0.0010888
 6,0.00000029,0.00015073,0.00004634,0.00000003,0.00003544,0.00001187,-0
 .00000005,0.00003860,-0.00001962,0.00000001,-0.00000221,-0.00001468,0.
 00005161,-0.00000221,-0.00001474,-0.00005160,-0.00004384,0.00001599,0.
 00000003,-0.00001844,0.00000490,0.00000618,-0.00001858,0.00000495,-0.0
 0000613,0.08644772,-0.00017318,0.00004209,-0.00000370,0.00004908,0.000
 14490,0.00000463,-0.00199072,0.00116416,-0.00000127,-0.00012759,-0.002
 86711,-0.00000264,0.00002510,0.00099232,0.00000138,-0.00026648,-0.0000
 4515,0.00000127,0.00015913,0.00002943,0.00000099,0.00007764,0.00010319
 ,-0.00000019,0.00004360,-0.00006836,-0.00000065,0.00013499,-0.00003036
 ,-0.00000016,-0.00006545,0.00001321,0.00000033,0.07631610,-0.30823704,
 0.00003474,0.00594255,-0.02215911,0.00000393,0.00159283,-0.00279582,0.
 00000009,-0.00003014,0.00063407,0.00000009,0.00098989,0.00236300,-0.00
 000045,0.00022385,0.00056855,-0.00000020,-0.00011111,0.00006648,-0.000
 00007,-0.00002140,0.00001156,-0.00000041,0.00000046,0.00000665,-0.0000
 0004,-0.00000465,0.00000978,-0.00000186,-0.00000491,0.00000934,0.00000
 210,0.00000749,-0.00000738,0.,0.00001175,0.00000271,-0.00000309,0.0000
 1186,0.00000293,0.00000302,-0.07993765,0.33090379,0.00000066,0.0000002
 9,0.00009814,-0.00000036,-0.00000003,0.00010776,0.00000098,0.00000008,
 -0.00162822,-0.00000367,0.00000495,0.00449733,-0.00000056,-0.00000053,
 0.00275780,-0.00000055,-0.00000016,-0.00001165,-0.00000028,0.00000002,
 -0.00001290,0.00000010,-0.00000001,-0.00000638,-0.00000006,-0.00000002
 ,0.00006944,0.00000010,0.00000052,-0.00017435,-0.00000006,-0.00000015,
 -0.00009948,-0.00000945,0.00003698,-0.04464132,-0.00000329,-0.00000239
 ,0.00764586,0.00000277,-0.00000170,-0.00758179,-0.00000030,0.00000013,
 0.00039026,-0.00000026,0.00000072,0.00015506,-0.00000016,-0.00000022,0
 .00032822,-0.00000003,-0.00000003,-0.00000420,-0.00000003,-0.00000005,
 -0.00000704,0.00000005,0.00000005,-0.00001350,0.00000339,0.00001704,-0
 .00002185,-0.00000342,-0.00001709,-0.00002188,0.00000004,0.,0.00000182
 ,0.00001984,-0.00000989,-0.00000135,-0.00001985,0.00000991,-0.00000131
 ,0.00001589,-0.00003847,0.02793882,0.00003864,-0.00002945,-0.00000138,
 -0.00022799,0.00012485,0.00000151,0.00029245,0.00017622,-0.00000024,0.
 00019470,0.00083968,-0.00000080,-0.00089309,-0.00095828,0.00000036,0.0
 0000554,0.00029833,0.00000070,0.00000305,0.00006258,0.00000047,0.00015
 054,0.00023252,-0.00000007,0.00005204,-0.00011298,-0.00000022,0.000085
 65,-0.00010466,-0.00000001,-0.00011486,0.00005997,0.00000015,0.0109907
 5,-0.02389234,0.00000310,-0.06729194,0.05025244,-0.00000681,0.00152215
 ,0.03022708,-0.00000066,-0.00060862,-0.00144312,-0.00000059,-0.0076527
 8,0.00263620,-0.00000361,0.00010568,0.00015421,-0.00000004,-0.00199853
 ,0.00052164,-0.00000059,-0.00002743,-0.00001124,-0.00000027,-0.0000016
 6,0.00001045,-0.00000002,-0.00001180,0.00000767,-0.00001336,-0.0000119
 0,0.00000751,0.00001344,0.00000929,-0.00000834,0.,0.00002359,-0.000000
 03,-0.00001150,0.00002369,0.00000009,0.00001144,-0.00337068,-0.0027534
 0,-0.00000138,0.06805582,0.00004220,-0.00005844,0.00000415,-0.00010473
 ,-0.00010476,-0.00000495,-0.00006300,0.00000570,0.00000087,0.00147357,
 -0.00009857,0.00000412,0.00033450,-0.00009834,-0.00000189,-0.00015844,
 0.00055013,-0.00000150,0.00010613,0.00005741,-0.00000117,0.00006415,0.
 00021626,0.00000018,0.00005499,-0.00010676,0.00000084,0.00003964,-0.00
 009402,0.00000003,-0.00008380,0.00003879,-0.00000017,0.00515838,-0.017
 05458,0.00000238,0.05374022,-0.33283273,0.00003003,-0.00320362,-0.0074
 5154,-0.00000006,-0.00088259,0.00151066,-0.00000021,0.00166025,0.00100
 987,0.00000029,0.00004964,0.00014646,-0.00000011,0.00040870,0.00104713
 ,0.00000005,-0.00002693,0.00000653,0.00000044,-0.00000330,0.00001007,0
 .00000004,-0.00000909,0.00000747,-0.00001714,-0.00000880,0.00000800,0.
 00001685,0.00000612,-0.00000817,-0.00000002,0.00001612,0.00000157,-0.0
 0000511,0.00001608,0.00000132,0.00000513,-0.00255273,-0.00084046,0.000
 00015,-0.05621223,0.35404207,-0.00000045,-0.00000020,-0.00034012,-0.00
 000002,0.00000034,-0.00004809,0.00000036,-0.00000013,-0.00000630,0.000
 00058,-0.00000019,-0.00563684,-0.00000018,-0.00000008,-0.00009324,-0.0
 0000013,0.00000005,-0.00038455,0.00000005,-0.00000006,0.00026034,-0.00
 000002,-0.00000004,0.00001859,0.00000002,0.00000009,0.00003049,-0.0000
 0016,-0.00000013,0.00002081,0.00000009,0.00000012,0.00001567,0.0000004
 8,-0.00000247,0.00454806,-0.00000767,0.00003087,-0.03477908,0.00000108
 ,0.00000360,0.00040681,0.00000027,0.00000014,-0.00078555,-0.00000234,0
 .00000103,0.00284973,-0.00000010,0.00000007,0.00012332,-0.00000057,0.,
 0.00113695,0.00000026,-0.00000001,0.00001842,-0.00000009,-0.00000013,-
 0.00000169,0.00000055,0.00000119,-0.00000714,-0.00000046,-0.00000113,-
 0.00000705,0.00000002,-0.00000002,0.00001031,0.00000674,0.00000695,-0.
 00000581,-0.00000679,-0.00000700,-0.00000585,-0.00000185,0.00000076,0.
 01004031,0.00001009,-0.00003354,0.02290268,-0.00035860,-0.00000930,-0.
 00000194,-0.00002876,-0.00035364,0.00000229,-0.00019480,-0.00007554,-0
 .00000016,0.00036893,-0.00056867,-0.00000120,-0.00000910,0.00015984,0.
 00000071,0.00008813,0.00034535,0.00000053,0.00042378,-0.00005823,0.000
 00041,0.00009772,0.00021425,-0.00000011,0.00002048,-0.00009251,-0.0000
 0026,0.00013318,-0.00023473,-0.00000008,-0.00013103,0.00004355,0.00000
 037,-0.00187520,0.00052489,-0.00000062,0.00044008,-0.00516489,-0.00000
 302,-0.04257912,0.00812854,-0.00001568,-0.42327324,0.13547463,-0.00016
 277,0.00645345,0.00649410,0.00000364,-0.00002429,-0.00000961,-0.000000
 04,-0.00001771,0.00001551,-0.00000005,-0.00003581,0.00005707,-0.000000
 07,0.00001448,0.00001099,-0.00000003,-0.00001546,0.00000622,0.00000407
 ,-0.00001556,0.00000603,-0.00000398,0.00000258,-0.00001773,0.00000001,
 0.00001943,0.00000927,-0.00000011,0.00001938,0.00000930,-0.00000011,-0
 .00012947,-0.00009961,-0.00000010,0.00065770,0.00013856,0.00000023,0.4
 5994883,-0.00010494,-0.00001235,0.00000103,-0.00002152,-0.00009786,-0.
 00000121,-0.00006486,0.00002366,0.00000035,-0.00011600,-0.00032174,0.0
 0000110,0.00005205,-0.00000732,-0.00000041,-0.00000762,0.00014048,-0.0
 0000042,0.00013913,-0.00002267,-0.00000035,0.00002467,0.00003487,0.000
 00004,-0.00000885,-0.00000569,0.00000022,0.00006019,-0.00011225,0.,-0.
 00005414,0.00002108,0.00000004,-0.00132467,0.00071396,-0.00000033,-0.0
 0221235,-0.00442978,-0.00000063,-0.04221312,0.01900373,-0.00001783,0.1
 8432098,-0.11461920,0.00007008,0.00663061,-0.00210228,0.00000325,-0.00
 001283,-0.00001481,-0.00000004,-0.00001507,0.00001775,0.00000002,-0.00
 001227,0.00002202,0.00000016,0.00000507,0.00000204,0.,-0.00000361,0.00
 000094,0.00000569,-0.00000353,0.00000107,-0.00000577,0.00000266,-0.000
 00804,0.,0.00000870,0.00000355,0.00000064,0.00000865,0.00000345,-0.000
 00071,-0.00003833,-0.00001737,-0.00000009,-0.00008534,0.00008894,-0.00
 000008,-0.14495364,0.10169382,-0.00000018,0.00000012,-0.00002913,0.000
 00027,0.00000010,0.00010571,-0.00000010,-0.00000028,-0.00017066,0.0000
 0047,-0.00000043,-0.00065424,-0.00000012,0.00000034,0.00002420,-0.0000
 0062,-0.00000020,0.00004380,0.00000018,-0.00000004,-0.00000945,-0.0000
 0007,-0.00000002,0.00000109,0.00000003,0.00000011,0.00002330,0.0000000
 2,0.00000002,-0.00001785,0.00000010,0.00000003,0.00001410,-0.00000109,
 0.00000042,0.00074149,0.00000057,-0.00000232,0.00499100,-0.00002224,0.
 00000414,0.00402667,-0.00016034,0.00005143,-0.01575991,0.00000478,0.00
 000126,-0.00576270,-0.00000002,-0.00000002,-0.00001097,0.00000005,0.00
 000008,-0.00000892,0.00000004,-0.00000002,0.00000798,-0.00000010,-0.00
 000015,0.00000086,-0.00000162,0.00000170,-0.00000495,0.00000172,-0.000
 00163,-0.00000486,0.00000001,-0.00000002,0.00000424,0.00000319,0.00000
 343,-0.00000233,-0.00000322,-0.00000347,-0.00000238,-0.00000006,-0.000
 00013,0.00019641,0.00000026,0.00000031,-0.00028120,0.00017810,-0.00005
 476,0.01253869\\-0.00002250,-0.00000199,-0.00000694,-0.00001966,-0.000
 01105,0.00000160,0.00004453,-0.00001907,-0.00000006,0.00005199,0.00000
 281,0.00000123,0.00003423,0.00004546,0.00000350,0.00000275,0.00001642,
 0.00002252,-0.00001097,-0.00006668,0.00000010,-0.00003071,-0.00000106,
 0.00000037,-0.00002822,0.00001870,-0.00000024,0.00000422,0.00000145,-0
 .00003641,0.00002181,-0.00000784,0.00002666,-0.00003891,-0.00001903,-0
 .00000310,-0.00002391,0.00004024,-0.00001953,0.00001376,0.00004618,0.0
 0006603,-0.00002883,0.00001791,-0.00001963,0.00002537,-0.00009050,-0.0
 0002539,-0.00000691,0.00001388,0.00000004,-0.00000011,0.00000220,0.000
 00098,0.00001235,0.00003024,-0.00000234,-0.00001311,-0.00000320,-0.000
 00004,0.00000845,-0.00000554,0.00001093,0.00000849,-0.00000536,-0.0000
 1107,0.00001255,0.00001433,-0.00000039,-0.00001055,-0.00001152,0.00000
 718,-0.00001185,-0.00000166,-0.00001490,-0.00001393,-0.00000769,-0.000
 00013,-0.00000036,0.00000903,-0.00000077,0.00002003,-0.00000667,-0.000
 00020\\\@


 ABSOLUTISM, OBSOLETISM -- IF IT WORKS, IT'S OUT OF DATE

                          -- STAFFORD BEER
 Job cpu time:       0 days  1 hours 49 minutes 32.5 seconds.
 File lengths (MBytes):  RWF=    374 Int=      0 D2E=      0 Chk=     11 Scr=      1
 Normal termination of Gaussian 09 at Sun May 19 15:35:01 2024.
