 Entering Gaussian System, Link 0=g09
 Input=lw+b3lypSAYang.gjf
 Output=lw+b3lypSAYang.log
 Initial command:
 /home/phzd/g09E/g09/l1.exe "/home/phzd/g09E/scratch/Gau-3273787.inp" -scrdir="/home/phzd/g09E/scratch/"
 Default is to use a total of  18 processors:
                               18 via shared-memory
                                1 via Linda
 Entering Link 1 = /home/phzd/g09E/g09/l1.exe PID=   3273789.
  
 Copyright (c) 1988,1990,1992,1993,1995,1998,2003,2009,2015,
            Gaussian, Inc.  All Rights Reserved.
  
 This is part of the Gaussian(R) 09 program.  It is based on
 the Gaussian(R) 03 system (copyright 2003, Gaussian, Inc.),
 the Gaussian(R) 98 system (copyright 1998, Gaussian, Inc.),
 the Gaussian(R) 94 system (copyright 1995, Gaussian, Inc.),
 the Gaussian 92(TM) system (copyright 1992, Gaussian, Inc.),
 the Gaussian 90(TM) system (copyright 1990, Gaussian, Inc.),
 the Gaussian 88(TM) system (copyright 1988, Gaussian, Inc.),
 the Gaussian 86(TM) system (copyright 1986, Carnegie Mellon
 University), and the Gaussian 82(TM) system (copyright 1983,
 Carnegie Mellon University). Gaussian is a federally registered
 trademark of Gaussian, Inc.
  
 This software contains proprietary and confidential information,
 including trade secrets, belonging to Gaussian, Inc.
  
 This software is provided under written license and may be
 used, copied, transmitted, or stored only in accord with that
 written license.
  
 The following legend is applicable only to US Government
 contracts under FAR:
  
                    RESTRICTED RIGHTS LEGEND
  
 Use, reproduction and disclosure by the US Government is
 subject to restrictions as set forth in subparagraphs (a)
 and (c) of the Commercial Computer Software - Restricted
 Rights clause in FAR 52.227-19.
  
 Gaussian, Inc.
 340 Quinnipiac St., Bldg. 40, Wallingford CT 06492
  
  
 ---------------------------------------------------------------
 Warning -- This program may not be used in any manner that
 competes with the business of Gaussian, Inc. or will provide
 assistance to any competitor of Gaussian, Inc.  The licensee
 of this program is prohibited from giving any competitor of
 Gaussian, Inc. access to this program.  By using this program,
 the user acknowledges that Gaussian, Inc. is engaged in the
 business of creating and licensing software in the field of
 computational chemistry and represents and warrants to the
 licensee that it is not a competitor of Gaussian, Inc. and that
 it will not use this program in any manner prohibited above.
 ---------------------------------------------------------------
  

 Cite this work as:
 Gaussian 09, Revision E.01,
 M. J. Frisch, G. W. Trucks, H. B. Schlegel, G. E. Scuseria, 
 M. A. Robb, J. R. Cheeseman, G. Scalmani, V. Barone, B. Mennucci, 
 G. A. Petersson, H. Nakatsuji, M. Caricato, X. Li, H. P. Hratchian, 
 A. F. Izmaylov, J. Bloino, G. Zheng, J. L. Sonnenberg, M. Hada, 
 M. Ehara, K. Toyota, R. Fukuda, J. Hasegawa, M. Ishida, T. Nakajima, 
 Y. Honda, O. Kitao, H. Nakai, T. Vreven, J. A. Montgomery, Jr., 
 J. E. Peralta, F. Ogliaro, M. Bearpark, J. J. Heyd, E. Brothers, 
 K. N. Kudin, V. N. Staroverov, T. Keith, R. Kobayashi, J. Normand, 
 K. Raghavachari, A. Rendell, J. C. Burant, S. S. Iyengar, J. Tomasi, 
 M. Cossi, N. Rega, J. M. Millam, M. Klene, J. E. Knox, J. B. Cross, 
 V. Bakken, C. Adamo, J. Jaramillo, R. Gomperts, R. E. Stratmann, 
 O. Yazyev, A. J. Austin, R. Cammi, C. Pomelli, J. W. Ochterski, 
 R. L. Martin, K. Morokuma, V. G. Zakrzewski, G. A. Voth, 
 P. Salvador, J. J. Dannenberg, S. Dapprich, A. D. Daniels, 
 O. Farkas, J. B. Foresman, J. V. Ortiz, J. Cioslowski, 
 and D. J. Fox, Gaussian, Inc., Wallingford CT, 2013.
 
 ******************************************
 Gaussian 09:  ES64L-G09RevE.01 30-Nov-2015
                19-May-2024 
 ******************************************
 %chk=lw+b3lypSAYang.chk
 -------------------------------------
 # opt freq b3lyp/6-31+g(d,p) em=gd3bj
 -------------------------------------
 1/14=-1,18=20,19=15,26=3,38=1/1,3;
 2/9=110,12=2,17=6,18=5,40=1/2;
 3/5=1,6=6,7=111,11=2,16=1,25=1,30=1,71=1,74=-5,124=41/1,2,3;
 4//1;
 5/5=2,38=5/2;
 6/7=2,8=2,9=2,10=2,28=1/1;
 7//1,2,3,16;
 1/14=-1,18=20,19=15,26=3/3(2);
 2/9=110/2;
 99//99;
 2/9=110/2;
 3/5=1,6=6,7=111,11=2,16=1,25=1,30=1,71=1,74=-5,124=41/1,2,3;
 4/5=5,16=3,69=1/1;
 5/5=2,38=5/2;
 7//1,2,3,16;
 1/14=-1,18=20,19=15,26=3/3(-5);
 2/9=110/2;
 6/7=2,8=2,9=2,10=2,19=2,28=1/1;
 99/9=1/99;
 ----------
 [No Title]
 ----------
 Symbolic Z-matrix:
 Charge =  1 Multiplicity = 1
 C                    -2.39062   0.19781   0.00131 
 C                    -1.91859  -1.13235  -0.00602 
 C                    -0.55509  -1.34707  -0.01071 
 C                     0.35667  -0.26047  -0.00884 
 C                    -0.13048   1.07124   0.00184 
 C                    -1.48574   1.28725   0.00525 
 O                    -3.69383   0.4154    0.00558 
 O                    -2.87236  -2.07457  -0.00762 
 C                    -2.47649  -3.43982  -0.01708 
 O                    -2.11886   2.48223   0.01407 
 C                    -1.33898   3.67454   0.0169 
 C                     1.73157  -0.56177  -0.01226 
 C                     2.79247   0.33279  -0.01819 
 C                     4.10069  -0.11078   0.00112 
 O                     5.06981   0.77584  -0.09868 
 O                     4.38342  -1.39477   0.12753 
 H                    -0.16385  -2.35642  -0.01639 
 H                     0.5547    1.90737   0.007 
 H                    -3.86102   1.37394   0.01127 
 H                    -3.40056  -4.0139   -0.01792 
 H                    -1.90001  -3.67312  -0.91849 
 H                    -1.89484  -3.68417   0.87806 
 H                    -2.05118   4.49673   0.02242 
 H                    -0.71465   3.72212   0.91428 
 H                    -0.71974   3.72965  -0.88357 
 H                     1.98808  -1.61855  -0.00891 
 H                     2.66016   1.40582  -0.04005 
 H                     5.95615   0.45021   0.11974 
 H                     5.28881  -1.64087  -0.11442 
 

 GradGradGradGradGradGradGradGradGradGradGradGradGradGradGradGradGradGrad
 Berny optimization.
 Initialization pass.
                           ----------------------------
                           !    Initial Parameters    !
                           ! (Angstroms and Degrees)  !
 --------------------------                            --------------------------
 ! Name  Definition              Value          Derivative Info.                !
 --------------------------------------------------------------------------------
 ! R1    R(1,2)                  1.4115         estimate D2E/DX2                !
 ! R2    R(1,6)                  1.4162         estimate D2E/DX2                !
 ! R3    R(1,7)                  1.3213         estimate D2E/DX2                !
 ! R4    R(2,3)                  1.3803         estimate D2E/DX2                !
 ! R5    R(2,8)                  1.3407         estimate D2E/DX2                !
 ! R6    R(3,4)                  1.4185         estimate D2E/DX2                !
 ! R7    R(3,17)                 1.0825         estimate D2E/DX2                !
 ! R8    R(4,5)                  1.4181         estimate D2E/DX2                !
 ! R9    R(4,12)                 1.4075         estimate D2E/DX2                !
 ! R10   R(5,6)                  1.3724         estimate D2E/DX2                !
 ! R11   R(5,18)                 1.081          estimate D2E/DX2                !
 ! R12   R(6,10)                 1.3524         estimate D2E/DX2                !
 ! R13   R(7,19)                 0.973          estimate D2E/DX2                !
 ! R14   R(8,9)                  1.4215         estimate D2E/DX2                !
 ! R15   R(9,20)                 1.0879         estimate D2E/DX2                !
 ! R16   R(9,21)                 1.0951         estimate D2E/DX2                !
 ! R17   R(9,22)                 1.0951         estimate D2E/DX2                !
 ! R18   R(10,11)                1.4247         estimate D2E/DX2                !
 ! R19   R(11,23)                1.0878         estimate D2E/DX2                !
 ! R20   R(11,24)                1.0942         estimate D2E/DX2                !
 ! R21   R(11,25)                1.0942         estimate D2E/DX2                !
 ! R22   R(12,13)                1.3877         estimate D2E/DX2                !
 ! R23   R(12,26)                1.0875         estimate D2E/DX2                !
 ! R24   R(13,14)                1.3815         estimate D2E/DX2                !
 ! R25   R(13,27)                1.0814         estimate D2E/DX2                !
 ! R26   R(14,15)                1.3173         estimate D2E/DX2                !
 ! R27   R(14,16)                1.3208         estimate D2E/DX2                !
 ! R28   R(15,28)                0.9692         estimate D2E/DX2                !
 ! R29   R(16,29)                0.9689         estimate D2E/DX2                !
 ! A1    A(2,1,6)              120.7495         estimate D2E/DX2                !
 ! A2    A(2,1,7)              119.0174         estimate D2E/DX2                !
 ! A3    A(6,1,7)              120.233          estimate D2E/DX2                !
 ! A4    A(1,2,3)              118.4881         estimate D2E/DX2                !
 ! A5    A(1,2,8)              115.1127         estimate D2E/DX2                !
 ! A6    A(3,2,8)              126.3992         estimate D2E/DX2                !
 ! A7    A(2,3,4)              121.0497         estimate D2E/DX2                !
 ! A8    A(2,3,17)             120.1375         estimate D2E/DX2                !
 ! A9    A(4,3,17)             118.8128         estimate D2E/DX2                !
 ! A10   A(3,4,5)              119.9073         estimate D2E/DX2                !
 ! A11   A(3,4,12)             117.6388         estimate D2E/DX2                !
 ! A12   A(5,4,12)             122.4534         estimate D2E/DX2                !
 ! A13   A(4,5,6)              119.1488         estimate D2E/DX2                !
 ! A14   A(4,5,18)             120.5748         estimate D2E/DX2                !
 ! A15   A(6,5,18)             120.2764         estimate D2E/DX2                !
 ! A16   A(1,6,5)              120.6562         estimate D2E/DX2                !
 ! A17   A(1,6,10)             112.3724         estimate D2E/DX2                !
 ! A18   A(5,6,10)             126.9713         estimate D2E/DX2                !
 ! A19   A(1,7,19)             109.3735         estimate D2E/DX2                !
 ! A20   A(2,8,9)              118.4804         estimate D2E/DX2                !
 ! A21   A(8,9,20)             105.6804         estimate D2E/DX2                !
 ! A22   A(8,9,21)             110.8963         estimate D2E/DX2                !
 ! A23   A(8,9,22)             110.9019         estimate D2E/DX2                !
 ! A24   A(20,9,21)            109.5173         estimate D2E/DX2                !
 ! A25   A(20,9,22)            109.5135         estimate D2E/DX2                !
 ! A26   A(21,9,22)            110.2233         estimate D2E/DX2                !
 ! A27   A(6,10,11)            118.8965         estimate D2E/DX2                !
 ! A28   A(10,11,23)           105.9122         estimate D2E/DX2                !
 ! A29   A(10,11,24)           110.5084         estimate D2E/DX2                !
 ! A30   A(10,11,25)           110.5047         estimate D2E/DX2                !
 ! A31   A(23,11,24)           109.6662         estimate D2E/DX2                !
 ! A32   A(23,11,25)           109.6717         estimate D2E/DX2                !
 ! A33   A(24,11,25)           110.4752         estimate D2E/DX2                !
 ! A34   A(4,12,13)            127.502          estimate D2E/DX2                !
 ! A35   A(4,12,26)            116.0033         estimate D2E/DX2                !
 ! A36   A(13,12,26)           116.4947         estimate D2E/DX2                !
 ! A37   A(12,13,14)           121.1247         estimate D2E/DX2                !
 ! A38   A(12,13,27)           123.1063         estimate D2E/DX2                !
 ! A39   A(14,13,27)           115.7688         estimate D2E/DX2                !
 ! A40   A(13,14,15)           118.6528         estimate D2E/DX2                !
 ! A41   A(13,14,16)           121.0756         estimate D2E/DX2                !
 ! A42   A(15,14,16)           120.2694         estimate D2E/DX2                !
 ! A43   A(14,15,28)           115.4419         estimate D2E/DX2                !
 ! A44   A(14,16,29)           115.0264         estimate D2E/DX2                !
 ! D1    D(6,1,2,3)             -0.0679         estimate D2E/DX2                !
 ! D2    D(6,1,2,8)            179.9278         estimate D2E/DX2                !
 ! D3    D(7,1,2,3)            179.9866         estimate D2E/DX2                !
 ! D4    D(7,1,2,8)             -0.0178         estimate D2E/DX2                !
 ! D5    D(2,1,6,5)              0.0081         estimate D2E/DX2                !
 ! D6    D(2,1,6,10)          -179.9131         estimate D2E/DX2                !
 ! D7    D(7,1,6,5)            179.9529         estimate D2E/DX2                !
 ! D8    D(7,1,6,10)             0.0317         estimate D2E/DX2                !
 ! D9    D(2,1,7,19)           179.948          estimate D2E/DX2                !
 ! D10   D(6,1,7,19)             0.0022         estimate D2E/DX2                !
 ! D11   D(1,2,3,4)             -0.0282         estimate D2E/DX2                !
 ! D12   D(1,2,3,17)          -179.9984         estimate D2E/DX2                !
 ! D13   D(8,2,3,4)            179.9767         estimate D2E/DX2                !
 ! D14   D(8,2,3,17)             0.0065         estimate D2E/DX2                !
 ! D15   D(1,2,8,9)            179.9001         estimate D2E/DX2                !
 ! D16   D(3,2,8,9)             -0.1047         estimate D2E/DX2                !
 ! D17   D(2,3,4,5)              0.1824         estimate D2E/DX2                !
 ! D18   D(2,3,4,12)           179.9241         estimate D2E/DX2                !
 ! D19   D(17,3,4,5)          -179.8471         estimate D2E/DX2                !
 ! D20   D(17,3,4,12)           -0.1054         estimate D2E/DX2                !
 ! D21   D(3,4,5,6)             -0.2393         estimate D2E/DX2                !
 ! D22   D(3,4,5,18)           179.776          estimate D2E/DX2                !
 ! D23   D(12,4,5,6)          -179.9682         estimate D2E/DX2                !
 ! D24   D(12,4,5,18)            0.0472         estimate D2E/DX2                !
 ! D25   D(3,4,12,13)          179.6402         estimate D2E/DX2                !
 ! D26   D(3,4,12,26)           -0.4221         estimate D2E/DX2                !
 ! D27   D(5,4,12,13)           -0.6251         estimate D2E/DX2                !
 ! D28   D(5,4,12,26)          179.3125         estimate D2E/DX2                !
 ! D29   D(4,5,6,1)              0.1455         estimate D2E/DX2                !
 ! D30   D(4,5,6,10)          -179.9457         estimate D2E/DX2                !
 ! D31   D(18,5,6,1)          -179.8698         estimate D2E/DX2                !
 ! D32   D(18,5,6,10)            0.039          estimate D2E/DX2                !
 ! D33   D(1,6,10,11)         -179.9054         estimate D2E/DX2                !
 ! D34   D(5,6,10,11)            0.1794         estimate D2E/DX2                !
 ! D35   D(2,8,9,20)          -179.9322         estimate D2E/DX2                !
 ! D36   D(2,8,9,21)           -61.3375         estimate D2E/DX2                !
 ! D37   D(2,8,9,22)            61.4746         estimate D2E/DX2                !
 ! D38   D(6,10,11,23)         179.9057         estimate D2E/DX2                !
 ! D39   D(6,10,11,24)         -61.3915         estimate D2E/DX2                !
 ! D40   D(6,10,11,25)          61.1984         estimate D2E/DX2                !
 ! D41   D(4,12,13,14)         178.9289         estimate D2E/DX2                !
 ! D42   D(4,12,13,27)          -1.2106         estimate D2E/DX2                !
 ! D43   D(26,12,13,14)         -1.0085         estimate D2E/DX2                !
 ! D44   D(26,12,13,27)        178.852          estimate D2E/DX2                !
 ! D45   D(12,13,14,15)        175.3772         estimate D2E/DX2                !
 ! D46   D(12,13,14,16)         -5.1609         estimate D2E/DX2                !
 ! D47   D(27,13,14,15)         -4.4931         estimate D2E/DX2                !
 ! D48   D(27,13,14,16)        174.9688         estimate D2E/DX2                !
 ! D49   D(13,14,15,28)        166.6523         estimate D2E/DX2                !
 ! D50   D(16,14,15,28)        -12.8141         estimate D2E/DX2                !
 ! D51   D(13,14,16,29)        163.6128         estimate D2E/DX2                !
 ! D52   D(15,14,16,29)        -16.934          estimate D2E/DX2                !
 --------------------------------------------------------------------------------
 Trust Radius=3.00D-01 FncErr=1.00D-07 GrdErr=1.00D-06
 Number of steps in this run=    135 maximum allowed number of steps=    174.
 GradGradGradGradGradGradGradGradGradGradGradGradGradGradGradGradGradGrad

                          Input orientation:                          
 ---------------------------------------------------------------------
 Center     Atomic      Atomic             Coordinates (Angstroms)
 Number     Number       Type             X           Y           Z
 ---------------------------------------------------------------------
      1          6           0       -2.390622    0.197810    0.001313
      2          6           0       -1.918592   -1.132350   -0.006022
      3          6           0       -0.555091   -1.347074   -0.010708
      4          6           0        0.356667   -0.260470   -0.008844
      5          6           0       -0.130478    1.071243    0.001841
      6          6           0       -1.485740    1.287251    0.005249
      7          8           0       -3.693827    0.415397    0.005578
      8          8           0       -2.872363   -2.074566   -0.007621
      9          6           0       -2.476489   -3.439819   -0.017081
     10          8           0       -2.118856    2.482227    0.014070
     11          6           0       -1.338977    3.674539    0.016902
     12          6           0        1.731568   -0.561770   -0.012261
     13          6           0        2.792471    0.332785   -0.018192
     14          6           0        4.100688   -0.110784    0.001123
     15          8           0        5.069812    0.775838   -0.098675
     16          8           0        4.383421   -1.394768    0.127532
     17          1           0       -0.163845   -2.356420   -0.016390
     18          1           0        0.554703    1.907370    0.007000
     19          1           0       -3.861015    1.373940    0.011265
     20          1           0       -3.400559   -4.013899   -0.017916
     21          1           0       -1.900007   -3.673119   -0.918491
     22          1           0       -1.894843   -3.684174    0.878061
     23          1           0       -2.051177    4.496728    0.022420
     24          1           0       -0.714648    3.722122    0.914277
     25          1           0       -0.719739    3.729645   -0.883569
     26          1           0        1.988077   -1.618546   -0.008910
     27          1           0        2.660162    1.405822   -0.040053
     28          1           0        5.956153    0.450211    0.119736
     29          1           0        5.288812   -1.640872   -0.114420
 ---------------------------------------------------------------------
                    Distance matrix (angstroms):
                    1          2          3          4          5
     1  C    0.000000
     2  C    1.411450   0.000000
     3  C    2.399163   1.380313   0.000000
     4  C    2.785268   2.436593   1.418455   0.000000
     5  C    2.423043   2.837822   2.455343   1.418056   0.000000
     6  C    1.416230   2.458039   2.793927   2.406263   1.372372
     7  O    1.321252   2.355231   3.599755   4.106520   3.623204
     8  O    2.322896   1.340691   2.428786   3.703725   4.173025
     9  C    3.638689   2.373981   2.841020   4.258533   5.084664
    10  O    2.300561   3.620176   4.136366   3.694743   2.438170
    11  C    3.632333   4.841762   5.082503   4.284877   2.870165
    12  C    4.191610   3.694492   2.417750   1.407532   2.476721
    13  C    5.184887   4.933648   3.745418   2.507026   3.014855
    14  C    6.498641   6.105357   4.817139   3.747025   4.393171
    15  O    7.483461   7.244830   6.012822   4.826566   5.209643
    16  O    6.959877   6.308888   4.940677   4.185687   5.145123
    17  H    3.388649   2.139531   1.082536   2.159629   3.427874
    18  H    3.405520   3.918833   3.438512   2.176924   1.081022
    19  H    1.882933   3.170930   4.281768   4.523333   3.742809
    20  H    4.331147   3.240323   3.899833   5.310844   6.045865
    21  H    4.008844   2.699713   2.836081   4.191206   5.146573
    22  H    4.010522   2.700736   2.836703   4.192570   5.147304
    23  H    4.312350   5.630711   6.032362   5.331944   3.927271
    24  H    4.007888   5.085502   5.155367   4.226217   2.863731
    25  H    4.006086   5.083929   5.153840   4.224312   2.863264
    26  H    4.740491   3.936808   2.557617   2.122703   3.423939
    27  H    5.193402   5.235309   4.232865   2.843166   2.810938
    28  H    8.351430   8.033176   6.756001   5.645870   6.119367
    29  H    7.897332   7.226134   5.852203   5.122764   6.061171
                    6          7          8          9         10
     6  C    0.000000
     7  O    2.373979   0.000000
     8  O    3.636578   2.622002   0.000000
     9  C    4.829832   4.042909   1.421521   0.000000
    10  O    1.352361   2.598537   4.618723   5.932917   0.000000
    11  C    2.391823   4.020877   5.950133   7.204802   1.424720
    12  C    3.710830   5.512720   4.846107   5.098130   4.908399
    13  C    4.383451   6.486868   6.155144   6.480315   5.361182
    14  C    5.758706   7.812256   7.244305   7.371707   6.738442
    15  O    6.576291   8.771668   8.438675   8.644367   7.389278
    16  O    6.454086   8.278497   7.288813   7.159714   7.571233
    17  H    3.876108   4.488232   2.723158   2.553836   5.218764
    18  H    2.132594   4.502887   5.253647   6.146636   2.734672
    19  H    2.376864   0.973031   3.587476   5.008991   2.064807
    20  H    5.636423   4.439056   2.010002   1.087876   6.621438
    21  H    5.062626   4.559348   2.080993   1.095126   6.229434
    22  H    5.064013   4.561146   2.081061   1.095126   6.230663
    23  H    3.258950   4.399528   6.622473   7.948033   2.015655
    24  H    2.710998   4.542650   6.253577   7.434037   2.078344
    25  H    2.709621   4.540927   6.252195   7.432240   2.078301
    26  H    4.528936   6.034995   4.881786   4.821769   5.803772
    27  H    4.147845   6.430879   6.536282   7.061583   4.899040
    28  H    7.489694   9.650718   9.183323   9.287653   8.327426
    29  H    7.381245   9.215772   8.173388   7.971548   8.478797
                   11         12         13         14         15
    11  C    0.000000
    12  C    5.232152   0.000000
    13  C    5.313889   1.387724   0.000000
    14  C    6.627132   2.411700   1.381506   0.000000
    15  O    7.034799   3.597296   2.321434   1.317293   0.000000
    16  O    7.645649   2.783119   2.353040   1.320807   2.287757
    17  H    6.144470   2.610244   3.996452   4.819692   6.099916
    18  H    2.590175   2.735331   2.736340   4.080072   4.655936
    19  H    3.413717   5.918151   6.734519   8.098964   8.951507
    20  H    7.960114   6.185140   7.566193   8.455967   9.731150
    21  H    7.428176   4.867246   6.235155   7.038768   8.309253
    22  H    7.429754   4.867539   6.237799   7.034524   8.327793
    23  H    1.087775   6.316547   6.387566   7.686030   8.035432
    24  H    1.094227   5.019380   4.965580   6.221935   6.570132
    25  H    1.094231   5.018399   4.962172   6.226403   6.546750
    26  H    6.251936   1.087467   2.110646   2.595491   3.903617
    27  H    4.598199   2.175885   1.081384   2.092105   2.491331
    28  H    7.976577   4.346107   3.168864   1.942044   0.969194
    29  H    8.496966   3.718721   3.183756   1.940659   2.426664
                   16         17         18         19         20
    16  O    0.000000
    17  H    4.650066   0.000000
    18  H    5.057443   4.323975   0.000000
    19  H    8.697700   5.252182   4.447823   0.000000
    20  H    8.214094   3.636421   7.120825   5.407558   0.000000
    21  H    6.765095   2.358334   6.166360   5.493888   1.782925
    22  H    6.724676   2.357823   6.166392   5.495606   1.782884
    23  H    8.724954   7.108387   3.673639   3.609355   8.617031
    24  H    7.265799   6.173994   2.393267   4.028525   8.241913
    25  H    7.302340   6.172617   2.395413   4.027119   8.240062
    26  H    2.409640   2.274925   3.806166   6.570179   5.897050
    27  H    3.292569   4.704258   2.164884   6.521457   8.130572
    28  H    2.424354   6.734247   5.595684   9.861127  10.367993
    29  H    0.968938   5.500281   5.917479   9.634533   9.008093
                   21         22         23         24         25
    21  H    0.000000
    22  H    1.796593   0.000000
    23  H    8.225240   8.227012   0.000000
    24  H    7.710623   7.499826   1.783741   0.000000
    25  H    7.496344   7.710313   1.783805   1.797869   0.000000
    26  H    4.490635   4.486714   7.328924   6.056379   6.058089
    27  H    6.882037   6.891956   5.635097   4.203015   4.187530
    28  H    8.933029   8.905410   8.972241   7.472368   7.505254
    29  H    7.513699   7.534255   9.568924   8.115507   8.095476
                   26         27         28         29
    26  H    0.000000
    27  H    3.098301   0.000000
    28  H    4.476822   3.435445   0.000000
    29  H    3.302496   4.024634   2.207442   0.000000
 Stoichiometry    C11H13O5(1+)
 Framework group  C1[X(C11H13O5)]
 Deg. of freedom    81
 Full point group                 C1      NOp   1
 Largest Abelian subgroup         C1      NOp   1
 Largest concise Abelian subgroup C1      NOp   1
                         Standard orientation:                         
 ---------------------------------------------------------------------
 Center     Atomic      Atomic             Coordinates (Angstroms)
 Number     Number       Type             X           Y           Z
 ---------------------------------------------------------------------
      1          6           0        2.390622    0.197810   -0.001313
      2          6           0        1.918592   -1.132350    0.006022
      3          6           0        0.555091   -1.347074    0.010708
      4          6           0       -0.356667   -0.260470    0.008844
      5          6           0        0.130478    1.071243   -0.001841
      6          6           0        1.485740    1.287251   -0.005249
      7          8           0        3.693827    0.415397   -0.005578
      8          8           0        2.872363   -2.074566    0.007621
      9          6           0        2.476489   -3.439819    0.017081
     10          8           0        2.118856    2.482227   -0.014070
     11          6           0        1.338977    3.674539   -0.016902
     12          6           0       -1.731568   -0.561770    0.012261
     13          6           0       -2.792471    0.332785    0.018192
     14          6           0       -4.100688   -0.110784   -0.001123
     15          8           0       -5.069812    0.775838    0.098675
     16          8           0       -4.383421   -1.394768   -0.127532
     17          1           0        0.163845   -2.356420    0.016390
     18          1           0       -0.554703    1.907370   -0.007000
     19          1           0        3.861015    1.373940   -0.011265
     20          1           0        3.400559   -4.013899    0.017916
     21          1           0        1.900007   -3.673119    0.918491
     22          1           0        1.894843   -3.684174   -0.878061
     23          1           0        2.051177    4.496728   -0.022420
     24          1           0        0.714648    3.722122   -0.914277
     25          1           0        0.719739    3.729645    0.883569
     26          1           0       -1.988077   -1.618546    0.008910
     27          1           0       -2.660162    1.405822    0.040053
     28          1           0       -5.956153    0.450211   -0.119736
     29          1           0       -5.288812   -1.640872    0.114420
 ---------------------------------------------------------------------
 Rotational constants (GHZ):      0.7152517      0.2761758      0.1998298
 Standard basis: 6-31+G(d,p) (6D, 7F)
 There are   369 symmetry adapted cartesian basis functions of A   symmetry.
 There are   369 symmetry adapted basis functions of A   symmetry.
   369 basis functions,   603 primitive gaussians,   369 cartesian basis functions
    59 alpha electrons       59 beta electrons
       nuclear repulsion energy      1075.6728382089 Hartrees.
 NAtoms=   29 NActive=   29 NUniq=   29 SFac= 1.00D+00 NAtFMM=   60 NAOKFM=F Big=F
 Integral buffers will be    131072 words long.
 Raffenetti 2 integral format.
 Two-electron integral symmetry is turned on.
 Nuclear repulsion after empirical dispersion term =     1075.6212767198 Hartrees.
 One-electron integrals computed using PRISM.
 NBasis=   369 RedAO= T EigKep=  1.38D-06  NBF=   369
 NBsUse=   367 1.00D-06 EigRej=  7.59D-07 NBFU=   367
 ExpMin= 4.38D-02 ExpMax= 5.48D+03 ExpMxC= 8.25D+02 IAcc=2 IRadAn=         4 AccDes= 0.00D+00
 Harris functional with IExCor=  402 and IRadAn=       4 diagonalized for initial guess.
 HarFok:  IExCor=  402 AccDes= 0.00D+00 IRadAn=         4 IDoV= 1 UseB2=F ITyADJ=14
 ICtDFT=  3500011 ScaDFX=  1.000000  1.000000  1.000000  1.000000
 FoFCou: FMM=F IPFlag=           0 FMFlag=      100000 FMFlg1=           0
         NFxFlg=           0 DoJE=T BraDBF=F KetDBF=T FulRan=T
         wScrn=  0.000000 ICntrl=     500 IOpCl=  0 I1Cent=   200000004 NGrid=           0
         NMat0=    1 NMatS0=      1 NMatT0=    0 NMatD0=    1 NMtDS0=    0 NMtDT0=    0
 Petite list used in FoFCou.
 Requested convergence on RMS density matrix=1.00D-08 within 128 cycles.
 Requested convergence on MAX density matrix=1.00D-06.
 Requested convergence on             energy=1.00D-06.
 No special actions if energy rises.
 SCF Done:  E(RB3LYP) =  -802.944021348     A.U. after   16 cycles
            NFock= 16  Conv=0.25D-08     -V/T= 2.0089

 **********************************************************************

            Population analysis using the SCF density.

 **********************************************************************

 Orbital symmetries:
       Occupied  (A) (A) (A) (A) (A) (A) (A) (A) (A) (A) (A) (A)
                 (A) (A) (A) (A) (A) (A) (A) (A) (A) (A) (A) (A)
                 (A) (A) (A) (A) (A) (A) (A) (A) (A) (A) (A) (A)
                 (A) (A) (A) (A) (A) (A) (A) (A) (A) (A) (A) (A)
                 (A) (A) (A) (A) (A) (A) (A) (A) (A) (A) (A)
       Virtual   (A) (A) (A) (A) (A) (A) (A) (A) (A) (A) (A) (A)
                 (A) (A) (A) (A) (A) (A) (A) (A) (A) (A) (A) (A)
                 (A) (A) (A) (A) (A) (A) (A) (A) (A) (A) (A) (A)
                 (A) (A) (A) (A) (A) (A) (A) (A) (A) (A) (A) (A)
                 (A) (A) (A) (A) (A) (A) (A) (A) (A) (A) (A) (A)
                 (A) (A) (A) (A) (A) (A) (A) (A) (A) (A) (A) (A)
                 (A) (A) (A) (A) (A) (A) (A) (A) (A) (A) (A) (A)
                 (A) (A) (A) (A) (A) (A) (A) (A) (A) (A) (A) (A)
                 (A) (A) (A) (A) (A) (A) (A) (A) (A) (A) (A) (A)
                 (A) (A) (A) (A) (A) (A) (A) (A) (A) (A) (A) (A)
                 (A) (A) (A) (A) (A) (A) (A) (A) (A) (A) (A) (A)
                 (A) (A) (A) (A) (A) (A) (A) (A) (A) (A) (A) (A)
                 (A) (A) (A) (A) (A) (A) (A) (A) (A) (A) (A) (A)
                 (A) (A) (A) (A) (A) (A) (A) (A) (A) (A) (A) (A)
                 (A) (A) (A) (A) (A) (A) (A) (A) (A) (A) (A) (A)
                 (A) (A) (A) (A) (A) (A) (A) (A) (A) (A) (A) (A)
                 (A) (A) (A) (A) (A) (A) (A) (A) (A) (A) (A) (A)
                 (A) (A) (A) (A) (A) (A) (A) (A) (A) (A) (A) (A)
                 (A) (A) (A) (A) (A) (A) (A) (A) (A) (A) (A) (A)
                 (A) (A) (A) (A) (A) (A) (A) (A) (A) (A) (A) (A)
                 (A) (A) (A) (A) (A) (A) (A) (A) (A) (A) (A) (A)
                 (A) (A) (A) (A) (A) (A) (A) (A) (A) (A) (A) (A)
                 (A) (A) (A) (A) (A) (A) (A) (A) (A) (A) (A) (A)
                 (A) (A) (A) (A) (A) (A) (A) (A) (A) (A) (A) (A)
                 (A) (A) (A) (A) (A) (A) (A) (A) (A) (A) (A) (A)
                 (A) (A) (A) (A) (A) (A) (A) (A)
 The electronic state is 1-A.
 Alpha  occ. eigenvalues --  -19.38766 -19.38655 -19.32992 -19.32653 -19.30625
 Alpha  occ. eigenvalues --  -10.51049 -10.40672 -10.39467 -10.38812 -10.37567
 Alpha  occ. eigenvalues --  -10.36251 -10.34933 -10.34915 -10.34720 -10.33785
 Alpha  occ. eigenvalues --  -10.33569  -1.31383  -1.23620  -1.23378  -1.20493
 Alpha  occ. eigenvalues --   -1.19131  -1.01052  -0.97175  -0.91630  -0.90126
 Alpha  occ. eigenvalues --   -0.85413  -0.84611  -0.81378  -0.79894  -0.78175
 Alpha  occ. eigenvalues --   -0.73916  -0.71428  -0.70349  -0.67889  -0.65747
 Alpha  occ. eigenvalues --   -0.64334  -0.63928  -0.63075  -0.61258  -0.60825
 Alpha  occ. eigenvalues --   -0.60094  -0.58821  -0.57875  -0.55654  -0.55270
 Alpha  occ. eigenvalues --   -0.55105  -0.54712  -0.53338  -0.53010  -0.52178
 Alpha  occ. eigenvalues --   -0.50643  -0.49490  -0.47842  -0.47789  -0.46320
 Alpha  occ. eigenvalues --   -0.45549  -0.41951  -0.36518  -0.34524
 Alpha virt. eigenvalues --   -0.24306  -0.16095  -0.13820  -0.12281  -0.10448
 Alpha virt. eigenvalues --   -0.10130  -0.10003  -0.09159  -0.07502  -0.07187
 Alpha virt. eigenvalues --   -0.06656  -0.06450  -0.05743  -0.05000  -0.04798
 Alpha virt. eigenvalues --   -0.04232  -0.03615  -0.02473  -0.02334  -0.01936
 Alpha virt. eigenvalues --   -0.01714  -0.00450  -0.00063   0.00447   0.00820
 Alpha virt. eigenvalues --    0.01086   0.02275   0.02812   0.02947   0.03388
 Alpha virt. eigenvalues --    0.03440   0.03641   0.04091   0.04665   0.04737
 Alpha virt. eigenvalues --    0.05134   0.05317   0.05690   0.06654   0.06753
 Alpha virt. eigenvalues --    0.07312   0.07789   0.07937   0.09089   0.09454
 Alpha virt. eigenvalues --    0.09807   0.10409   0.10756   0.11372   0.11602
 Alpha virt. eigenvalues --    0.12163   0.12763   0.13276   0.13793   0.14671
 Alpha virt. eigenvalues --    0.14821   0.14988   0.15113   0.15271   0.15572
 Alpha virt. eigenvalues --    0.15778   0.16183   0.17194   0.17479   0.18664
 Alpha virt. eigenvalues --    0.18760   0.19538   0.20121   0.20521   0.21063
 Alpha virt. eigenvalues --    0.21686   0.21973   0.22137   0.22529   0.23238
 Alpha virt. eigenvalues --    0.24064   0.24740   0.25186   0.25586   0.26124
 Alpha virt. eigenvalues --    0.26370   0.27638   0.28014   0.28990   0.30010
 Alpha virt. eigenvalues --    0.30937   0.31683   0.34119   0.34849   0.35469
 Alpha virt. eigenvalues --    0.35959   0.38074   0.40887   0.44235   0.45935
 Alpha virt. eigenvalues --    0.49563   0.52751   0.53653   0.53901   0.54384
 Alpha virt. eigenvalues --    0.56435   0.57013   0.57253   0.58264   0.59063
 Alpha virt. eigenvalues --    0.59308   0.59782   0.61264   0.61912   0.62725
 Alpha virt. eigenvalues --    0.63044   0.63389   0.65277   0.66402   0.67960
 Alpha virt. eigenvalues --    0.72374   0.73240   0.74470   0.76605   0.78231
 Alpha virt. eigenvalues --    0.79153   0.79598   0.80603   0.81048   0.81136
 Alpha virt. eigenvalues --    0.82552   0.84372   0.88770   0.89246   0.91340
 Alpha virt. eigenvalues --    0.92816   0.93560   0.94714   0.96335   0.97246
 Alpha virt. eigenvalues --    0.98444   0.99532   1.00702   1.01521   1.02499
 Alpha virt. eigenvalues --    1.04424   1.04525   1.05528   1.06567   1.07001
 Alpha virt. eigenvalues --    1.07143   1.08357   1.08890   1.09831   1.10263
 Alpha virt. eigenvalues --    1.11255   1.11566   1.13075   1.13722   1.14330
 Alpha virt. eigenvalues --    1.14732   1.16249   1.17210   1.18131   1.18713
 Alpha virt. eigenvalues --    1.19450   1.19860   1.20846   1.22481   1.24315
 Alpha virt. eigenvalues --    1.25505   1.26085   1.26645   1.29071   1.30200
 Alpha virt. eigenvalues --    1.33436   1.34090   1.35916   1.39159   1.40524
 Alpha virt. eigenvalues --    1.41851   1.43481   1.44385   1.46253   1.47029
 Alpha virt. eigenvalues --    1.48247   1.49973   1.53956   1.56098   1.58456
 Alpha virt. eigenvalues --    1.61241   1.62873   1.65881   1.67659   1.67968
 Alpha virt. eigenvalues --    1.70601   1.70791   1.71549   1.74251   1.74846
 Alpha virt. eigenvalues --    1.75185   1.76973   1.77820   1.79791   1.80067
 Alpha virt. eigenvalues --    1.81055   1.82627   1.83641   1.85264   1.85784
 Alpha virt. eigenvalues --    1.86900   1.90118   1.90401   1.91785   1.93200
 Alpha virt. eigenvalues --    1.94615   1.95953   1.96180   1.96784   1.98468
 Alpha virt. eigenvalues --    2.01280   2.02386   2.03857   2.04865   2.05976
 Alpha virt. eigenvalues --    2.07733   2.09796   2.11157   2.13620   2.13903
 Alpha virt. eigenvalues --    2.16075   2.19421   2.19834   2.23403   2.25014
 Alpha virt. eigenvalues --    2.25719   2.28470   2.30336   2.33575   2.35082
 Alpha virt. eigenvalues --    2.36050   2.37183   2.38827   2.40324   2.40392
 Alpha virt. eigenvalues --    2.41971   2.42944   2.44213   2.45544   2.47475
 Alpha virt. eigenvalues --    2.48414   2.49764   2.50629   2.52690   2.52892
 Alpha virt. eigenvalues --    2.55358   2.56511   2.57151   2.59081   2.59676
 Alpha virt. eigenvalues --    2.60386   2.62595   2.64147   2.66390   2.68212
 Alpha virt. eigenvalues --    2.71052   2.72213   2.72541   2.73995   2.75317
 Alpha virt. eigenvalues --    2.76236   2.77939   2.81042   2.84546   2.85636
 Alpha virt. eigenvalues --    2.87583   2.95352   2.96642   3.03835   3.06810
 Alpha virt. eigenvalues --    3.08808   3.09126   3.13203   3.14593   3.17122
 Alpha virt. eigenvalues --    3.24918   3.29151   3.29807   3.31272   3.32229
 Alpha virt. eigenvalues --    3.32796   3.36629   3.38219   3.43478   3.44898
 Alpha virt. eigenvalues --    3.49163   3.63681   4.06422   4.11606   4.16223
 Alpha virt. eigenvalues --    4.21583   4.23512   4.27447   4.28904   4.33651
 Alpha virt. eigenvalues --    4.36702   4.41230   4.46086   4.50257   4.55336
 Alpha virt. eigenvalues --    4.68113   4.72257   5.21580
          Condensed to atoms (all electrons):
               1          2          3          4          5          6
     1  C   24.136817  -1.000254  -7.796003   0.366657  -7.273699   0.431952
     2  C   -1.000254  19.934327  -1.154116  -2.886134  -0.413534  -7.209019
     3  C   -7.796003  -1.154116  24.841412  -0.619569  -1.701252  -4.363259
     4  C    0.366657  -2.886134  -0.619569  16.132449  -2.520761  -2.600729
     5  C   -7.273699  -0.413534  -1.701252  -2.520761  14.912260   0.951341
     6  C    0.431952  -7.209019  -4.363259  -2.600729   0.951341  18.665764
     7  O    0.107531  -0.919626  -0.031181  -0.061632   0.175775   0.678492
     8  O   -0.741208   0.273296   0.485272  -0.005871   0.000051   0.012501
     9  C    0.181174  -0.142740  -0.067126  -0.219923   0.013591   0.103342
    10  O   -0.717174   0.102320   0.008854  -0.013668   0.338674   0.214530
    11  C   -0.057585   0.059200   0.057087  -0.046545   0.046137  -0.182367
    12  C   -1.485162  -0.579906  -1.882745  -1.012302   1.478388  -0.185248
    13  C   -0.141535  -0.765726  -1.662862   0.525748  -0.298933  -0.297380
    14  C   -0.075260   0.082803  -0.711735  -1.257738   0.340319   0.122436
    15  O    0.000693   0.001628   0.005887   0.021838  -0.003400   0.002011
    16  O   -0.003643   0.001981  -0.006143   0.002968  -0.023302  -0.007528
    17  H    0.015598  -0.119520   0.177396   0.113714   0.029946   0.000715
    18  H   -0.005257  -0.004109   0.103041   0.226165   0.176813  -0.128541
    19  H    0.168113   0.281818   0.018850   0.001598  -0.039919  -0.440477
    20  H    0.089236   0.113712  -0.178696  -0.026776  -0.000339   0.014202
    21  H   -0.046886  -0.155148   0.148426   0.052968   0.001596  -0.011685
    22  H   -0.051758  -0.152814   0.162422   0.032120   0.001447  -0.009854
    23  H    0.050739   0.006636  -0.004315  -0.025686  -0.093277   0.077246
    24  H   -0.029854  -0.003901   0.009895   0.043675   0.071281  -0.098282
    25  H   -0.017878  -0.005658   0.006142   0.039009   0.046740  -0.072461
    26  H    0.016001   0.015141   0.174103   0.033270   0.024887   0.004858
    27  H    0.000687  -0.000410   0.037896   0.119051  -0.028006  -0.011712
    28  H    0.000066  -0.000043   0.000142  -0.003770   0.003883   0.000490
    29  H   -0.000083   0.000352   0.007617   0.012882  -0.003919  -0.000431
               7          8          9         10         11         12
     1  C    0.107531  -0.741208   0.181174  -0.717174  -0.057585  -1.485162
     2  C   -0.919626   0.273296  -0.142740   0.102320   0.059200  -0.579906
     3  C   -0.031181   0.485272  -0.067126   0.008854   0.057087  -1.882745
     4  C   -0.061632  -0.005871  -0.219923  -0.013668  -0.046545  -1.012302
     5  C    0.175775   0.000051   0.013591   0.338674   0.046137   1.478388
     6  C    0.678492   0.012501   0.103342   0.214530  -0.182367  -0.185248
     7  O    8.311125   0.043912  -0.000120  -0.027913  -0.001181   0.017732
     8  O    0.043912   8.461924   0.026879  -0.001931   0.000121  -0.034122
     9  C   -0.000120   0.026879   5.007911  -0.000041   0.001101  -0.025825
    10  O   -0.027913  -0.001931  -0.000041   8.613548   0.043225   0.009943
    11  C   -0.001181   0.000121   0.001101   0.043225   4.963195  -0.004361
    12  C    0.017732  -0.034122  -0.025825   0.009943  -0.004361  10.796377
    13  C    0.001469  -0.004894  -0.004940  -0.006575  -0.012288  -2.531919
    14  C    0.000830  -0.000583  -0.001296  -0.000413  -0.004650   1.029368
    15  O    0.000000   0.000001  -0.000007   0.000001  -0.000029  -0.100821
    16  O    0.000000  -0.000007   0.000087  -0.000002   0.000052   0.071854
    17  H   -0.000740  -0.014004  -0.000378   0.000125   0.000090   0.076179
    18  H   -0.000517   0.000149   0.000232  -0.015584   0.003883  -0.068139
    19  H    0.171500  -0.002524  -0.000186   0.047453   0.003740   0.001723
    20  H   -0.000801  -0.071153   0.431291  -0.000003   0.000007  -0.004191
    21  H    0.000053  -0.035988   0.394406   0.000002  -0.000017   0.006886
    22  H    0.000065  -0.035958   0.398655   0.000001  -0.000011   0.010202
    23  H    0.000071  -0.000001   0.000002  -0.062677   0.419670  -0.000042
    24  H   -0.000279  -0.000002   0.000001  -0.041740   0.407608  -0.001453
    25  H   -0.000310  -0.000001  -0.000010  -0.041781   0.405378  -0.001484
    26  H   -0.000016   0.000113   0.000617   0.000042   0.000136   0.269339
    27  H   -0.000006   0.000004   0.000039   0.000124   0.000687  -0.052883
    28  H   -0.000000   0.000000  -0.000000  -0.000000  -0.000004   0.056113
    29  H   -0.000000  -0.000000   0.000012   0.000000   0.000003  -0.003154
              13         14         15         16         17         18
     1  C   -0.141535  -0.075260   0.000693  -0.003643   0.015598  -0.005257
     2  C   -0.765726   0.082803   0.001628   0.001981  -0.119520  -0.004109
     3  C   -1.662862  -0.711735   0.005887  -0.006143   0.177396   0.103041
     4  C    0.525748  -1.257738   0.021838   0.002968   0.113714   0.226165
     5  C   -0.298933   0.340319  -0.003400  -0.023302   0.029946   0.176813
     6  C   -0.297380   0.122436   0.002011  -0.007528   0.000715  -0.128541
     7  O    0.001469   0.000830   0.000000   0.000000  -0.000740  -0.000517
     8  O   -0.004894  -0.000583   0.000001  -0.000007  -0.014004   0.000149
     9  C   -0.004940  -0.001296  -0.000007   0.000087  -0.000378   0.000232
    10  O   -0.006575  -0.000413   0.000001  -0.000002   0.000125  -0.015584
    11  C   -0.012288  -0.004650  -0.000029   0.000052   0.000090   0.003883
    12  C   -2.531919   1.029368  -0.100821   0.071854   0.076179  -0.068139
    13  C   13.879976  -2.251982   0.238131  -0.132511   0.021985   0.000959
    14  C   -2.251982   7.763191  -0.041911   0.211993  -0.001719   0.007840
    15  O    0.238131  -0.041911   8.196760  -0.101400   0.000002   0.000052
    16  O   -0.132511   0.211993  -0.101400   8.245422  -0.000163   0.000068
    17  H    0.021985  -0.001719   0.000002  -0.000163   0.556997  -0.000125
    18  H    0.000959   0.007840   0.000052   0.000068  -0.000125   0.577228
    19  H    0.000662   0.000033   0.000000  -0.000000   0.000004  -0.000035
    20  H   -0.000179  -0.000003   0.000000  -0.000000   0.000060  -0.000000
    21  H    0.000851  -0.000063  -0.000000  -0.000001  -0.000497   0.000000
    22  H    0.000799   0.000026  -0.000000   0.000002  -0.000514   0.000000
    23  H    0.000030   0.000066   0.000000  -0.000000  -0.000000   0.000068
    24  H    0.000532  -0.000572  -0.000001   0.000000   0.000000  -0.000376
    25  H   -0.000344  -0.000444   0.000001  -0.000000   0.000000  -0.000515
    26  H   -0.183859  -0.065525   0.001031  -0.007404   0.003493  -0.000040
    27  H    0.325080  -0.078442  -0.011536   0.008631  -0.000002   0.000701
    28  H   -0.063550   0.025508   0.210471  -0.003316  -0.000000  -0.000000
    29  H    0.068056  -0.058736  -0.004057   0.204301  -0.000000   0.000000
              19         20         21         22         23         24
     1  C    0.168113   0.089236  -0.046886  -0.051758   0.050739  -0.029854
     2  C    0.281818   0.113712  -0.155148  -0.152814   0.006636  -0.003901
     3  C    0.018850  -0.178696   0.148426   0.162422  -0.004315   0.009895
     4  C    0.001598  -0.026776   0.052968   0.032120  -0.025686   0.043675
     5  C   -0.039919  -0.000339   0.001596   0.001447  -0.093277   0.071281
     6  C   -0.440477   0.014202  -0.011685  -0.009854   0.077246  -0.098282
     7  O    0.171500  -0.000801   0.000053   0.000065   0.000071  -0.000279
     8  O   -0.002524  -0.071153  -0.035988  -0.035958  -0.000001  -0.000002
     9  C   -0.000186   0.431291   0.394406   0.398655   0.000002   0.000001
    10  O    0.047453  -0.000003   0.000002   0.000001  -0.062677  -0.041740
    11  C    0.003740   0.000007  -0.000017  -0.000011   0.419670   0.407608
    12  C    0.001723  -0.004191   0.006886   0.010202  -0.000042  -0.001453
    13  C    0.000662  -0.000179   0.000851   0.000799   0.000030   0.000532
    14  C    0.000033  -0.000003  -0.000063   0.000026   0.000066  -0.000572
    15  O    0.000000   0.000000  -0.000000  -0.000000   0.000000  -0.000001
    16  O   -0.000000  -0.000000  -0.000001   0.000002  -0.000000   0.000000
    17  H    0.000004   0.000060  -0.000497  -0.000514  -0.000000   0.000000
    18  H   -0.000035  -0.000000   0.000000   0.000000   0.000068  -0.000376
    19  H    0.360288  -0.000001   0.000000   0.000000  -0.000088   0.000047
    20  H   -0.000001   0.505703  -0.025026  -0.025075  -0.000000   0.000000
    21  H    0.000000  -0.025026   0.559725  -0.043298   0.000000  -0.000000
    22  H    0.000000  -0.025075  -0.043298   0.559580   0.000000  -0.000000
    23  H   -0.000088  -0.000000   0.000000   0.000000   0.503506  -0.024771
    24  H    0.000047   0.000000  -0.000000  -0.000000  -0.024771   0.548446
    25  H    0.000048   0.000000  -0.000000  -0.000000  -0.024716  -0.040639
    26  H   -0.000000   0.000000  -0.000002  -0.000003   0.000000   0.000000
    27  H   -0.000000   0.000000   0.000000  -0.000000  -0.000000  -0.000004
    28  H    0.000000   0.000000   0.000000  -0.000000  -0.000000  -0.000000
    29  H   -0.000000  -0.000000  -0.000000   0.000000   0.000000   0.000000
              25         26         27         28         29
     1  C   -0.017878   0.016001   0.000687   0.000066  -0.000083
     2  C   -0.005658   0.015141  -0.000410  -0.000043   0.000352
     3  C    0.006142   0.174103   0.037896   0.000142   0.007617
     4  C    0.039009   0.033270   0.119051  -0.003770   0.012882
     5  C    0.046740   0.024887  -0.028006   0.003883  -0.003919
     6  C   -0.072461   0.004858  -0.011712   0.000490  -0.000431
     7  O   -0.000310  -0.000016  -0.000006  -0.000000  -0.000000
     8  O   -0.000001   0.000113   0.000004   0.000000  -0.000000
     9  C   -0.000010   0.000617   0.000039  -0.000000   0.000012
    10  O   -0.041781   0.000042   0.000124  -0.000000   0.000000
    11  C    0.405378   0.000136   0.000687  -0.000004   0.000003
    12  C   -0.001484   0.269339  -0.052883   0.056113  -0.003154
    13  C   -0.000344  -0.183859   0.325080  -0.063550   0.068056
    14  C   -0.000444  -0.065525  -0.078442   0.025508  -0.058736
    15  O    0.000001   0.001031  -0.011536   0.210471  -0.004057
    16  O   -0.000000  -0.007404   0.008631  -0.003316   0.204301
    17  H    0.000000   0.003493  -0.000002  -0.000000  -0.000000
    18  H   -0.000515  -0.000040   0.000701  -0.000000   0.000000
    19  H    0.000048  -0.000000  -0.000000   0.000000  -0.000000
    20  H    0.000000   0.000000   0.000000   0.000000  -0.000000
    21  H   -0.000000  -0.000002   0.000000   0.000000  -0.000000
    22  H   -0.000000  -0.000003  -0.000000  -0.000000   0.000000
    23  H   -0.024716   0.000000  -0.000000  -0.000000   0.000000
    24  H   -0.040639   0.000000  -0.000004  -0.000000   0.000000
    25  H    0.548535   0.000000  -0.000000   0.000000  -0.000000
    26  H    0.000000   0.544803   0.003678   0.000012  -0.000071
    27  H   -0.000000   0.003678   0.530057   0.000073  -0.000193
    28  H    0.000000   0.000012   0.000073   0.383453   0.002990
    29  H   -0.000000  -0.000071  -0.000193   0.002990   0.383499
 Mulliken charges:
               1
     1  C   -0.122026
     2  C    0.639444
     3  C   -0.065440
     4  C   -0.423008
     5  C   -0.212788
     6  C    0.339093
     7  O   -0.464233
     8  O   -0.355975
     9  C   -0.096746
    10  O   -0.449338
    11  C   -0.102282
    12  C    0.149656
    13  C   -0.704803
    14  C    0.966660
    15  O   -0.415344
    16  O   -0.461939
    17  H    0.141360
    18  H    0.126041
    19  H    0.427354
    20  H    0.178035
    21  H    0.153698
    22  H    0.153963
    23  H    0.177538
    24  H    0.160390
    25  H    0.160388
    26  H    0.165398
    27  H    0.156486
    28  H    0.387483
    29  H    0.390934
 Sum of Mulliken charges =   1.00000
 Mulliken charges with hydrogens summed into heavy atoms:
               1
     1  C   -0.122026
     2  C    0.639444
     3  C    0.075919
     4  C   -0.423008
     5  C   -0.086747
     6  C    0.339093
     7  O   -0.036879
     8  O   -0.355975
     9  C    0.388950
    10  O   -0.449338
    11  C    0.396034
    12  C    0.315054
    13  C   -0.548317
    14  C    0.966660
    15  O   -0.027861
    16  O   -0.071005
 Electronic spatial extent (au):  <R**2>=           5045.4878
 Charge=              1.0000 electrons
 Dipole moment (field-independent basis, Debye):
    X=             -9.8962    Y=             -0.0679    Z=              0.0435  Tot=              9.8965
 Quadrupole moment (field-independent basis, Debye-Ang):
   XX=            -11.1735   YY=            -56.9654   ZZ=            -94.2343
   XY=             11.4787   XZ=              0.1285   YZ=             -1.2270
 Traceless Quadrupole moment (field-independent basis, Debye-Ang):
   XX=             42.9509   YY=             -2.8410   ZZ=            -40.1099
   XY=             11.4787   XZ=              0.1285   YZ=             -1.2270
 Octapole moment (field-independent basis, Debye-Ang**2):
  XXX=           -443.4113  YYY=              8.4523  ZZZ=             -0.2788  XYY=             41.8885
  XXY=            -39.7042  XXZ=             -2.7933  XZZ=             -1.3773  YZZ=              0.4745
  YYZ=              1.1681  XYZ=              5.3122
 Hexadecapole moment (field-independent basis, Debye-Ang**3):
 XXXX=          -1397.1296 YYYY=          -1436.3960 ZZZZ=           -111.5706 XXXY=            389.7222
 XXXZ=             24.6804 YYYX=             10.8406 YYYZ=             -4.0183 ZZZX=              0.5881
 ZZZY=             -0.1732 XXYY=           -799.1619 XXZZ=           -733.0238 YYZZ=           -337.7567
 XXYZ=            -30.4099 YYXZ=             -5.7580 ZZXY=              5.6135
 N-N= 1.075621276720D+03 E-N=-4.008355909690D+03  KE= 7.958711591403D+02
 Calling FoFJK, ICntrl=      2127 FMM=F ISym2X=0 I1Cent= 0 IOpClX= 0 NMat=1 NMatS=1 NMatT=0.
 ***** Axes restored to original set *****
 -------------------------------------------------------------------
 Center     Atomic                   Forces (Hartrees/Bohr)
 Number     Number              X              Y              Z
 -------------------------------------------------------------------
      1        6          -0.001093426    0.000838606    0.000009491
      2        6          -0.000766273   -0.002229772   -0.000007660
      3        6           0.002131513   -0.004140233   -0.000026381
      4        6           0.001560723   -0.000127466    0.000015214
      5        6           0.003610411    0.003298675    0.000001944
      6        6           0.000038999    0.002103273    0.000002030
      7        8          -0.005775954   -0.000819680    0.000011960
      8        8          -0.003991463    0.001901140    0.000013334
      9        6           0.000735684   -0.004293868   -0.000021252
     10        8          -0.003972585   -0.000420246    0.000006245
     11        6           0.001938936    0.003769983    0.000015083
     12        6          -0.000029432   -0.002969679   -0.000063217
     13        6          -0.001435403    0.002329873   -0.000084012
     14        6          -0.000657576    0.000619180   -0.000024313
     15        8           0.005097931    0.007179991   -0.001202014
     16        8           0.000094060   -0.008061043    0.001354808
     17        1           0.000171605    0.000013969   -0.000002473
     18        1           0.000176913   -0.000078106    0.000001800
     19        1          -0.000188988    0.001287885    0.000008126
     20        1          -0.000569767   -0.000308134    0.000000112
     21        1           0.000491809   -0.000248392   -0.000473631
     22        1           0.000496566   -0.000253627    0.000466127
     23        1          -0.000445059    0.000446304    0.000004228
     24        1           0.000541155    0.000096691    0.000466028
     25        1           0.000536521    0.000101966   -0.000467417
     26        1          -0.000068201    0.000030127   -0.000001959
     27        1          -0.000121690    0.000406450    0.000042399
     28        1           0.000678789   -0.000611373    0.000408192
     29        1           0.000814201    0.000137505   -0.000452792
 -------------------------------------------------------------------
 Cartesian Forces:  Max     0.008061043 RMS     0.001965565

 GradGradGradGradGradGradGradGradGradGradGradGradGradGradGradGradGradGrad
 Berny optimization.
 FormGI is forming the generalized inverse of G from B-inverse, IUseBI=4.
 Internal  Forces:  Max     0.008738768 RMS     0.002150963
 Search for a local minimum.
 Step number   1 out of a maximum of  135
 All quantities printed in internal units (Hartrees-Bohrs-Radians)
 Mixed Optimization -- RFO/linear search
 Second derivative matrix not updated -- first step.
 ITU=  0
     Eigenvalues ---    0.01365   0.01407   0.01864   0.01899   0.01989
     Eigenvalues ---    0.01989   0.02061   0.02101   0.02121   0.02172
     Eigenvalues ---    0.02193   0.02225   0.02251   0.02280   0.02289
     Eigenvalues ---    0.02322   0.02333   0.02476   0.02549   0.02733
     Eigenvalues ---    0.02739   0.02786   0.10121   0.10176   0.10704
     Eigenvalues ---    0.10716   0.16000   0.16000   0.16000   0.16000
     Eigenvalues ---    0.16000   0.16000   0.16000   0.16000   0.16000
     Eigenvalues ---    0.16000   0.16000   0.16000   0.16000   0.22000
     Eigenvalues ---    0.22000   0.23476   0.23484   0.24999   0.25000
     Eigenvalues ---    0.25000   0.25000   0.25000   0.25000   0.25000
     Eigenvalues ---    0.25000   0.25000   0.34227   0.34227   0.34328
     Eigenvalues ---    0.34329   0.35059   0.35071   0.35107   0.35690
     Eigenvalues ---    0.35828   0.35871   0.39686   0.41287   0.41757
     Eigenvalues ---    0.42232   0.42874   0.43352   0.44395   0.47214
     Eigenvalues ---    0.47717   0.48828   0.49961   0.52762   0.53542
     Eigenvalues ---    0.53595   0.54522   0.57050   0.61621   0.61731
     Eigenvalues ---    0.62611
 RFO step:  Lambda=-1.19998535D-03 EMin= 1.36478162D-02
 Linear search not attempted -- first point.
 Iteration  1 RMS(Cart)=  0.01884040 RMS(Int)=  0.00003381
 Iteration  2 RMS(Cart)=  0.00008659 RMS(Int)=  0.00000084
 Iteration  3 RMS(Cart)=  0.00000000 RMS(Int)=  0.00000084
 Variable       Old X    -DE/DX   Delta X   Delta X   Delta X     New X
                                 (Linear)    (Quad)   (Total)
    R1        2.66725   0.00659   0.00000   0.01520   0.01520   2.68246
    R2        2.67629   0.00667   0.00000   0.01566   0.01566   2.69195
    R3        2.49680   0.00596   0.00000   0.00966   0.00966   2.50646
    R4        2.60841   0.00605   0.00000   0.01230   0.01230   2.62071
    R5        2.53354   0.00427   0.00000   0.00746   0.00746   2.54100
    R6        2.68049   0.00503   0.00000   0.01154   0.01154   2.69203
    R7        2.04570   0.00005   0.00000   0.00014   0.00014   2.04584
    R8        2.67974   0.00497   0.00000   0.01140   0.01139   2.69113
    R9        2.65985   0.00447   0.00000   0.01003   0.01003   2.66988
   R10        2.59341   0.00613   0.00000   0.01212   0.01212   2.60553
   R11        2.04284   0.00005   0.00000   0.00014   0.00014   2.04298
   R12        2.55559   0.00419   0.00000   0.00767   0.00767   2.56326
   R13        1.83876   0.00130   0.00000   0.00245   0.00245   1.84121
   R14        2.68629   0.00524   0.00000   0.01237   0.01237   2.69866
   R15        2.05579   0.00064   0.00000   0.00183   0.00183   2.05762
   R16        2.06949   0.00070   0.00000   0.00205   0.00205   2.07154
   R17        2.06949   0.00070   0.00000   0.00205   0.00205   2.07154
   R18        2.69233   0.00509   0.00000   0.01215   0.01215   2.70448
   R19        2.05560   0.00063   0.00000   0.00179   0.00179   2.05739
   R20        2.06779   0.00069   0.00000   0.00201   0.00201   2.06980
   R21        2.06780   0.00069   0.00000   0.00201   0.00201   2.06980
   R22        2.62242   0.00473   0.00000   0.00989   0.00989   2.63231
   R23        2.05501  -0.00005   0.00000  -0.00013  -0.00013   2.05488
   R24        2.61067   0.00594   0.00000   0.01213   0.01213   2.62280
   R25        2.04352   0.00042   0.00000   0.00117   0.00117   2.04469
   R26        2.48932   0.00874   0.00000   0.01393   0.01393   2.50325
   R27        2.49596   0.00797   0.00000   0.01289   0.01289   2.50886
   R28        1.83151   0.00092   0.00000   0.00171   0.00171   1.83322
   R29        1.83103   0.00084   0.00000   0.00156   0.00156   1.83259
    A1        2.10748  -0.00076   0.00000  -0.00247  -0.00246   2.10501
    A2        2.07725  -0.00025   0.00000  -0.00128  -0.00128   2.07597
    A3        2.09846   0.00101   0.00000   0.00375   0.00374   2.10221
    A4        2.06801   0.00003   0.00000   0.00034   0.00034   2.06835
    A5        2.00910  -0.00011   0.00000  -0.00055  -0.00056   2.00854
    A6        2.20608   0.00008   0.00000   0.00021   0.00021   2.20629
    A7        2.11272   0.00054   0.00000   0.00195   0.00195   2.11467
    A8        2.09679  -0.00010   0.00000   0.00009   0.00009   2.09688
    A9        2.07368  -0.00044   0.00000  -0.00204  -0.00204   2.07164
   A10        2.09278  -0.00033   0.00000  -0.00206  -0.00206   2.09072
   A11        2.05318   0.00037   0.00000   0.00184   0.00184   2.05503
   A12        2.13721  -0.00004   0.00000   0.00022   0.00022   2.13743
   A13        2.07954   0.00067   0.00000   0.00258   0.00258   2.08212
   A14        2.10443  -0.00052   0.00000  -0.00246  -0.00246   2.10197
   A15        2.09922  -0.00015   0.00000  -0.00013  -0.00012   2.09910
   A16        2.10585  -0.00016   0.00000  -0.00035  -0.00035   2.10550
   A17        1.96127   0.00037   0.00000   0.00134   0.00133   1.96260
   A18        2.21607  -0.00021   0.00000  -0.00098  -0.00098   2.21508
   A19        1.90893  -0.00006   0.00000  -0.00037  -0.00037   1.90855
   A20        2.06787   0.00098   0.00000   0.00389   0.00389   2.07176
   A21        1.84447  -0.00006   0.00000  -0.00025  -0.00025   1.84422
   A22        1.93551   0.00015   0.00000   0.00089   0.00089   1.93640
   A23        1.93560   0.00015   0.00000   0.00089   0.00089   1.93649
   A24        1.91144   0.00001   0.00000   0.00017   0.00017   1.91161
   A25        1.91137   0.00001   0.00000   0.00017   0.00017   1.91154
   A26        1.92376  -0.00025   0.00000  -0.00180  -0.00180   1.92196
   A27        2.07514   0.00098   0.00000   0.00388   0.00388   2.07902
   A28        1.84852  -0.00010   0.00000  -0.00051  -0.00051   1.84801
   A29        1.92874   0.00017   0.00000   0.00098   0.00098   1.92972
   A30        1.92867   0.00017   0.00000   0.00098   0.00098   1.92965
   A31        1.91404   0.00001   0.00000   0.00013   0.00013   1.91417
   A32        1.91413   0.00001   0.00000   0.00013   0.00013   1.91426
   A33        1.92816  -0.00024   0.00000  -0.00166  -0.00166   1.92650
   A34        2.22533  -0.00021   0.00000  -0.00094  -0.00094   2.22439
   A35        2.02464   0.00005   0.00000   0.00011   0.00011   2.02475
   A36        2.03322   0.00016   0.00000   0.00083   0.00083   2.03405
   A37        2.11403   0.00252   0.00000   0.01138   0.01138   2.12540
   A38        2.14861  -0.00133   0.00000  -0.00614  -0.00614   2.14247
   A39        2.02055  -0.00118   0.00000  -0.00523  -0.00523   2.01532
   A40        2.07088  -0.00072   0.00000  -0.00288  -0.00288   2.06801
   A41        2.11317  -0.00032   0.00000  -0.00129  -0.00129   2.11188
   A42        2.09910   0.00105   0.00000   0.00416   0.00416   2.10326
   A43        2.01484  -0.00067   0.00000  -0.00418  -0.00418   2.01066
   A44        2.00759  -0.00073   0.00000  -0.00455  -0.00455   2.00304
    D1       -0.00118   0.00000   0.00000   0.00013   0.00013  -0.00106
    D2        3.14033   0.00000   0.00000   0.00008   0.00008   3.14041
    D3        3.14136   0.00000   0.00000   0.00009   0.00009   3.14145
    D4       -0.00031   0.00000   0.00000   0.00004   0.00004  -0.00027
    D5        0.00014  -0.00000   0.00000  -0.00019  -0.00019  -0.00005
    D6       -3.14008  -0.00000   0.00000  -0.00013  -0.00013  -3.14021
    D7        3.14077  -0.00000   0.00000  -0.00016  -0.00016   3.14061
    D8        0.00055  -0.00000   0.00000  -0.00010  -0.00010   0.00045
    D9        3.14068  -0.00000   0.00000  -0.00000  -0.00000   3.14068
   D10        0.00004  -0.00000   0.00000  -0.00003  -0.00003   0.00001
   D11       -0.00049   0.00000   0.00000   0.00008   0.00008  -0.00042
   D12       -3.14156   0.00000   0.00000   0.00005   0.00005  -3.14151
   D13        3.14119   0.00000   0.00000   0.00013   0.00013   3.14132
   D14        0.00011   0.00000   0.00000   0.00011   0.00011   0.00022
   D15        3.13985   0.00001   0.00000   0.00034   0.00034   3.14019
   D16       -0.00183   0.00001   0.00000   0.00029   0.00029  -0.00154
   D17        0.00318  -0.00001   0.00000  -0.00023  -0.00023   0.00296
   D18        3.14027   0.00000   0.00000   0.00023   0.00023   3.14050
   D19       -3.13892  -0.00000   0.00000  -0.00020  -0.00020  -3.13913
   D20       -0.00184   0.00000   0.00000   0.00026   0.00026  -0.00158
   D21       -0.00418   0.00000   0.00000   0.00016   0.00016  -0.00402
   D22        3.13768   0.00000   0.00000   0.00016   0.00016   3.13784
   D23       -3.14104  -0.00001   0.00000  -0.00033  -0.00033  -3.14136
   D24        0.00082  -0.00001   0.00000  -0.00033  -0.00033   0.00049
   D25        3.13531   0.00001   0.00000   0.00028   0.00028   3.13560
   D26       -0.00737   0.00000   0.00000   0.00019   0.00019  -0.00718
   D27       -0.01091   0.00002   0.00000   0.00075   0.00075  -0.01016
   D28        3.12959   0.00001   0.00000   0.00065   0.00065   3.13025
   D29        0.00254   0.00000   0.00000   0.00004   0.00004   0.00258
   D30       -3.14064   0.00000   0.00000  -0.00002  -0.00002  -3.14066
   D31       -3.13932   0.00000   0.00000   0.00005   0.00005  -3.13927
   D32        0.00068  -0.00000   0.00000  -0.00001  -0.00001   0.00067
   D33       -3.13994  -0.00000   0.00000  -0.00015  -0.00015  -3.14010
   D34        0.00313  -0.00000   0.00000  -0.00010  -0.00010   0.00303
   D35       -3.14041  -0.00000   0.00000  -0.00014  -0.00014  -3.14055
   D36       -1.07054   0.00005   0.00000   0.00039   0.00039  -1.07015
   D37        1.07293  -0.00006   0.00000  -0.00067  -0.00067   1.07227
   D38        3.13995   0.00000   0.00000   0.00011   0.00011   3.14006
   D39       -1.07148   0.00004   0.00000   0.00050   0.00050  -1.07099
   D40        1.06811  -0.00004   0.00000  -0.00027  -0.00026   1.06785
   D41        3.12290   0.00000   0.00000   0.00004   0.00004   3.12294
   D42       -0.02113   0.00001   0.00000   0.00037   0.00037  -0.02076
   D43       -0.01760   0.00000   0.00000   0.00014   0.00014  -0.01746
   D44        3.12156   0.00001   0.00000   0.00047   0.00047   3.12202
   D45        3.06091  -0.00003   0.00000  -0.00121  -0.00121   3.05970
   D46       -0.09007  -0.00003   0.00000  -0.00122  -0.00122  -0.09130
   D47       -0.07842  -0.00004   0.00000  -0.00152  -0.00152  -0.07994
   D48        3.05378  -0.00004   0.00000  -0.00152  -0.00152   3.05226
   D49        2.90863  -0.00012   0.00000  -0.00393  -0.00393   2.90470
   D50       -0.22365  -0.00011   0.00000  -0.00390  -0.00390  -0.22754
   D51        2.85558  -0.00013   0.00000  -0.00472  -0.00472   2.85086
   D52       -0.29555  -0.00014   0.00000  -0.00477  -0.00477  -0.30032
         Item               Value     Threshold  Converged?
 Maximum Force            0.008739     0.000450     NO 
 RMS     Force            0.002151     0.000300     NO 
 Maximum Displacement     0.072515     0.001800     NO 
 RMS     Displacement     0.018883     0.001200     NO 
 Predicted change in Energy=-6.016311D-04
 GradGradGradGradGradGradGradGradGradGradGradGradGradGradGradGradGradGrad

                          Input orientation:                          
 ---------------------------------------------------------------------
 Center     Atomic      Atomic             Coordinates (Angstroms)
 Number     Number       Type             X           Y           Z
 ---------------------------------------------------------------------
      1          6           0       -2.403740    0.199138    0.001148
      2          6           0       -1.930360   -1.139078   -0.006227
      3          6           0       -0.560722   -1.356657   -0.010745
      4          6           0        0.358554   -0.268398   -0.008602
      5          6           0       -0.129014    1.069581    0.001946
      6          6           0       -1.489770    1.291794    0.005128
      7          8           0       -3.712045    0.417202    0.005349
      8          8           0       -2.888410   -2.082578   -0.007958
      9          6           0       -2.498184   -3.456266   -0.017026
     10          8           0       -2.119026    2.493389    0.013805
     11          6           0       -1.334528    3.690361    0.016864
     12          6           0        1.738201   -0.572838   -0.012146
     13          6           0        2.803563    0.324548   -0.017563
     14          6           0        4.122626   -0.106787    0.001389
     15          8           0        5.084775    0.798010   -0.100333
     16          8           0        4.419208   -1.394535    0.129226
     17          1           0       -0.170718   -2.366563   -0.016471
     18          1           0        0.559297    1.903230    0.007161
     19          1           0       -3.879366    1.377039    0.011055
     20          1           0       -3.426335   -4.025581   -0.017881
     21          1           0       -1.921695   -3.693971   -0.918599
     22          1           0       -1.916925   -3.704577    0.878607
     23          1           0       -2.047010    4.513559    0.022316
     24          1           0       -0.709018    3.738112    0.914705
     25          1           0       -0.713796    3.745762   -0.883851
     26          1           0        1.993273   -1.629890   -0.009276
     27          1           0        2.665128    1.397454   -0.038562
     28          1           0        5.974517    0.481623    0.121809
     29          1           0        5.327185   -1.628786   -0.118054
 ---------------------------------------------------------------------
                    Distance matrix (angstroms):
                    1          2          3          4          5
     1  C    0.000000
     2  C    1.419495   0.000000
     3  C    2.411919   1.386820   0.000000
     4  C    2.801598   2.448921   1.424563   0.000000
     5  C    2.435580   2.850103   2.464379   1.424086   0.000000
     6  C    1.424518   2.470503   2.806720   2.418820   1.378785
     7  O    1.326361   2.365702   3.616307   4.127956   3.641940
     8  O    2.332641   1.344640   2.438258   3.719412   4.189328
     9  C    3.656669   2.385770   2.856948   4.280598   5.108484
    10  O    2.311885   3.637419   4.153525   3.710307   2.446941
    11  C    3.651314   4.866110   5.106068   4.305688   2.884783
    12  C    4.213288   3.712008   2.428872   1.412842   2.486811
    13  C    5.208846   4.955033   3.760972   2.515897   3.025799
    14  C    6.533532   6.140385   4.847275   3.767553   4.411381
    15  O    7.513109   7.278275   6.043364   4.845906   5.221859
    16  O    7.007768   6.356148   4.982041   4.216170   5.174398
    17  H    3.401400   2.145498   1.082611   2.163905   3.436446
    18  H    3.418121   3.931184   3.446973   2.180944   1.081096
    19  H    1.888126   3.182730   4.299647   4.546187   3.762945
    20  H    4.346759   3.251150   3.915986   5.333094   6.069052
    21  H    4.029218   2.712927   2.852978   4.214520   5.172285
    22  H    4.030622   2.713835   2.853588   4.215717   5.172789
    23  H    4.329196   5.653913   6.055542   5.353019   3.942095
    24  H    4.028772   5.111436   5.180263   4.247862   2.879339
    25  H    4.027117   5.109982   5.178844   4.246113   2.878984
    26  H    4.762266   3.954213   2.568569   2.127432   3.433857
    27  H    5.208739   5.249148   4.241699   2.845390   2.813605
    28  H    8.383885   8.070324   6.790154   5.667325   6.132956
    29  H    7.944981   7.274908   5.895169   5.152663   6.088160
                    6          7          8          9         10
     6  C    0.000000
     7  O    2.388183   0.000000
     8  O    3.652773   2.632005   0.000000
     9  C    4.854015   4.059274   1.428068   0.000000
    10  O    1.356418   2.616933   4.640248   5.961804   0.000000
    11  C    2.403614   4.045528   5.978460   7.240823   1.431149
    12  C    3.727861   5.539465   4.866710   5.124562   4.927537
    13  C    4.400999   6.516307   6.180041   6.511764   5.379288
    14  C    5.784033   7.852175   7.284125   7.419870   6.761604
    15  O    6.593906   8.805693   8.478090   8.695233   7.401492
    16  O    6.492133   8.331568   7.341220   7.219587   7.607745
    17  H    3.888951   4.504534   2.732503   2.569932   5.236025
    18  H    2.138349   4.522460   5.270064   6.170329   2.742580
    19  H    2.391123   0.974329   3.598792   5.026856   2.084477
    20  H    5.659089   4.452021   2.016116   1.088846   6.648837
    21  H    5.088977   4.578294   2.088155   1.096210   6.260331
    22  H    5.090103   4.579749   2.088220   1.096211   6.261271
    23  H    3.269646   4.421852   6.649654   7.982682   2.021471
    24  H    2.724220   4.568758   6.283429   7.471834   2.085444
    25  H    2.722936   4.567219   6.282171   7.470249   2.085400
    26  H    4.546211   6.061473   4.902628   4.848597   5.823484
    27  H    4.156472   6.452222   6.553880   7.086526   4.908355
    28  H    7.509033   9.687476   9.227320   9.344137   8.340521
    29  H    7.417267   9.268710   8.228855   8.036560   8.512096
                   11         12         13         14         15
    11  C    0.000000
    12  C    5.255223   0.000000
    13  C    5.334199   1.392957   0.000000
    14  C    6.648240   2.429582   1.387925   0.000000
    15  O    7.041795   3.617535   2.331297   1.324664   0.000000
    16  O    7.679471   2.807663   2.363705   1.327629   2.302809
    17  H    6.167811   2.619435   4.011038   4.851774   6.135289
    18  H    2.603940   2.742462   2.744008   4.091151   4.659723
    19  H    3.439141   5.946395   6.765360   8.138409   8.983513
    20  H    7.994537   6.212399   7.598372   8.505535   9.783293
    21  H    7.466473   4.894688   6.268049   7.088589   8.362900
    22  H    7.467724   4.895016   6.270565   7.084475   8.381851
    23  H    1.088723   6.340383   6.409171   7.707947   8.042557
    24  H    1.095290   5.043037   4.985957   6.241969   6.575906
    25  H    1.095292   5.042069   4.982667   6.246340   6.551837
    26  H    6.275350   1.087396   2.115767   2.618034   3.931969
    27  H    4.610612   2.177600   1.082003   2.094907   2.493560
    28  H    7.983053   4.367631   3.177899   1.946850   0.970096
    29  H    8.525840   3.742600   3.192849   1.944663   2.438938
                   16         17         18         19         20
    16  O    0.000000
    17  H    4.693984   0.000000
    18  H    5.078294   4.331814   0.000000
    19  H    8.749967   5.269666   4.469745   0.000000
    20  H    8.276267   3.653954   7.143996   5.421658   0.000000
    21  H    6.825863   2.375241   6.192012   5.514696   1.784712
    22  H    6.785606   2.375013   6.191817   5.516035   1.784671
    23  H    8.759509   7.131484   3.688752   3.632549   8.649918
    24  H    7.297928   6.198702   2.408122   4.054917   8.278191
    25  H    7.334624   6.197403   2.410310   4.053707   8.276566
    26  H    2.441257   2.285956   3.813069   6.597721   5.925500
    27  H    3.301538   4.712784   2.166201   6.544714   8.155713
    28  H    2.437008   6.774599   5.599885   9.895102  10.426428
    29  H    0.969765   5.548115   5.934945   9.685672   9.076275
                   21         22         23         24         25
    21  H    0.000000
    22  H    1.797244   0.000000
    23  H    8.262238   8.263651   0.000000
    24  H    7.750319   7.540157   1.785470   0.000000
    25  H    7.537231   7.749925   1.785528   1.798579   0.000000
    26  H    4.518216   4.514677   7.353017   6.080425   6.082001
    27  H    6.909126   6.918608   5.649608   4.215716   4.200738
    28  H    8.992675   8.965036   8.978380   7.476834   7.509959
    29  H    7.579719   7.601275   9.598275   8.142846   8.121925
                   26         27         28         29
    26  H    0.000000
    27  H    3.101139   0.000000
    28  H    4.508434   3.437516   0.000000
    29  H    3.335687   4.031252   2.220450   0.000000
 Stoichiometry    C11H13O5(1+)
 Framework group  C1[X(C11H13O5)]
 Deg. of freedom    81
 Full point group                 C1      NOp   1
 Largest Abelian subgroup         C1      NOp   1
 Largest concise Abelian subgroup C1      NOp   1
                         Standard orientation:                         
 ---------------------------------------------------------------------
 Center     Atomic      Atomic             Coordinates (Angstroms)
 Number     Number       Type             X           Y           Z
 ---------------------------------------------------------------------
      1          6           0        2.403657    0.207015   -0.001159
      2          6           0        1.934719   -1.132764    0.006216
      3          6           0        0.565811   -1.354886    0.010734
      4          6           0       -0.357070   -0.269683    0.008591
      5          6           0        0.126056    1.069907   -0.001957
      6          6           0        1.486068    1.296633   -0.005140
      7          8           0        3.711232    0.429418   -0.005360
      8          8           0        2.895895   -2.073080    0.007947
      9          6           0        2.510227   -3.448055    0.017015
     10          8           0        2.111333    2.500309   -0.013816
     11          6           0        1.322869    3.694671   -0.016875
     12          6           0       -1.735700   -0.578698    0.012135
     13          6           0       -2.804033    0.315149    0.017552
     14          6           0       -4.121658   -0.120559   -0.001400
     15          8           0       -5.086803    0.781041    0.100321
     16          8           0       -4.413966   -1.409284   -0.129237
     17          1           0        0.179159   -2.366080    0.016459
     18          1           0       -0.565017    1.901268   -0.007172
     19          1           0        3.875367    1.389805   -0.011066
     20          1           0        3.440262   -4.014289    0.017869
     21          1           0        1.934531   -3.687672    0.918588
     22          1           0        1.929796   -3.698294   -0.878619
     23          1           0        2.032617    4.520229   -0.022327
     24          1           0        0.697204    3.740347   -0.914716
     25          1           0        0.701957    3.748013    0.883840
     26          1           0       -1.987264   -1.636590    0.009264
     27          1           0       -2.669159    1.388508    0.038551
     28          1           0       -5.975490    0.461704   -0.121820
     29          1           0       -5.321161   -1.646547    0.118043
 ---------------------------------------------------------------------
 Rotational constants (GHZ):      0.7088873      0.2734661      0.1979168
 Standard basis: 6-31+G(d,p) (6D, 7F)
 There are   369 symmetry adapted cartesian basis functions of A   symmetry.
 There are   369 symmetry adapted basis functions of A   symmetry.
   369 basis functions,   603 primitive gaussians,   369 cartesian basis functions
    59 alpha electrons       59 beta electrons
       nuclear repulsion energy      1070.8277531198 Hartrees.
 NAtoms=   29 NActive=   29 NUniq=   29 SFac= 1.00D+00 NAtFMM=   60 NAOKFM=F Big=F
 Integral buffers will be    131072 words long.
 Raffenetti 2 integral format.
 Two-electron integral symmetry is turned on.
 Nuclear repulsion after empirical dispersion term =     1070.7764413886 Hartrees.
 One-electron integrals computed using PRISM.
 NBasis=   369 RedAO= T EigKep=  1.46D-06  NBF=   369
 NBsUse=   367 1.00D-06 EigRej=  7.94D-07 NBFU=   367
 Initial guess from the checkpoint file:  "lw+b3lypSAYang.chk"
 B after Tr=    -0.000000    0.000000    0.000000
         Rot=    0.999999   -0.000022    0.000003   -0.001544 Ang=  -0.18 deg.
 ExpMin= 4.38D-02 ExpMax= 5.48D+03 ExpMxC= 8.25D+02 IAcc=2 IRadAn=         4 AccDes= 0.00D+00
 Harris functional with IExCor=  402 and IRadAn=       4 diagonalized for initial guess.
 HarFok:  IExCor=  402 AccDes= 0.00D+00 IRadAn=         4 IDoV= 1 UseB2=F ITyADJ=14
 ICtDFT=  3500011 ScaDFX=  1.000000  1.000000  1.000000  1.000000
 FoFCou: FMM=F IPFlag=           0 FMFlag=      100000 FMFlg1=           0
         NFxFlg=           0 DoJE=T BraDBF=F KetDBF=T FulRan=T
         wScrn=  0.000000 ICntrl=     500 IOpCl=  0 I1Cent=   200000004 NGrid=           0
         NMat0=    1 NMatS0=      1 NMatT0=    0 NMatD0=    1 NMtDS0=    0 NMtDT0=    0
 Petite list used in FoFCou.
 Requested convergence on RMS density matrix=1.00D-08 within 128 cycles.
 Requested convergence on MAX density matrix=1.00D-06.
 Requested convergence on             energy=1.00D-06.
[...]
 0254,-0.00001272,-0.00002761,0.00000279,0.00007537,0.00000212,0.000001
 96,-0.00002922,-0.00000455,0.00000110,-0.00003551,0.00003041,-0.000006
 18,0.00002989,0.00002320,0.00000004,0.00052115,0.00037331,0.00000230,-
 0.00003604,-0.00018286,-0.00000034,0.00000602,-0.00001068,0.,-0.000003
 12,-0.00000203,-0.00000106,-0.00000313,-0.00000201,0.00000107,0.188780
 25,0.00127059,-0.00130496,-0.00001112,-0.00036059,0.00007979,-0.000000
 57,-0.00002744,-0.00000656,0.00000103,0.00049806,-0.00000705,-0.000003
 74,-0.00081443,0.00014446,-0.00000147,-0.00430688,-0.00156124,0.000011
 08,-0.00020867,0.00021733,0.00000289,-0.00001595,-0.00029331,-0.000001
 13,-0.00004992,0.00006136,0.00000062,0.01391074,-0.03494883,-0.0002081
 0,0.13708190,-0.19728978,-0.00100461,-0.00032714,-0.00015349,0.0000023
 3,0.00026998,0.00001300,0.00000345,-0.00030970,0.00009232,0.00000129,0
 .00017236,0.00008855,-0.00002356,0.00006605,-0.00011350,0.00001989,0.0
 0002269,0.00001181,0.00000013,0.00021406,0.00022340,0.00000375,0.00010
 120,-0.00022813,-0.00000247,0.00000305,-0.00001931,-0.00000006,0.00000
 919,-0.00000728,0.00000018,0.00000922,-0.00000728,-0.00000030,-0.14611
 692,0.22786756,0.00000472,-0.00000458,0.00029932,0.00000066,-0.0000003
 2,-0.00004495,-0.00000196,-0.00000019,-0.00000067,0.00000293,0.0000013
 3,0.00013998,-0.00000217,-0.00000112,0.00024243,-0.00001580,-0.0000043
 5,0.00052692,-0.00000174,0.00000122,-0.00011980,-0.00000041,-0.0000010
 0,-0.00002542,-0.00000007,0.00000020,-0.00000371,0.00003319,-0.0001010
 7,0.00006233,0.00096108,-0.00104410,-0.05144329,-0.00000143,-0.0000015
 7,0.00003500,0.00000010,0.00000113,0.00001220,-0.00000049,0.00000077,0
 .00000190,0.00000047,0.00000080,0.00000177,-0.00000003,-0.00000054,-0.
 00000219,0.00000009,0.00000007,-0.00002154,0.00000083,0.00000114,-0.00
 047390,0.00000097,-0.00000219,0.00019030,0.00000012,-0.00000009,0.0000
 0319,0.00000236,-0.00000083,-0.00000038,-0.00000225,0.00000074,-0.0000
 0055,-0.00102206,0.00119341,0.04698186,-0.00022867,-0.00068592,0.00005
 762,0.00003555,0.00025442,0.00004945,0.00007281,-0.00026261,-0.0000052
 6,0.00023037,0.00015104,-0.00030274,0.00018999,-0.00056938,0.00030854,
 -0.00061458,0.00373431,0.00042512,0.00005898,-0.00030559,0.00013140,-0
 .00005696,-0.00021164,-0.00000373,-0.00002312,0.00009134,-0.00001545,-
 0.01598045,-0.01407727,-0.01364409,-0.12979703,0.00100523,-0.11844140,
 -0.00032815,-0.00020961,0.00003542,0.00035810,0.00003449,-0.00001078,-
 0.00047540,0.00013180,-0.00001447,0.00025614,0.00011963,-0.00003344,0.
 00012732,-0.00019443,0.00003939,0.00001463,0.00000075,0.00001697,0.000
 07789,0.00054064,0.00045122,0.00056195,0.00043348,-0.00027567,-0.00000
 537,-0.00000926,-0.00000222,0.00001177,-0.00001222,0.00000617,0.000012
 94,-0.00000868,-0.00000487,-0.00939011,-0.00044457,-0.01784958,0.14287
 661,-0.00118939,-0.00107472,0.00064591,-0.00041139,0.00036700,0.000120
 07,0.00029067,0.00020209,0.00005368,0.00044654,-0.00036487,0.00036830,
 0.00092796,0.00058373,0.00019232,-0.00334557,0.00586664,-0.00188278,0.
 00065502,-0.00064711,0.00003871,-0.00001565,-0.00012770,-0.00003182,-0
 .00000135,0.00003026,-0.00003878,-0.02552267,-0.01620863,-0.02528385,0
 .00486577,-0.04999652,0.00353823,-0.00033372,-0.00018056,-0.00000851,0
 .00020091,0.00002095,0.00002274,-0.00021162,0.00010458,-0.00000215,0.0
 0012627,0.00006451,-0.00002458,0.00003810,-0.00009983,0.00001905,0.000
 02182,0.00000745,-0.00003257,0.00049317,-0.00111830,-0.00121660,0.0006
 1120,0.00049073,-0.00024427,0.00000134,-0.00000355,-0.00000054,0.00000
 239,-0.00002072,0.00000059,0.00000192,-0.00000471,0.00000497,0.0117619
 4,0.00346914,0.02024045,0.00887146,0.05697828,-0.00011100,-0.00052229,
 -0.00024229,-0.00022971,0.00007678,-0.00002705,0.00009962,0.00005166,-
 0.00003706,0.00049860,0.00016873,-0.00010455,-0.00104703,-0.00041934,-
 0.00007614,-0.00041244,0.00132629,0.00063174,0.00026860,0.00006464,0.0
 0003629,0.00011593,0.00007956,0.00001384,0.00001049,-0.00003381,0.0000
 0089,0.00083421,-0.00457783,0.00698333,-0.12128902,-0.00161013,-0.2356
 5168,-0.00013490,-0.00013014,0.00002161,0.00006280,-0.00004856,-0.0000
 0240,-0.00001283,-0.00001087,0.00000718,0.00002874,0.00004458,0.000004
 28,-0.00003106,0.00003388,-0.00000105,0.00003861,0.00003878,-0.0000001
 8,0.00065388,-0.00009886,-0.00005707,0.00004853,0.00010016,-0.00000763
 ,0.00000240,0.00000054,-0.00000034,-0.00000700,0.00000324,-0.00000110,
 -0.00000758,-0.00000208,0.00000150,0.00192552,0.00043126,0.00197275,0.
 13391538,0.00420635,0.24561603,-0.00022613,-0.00068071,-0.00006853,0.0
 0003481,0.00025582,-0.00004419,0.00007510,-0.00026396,-0.00000214,0.00
 022478,0.00014492,0.00030775,0.00018969,-0.00056680,-0.00031479,-0.000
 60430,0.00373183,-0.00038135,0.00005561,-0.00030351,-0.00013545,-0.000
 05675,-0.00021157,0.00000284,-0.00002316,0.00009094,0.00001628,-0.0159
 2443,-0.01417722,0.01363126,-0.12862879,-0.00008160,0.11792600,-0.0003
 2602,-0.00020783,-0.00004074,0.00035679,0.00003681,0.00001524,-0.00047
 270,0.00012909,0.00000916,0.00025693,0.00012061,-0.00003245,0.00012508
 ,-0.00019171,0.00003009,0.00001447,0.00000056,-0.00001703,0.00007846,0
 .00053956,-0.00044708,0.00056262,0.00042990,0.00027828,-0.00000544,-0.
 00000926,0.00000214,0.00001296,-0.00000862,0.00000466,0.00001177,-0.00
 001209,-0.00000628,-0.00930488,-0.00061486,0.01789055,0.01210785,0.001
 73577,-0.01527394,0.14156009,-0.00119680,-0.00107026,-0.00065430,-0.00
 041443,0.00037099,-0.00011199,0.00029271,0.00020464,-0.00004870,0.0004
 5093,-0.00036579,-0.00037511,0.00091732,0.00058695,-0.00018245,-0.0033
 3215,0.00587408,0.00195278,0.00065887,-0.00064654,-0.00004763,-0.00001
 589,-0.00012796,0.00003096,-0.00000108,0.00002995,0.00003902,-0.025393
 15,-0.01649313,0.02518153,0.00373628,-0.05000802,-0.00183821,-0.000339
 39,-0.00018413,0.00000622,0.00020098,0.00002323,-0.00001262,-0.0002117
 4,0.00010244,0.00000540,0.00012454,0.00006406,-0.00001736,0.00003940,-
 0.00009832,0.00001025,0.00002220,0.00000774,0.00003223,0.00048835,-0.0
 0113055,0.00120336,0.00061197,0.00048889,0.00024660,0.00000129,-0.0000
 0358,0.00000044,0.00000181,-0.00000482,-0.00000523,0.00000236,-0.00002
 073,-0.00000066,0.01167399,0.00366103,-0.02027830,0.00160193,0.0016318
 3,0.00084464,0.01009453,0.05707726,0.00009925,0.00051914,-0.00024937,0
 .00022888,-0.00007522,-0.00003176,-0.00010022,-0.00004687,-0.00003824,
 -0.00049203,-0.00017206,-0.00009880,0.00105058,0.00043139,-0.00009009,
 0.00037944,-0.00129277,0.00064859,-0.00026250,-0.00006943,0.00003738,-
 0.00011635,-0.00007982,0.00001436,-0.00001061,0.00003372,0.00000220,-0
 .00095556,0.00441752,0.00719146,0.12081269,0.00333574,-0.23684080,0.00
 013303,0.00012875,0.00002451,-0.00006580,0.00005031,-0.00000968,0.0000
 1526,0.00001612,-0.00001109,-0.00003355,-0.00004103,0.00001586,0.00003
 504,-0.00003575,0.00000349,-0.00003823,-0.00003851,-0.00000019,-0.0006
 4425,0.00008418,-0.00004664,-0.00004521,-0.00009828,-0.00000696,-0.000
 00215,-0.00000054,-0.00000035,0.00000773,0.00000221,0.00000168,0.00000
 691,-0.00000332,-0.00000150,-0.00176701,-0.00041176,0.00170976,0.01513
 734,-0.00066131,-0.01902937,-0.13331882,-0.00600490,0.24684678,-0.0000
 4674,0.00028271,-0.00000478,0.00023716,-0.00056545,-0.00001891,0.00013
 416,0.00216568,0.00005623,-0.00549700,0.03030748,-0.00009602,-0.005281
 65,-0.00090159,-0.00004845,0.00037113,0.00160426,0.00000733,0.00012939
 ,-0.00021857,0.00000530,0.00004924,-0.00004711,-0.00000307,-0.00005196
 ,0.00009037,0.00000251,-0.00058111,0.00000768,0.00001307,-0.00004441,-
 0.00010689,0.00000007,-0.07342320,0.06283265,-0.00000687,0.00810199,-0
 .02540306,0.00018407,0.00095513,-0.00347081,0.00010187,0.00029274,0.00
 065498,-0.00005523,-0.00240703,0.00135895,-0.00056296,-0.00097628,-0.0
 0099647,-0.00000290,0.00012716,-0.00003376,-0.00000249,0.00005536,0.00
 007534,0.00000145,0.00003071,-0.00002392,-0.00000007,-0.00000671,-0.00
 000370,-0.00005223,-0.00000651,-0.00000724,0.00005210,0.00000342,0.000
 00657,0.00000021,0.00000645,-0.00000530,-0.00000413,0.00000669,-0.0000
 0483,0.00000337,0.08132325,0.00026835,-0.00006188,0.00001485,-0.000205
 76,0.00057364,-0.00000151,-0.00219245,0.00137183,-0.00006643,0.0006196
 8,-0.00500822,0.00008984,0.00065772,0.00101254,0.00010950,-0.00045210,
 -0.00053876,-0.00002464,-0.00018322,0.00011554,-0.00000091,-0.00001614
 ,-0.00014582,0.00000612,0.00000421,0.00004734,-0.00000168,0.00012817,0
 .00014351,-0.00001212,-0.00002915,-0.00002937,0.00000187,0.06304085,-0
 .32299994,0.00035888,0.00455426,-0.01817145,0.00022600,0.00097722,-0.0
 0206614,0.00021327,-0.00019716,0.00024306,-0.00002705,0.00124735,0.001
 44845,-0.00015064,0.00008819,0.00058926,0.00000626,-0.00010510,0.00008
 276,0.00000352,-0.00001546,-0.00004916,-0.00000034,0.00000307,-0.00000
 603,0.00000027,-0.00000138,-0.00000783,-0.00001418,-0.00000227,-0.0000
 0848,0.00001433,0.00000907,0.00000523,-0.00000034,-0.00000359,0.000011
 04,0.00001777,-0.00000411,0.00001239,-0.00001791,-0.06584280,0.3429664
 9,-0.00003028,-0.00001399,0.00051166,0.00000019,-0.00001645,0.00039915
 ,-0.00003087,-0.00000961,-0.00392004,0.00021271,-0.00016906,0.00687194
 ,0.00001539,-0.00000065,0.00572349,0.00004217,0.00001929,0.00008822,0.
 00003109,-0.00000804,-0.00016235,0.00000686,0.00001168,0.00020763,0.00
 000264,-0.00000674,0.00002741,0.00000135,-0.00001283,-0.00095923,0.000
 00487,0.00000498,0.00010040,-0.00034067,0.00045230,-0.04579999,0.00054
 741,0.00011769,0.00701713,-0.00017147,0.00038231,-0.00425360,0.0003492
 0,-0.00011329,0.00000734,-0.00079750,-0.00048772,0.00042461,-0.0000083
 8,-0.00000164,0.00029303,-0.00000193,0.00000660,-0.00001447,-0.0000021
 2,0.00000517,-0.00003571,0.00000053,0.00000019,-0.00000989,0.00000547,
 -0.00002110,-0.00002344,-0.00000805,0.00002165,-0.00002252,0.00000016,
 -0.00000071,-0.00001339,0.00001154,-0.00001366,0.00000310,-0.00001273,
 0.00001328,0.00000256,0.00013458,-0.00069818,0.02691863,0.00026425,-0.
 00030896,0.00001349,-0.00050229,0.00048455,-0.00000168,0.00059790,0.00
 031111,-0.00001815,-0.00017634,0.00105651,0.00007652,-0.00075469,-0.00
 105560,-0.00002885,-0.00016264,0.00037392,0.00001974,-0.00015707,0.000
 16620,-0.00000996,0.00014429,0.00014224,0.00000090,0.00003793,-0.00009
 592,-0.00000054,0.00012371,-0.00005860,-0.00000102,-0.00003495,-0.0000
 6029,0.00000111,0.01068986,-0.02505971,0.00043912,-0.06323894,0.035854
 68,-0.00107851,-0.00071637,0.03166239,-0.00102633,0.00031310,-0.000170
 24,0.00006473,-0.00639728,0.00139506,0.00100718,0.00012441,0.00015095,
 -0.00000165,-0.00234540,0.00097109,0.00007745,-0.00006042,-0.00006288,
 0.00000096,-0.00000072,0.00000612,0.00000020,-0.00001005,-0.00000078,0
 .00000970,-0.00001015,-0.00000035,-0.00000961,0.00003805,0.00001273,-0
 .00000093,-0.00001412,0.00002190,0.00005215,-0.00001602,0.00002633,-0.
 00005361,-0.00359516,-0.00248009,-0.00008915,0.06574421,0.00009649,-0.
 00018239,-0.00000579,-0.00013970,0.00007555,-0.00000659,0.00000891,-0.
 00004774,-0.00000594,0.00128319,-0.00010640,-0.00008715,0.00063946,-0.
 00005674,-0.00001072,-0.00012900,0.00055432,-0.00000769,0.00006649,0.0
 0004514,0.00000701,0.00001556,0.00005676,0.00000101,0.00001802,-0.0000
 3864,0.00000067,-0.00002831,-0.00020295,-0.00000076,0.00006108,0.00011
 212,-0.00000192,0.00203181,-0.01517430,0.00026702,0.04292784,-0.344006
 48,0.00616738,-0.00049539,-0.00862000,0.00042485,-0.00157309,0.0005555
 9,-0.00018532,0.00071586,0.00143903,-0.00051757,0.00002824,0.00010212,
 0.00000243,0.00102426,0.00093347,0.00000773,-0.00001690,0.00000979,-0.
 00000101,-0.00000179,0.00000384,0.,-0.00000233,-0.00000019,0.00000720,
 -0.00000219,0.00000017,-0.00000734,-0.00000215,-0.00000748,0.00000064,
 0.00000401,0.00000262,-0.00002510,0.00000443,0.00000180,0.00002710,-0.
 00215671,-0.00001318,0.00013941,-0.04428783,0.36437030,-0.00006779,0.0
 0002629,-0.00030564,0.00004898,-0.00006032,-0.00008027,-0.00010196,-0.
 00005132,-0.00005188,0.00021825,-0.00007439,-0.00325984,-0.00003168,0.
 00009173,-0.00029911,0.00003039,0.00001533,-0.00040413,0.00004060,-0.0
 0001882,0.00023141,0.00000062,0.00001610,0.00003611,0.00000088,-0.0000
 0597,0.00002469,-0.00000303,-0.00002177,0.00004945,0.00000806,0.000009
 33,0.00019372,-0.00046734,-0.00006320,0.00235979,-0.00033896,0.0060166
 9,-0.03210276,-0.00070481,0.00100427,-0.00002797,0.00058706,0.00003482
 ,-0.00242207,-0.00030221,-0.00098716,0.00489561,-0.00000117,-0.0000002
 6,0.00011743,0.00007093,-0.00003217,0.00116678,-0.00000008,0.00000822,
 0.00001156,-0.00000009,0.00000076,-0.00000091,0.00000167,0.00000189,-0
 .00000403,-0.00000195,0.00000092,-0.00000534,-0.00000115,-0.00000126,-
 0.00003002,0.00001988,-0.00001383,-0.00004296,-0.00001853,0.00001127,-
 0.00003581,0.00009568,-0.00011190,0.00653582,0.00132138,-0.00660780,0.
 02273365,-0.00160877,0.00025513,0.00000586,0.00018254,-0.00143207,-0.0
 0001939,-0.00096645,-0.00047251,-0.00009544,0.00210125,-0.00079525,0.0
 0002788,-0.00056653,0.00079662,0.00002993,0.00065366,0.00124273,0.0000
 2206,0.00140443,-0.00044092,-0.00000960,0.00035797,0.00074982,0.000021
 31,0.00006634,-0.00034675,-0.00000579,0.00010073,-0.00086032,-0.000004
 79,0.00019391,0.00034400,-0.00000572,-0.00411339,-0.00044979,0.0006808
 9,0.00452033,-0.00396108,-0.00075895,-0.03755593,0.01353865,-0.0069494
 1,-0.40548107,0.11861261,-0.11387828,0.00556120,0.00386368,0.00067652,
 -0.00004164,0.00001481,-0.00000648,-0.00004793,0.00000956,-0.00001209,
 -0.00009977,0.00025686,0.00000135,0.00001494,0.00002539,0.00000058,-0.
 00003340,0.00003976,-0.00000093,-0.00003457,0.00003812,0.00000205,0.00
 001049,-0.00002813,0.00000058,-0.00004700,-0.00002031,0.00000417,-0.00
 004806,-0.00001973,-0.00000117,-0.00011234,-0.00006683,-0.00007569,0.0
 0039642,-0.00002451,-0.00023872,0.43370435,0.00017713,-0.00003529,-0.0
 0001458,-0.00004461,0.00018562,0.00001914,0.00011644,0.00011118,-0.000
 06749,-0.00039380,-0.00013408,-0.00031265,0.00016029,-0.00017332,0.000
 01695,-0.00014915,-0.00009116,0.00001276,-0.00014249,0.00003905,0.0000
 0023,-0.00003859,-0.00012274,0.00001600,-0.00002615,0.00007266,-0.0000
 0187,0.00001081,-0.00000048,0.00000428,0.00000418,0.00000352,0.0000097
 8,-0.00023569,0.00102926,0.00076377,-0.00233273,-0.00324152,0.00120492
 ,-0.03564945,0.00905399,-0.01017523,0.16649121,-0.09337325,0.05826284,
 0.00184728,0.00055014,0.00100088,-0.00001298,-0.00001688,-0.00000830,-
 0.00001092,0.00002386,0.00000276,0.00000481,-0.00002151,0.00000271,0.0
 0000034,-0.00000536,0.00000057,0.00000344,-0.00000535,-0.00000832,0.00
 000259,-0.00000716,0.00000763,0.00000394,0.00000178,-0.00000051,-0.000
 00010,0.00000578,-0.00000161,-0.00000082,0.00000564,-0.00000240,-0.000
 03347,-0.00000778,0.00010290,-0.00015151,0.00024485,-0.00006194,-0.128
 49540,0.08930872,0.00058165,-0.00009782,-0.00000609,-0.00012331,0.0005
 3640,0.00007132,0.00041654,0.00019037,-0.00036004,-0.00082580,0.000277
 31,-0.00057498,0.00029288,-0.00034581,0.00011292,-0.00028796,-0.000419
 97,0.00001426,-0.00048682,0.00015153,-0.00001885,-0.00010373,-0.000267
 40,0.00004671,-0.00002886,0.00012639,0.00001474,-0.00000994,0.00025526
 ,-0.00000419,-0.00005911,-0.00010437,0.00003143,0.00216234,0.00058018,
 0.00248651,-0.00072865,0.00101975,0.00287056,0.00985044,-0.00096381,-0
 .00330252,-0.13164430,0.04891602,-0.04235835,0.00027378,0.00088509,-0.
 00312079,0.00000298,-0.00001413,-0.00002056,0.00000518,0.00001964,-0.0
 0001276,0.00002811,-0.00009048,0.00001252,-0.00000323,-0.00001024,0.00
 000211,0.00001270,-0.00001467,-0.00000769,0.00000692,-0.00001400,0.000
 00004,-0.00000014,0.00000940,0.00000074,0.00001203,0.00000921,-0.00000
 246,0.00001292,0.00000846,-0.00000765,-0.00006489,-0.00000970,0.000107
 99,-0.00003253,0.00007489,-0.00090947,0.12113595,-0.04908018,0.0429977
 0,-0.00133100,0.00026014,0.00001955,0.00016431,-0.00119599,-0.00002211
 ,-0.00073245,-0.00044061,0.00001420,0.00179991,-0.00024880,-0.00008080
 ,-0.00054570,0.00067836,-0.00011321,0.00053350,0.00100334,0.00002402,0
 .00116976,-0.00036850,-0.00000910,0.00031086,0.00063923,-0.00000583,0.
 00005872,-0.00030113,0.00001011,0.00006814,-0.00068465,0.00000367,0.00
 015615,0.00027640,0.00000228,-0.00277295,-0.00145461,0.00019895,0.0067
 5885,0.00103834,0.00145893,-0.01320437,0.00334291,-0.00008032,0.001306
 77,-0.00451097,0.00001964,-0.43222371,0.11519433,0.13823027,-0.0000324
 3,0.00001460,0.00001158,-0.00004018,-0.00001484,-0.00000345,-0.0000812
 2,0.00021191,0.00000370,0.00001335,0.00002217,-0.00000081,-0.00002993,
 0.00003164,-0.00000266,-0.00002979,0.00003269,-0.00000049,0.00000591,-
 0.00002321,0.00000006,-0.00003840,-0.00001718,0.00000100,-0.00003702,-
 0.00001659,-0.00000243,0.00020613,0.00019948,0.00020269,-0.00028155,-0
 .00006574,-0.00016489,0.00148829,-0.00110458,-0.00039513,0.43734003,0.
 00076231,-0.00010576,-0.00006091,0.00000898,0.00068034,0.00002480,0.00
 033211,0.00027417,0.00004251,-0.00079574,0.00042850,-0.00033370,0.0001
 6207,-0.00038183,0.00006237,-0.00032594,-0.00048640,0.00001233,-0.0006
 5678,0.00019204,0.00002457,-0.00022559,-0.00048590,-0.00000379,-0.0000
 6731,0.00025354,0.00000459,-0.00007831,0.00033933,0.00000336,-0.000055
 67,-0.00012475,0.00000081,0.00041871,0.00039256,-0.00023093,-0.0035631
 7,-0.00548095,0.00068921,0.05009824,-0.01659987,-0.01320094,-0.0025045
 5,0.00458327,0.00121543,0.06958989,-0.05856522,-0.01775280,0.00002905,
 0.00001368,0.00001378,0.00002669,0.00001894,0.00003263,0.00005552,-0.0
 0010608,-0.00000160,-0.00000968,-0.00001566,-0.00000063,0.00002100,-0.
 00001859,-0.00001102,0.00002111,-0.00001841,0.00000723,-0.00000294,0.0
 0001143,-0.00000082,0.00002034,0.00001061,-0.00000823,0.00001990,0.000
 01088,0.00000571,0.00043503,0.00049095,0.00029621,0.00115697,-0.000050
 96,0.00087449,-0.00237414,-0.00340016,-0.00162736,-0.11249812,0.078140
 27,-0.00053942,0.00014019,-0.00000485,0.00010918,-0.00053379,-0.000021
 12,-0.00036223,-0.00019258,-0.00009705,0.00081674,-0.00009367,0.000127
 65,-0.00028162,0.00035041,0.00013354,0.00022186,0.00040758,-0.00009986
 ,0.00047552,-0.00015872,0.00002213,0.00010854,0.00025420,-0.00001574,0
 .00002503,-0.00011725,0.00004131,0.00000377,-0.00026891,-0.00003507,0.
 00007307,0.00011669,0.00003891,-0.00155906,-0.00087906,-0.00062091,0.0
 0221097,0.00273905,0.00199299,-0.00993677,0.00585267,-0.00270004,0.000
 09692,0.00088292,-0.00293511,0.14894792,-0.03722856,-0.05024056,-0.000
 00600,0.00001051,0.00004079,-0.00000356,-0.00003197,0.00010047,-0.0000
 2491,0.00009005,0.00000616,0.00000431,0.00000887,-0.00000044,-0.000008
 37,0.00001449,-0.00000528,-0.00001273,0.00001297,-0.00000948,0.0000008
 0,-0.00000987,-0.00000065,-0.00001377,-0.00000534,-0.00000922,-0.00001
 313,-0.00000896,-0.00000030,0.00026516,0.00007507,-0.00002548,-0.00073
 213,0.00034335,0.00162620,-0.00054666,-0.00169304,0.00193685,-0.139319
 44,0.02992269,0.05075416\\-0.00001786,-0.00000498,0.00000032,-0.000011
 27,-0.00003192,0.00000281,-0.00001149,0.00000450,-0.00000064,0.0000168
 7,-0.00000454,-0.00000029,-0.00001538,-0.00000228,-0.00000071,-0.00000
 161,0.00003521,0.00000081,0.00002259,-0.00000199,0.00000022,0.00000361
 ,0.00004188,-0.00000245,0.00001999,-0.00004930,0.00000178,-0.00001236,
 -0.00004000,-0.00000198,0.00002979,0.00002671,0.00000031,-0.00001734,0
 .00000511,0.00000356,0.00001697,0.00000901,0.00000354,0.00001326,-0.00
 000249,-0.00001934,-0.00001222,-0.00001720,0.00001198,0.00000347,0.000
 02844,0.00000156,0.00000701,0.00000286,-0.00000034,0.00000127,0.000000
 07,-0.00000115,-0.00000719,-0.00000537,-0.00000045,0.00000547,-0.00000
 004,0.00000071,-0.00000257,0.00000228,0.00000265,-0.00000188,0.0000027
 7,-0.00000238,-0.00000711,-0.00001033,-0.00000056,-0.00000935,-0.00000
 289,-0.00000195,-0.00000955,-0.00000287,0.00000104,0.00000495,0.000002
 88,-0.00000128,-0.00000270,-0.00000020,0.00000184,-0.00000186,0.000012
 26,-0.00000168,-0.00000352,0.00000241,0.00000203\\\@


 ASKING DUMB QUESTIONS IS EASIER THAN CORECTING DUMB MISTAKES.
 Job cpu time:       0 days  1 hours 52 minutes 55.8 seconds.
 File lengths (MBytes):  RWF=    392 Int=      0 D2E=      0 Chk=     11 Scr=      1
 Normal termination of Gaussian 09 at Sun May 19 23:10:27 2024.
