 Entering Gaussian System, Link 0=g09
 Input=lwcamSAYang.gjf
 Output=lwcamSAYang.log
 Initial command:
 /home/c612/g09E/g09/l1.exe "/mnt/ja_sm883/scratch/Gau-754358.inp" -scrdir="/mnt/ja_sm883/scratch/"
 Default is to use a total of  18 processors:
                               18 via shared-memory
                                1 via Linda
 Entering Link 1 = /home/c612/g09E/g09/l1.exe PID=    754360.
  
 Copyright (c) 1988,1990,1992,1993,1995,1998,2003,2009,2015,
            Gaussian, Inc.  All Rights Reserved.
  
 This is part of the Gaussian(R) 09 program.  It is based on
 the Gaussian(R) 03 system (copyright 2003, Gaussian, Inc.),
 the Gaussian(R) 98 system (copyright 1998, Gaussian, Inc.),
 the Gaussian(R) 94 system (copyright 1995, Gaussian, Inc.),
 the Gaussian 92(TM) system (copyright 1992, Gaussian, Inc.),
 the Gaussian 90(TM) system (copyright 1990, Gaussian, Inc.),
 the Gaussian 88(TM) system (copyright 1988, Gaussian, Inc.),
 the Gaussian 86(TM) system (copyright 1986, Carnegie Mellon
 University), and the Gaussian 82(TM) system (copyright 1983,
 Carnegie Mellon University). Gaussian is a federally registered
 trademark of Gaussian, Inc.
  
 This software contains proprietary and confidential information,
 including trade secrets, belonging to Gaussian, Inc.
  
 This software is provided under written license and may be
 used, copied, transmitted, or stored only in accord with that
 written license.
  
 The following legend is applicable only to US Government
 contracts under FAR:
  
                    RESTRICTED RIGHTS LEGEND
  
 Use, reproduction and disclosure by the US Government is
 subject to restrictions as set forth in subparagraphs (a)
 and (c) of the Commercial Computer Software - Restricted
 Rights clause in FAR 52.227-19.
  
 Gaussian, Inc.
 340 Quinnipiac St., Bldg. 40, Wallingford CT 06492
  
  
 ---------------------------------------------------------------
 Warning -- This program may not be used in any manner that
 competes with the business of Gaussian, Inc. or will provide
 assistance to any competitor of Gaussian, Inc.  The licensee
 of this program is prohibited from giving any competitor of
 Gaussian, Inc. access to this program.  By using this program,
 the user acknowledges that Gaussian, Inc. is engaged in the
 business of creating and licensing software in the field of
 computational chemistry and represents and warrants to the
 licensee that it is not a competitor of Gaussian, Inc. and that
 it will not use this program in any manner prohibited above.
 ---------------------------------------------------------------
  

 Cite this work as:
 Gaussian 09, Revision E.01,
 M. J. Frisch, G. W. Trucks, H. B. Schlegel, G. E. Scuseria, 
 M. A. Robb, J. R. Cheeseman, G. Scalmani, V. Barone, B. Mennucci, 
 G. A. Petersson, H. Nakatsuji, M. Caricato, X. Li, H. P. Hratchian, 
 A. F. Izmaylov, J. Bloino, G. Zheng, J. L. Sonnenberg, M. Hada, 
 M. Ehara, K. Toyota, R. Fukuda, J. Hasegawa, M. Ishida, T. Nakajima, 
 Y. Honda, O. Kitao, H. Nakai, T. Vreven, J. A. Montgomery, Jr., 
 J. E. Peralta, F. Ogliaro, M. Bearpark, J. J. Heyd, E. Brothers, 
 K. N. Kudin, V. N. Staroverov, T. Keith, R. Kobayashi, J. Normand, 
 K. Raghavachari, A. Rendell, J. C. Burant, S. S. Iyengar, J. Tomasi, 
 M. Cossi, N. Rega, J. M. Millam, M. Klene, J. E. Knox, J. B. Cross, 
 V. Bakken, C. Adamo, J. Jaramillo, R. Gomperts, R. E. Stratmann, 
 O. Yazyev, A. J. Austin, R. Cammi, C. Pomelli, J. W. Ochterski, 
 R. L. Martin, K. Morokuma, V. G. Zakrzewski, G. A. Voth, 
 P. Salvador, J. J. Dannenberg, S. Dapprich, A. D. Daniels, 
 O. Farkas, J. B. Foresman, J. V. Ortiz, J. Cioslowski, 
 and D. J. Fox, Gaussian, Inc., Wallingford CT, 2013.
 
 ******************************************
 Gaussian 09:  ES64L-G09RevE.01 30-Nov-2015
                27-Feb-2024 
 ******************************************
 %chk=lwcamSAYang.chk
 -----------------------------------------
 # opt freq cam-b3lyp/6-31+g(d,p) em=gd3bj
 -----------------------------------------
 1/14=-1,18=20,19=15,26=3,38=1/1,3;
 2/9=110,12=2,17=6,18=5,40=1/2;
 3/5=1,6=6,7=111,11=2,16=1,25=1,30=1,71=1,74=-40,124=41/1,2,3;
 4//1;
 5/5=2,38=5/2;
 6/7=2,8=2,9=2,10=2,28=1/1;
 7//1,2,3,16;
 1/14=-1,18=20,19=15,26=3/3(2);
 2/9=110/2;
 99//99;
 2/9=110/2;
 3/5=1,6=6,7=111,11=2,16=1,25=1,30=1,71=1,74=-40,124=41/1,2,3;
 4/5=5,16=3,69=1/1;
 5/5=2,38=5/2;
 7//1,2,3,16;
 1/14=-1,18=20,19=15,26=3/3(-5);
 2/9=110/2;
 6/7=2,8=2,9=2,10=2,19=2,28=1/1;
 99/9=1/99;
 ----------
 [No Title]
 ----------
 Symbolic Z-matrix:
 Charge =  1 Multiplicity = 1
 C                    -2.39902  -0.20489   0.00013 
 C                    -1.93085   1.13405   0.00697 
 C                    -0.56411   1.35458   0.00902 
 C                     0.35706   0.26949   0.00438 
 C                    -0.12562  -1.06945  -0.00382 
 C                    -1.48341  -1.29424  -0.00527 
 O                    -3.70518  -0.43054  -0.00199 
 O                    -2.89488   2.07048   0.01077 
 C                    -2.49859   3.44208   0.01542 
 O                    -2.11632  -2.49343  -0.01246 
 C                    -1.3238   -3.68404  -0.01894 
 C                     1.73332   0.57744   0.00868 
 C                     2.79844  -0.31743   0.01365 
 C                     4.11422   0.11678  -0.00086 
 O                     5.08044  -0.7826    0.10819 
 O                     4.40703   1.40536  -0.13047 
 H                    -0.17658   2.36523   0.01419 
 H                     0.56504  -1.90094  -0.00972 
 H                    -3.8486   -1.39462  -0.00726 
 H                    -3.42413   4.01513   0.01652 
 H                    -1.91774   3.68011   0.91381 
 H                    -1.9163    3.6858   -0.88051 
 H                    -2.03     -4.51238  -0.02416 
 H                    -0.6981   -3.7256   -0.9167 
 H                    -0.69914  -3.73601   0.879 
 H                     1.98709   1.63468   0.00786 
 H                     2.66147  -1.39044   0.02977 
 H                     5.95669  -0.45311  -0.14618 
 H                     5.30582   1.63181   0.15486 
 

 GradGradGradGradGradGradGradGradGradGradGradGradGradGradGradGradGradGrad
 Berny optimization.
 Initialization pass.
                           ----------------------------
                           !    Initial Parameters    !
                           ! (Angstroms and Degrees)  !
 --------------------------                            --------------------------
 ! Name  Definition              Value          Derivative Info.                !
 --------------------------------------------------------------------------------
 ! R1    R(1,2)                  1.4185         estimate D2E/DX2                !
 ! R2    R(1,6)                  1.423          estimate D2E/DX2                !
 ! R3    R(1,7)                  1.3255         estimate D2E/DX2                !
 ! R4    R(2,3)                  1.3844         estimate D2E/DX2                !
 ! R5    R(2,8)                  1.344          estimate D2E/DX2                !
 ! R6    R(3,4)                  1.4234         estimate D2E/DX2                !
 ! R7    R(3,17)                 1.0824         estimate D2E/DX2                !
 ! R8    R(4,5)                  1.4233         estimate D2E/DX2                !
 ! R9    R(4,12)                 1.4103         estimate D2E/DX2                !
 ! R10   R(5,6)                  1.3763         estimate D2E/DX2                !
 ! R11   R(5,18)                 1.0809         estimate D2E/DX2                !
 ! R12   R(6,10)                 1.356          estimate D2E/DX2                !
 ! R13   R(7,19)                 0.9747         estimate D2E/DX2                !
 ! R14   R(8,9)                  1.4277         estimate D2E/DX2                !
 ! R15   R(9,20)                 1.0886         estimate D2E/DX2                !
 ! R16   R(9,21)                 1.096          estimate D2E/DX2                !
 ! R17   R(9,22)                 1.096          estimate D2E/DX2                !
 ! R18   R(10,11)                1.4303         estimate D2E/DX2                !
 ! R19   R(11,23)                1.0885         estimate D2E/DX2                !
 ! R20   R(11,24)                1.0951         estimate D2E/DX2                !
 ! R21   R(11,25)                1.0951         estimate D2E/DX2                !
 ! R22   R(12,13)                1.3911         estimate D2E/DX2                !
 ! R23   R(12,26)                1.0873         estimate D2E/DX2                !
 ! R24   R(13,14)                1.3856         estimate D2E/DX2                !
 ! R25   R(13,27)                1.0818         estimate D2E/DX2                !
 ! R26   R(14,15)                1.3245         estimate D2E/DX2                !
 ! R27   R(14,16)                1.3278         estimate D2E/DX2                !
 ! R28   R(15,28)                0.9701         estimate D2E/DX2                !
 ! R29   R(16,29)                0.9698         estimate D2E/DX2                !
 ! A1    A(2,1,6)              120.68           estimate D2E/DX2                !
 ! A2    A(2,1,7)              119.0744         estimate D2E/DX2                !
 ! A3    A(6,1,7)              120.2457         estimate D2E/DX2                !
 ! A4    A(1,2,3)              118.4389         estimate D2E/DX2                !
 ! A5    A(1,2,8)              114.8955         estimate D2E/DX2                !
 ! A6    A(3,2,8)              126.6656         estimate D2E/DX2                !
 ! A7    A(2,3,4)              121.1623         estimate D2E/DX2                !
 ! A8    A(2,3,17)             120.1453         estimate D2E/DX2                !
 ! A9    A(4,3,17)             118.6924         estimate D2E/DX2                !
 ! A10   A(3,4,5)              119.8481         estimate D2E/DX2                !
 ! A11   A(3,4,12)             117.7153         estimate D2E/DX2                !
 ! A12   A(5,4,12)             122.4366         estimate D2E/DX2                !
 ! A13   A(4,5,6)              119.2234         estimate D2E/DX2                !
 ! A14   A(4,5,18)             120.4636         estimate D2E/DX2                !
 ! A15   A(6,5,18)             120.3129         estimate D2E/DX2                !
 ! A16   A(1,6,5)              120.6473         estimate D2E/DX2                !
 ! A17   A(1,6,10)             112.1288         estimate D2E/DX2                !
 ! A18   A(5,6,10)             127.2239         estimate D2E/DX2                !
 ! A19   A(1,7,19)             108.2629         estimate D2E/DX2                !
 ! A20   A(2,8,9)              118.0525         estimate D2E/DX2                !
 ! A21   A(8,9,20)             105.6484         estimate D2E/DX2                !
 ! A22   A(8,9,21)             111.0042         estimate D2E/DX2                !
 ! A23   A(8,9,22)             111.0054         estimate D2E/DX2                !
 ! A24   A(20,9,21)            109.5997         estimate D2E/DX2                !
 ! A25   A(20,9,22)            109.6019         estimate D2E/DX2                !
 ! A26   A(21,9,22)            109.8902         estimate D2E/DX2                !
 ! A27   A(6,10,11)            118.5274         estimate D2E/DX2                !
 ! A28   A(10,11,23)           105.9022         estimate D2E/DX2                !
 ! A29   A(10,11,24)           110.6037         estimate D2E/DX2                !
 ! A30   A(10,11,25)           110.6012         estimate D2E/DX2                !
 ! A31   A(23,11,24)           109.748          estimate D2E/DX2                !
 ! A32   A(23,11,25)           109.7488         estimate D2E/DX2                !
 ! A33   A(24,11,25)           110.1512         estimate D2E/DX2                !
 ! A34   A(4,12,13)            127.3524         estimate D2E/DX2                !
 ! A35   A(4,12,26)            116.1097         estimate D2E/DX2                !
 ! A36   A(13,12,26)           116.5379         estimate D2E/DX2                !
 ! A37   A(12,13,14)           121.6971         estimate D2E/DX2                !
 ! A38   A(12,13,27)           122.76           estimate D2E/DX2                !
 ! A39   A(14,13,27)           115.5428         estimate D2E/DX2                !
 ! A40   A(13,14,15)           118.6244         estimate D2E/DX2                !
 ! A41   A(13,14,16)           120.9669         estimate D2E/DX2                !
 ! A42   A(15,14,16)           120.4071         estimate D2E/DX2                !
 ! A43   A(14,15,28)           113.9986         estimate D2E/DX2                !
 ! A44   A(14,16,29)           113.7204         estimate D2E/DX2                !
 ! D1    D(6,1,2,3)             -0.0351         estimate D2E/DX2                !
 ! D2    D(6,1,2,8)            179.9616         estimate D2E/DX2                !
 ! D3    D(7,1,2,3)           -179.9957         estimate D2E/DX2                !
 ! D4    D(7,1,2,8)              0.001          estimate D2E/DX2                !
 ! D5    D(2,1,6,5)              0.0061         estimate D2E/DX2                !
 ! D6    D(2,1,6,10)          -179.9531         estimate D2E/DX2                !
 ! D7    D(7,1,6,5)            179.9662         estimate D2E/DX2                !
 ! D8    D(7,1,6,10)             0.007          estimate D2E/DX2                !
 ! D9    D(2,1,7,19)           179.9697         estimate D2E/DX2                !
 ! D10   D(6,1,7,19)             0.009          estimate D2E/DX2                !
 ! D11   D(1,2,3,4)              0.0009         estimate D2E/DX2                !
 ! D12   D(1,2,3,17)           179.9984         estimate D2E/DX2                !
 ! D13   D(8,2,3,4)           -179.9954         estimate D2E/DX2                !
 ! D14   D(8,2,3,17)             0.0022         estimate D2E/DX2                !
 ! D15   D(1,2,8,9)           -179.8954         estimate D2E/DX2                !
 ! D16   D(3,2,8,9)              0.101          estimate D2E/DX2                !
 ! D17   D(2,3,4,5)              0.0615         estimate D2E/DX2                !
 ! D18   D(2,3,4,12)          -179.917          estimate D2E/DX2                !
 ! D19   D(17,3,4,5)          -179.9361         estimate D2E/DX2                !
 ! D20   D(17,3,4,12)            0.0855         estimate D2E/DX2                !
 ! D21   D(3,4,5,6)             -0.0898         estimate D2E/DX2                !
 ! D22   D(3,4,5,18)           179.8574         estimate D2E/DX2                !
 ! D23   D(12,4,5,6)           179.8876         estimate D2E/DX2                !
 ! D24   D(12,4,5,18)           -0.1652         estimate D2E/DX2                !
 ! D25   D(3,4,12,13)          179.5727         estimate D2E/DX2                !
 ! D26   D(3,4,12,26)           -0.4358         estimate D2E/DX2                !
 ! D27   D(5,4,12,13)           -0.4052         estimate D2E/DX2                !
 ! D28   D(5,4,12,26)          179.5863         estimate D2E/DX2                !
 ! D29   D(4,5,6,1)              0.0564         estimate D2E/DX2                !
 ! D30   D(4,5,6,10)          -179.9911         estimate D2E/DX2                !
 ! D31   D(18,5,6,1)          -179.8908         estimate D2E/DX2                !
 ! D32   D(18,5,6,10)            0.0616         estimate D2E/DX2                !
 ! D33   D(1,6,10,11)          179.9805         estimate D2E/DX2                !
 ! D34   D(5,6,10,11)            0.0246         estimate D2E/DX2                !
 ! D35   D(2,8,9,20)           179.9237         estimate D2E/DX2                !
 ! D36   D(2,8,9,21)           -61.3449         estimate D2E/DX2                !
 ! D37   D(2,8,9,22)            61.1891         estimate D2E/DX2                !
 ! D38   D(6,10,11,23)        -179.9929         estimate D2E/DX2                !
 ! D39   D(6,10,11,24)         -61.1477         estimate D2E/DX2                !
 ! D40   D(6,10,11,25)          61.1623         estimate D2E/DX2                !
 ! D41   D(4,12,13,14)         179.1053         estimate D2E/DX2                !
 ! D42   D(4,12,13,27)          -0.9464         estimate D2E/DX2                !
 ! D43   D(26,12,13,14)         -0.8861         estimate D2E/DX2                !
 ! D44   D(26,12,13,27)        179.0622         estimate D2E/DX2                !
 ! D45   D(12,13,14,15)        174.9004         estimate D2E/DX2                !
 ! D46   D(12,13,14,16)         -5.5632         estimate D2E/DX2                !
 ! D47   D(27,13,14,15)         -5.0514         estimate D2E/DX2                !
 ! D48   D(27,13,14,16)        174.485          estimate D2E/DX2                !
 ! D49   D(13,14,15,28)        164.3191         estimate D2E/DX2                !
 ! D50   D(16,14,15,28)        -15.22           estimate D2E/DX2                !
 ! D51   D(13,14,16,29)        161.2012         estimate D2E/DX2                !
 ! D52   D(15,14,16,29)        -19.2707         estimate D2E/DX2                !
 --------------------------------------------------------------------------------
 Trust Radius=3.00D-01 FncErr=1.00D-07 GrdErr=1.00D-06
 Number of steps in this run=    135 maximum allowed number of steps=    174.
 GradGradGradGradGradGradGradGradGradGradGradGradGradGradGradGradGradGrad

                          Input orientation:                          
 ---------------------------------------------------------------------
 Center     Atomic      Atomic             Coordinates (Angstroms)
 Number     Number       Type             X           Y           Z
 ---------------------------------------------------------------------
      1          6           0       -2.399025   -0.204894    0.000126
      2          6           0       -1.930846    1.134051    0.006973
      3          6           0       -0.564112    1.354582    0.009022
      4          6           0        0.357056    0.269487    0.004383
      5          6           0       -0.125615   -1.069454   -0.003819
      6          6           0       -1.483410   -1.294235   -0.005268
      7          8           0       -3.705179   -0.430540   -0.001992
      8          8           0       -2.894883    2.070484    0.010769
      9          6           0       -2.498588    3.442077    0.015418
     10          8           0       -2.116320   -2.493432   -0.012458
     11          6           0       -1.323801   -3.684044   -0.018940
     12          6           0        1.733315    0.577435    0.008675
     13          6           0        2.798438   -0.317429    0.013652
     14          6           0        4.114218    0.116777   -0.000858
     15          8           0        5.080436   -0.782597    0.108187
     16          8           0        4.407032    1.405362   -0.130465
     17          1           0       -0.176579    2.365234    0.014189
     18          1           0        0.565038   -1.900942   -0.009716
     19          1           0       -3.848595   -1.394621   -0.007259
     20          1           0       -3.424126    4.015129    0.016515
     21          1           0       -1.917737    3.680113    0.913810
     22          1           0       -1.916299    3.685799   -0.880506
     23          1           0       -2.030001   -4.512377   -0.024161
     24          1           0       -0.698098   -3.725596   -0.916702
     25          1           0       -0.699138   -3.736010    0.879000
     26          1           0        1.987086    1.634680    0.007860
     27          1           0        2.661465   -1.390439    0.029774
     28          1           0        5.956694   -0.453114   -0.146178
     29          1           0        5.305823    1.631813    0.154860
 ---------------------------------------------------------------------
                    Distance matrix (angstroms):
                    1          2          3          4          5
     1  C    0.000000
     2  C    1.418454   0.000000
     3  C    2.408101   1.384413   0.000000
     4  C    2.796612   2.445807   1.423377   0.000000
     5  C    2.432257   2.848580   2.463411   1.423307   0.000000
     6  C    1.423040   2.469195   2.803845   2.415085   1.376276
     7  O    1.325503   2.365646   3.612905   4.122115   3.636137
     8  O    2.328805   1.343982   2.438240   3.717356   4.186678
     9  C    3.648362   2.376844   2.846028   4.268507   5.097576
    10  O    2.305968   3.632274   4.149340   3.708314   2.447590
    11  C    3.641559   4.856255   5.095651   4.296072   2.876101
    12  C    4.205751   3.706198   2.425310   1.410298   2.483550
    13  C    5.198699   4.947016   3.755314   2.510956   3.019260
    14  C    6.521181   6.130066   4.839321   3.760268   4.402651
    15  O    7.502517   7.269241   6.036414   4.840245   5.215151
    16  O    6.995169   6.345171   4.973360   4.208408   5.165815
    17  H    3.397797   2.143202   1.082417   2.162641   3.435113
    18  H    3.415018   3.929491   3.445833   2.180417   1.080930
    19  H    1.875302   3.173664   4.283248   4.522930   3.737155
    20  H    4.342775   3.245087   3.906181   5.322341   6.060823
    21  H    4.019917   2.702768   2.838844   4.199299   5.158695
    22  H    4.018212   2.701712   2.838000   4.197899   5.156313
    23  H    4.323330   5.647384   6.047408   5.344631   3.934567
    24  H    4.016101   5.097942   5.165571   4.233490   2.866388
    25  H    4.016319   5.098532   5.166161   4.233734   2.866848
    26  H    4.756266   3.949788   2.566528   2.126208   3.431615
    27  H    5.197591   5.240505   4.235554   2.840123   2.805704
    28  H    8.360685   8.047101   6.768513   5.648076   6.115114
    29  H    7.922255   7.255275   5.878287   5.135063   6.068158
                    6          7          8          9         10
     6  C    0.000000
     7  O    2.383744   0.000000
     8  O    3.648814   2.629042   0.000000
     9  C    4.843931   4.056270   1.427704   0.000000
    10  O    1.355987   2.603864   4.629906   5.947871   0.000000
    11  C    2.395172   4.031940   5.965214   7.222389   1.430275
    12  C    3.721648   5.531125   4.863067   5.110305   4.924465
    13  C    4.391894   6.504619   6.173819   6.495566   5.374990
    14  C    5.772730   7.838528   7.276304   7.401830   6.755215
    15  O    6.584734   8.793356   8.470849   8.677447   7.398298
    16  O    6.480803   8.318354   7.333505   7.201186   7.600569
    17  H    3.885859   4.501959   2.734240   2.559554   5.231629
    18  H    2.136411   4.516292   5.267229   6.159082   2.746039
    19  H    2.367315   0.974704   3.594001   5.021621   2.051387
    20  H    5.652981   4.454583   2.015385   1.088582   6.638717
    21  H    5.077153   4.575053   2.088349   1.095973   6.245804
    22  H    5.074857   4.573415   2.088358   1.095966   6.243109
    23  H    3.264285   4.412268   6.639526   7.968342   2.020823
    24  H    2.712737   4.553748   6.267425   7.448902   2.085003
    25  H    2.712799   4.553961   6.268213   7.450418   2.084971
    26  H    4.541262   6.055337   4.901383   4.836115   5.820624
    27  H    4.146139   6.438678   6.546094   7.069623   4.903632
    28  H    7.488824   9.662975   9.205628   9.310769   8.327925
    29  H    7.394666   9.245326   8.213694   8.012823   8.493165
                   11         12         13         14         15
    11  C    0.000000
    12  C    5.244704   0.000000
    13  C    5.322407   1.391148   0.000000
    14  C    6.634653   2.425076   1.385649   0.000000
    15  O    7.031985   3.614251   2.330844   1.324516   0.000000
    16  O    7.665307   2.802425   2.361430   1.327776   2.301650
    17  H    6.157189   2.616095   4.005922   4.844247   6.128122
    18  H    2.597547   2.739993   2.737907   4.082640   4.653323
    19  H    3.408252   5.920049   6.733783   8.104983   8.950726
    20  H    7.980594   6.198145   7.582306   8.486700   9.764945
    21  H    7.446717   4.876070   6.247634   7.065300   8.339019
    22  H    7.443651   4.875680   6.249328   7.062495   8.360525
    23  H    1.088523   6.330072   6.396315   7.692921   8.030385
    24  H    1.095083   5.028336   4.970606   6.225832   6.565295
    25  H    1.095080   5.027932   4.966746   6.227882   6.536075
    26  H    6.265103   1.087275   2.114014   2.613197   3.927099
    27  H    4.598406   2.175876   1.081837   2.093593   2.495404
    28  H    7.966223   4.350051   3.165207   1.934066   0.970097
    29  H    8.499439   3.727720   3.179066   1.933780   2.425356
                   16         17         18         19         20
    16  O    0.000000
    17  H    4.685271   0.000000
    18  H    5.070221   4.330222   0.000000
    19  H    8.718398   5.255537   4.442581   0.000000
    20  H    8.255878   3.642625   7.135406   5.426429   0.000000
    21  H    6.802037   2.360054   6.177803   5.507223   1.785100
    22  H    6.763688   2.360296   6.174705   5.505179   1.785118
    23  H    8.744503   7.123074   3.681580   3.609428   8.640810
    24  H    7.280608   6.183587   2.397394   4.023203   8.259597
    25  H    7.316126   6.184347   2.399048   4.023262   8.261331
    26  H    2.434720   2.283680   3.810925   6.575110   5.911669
    27  H    3.299876   4.707421   2.158050   6.510167   8.139703
    28  H    2.419841   6.751729   5.584334   9.851367  10.391893
    29  H    0.969802   5.533030   5.914599   9.643078   9.050489
                   21         22         23         24         25
    21  H    0.000000
    22  H    1.794326   0.000000
    23  H    8.246774   8.243564   0.000000
    24  H    7.725466   7.510932   1.785951   0.000000
    25  H    7.515655   7.724027   1.785957   1.795732   0.000000
    26  H    4.500243   4.498077   7.343318   6.066101   6.067866
    27  H    6.889202   6.895848   5.635535   4.199457   4.185277
    28  H    8.956216   8.924901   8.959900   7.455810   7.491895
    29  H    7.546612   7.579570   9.570655   8.117706   8.086870
                   26         27         28         29
    26  H    0.000000
    27  H    3.099454   0.000000
    28  H    4.487806   3.430462   0.000000
    29  H    3.321992   4.017746   2.204808   0.000000
 Stoichiometry    C11H13O5(1+)
 Framework group  C1[X(C11H13O5)]
 Deg. of freedom    81
 Full point group                 C1      NOp   1
 Largest Abelian subgroup         C1      NOp   1
 Largest concise Abelian subgroup C1      NOp   1
                         Standard orientation:                         
 ---------------------------------------------------------------------
 Center     Atomic      Atomic             Coordinates (Angstroms)
 Number     Number       Type             X           Y           Z
 ---------------------------------------------------------------------
      1          6           0       -2.399025    0.204894   -0.000126
      2          6           0       -1.930846   -1.134051   -0.006973
      3          6           0       -0.564112   -1.354582   -0.009022
      4          6           0        0.357056   -0.269487   -0.004383
      5          6           0       -0.125615    1.069454    0.003819
      6          6           0       -1.483410    1.294235    0.005268
      7          8           0       -3.705179    0.430540    0.001992
      8          8           0       -2.894883   -2.070484   -0.010769
      9          6           0       -2.498588   -3.442077   -0.015418
     10          8           0       -2.116320    2.493432    0.012458
     11          6           0       -1.323801    3.684044    0.018940
     12          6           0        1.733315   -0.577435   -0.008675
     13          6           0        2.798438    0.317429   -0.013652
     14          6           0        4.114218   -0.116777    0.000858
     15          8           0        5.080436    0.782597   -0.108187
     16          8           0        4.407032   -1.405362    0.130465
     17          1           0       -0.176579   -2.365234   -0.014189
     18          1           0        0.565038    1.900942    0.009716
     19          1           0       -3.848595    1.394621    0.007259
     20          1           0       -3.424126   -4.015129   -0.016515
     21          1           0       -1.917737   -3.680113   -0.913810
     22          1           0       -1.916299   -3.685799    0.880506
     23          1           0       -2.030001    4.512377    0.024161
     24          1           0       -0.698098    3.725596    0.916702
     25          1           0       -0.699138    3.736010   -0.879000
     26          1           0        1.987086   -1.634680   -0.007860
     27          1           0        2.661465    1.390439   -0.029774
     28          1           0        5.956694    0.453114    0.146178
     29          1           0        5.305823   -1.631813   -0.154860
 ---------------------------------------------------------------------
 Rotational constants (GHZ):      0.7116750      0.2743251      0.1985893
 Standard basis: 6-31+G(d,p) (6D, 7F)
 There are   369 symmetry adapted cartesian basis functions of A   symmetry.
 There are   369 symmetry adapted basis functions of A   symmetry.
   369 basis functions,   603 primitive gaussians,   369 cartesian basis functions
    59 alpha electrons       59 beta electrons
       nuclear repulsion energy      1072.4124254538 Hartrees.
 NAtoms=   29 NActive=   29 NUniq=   29 SFac= 1.00D+00 NAtFMM=   60 NAOKFM=F Big=F
 Integral buffers will be    131072 words long.
 Raffenetti 2 integral format.
 Two-electron integral symmetry is turned on.
 Nuclear repulsion after empirical dispersion term =     1072.3881653422 Hartrees.
 One-electron integrals computed using PRISM.
 NBasis=   369 RedAO= T EigKep=  1.43D-06  NBF=   369
 NBsUse=   367 1.00D-06 EigRej=  7.79D-07 NBFU=   367
 ExpMin= 4.38D-02 ExpMax= 5.48D+03 ExpMxC= 8.25D+02 IAcc=2 IRadAn=         4 AccDes= 0.00D+00
 Harris functional with IExCor=20419 and IRadAn=       4 diagonalized for initial guess.
 HarFok:  IExCor=20419 AccDes= 0.00D+00 IRadAn=         4 IDoV= 1 UseB2=F ITyADJ=14
 ICtDFT=  3500011 ScaDFX=  1.000000  1.000000  1.000000  1.000000
 FoFCou: FMM=F IPFlag=           0 FMFlag=      100000 FMFlg1=           0
         NFxFlg=           0 DoJE=T BraDBF=F KetDBF=T FulRan=T
         wScrn=  0.000000 ICntrl=     500 IOpCl=  0 I1Cent=   200000004 NGrid=           0
         NMat0=    1 NMatS0=      1 NMatT0=    0 NMatD0=    1 NMtDS0=    0 NMtDT0=    0
 Petite list used in FoFCou.
 Requested convergence on RMS density matrix=1.00D-08 within 128 cycles.
 Requested convergence on MAX density matrix=1.00D-06.
 Requested convergence on             energy=1.00D-06.
 No special actions if energy rises.
 SCF Done:  E(RCAM-B3LYP) =  -802.544684089     A.U. after   17 cycles
            NFock= 17  Conv=0.26D-08     -V/T= 2.0090

 **********************************************************************

            Population analysis using the SCF density.

 **********************************************************************

 Orbital symmetries:
       Occupied  (A) (A) (A) (A) (A) (A) (A) (A) (A) (A) (A) (A)
                 (A) (A) (A) (A) (A) (A) (A) (A) (A) (A) (A) (A)
                 (A) (A) (A) (A) (A) (A) (A) (A) (A) (A) (A) (A)
                 (A) (A) (A) (A) (A) (A) (A) (A) (A) (A) (A) (A)
                 (A) (A) (A) (A) (A) (A) (A) (A) (A) (A) (A)
       Virtual   (A) (A) (A) (A) (A) (A) (A) (A) (A) (A) (A) (A)
                 (A) (A) (A) (A) (A) (A) (A) (A) (A) (A) (A) (A)
                 (A) (A) (A) (A) (A) (A) (A) (A) (A) (A) (A) (A)
                 (A) (A) (A) (A) (A) (A) (A) (A) (A) (A) (A) (A)
                 (A) (A) (A) (A) (A) (A) (A) (A) (A) (A) (A) (A)
                 (A) (A) (A) (A) (A) (A) (A) (A) (A) (A) (A) (A)
                 (A) (A) (A) (A) (A) (A) (A) (A) (A) (A) (A) (A)
                 (A) (A) (A) (A) (A) (A) (A) (A) (A) (A) (A) (A)
                 (A) (A) (A) (A) (A) (A) (A) (A) (A) (A) (A) (A)
                 (A) (A) (A) (A) (A) (A) (A) (A) (A) (A) (A) (A)
                 (A) (A) (A) (A) (A) (A) (A) (A) (A) (A) (A) (A)
                 (A) (A) (A) (A) (A) (A) (A) (A) (A) (A) (A) (A)
                 (A) (A) (A) (A) (A) (A) (A) (A) (A) (A) (A) (A)
                 (A) (A) (A) (A) (A) (A) (A) (A) (A) (A) (A) (A)
                 (A) (A) (A) (A) (A) (A) (A) (A) (A) (A) (A) (A)
                 (A) (A) (A) (A) (A) (A) (A) (A) (A) (A) (A) (A)
                 (A) (A) (A) (A) (A) (A) (A) (A) (A) (A) (A) (A)
                 (A) (A) (A) (A) (A) (A) (A) (A) (A) (A) (A) (A)
                 (A) (A) (A) (A) (A) (A) (A) (A) (A) (A) (A) (A)
                 (A) (A) (A) (A) (A) (A) (A) (A) (A) (A) (A) (A)
                 (A) (A) (A) (A) (A) (A) (A) (A) (A) (A) (A) (A)
                 (A) (A) (A) (A) (A) (A) (A) (A) (A) (A) (A) (A)
                 (A) (A) (A) (A) (A) (A) (A) (A) (A) (A) (A) (A)
                 (A) (A) (A) (A) (A) (A) (A) (A) (A) (A) (A) (A)
                 (A) (A) (A) (A) (A) (A) (A) (A) (A) (A) (A) (A)
                 (A) (A) (A) (A) (A) (A) (A) (A)
 The electronic state is 1-A.
 Alpha  occ. eigenvalues --  -19.46517 -19.46352 -19.39913 -19.39692 -19.37585
 Alpha  occ. eigenvalues --  -10.59452 -10.48332 -10.46953 -10.46281 -10.46021
 Alpha  occ. eigenvalues --  -10.43467 -10.42444 -10.42403 -10.41901 -10.41526
 Alpha  occ. eigenvalues --  -10.41316  -1.39647  -1.31762  -1.31052  -1.28076
 Alpha  occ. eigenvalues --   -1.26647  -1.09340  -1.05345  -0.99484  -0.97861
 Alpha  occ. eigenvalues --   -0.93070  -0.92276  -0.88771  -0.86944  -0.85442
 Alpha  occ. eigenvalues --   -0.81116  -0.78726  -0.77256  -0.75093  -0.72796
 Alpha  occ. eigenvalues --   -0.71516  -0.70996  -0.69792  -0.68064  -0.67759
 Alpha  occ. eigenvalues --   -0.66983  -0.65581  -0.64580  -0.62152  -0.62121
 Alpha  occ. eigenvalues --   -0.61671  -0.61574  -0.59989  -0.59702  -0.58638
 Alpha  occ. eigenvalues --   -0.57309  -0.55689  -0.54110  -0.54079  -0.52493
 Alpha  occ. eigenvalues --   -0.51835  -0.47838  -0.41826  -0.39019
 Alpha virt. eigenvalues --   -0.20907  -0.12616  -0.09350  -0.07676  -0.07325
 Alpha virt. eigenvalues --   -0.07074  -0.06388  -0.05668  -0.04279  -0.03940
 Alpha virt. eigenvalues --   -0.03428  -0.02800  -0.02549  -0.02351  -0.01699
 Alpha virt. eigenvalues --   -0.01205  -0.00504   0.00607   0.00801   0.01083
 Alpha virt. eigenvalues --    0.01615   0.02765   0.02900   0.03715   0.04323
 Alpha virt. eigenvalues --    0.05010   0.05567   0.06134   0.06332   0.06584
 Alpha virt. eigenvalues --    0.06791   0.07141   0.07520   0.07804   0.08023
 Alpha virt. eigenvalues --    0.08497   0.08636   0.09815   0.10111   0.10444
 Alpha virt. eigenvalues --    0.10860   0.11578   0.12186   0.12441   0.13103
 Alpha virt. eigenvalues --    0.13648   0.14143   0.14837   0.15056   0.15305
 Alpha virt. eigenvalues --    0.16358   0.16525   0.16943   0.17660   0.18555
 Alpha virt. eigenvalues --    0.18695   0.18789   0.19173   0.19317   0.19474
 Alpha virt. eigenvalues --    0.19762   0.20096   0.21151   0.21458   0.22423
 Alpha virt. eigenvalues --    0.23199   0.23768   0.23861   0.24634   0.25120
 Alpha virt. eigenvalues --    0.25402   0.25578   0.26062   0.26259   0.27395
 Alpha virt. eigenvalues --    0.27687   0.29007   0.29332   0.29756   0.30195
 Alpha virt. eigenvalues --    0.30848   0.31592   0.31990   0.33160   0.34436
 Alpha virt. eigenvalues --    0.34890   0.35785   0.38627   0.39597   0.39901
 Alpha virt. eigenvalues --    0.40890   0.43049   0.46437   0.48934   0.51251
 Alpha virt. eigenvalues --    0.55224   0.58147   0.59105   0.59402   0.59684
 Alpha virt. eigenvalues --    0.61961   0.62526   0.63048   0.63942   0.64680
 Alpha virt. eigenvalues --    0.64924   0.65558   0.66965   0.67223   0.68182
 Alpha virt. eigenvalues --    0.68659   0.69106   0.71108   0.71907   0.73764
 Alpha virt. eigenvalues --    0.78251   0.79018   0.80326   0.82596   0.84068
 Alpha virt. eigenvalues --    0.84873   0.85905   0.86466   0.87022   0.87524
 Alpha virt. eigenvalues --    0.87944   0.89903   0.94677   0.95447   0.97369
 Alpha virt. eigenvalues --    0.98708   0.99336   1.00599   1.02281   1.03529
 Alpha virt. eigenvalues --    1.04452   1.05503   1.07109   1.07781   1.08448
 Alpha virt. eigenvalues --    1.10627   1.11123   1.11522   1.12589   1.13033
 Alpha virt. eigenvalues --    1.13961   1.14944   1.15115   1.15900   1.16335
 Alpha virt. eigenvalues --    1.17259   1.17510   1.19306   1.20203   1.20978
 Alpha virt. eigenvalues --    1.21117   1.22736   1.23808   1.24897   1.25148
 Alpha virt. eigenvalues --    1.26081   1.26534   1.26865   1.28759   1.31162
 Alpha virt. eigenvalues --    1.32228   1.32732   1.33064   1.35401   1.36674
 Alpha virt. eigenvalues --    1.39886   1.41129   1.42973   1.45387   1.46801
 Alpha virt. eigenvalues --    1.48374   1.49410   1.50666   1.53350   1.53538
 Alpha virt. eigenvalues --    1.54332   1.56093   1.60289   1.62696   1.64932
 Alpha virt. eigenvalues --    1.67796   1.69377   1.72160   1.74227   1.74364
 Alpha virt. eigenvalues --    1.77033   1.77823   1.78162   1.80686   1.81719
 Alpha virt. eigenvalues --    1.81943   1.83397   1.84405   1.86323   1.86669
 Alpha virt. eigenvalues --    1.88190   1.89889   1.90426   1.91409   1.92520
 Alpha virt. eigenvalues --    1.93418   1.96666   1.98076   1.99496   1.99988
 Alpha virt. eigenvalues --    2.02165   2.02750   2.03317   2.03551   2.05015
 Alpha virt. eigenvalues --    2.08215   2.08910   2.11020   2.11969   2.13120
 Alpha virt. eigenvalues --    2.14598   2.16341   2.18176   2.20468   2.20792
 Alpha virt. eigenvalues --    2.23110   2.26669   2.27262   2.29825   2.31829
 Alpha virt. eigenvalues --    2.32243   2.35611   2.37816   2.40758   2.41955
 Alpha virt. eigenvalues --    2.42731   2.44357   2.45461   2.47220   2.47758
 Alpha virt. eigenvalues --    2.48909   2.50165   2.51312   2.52476   2.53995
 Alpha virt. eigenvalues --    2.55351   2.56431   2.57377   2.59877   2.60192
 Alpha virt. eigenvalues --    2.62462   2.62540   2.64104   2.65982   2.66552
 Alpha virt. eigenvalues --    2.67182   2.69177   2.70742   2.73042   2.75456
 Alpha virt. eigenvalues --    2.78194   2.79004   2.79645   2.81286   2.82614
 Alpha virt. eigenvalues --    2.82690   2.85036   2.87779   2.91001   2.92221
 Alpha virt. eigenvalues --    2.94426   3.02117   3.03237   3.10524   3.13611
 Alpha virt. eigenvalues --    3.15483   3.15877   3.20245   3.21980   3.24175
 Alpha virt. eigenvalues --    3.31773   3.36074   3.37372   3.37882   3.38891
 Alpha virt. eigenvalues --    3.39788   3.43949   3.45359   3.50423   3.51568
 Alpha virt. eigenvalues --    3.55537   3.69785   4.12156   4.18549   4.22185
 Alpha virt. eigenvalues --    4.28402   4.29201   4.33637   4.35203   4.40353
 Alpha virt. eigenvalues --    4.43283   4.46530   4.52586   4.57150   4.61747
 Alpha virt. eigenvalues --    4.74018   4.78224   5.26274
          Condensed to atoms (all electrons):
               1          2          3          4          5          6
     1  C   21.539032  -0.760342  -6.664712   0.037858  -6.094509   0.490147
     2  C   -0.760342  18.396038  -1.211915  -2.685615  -0.343450  -6.204233
     3  C   -6.664712  -1.211915  22.196186  -0.114425  -1.402246  -3.798221
     4  C    0.037858  -2.685615  -0.114425  14.623453  -2.008053  -2.295136
     5  C   -6.094509  -0.343450  -1.402246  -2.008053  13.364233   0.861073
     6  C    0.490147  -6.204233  -3.798221  -2.295136   0.861073  16.804718
     7  O    0.203471  -0.898578  -0.042747  -0.050788   0.138418   0.615980
     8  O   -0.725715   0.316700   0.433870   0.010445   0.004227  -0.012350
     9  C    0.192796  -0.165177  -0.088736  -0.177307   0.011023   0.098416
    10  O   -0.676186   0.085305   0.006626  -0.006886   0.306711   0.221245
    11  C   -0.027617   0.059091   0.051277  -0.026930   0.026537  -0.201938
    12  C   -1.360311  -0.574709  -1.634693  -0.775700   1.169134  -0.175194
    13  C   -0.146779  -0.713236  -1.516224   0.554697  -0.320428  -0.268849
    14  C   -0.067099   0.071565  -0.708037  -1.216358   0.276991   0.124772
    15  O    0.000543   0.001355   0.004866   0.021073  -0.006427   0.001404
    16  O   -0.003165   0.001352  -0.010030  -0.002940  -0.019866  -0.006162
    17  H    0.015079  -0.097171   0.204552   0.078962   0.027225   0.004141
    18  H    0.000334  -0.001258   0.087412   0.186751   0.203141  -0.109374
    19  H    0.157560   0.259667   0.016548   0.000897  -0.036348  -0.409735
    20  H    0.082272   0.110176  -0.168842  -0.026009  -0.000224   0.012890
    21  H   -0.044690  -0.156780   0.150038   0.048479   0.001267  -0.010486
    22  H   -0.047687  -0.151676   0.154052   0.035489   0.001248  -0.009316
    23  H    0.046092   0.005885  -0.003845  -0.024287  -0.087084   0.073826
    24  H   -0.025129  -0.003757   0.009101   0.043073   0.064082  -0.094550
    25  H   -0.015829  -0.005108   0.007004   0.039481   0.045325  -0.075382
    26  H    0.013044   0.013962   0.154204   0.015821   0.035088   0.004855
    27  H    0.000415  -0.000025   0.031108   0.092900  -0.012678  -0.007988
    28  H    0.000061  -0.000035   0.000359  -0.002923   0.003675   0.000453
    29  H   -0.000073   0.000338   0.007207   0.013316  -0.003698  -0.000419
               7          8          9         10         11         12
     1  C    0.203471  -0.725715   0.192796  -0.676186  -0.027617  -1.360311
     2  C   -0.898578   0.316700  -0.165177   0.085305   0.059091  -0.574709
     3  C   -0.042747   0.433870  -0.088736   0.006626   0.051277  -1.634693
     4  C   -0.050788   0.010445  -0.177307  -0.006886  -0.026930  -0.775700
     5  C    0.138418   0.004227   0.011023   0.306711   0.026537   1.169134
     6  C    0.615980  -0.012350   0.098416   0.221245  -0.201938  -0.175194
     7  O    8.295262   0.043935   0.000582  -0.026500  -0.001269   0.014681
     8  O    0.043935   8.458439   0.025679  -0.001666   0.000033  -0.026569
     9  C    0.000582   0.025679   5.010438  -0.000071   0.000944  -0.020278
    10  O   -0.026500  -0.001666  -0.000071   8.618987   0.043970   0.010101
    11  C   -0.001269   0.000033   0.000944   0.043970   4.968207  -0.007473
    12  C    0.014681  -0.026569  -0.020278   0.010101  -0.007473  10.261369
    13  C    0.001193  -0.003988  -0.004500  -0.005051  -0.009552  -2.212493
    14  C    0.000702  -0.000476  -0.001634  -0.000178  -0.004750   0.913803
    15  O    0.000000   0.000001  -0.000005   0.000001  -0.000030  -0.119277
    16  O    0.000000  -0.000006   0.000062  -0.000002   0.000044   0.074913
    17  H   -0.000662  -0.011954   0.000302   0.000102   0.000123   0.067521
    18  H   -0.000474   0.000122   0.000228  -0.013351   0.003684  -0.062914
    19  H    0.179037  -0.002151  -0.000217   0.045842   0.004319   0.001462
    20  H   -0.000690  -0.069840   0.433260  -0.000002   0.000006  -0.003961
    21  H    0.000048  -0.035077   0.397093   0.000001  -0.000015   0.007017
    22  H    0.000064  -0.035196   0.399606   0.000001  -0.000012   0.010281
    23  H    0.000110  -0.000001   0.000002  -0.062016   0.421921  -0.000031
    24  H   -0.000265  -0.000002  -0.000001  -0.040789   0.409100  -0.001680
    25  H   -0.000294  -0.000001  -0.000007  -0.040573   0.407574  -0.002234
    26  H   -0.000013   0.000097   0.000641   0.000034   0.000147   0.273559
    27  H   -0.000006   0.000003   0.000037   0.000105   0.000760  -0.043821
    28  H   -0.000000   0.000000  -0.000000  -0.000000  -0.000003   0.056938
    29  H   -0.000000  -0.000000   0.000011   0.000000   0.000003  -0.001427
              13         14         15         16         17         18
     1  C   -0.146779  -0.067099   0.000543  -0.003165   0.015079   0.000334
     2  C   -0.713236   0.071565   0.001355   0.001352  -0.097171  -0.001258
     3  C   -1.516224  -0.708037   0.004866  -0.010030   0.204552   0.087412
     4  C    0.554697  -1.216358   0.021073  -0.002940   0.078962   0.186751
     5  C   -0.320428   0.276991  -0.006427  -0.019866   0.027225   0.203141
     6  C   -0.268849   0.124772   0.001404  -0.006162   0.004141  -0.109374
     7  O    0.001193   0.000702   0.000000   0.000000  -0.000662  -0.000474
     8  O   -0.003988  -0.000476   0.000001  -0.000006  -0.011954   0.000122
     9  C   -0.004500  -0.001634  -0.000005   0.000062   0.000302   0.000228
    10  O   -0.005051  -0.000178   0.000001  -0.000002   0.000102  -0.013351
    11  C   -0.009552  -0.004750  -0.000030   0.000044   0.000123   0.003684
    12  C   -2.212493   0.913803  -0.119277   0.074913   0.067521  -0.062914
    13  C   13.180094  -2.123199   0.231574  -0.177049   0.019545   0.001516
    14  C   -2.123199   7.712098  -0.000495   0.263072  -0.001527   0.008267
    15  O    0.231574  -0.000495   8.178439  -0.099966   0.000001   0.000068
    16  O   -0.177049   0.263072  -0.099966   8.234116  -0.000123   0.000061
    17  H    0.019545  -0.001527   0.000001  -0.000123   0.542806  -0.000111
    18  H    0.001516   0.008267   0.000068   0.000061  -0.000111   0.563006
    19  H    0.000597   0.000031   0.000000  -0.000000   0.000003  -0.000029
    20  H   -0.000170  -0.000003   0.000000  -0.000000   0.000073   0.000000
    21  H    0.000831  -0.000061  -0.000000  -0.000001  -0.000671   0.000000
    22  H    0.000830   0.000012  -0.000000   0.000001  -0.000693   0.000000
    23  H    0.000014   0.000059   0.000000  -0.000000  -0.000000   0.000080
    24  H    0.000633  -0.000562  -0.000001   0.000000   0.000000  -0.000586
    25  H   -0.000182  -0.000445   0.000001  -0.000000   0.000000  -0.000701
    26  H   -0.152862  -0.061896   0.000862  -0.006341   0.003033  -0.000041
    27  H    0.325521  -0.067398  -0.010760   0.008162  -0.000002   0.000193
    28  H   -0.063874   0.021169   0.219095  -0.001609   0.000000  -0.000000
    29  H    0.070867  -0.066268  -0.001934   0.211698  -0.000000   0.000000
              19         20         21         22         23         24
     1  C    0.157560   0.082272  -0.044690  -0.047687   0.046092  -0.025129
     2  C    0.259667   0.110176  -0.156780  -0.151676   0.005885  -0.003757
     3  C    0.016548  -0.168842   0.150038   0.154052  -0.003845   0.009101
     4  C    0.000897  -0.026009   0.048479   0.035489  -0.024287   0.043073
     5  C   -0.036348  -0.000224   0.001267   0.001248  -0.087084   0.064082
     6  C   -0.409735   0.012890  -0.010486  -0.009316   0.073826  -0.094550
     7  O    0.179037  -0.000690   0.000048   0.000064   0.000110  -0.000265
     8  O   -0.002151  -0.069840  -0.035077  -0.035196  -0.000001  -0.000002
     9  C   -0.000217   0.433260   0.397093   0.399606   0.000002  -0.000001
    10  O    0.045842  -0.000002   0.000001   0.000001  -0.062016  -0.040789
    11  C    0.004319   0.000006  -0.000015  -0.000012   0.421921   0.409100
    12  C    0.001462  -0.003961   0.007017   0.010281  -0.000031  -0.001680
    13  C    0.000597  -0.000170   0.000831   0.000830   0.000014   0.000633
    14  C    0.000031  -0.000003  -0.000061   0.000012   0.000059  -0.000562
    15  O    0.000000   0.000000  -0.000000  -0.000000   0.000000  -0.000001
    16  O   -0.000000  -0.000000  -0.000001   0.000001  -0.000000   0.000000
    17  H    0.000003   0.000073  -0.000671  -0.000693  -0.000000   0.000000
    18  H   -0.000029   0.000000   0.000000   0.000000   0.000080  -0.000586
    19  H    0.352450  -0.000001   0.000000   0.000000  -0.000085   0.000043
    20  H   -0.000001   0.495884  -0.023886  -0.023883  -0.000000   0.000000
    21  H    0.000000  -0.023886   0.553663  -0.043601   0.000000  -0.000000
    22  H    0.000000  -0.023883  -0.043601   0.553405   0.000000  -0.000000
    23  H   -0.000085  -0.000000   0.000000   0.000000   0.494036  -0.023611
    24  H    0.000043   0.000000  -0.000000  -0.000000  -0.023611   0.541795
    25  H    0.000044   0.000000  -0.000000  -0.000000  -0.023592  -0.040824
    26  H   -0.000000   0.000000  -0.000002  -0.000003  -0.000000   0.000000
    27  H   -0.000000   0.000000   0.000000  -0.000000  -0.000000  -0.000003
    28  H    0.000000   0.000000   0.000000  -0.000000  -0.000000  -0.000000
    29  H   -0.000000  -0.000000  -0.000000   0.000000   0.000000   0.000000
              25         26         27         28         29
     1  C   -0.015829   0.013044   0.000415   0.000061  -0.000073
     2  C   -0.005108   0.013962  -0.000025  -0.000035   0.000338
     3  C    0.007004   0.154204   0.031108   0.000359   0.007207
     4  C    0.039481   0.015821   0.092900  -0.002923   0.013316
     5  C    0.045325   0.035088  -0.012678   0.003675  -0.003698
     6  C   -0.075382   0.004855  -0.007988   0.000453  -0.000419
     7  O   -0.000294  -0.000013  -0.000006  -0.000000  -0.000000
     8  O   -0.000001   0.000097   0.000003   0.000000  -0.000000
     9  C   -0.000007   0.000641   0.000037  -0.000000   0.000011
    10  O   -0.040573   0.000034   0.000105  -0.000000   0.000000
    11  C    0.407574   0.000147   0.000760  -0.000003   0.000003
    12  C   -0.002234   0.273559  -0.043821   0.056938  -0.001427
    13  C   -0.000182  -0.152862   0.325521  -0.063874   0.070867
    14  C   -0.000445  -0.061896  -0.067398   0.021169  -0.066268
    15  O    0.000001   0.000862  -0.010760   0.219095  -0.001934
    16  O   -0.000000  -0.006341   0.008162  -0.001609   0.211698
    17  H    0.000000   0.003033  -0.000002   0.000000  -0.000000
    18  H   -0.000701  -0.000041   0.000193  -0.000000   0.000000
    19  H    0.000044  -0.000000  -0.000000   0.000000  -0.000000
    20  H    0.000000   0.000000   0.000000   0.000000  -0.000000
    21  H   -0.000000  -0.000002   0.000000   0.000000  -0.000000
    22  H   -0.000000  -0.000003  -0.000000  -0.000000   0.000000
    23  H   -0.023592  -0.000000  -0.000000  -0.000000   0.000000
    24  H   -0.040824   0.000000  -0.000003  -0.000000   0.000000
    25  H    0.541733   0.000000   0.000000   0.000000  -0.000000
    26  H    0.000000   0.525407   0.003270   0.000011  -0.000028
    27  H    0.000000   0.003270   0.515861   0.000096  -0.000166
    28  H    0.000000   0.000011   0.000096   0.372979   0.002026
    29  H   -0.000000  -0.000028  -0.000166   0.002026   0.374139
 Mulliken charges:
               1
     1  C   -0.118862
     2  C    0.651633
     3  C   -0.149737
     4  C   -0.389337
     5  C   -0.204388
     6  C    0.365416
     7  O   -0.471199
     8  O   -0.368562
     9  C   -0.113183
    10  O   -0.465759
    11  C   -0.118151
    12  C    0.161987
    13  C   -0.669476
    14  C    0.927844
    15  O   -0.420387
    16  O   -0.466220
    17  H    0.149445
    18  H    0.133979
    19  H    0.430066
    20  H    0.182949
    21  H    0.156831
    22  H    0.157077
    23  H    0.182527
    24  H    0.163935
    25  H    0.164009
    26  H    0.177152
    27  H    0.164416
    28  H    0.391584
    29  H    0.394411
 Sum of Mulliken charges =   1.00000
 Mulliken charges with hydrogens summed into heavy atoms:
               1
     1  C   -0.118862
     2  C    0.651633
     3  C   -0.000292
     4  C   -0.389337
     5  C   -0.070410
     6  C    0.365416
     7  O   -0.041132
     8  O   -0.368562
     9  C    0.383674
    10  O   -0.465759
    11  C    0.392320
    12  C    0.339139
    13  C   -0.505060
    14  C    0.927844
    15  O   -0.028803
    16  O   -0.071809
 Electronic spatial extent (au):  <R**2>=           5075.9261
 Charge=              1.0000 electrons
 Dipole moment (field-independent basis, Debye):
    X=             10.5250    Y=             -0.1762    Z=             -0.0474  Tot=             10.5266
 Quadrupole moment (field-independent basis, Debye-Ang):
   XX=            -12.0814   YY=            -56.9784   ZZ=            -94.6748
   XY=            -11.4357   XZ=              0.0584   YZ=              1.4394
 Traceless Quadrupole moment (field-independent basis, Debye-Ang):
   XX=             42.4968   YY=             -2.4002   ZZ=            -40.0966
   XY=            -11.4357   XZ=              0.0584   YZ=              1.4394
 Octapole moment (field-independent basis, Debye-Ang**2):
  XXX=            454.3509  YYY=              8.7029  ZZZ=              0.1919  XYY=            -41.8770
  XXY=            -40.7068  XXZ=              2.7356  XZZ=              2.1004  YZZ=              0.4064
  YYZ=             -1.3506  XYZ=              6.5582
 Hexadecapole moment (field-independent basis, Debye-Ang**3):
 XXXX=          -1435.9442 YYYY=          -1441.4364 ZZZZ=           -112.7517 XXXY=           -389.2369
 XXXZ=             25.4796 YYYX=             -7.9660 YYYZ=              4.6953 ZZZX=              0.4535
 ZZZY=              0.2825 XXYY=           -810.6041 XXZZ=           -740.3677 YYZZ=           -340.8108
 XXYZ=             36.7686 YYXZ=             -7.3265 ZZXY=             -5.9657
 N-N= 1.072388165342D+03 E-N=-4.001147404651D+03  KE= 7.953798479439D+02
 Calling FoFJK, ICntrl=      2127 FMM=F ISym2X=0 I1Cent= 0 IOpClX= 0 NMat=1 NMatS=1 NMatT=0.
 ***** Axes restored to original set *****
 -------------------------------------------------------------------
 Center     Atomic                   Forces (Hartrees/Bohr)
 Number     Number              X              Y              Z
 -------------------------------------------------------------------
      1        6           0.001813732    0.002044944    0.000021646
      2        6          -0.000462728   -0.003647516   -0.000044023
      3        6          -0.001805009   -0.002972874   -0.000105949
      4        6          -0.001435936   -0.000447676    0.000237002
      5        6          -0.002893287    0.002605780   -0.000189513
      6        6          -0.001558118    0.002864321    0.000064827
      7        8           0.006370245   -0.001711741    0.000000714
      8        8           0.004625846    0.001727784   -0.000016976
      9        6          -0.000423694   -0.001700680    0.000013291
     10        8           0.004533934    0.000056138   -0.000005850
     11        6          -0.000734997    0.001229798    0.000011147
     12        6          -0.000600700   -0.001682552    0.000032936
     13        6           0.003066853    0.001243339   -0.000171778
     14        6          -0.003791529   -0.000412402    0.000071897
     15        8          -0.003502019    0.007381311   -0.001435603
     16        8           0.001164000   -0.007431573    0.001411289
     17        1          -0.000044222    0.000113632   -0.000001497
     18        1          -0.000127091   -0.000120622    0.000012229
     19        1          -0.001611650    0.001067613    0.000001147
     20        1           0.000424379   -0.000468681    0.000002277
     21        1          -0.000774229   -0.000654195   -0.000167182
     22        1          -0.000774416   -0.000656534    0.000160397
     23        1           0.000272845    0.000589541    0.000003886
     24        1          -0.000908092    0.000367554    0.000173854
     25        1          -0.000903448    0.000370147   -0.000169587
     26        1          -0.000009117    0.000189344    0.000011312
     27        1           0.000139422    0.000225218    0.000087012
     28        1           0.000386844   -0.001504074    0.000435156
     29        1          -0.000437818    0.001334655   -0.000444062
 -------------------------------------------------------------------
 Cartesian Forces:  Max     0.007431573 RMS     0.001931328

 GradGradGradGradGradGradGradGradGradGradGradGradGradGradGradGradGradGrad
 Berny optimization.
 FormGI is forming the generalized inverse of G from B-inverse, IUseBI=4.
 Internal  Forces:  Max     0.006341366 RMS     0.001811601
 Search for a local minimum.
 Step number   1 out of a maximum of  135
 All quantities printed in internal units (Hartrees-Bohrs-Radians)
 Mixed Optimization -- RFO/linear search
 Second derivative matrix not updated -- first step.
 ITU=  0
     Eigenvalues ---    0.01291   0.01325   0.01793   0.01828   0.01914
     Eigenvalues ---    0.01953   0.01996   0.02030   0.02080   0.02108
     Eigenvalues ---    0.02130   0.02162   0.02206   0.02220   0.02240
     Eigenvalues ---    0.02274   0.02279   0.02433   0.02475   0.02647
     Eigenvalues ---    0.02677   0.02690   0.10080   0.10140   0.10664
     Eigenvalues ---    0.10674   0.16000   0.16000   0.16000   0.16000
     Eigenvalues ---    0.16000   0.16000   0.16000   0.16000   0.16000
     Eigenvalues ---    0.16000   0.16000   0.16000   0.16000   0.22000
     Eigenvalues ---    0.22000   0.23474   0.23483   0.25000   0.25000
     Eigenvalues ---    0.25000   0.25000   0.25000   0.25000   0.25000
     Eigenvalues ---    0.25000   0.25000   0.34131   0.34132   0.34232
     Eigenvalues ---    0.34232   0.34977   0.34984   0.35129   0.35704
     Eigenvalues ---    0.35773   0.35882   0.38981   0.40534   0.40950
     Eigenvalues ---    0.41321   0.41981   0.42380   0.43956   0.46506
     Eigenvalues ---    0.47120   0.48084   0.49229   0.52427   0.53357
     Eigenvalues ---    0.53417   0.53767   0.56322   0.60034   0.60580
     Eigenvalues ---    0.60820
 RFO step:  Lambda=-1.01585587D-03 EMin= 1.29130592D-02
 Linear search not attempted -- first point.
 Iteration  1 RMS(Cart)=  0.01490755 RMS(Int)=  0.00007051
 Iteration  2 RMS(Cart)=  0.00009421 RMS(Int)=  0.00000189
 Iteration  3 RMS(Cart)=  0.00000000 RMS(Int)=  0.00000189
 Variable       Old X    -DE/DX   Delta X   Delta X   Delta X     New X
                                 (Linear)    (Quad)   (Total)
    R1        2.68049  -0.00601   0.00000  -0.01423  -0.01422   2.66627
    R2        2.68916  -0.00583   0.00000  -0.01405  -0.01405   2.67511
    R3        2.50484  -0.00458   0.00000  -0.00755  -0.00755   2.49729
    R4        2.61616  -0.00499   0.00000  -0.01029  -0.01029   2.60587
    R5        2.53976  -0.00343   0.00000  -0.00608  -0.00608   2.53368
    R6        2.68979  -0.00414   0.00000  -0.00964  -0.00964   2.68015
    R7        2.04547   0.00009   0.00000   0.00025   0.00025   2.04573
    R8        2.68966  -0.00424   0.00000  -0.00990  -0.00990   2.67976
    R9        2.66508  -0.00364   0.00000  -0.00827  -0.00827   2.65680
   R10        2.60078  -0.00501   0.00000  -0.01006  -0.01006   2.59072
   R11        2.04266   0.00001   0.00000   0.00003   0.00003   2.04269
   R12        2.56244  -0.00336   0.00000  -0.00625  -0.00625   2.55620
   R13        1.84192  -0.00082   0.00000  -0.00156  -0.00156   1.84036
   R14        2.69797  -0.00376   0.00000  -0.00909  -0.00909   2.68888
   R15        2.05712  -0.00061   0.00000  -0.00173  -0.00173   2.05539
   R16        2.07109  -0.00069   0.00000  -0.00201  -0.00201   2.06908
   R17        2.07107  -0.00069   0.00000  -0.00201  -0.00201   2.06907
   R18        2.70283  -0.00340   0.00000  -0.00827  -0.00827   2.69455
   R19        2.05701  -0.00062   0.00000  -0.00178  -0.00178   2.05523
   R20        2.06941  -0.00068   0.00000  -0.00197  -0.00197   2.06744
   R21        2.06940  -0.00067   0.00000  -0.00196  -0.00196   2.06744
   R22        2.62889  -0.00280   0.00000  -0.00594  -0.00594   2.62295
   R23        2.05465   0.00018   0.00000   0.00051   0.00051   2.05517
   R24        2.61850  -0.00607   0.00000  -0.01260  -0.01260   2.60590
   R25        2.04438  -0.00024   0.00000  -0.00066  -0.00066   2.04371
   R26        2.50297  -0.00634   0.00000  -0.01041  -0.01041   2.49256
   R27        2.50913  -0.00586   0.00000  -0.00974  -0.00974   2.49939
   R28        1.83322  -0.00028   0.00000  -0.00052  -0.00052   1.83270
   R29        1.83266  -0.00022   0.00000  -0.00042  -0.00042   1.83224
    A1        2.10626   0.00065   0.00000   0.00205   0.00205   2.10832
    A2        2.07824  -0.00014   0.00000  -0.00027  -0.00027   2.07797
    A3        2.09868  -0.00052   0.00000  -0.00178  -0.00178   2.09690
    A4        2.06715   0.00016   0.00000   0.00043   0.00043   2.06758
    A5        2.00530   0.00056   0.00000   0.00234   0.00234   2.00765
    A6        2.21073  -0.00072   0.00000  -0.00277  -0.00278   2.20796
    A7        2.11468  -0.00063   0.00000  -0.00236  -0.00237   2.11232
    A8        2.09693   0.00023   0.00000   0.00067   0.00067   2.09760
    A9        2.07157   0.00040   0.00000   0.00169   0.00169   2.07327
   A10        2.09174   0.00027   0.00000   0.00182   0.00181   2.09355
   A11        2.05452  -0.00049   0.00000  -0.00231  -0.00231   2.05221
   A12        2.13692   0.00022   0.00000   0.00049   0.00049   2.13742
   A13        2.08084  -0.00060   0.00000  -0.00227  -0.00227   2.07857
   A14        2.10249   0.00048   0.00000   0.00225   0.00225   2.10474
   A15        2.09986   0.00012   0.00000   0.00002   0.00002   2.09988
   A16        2.10569   0.00015   0.00000   0.00033   0.00033   2.10603
   A17        1.95702   0.00043   0.00000   0.00184   0.00184   1.95885
   A18        2.22048  -0.00058   0.00000  -0.00217  -0.00217   2.21830
   A19        1.88954   0.00323   0.00000   0.02005   0.02005   1.90959
   A20        2.06041   0.00100   0.00000   0.00400   0.00400   2.06441
   A21        1.84391  -0.00014   0.00000  -0.00131  -0.00131   1.84260
   A22        1.93739  -0.00067   0.00000  -0.00393  -0.00393   1.93346
   A23        1.93741  -0.00067   0.00000  -0.00394  -0.00395   1.93346
   A24        1.91288   0.00021   0.00000   0.00088   0.00088   1.91376
   A25        1.91291   0.00022   0.00000   0.00091   0.00091   1.91382
   A26        1.91795   0.00102   0.00000   0.00710   0.00709   1.92504
   A27        2.06869   0.00096   0.00000   0.00382   0.00382   2.07251
   A28        1.84834  -0.00016   0.00000  -0.00140  -0.00140   1.84694
   A29        1.93040  -0.00065   0.00000  -0.00378  -0.00379   1.92661
   A30        1.93036  -0.00064   0.00000  -0.00378  -0.00378   1.92657
   A31        1.91546   0.00021   0.00000   0.00089   0.00088   1.91635
   A32        1.91548   0.00021   0.00000   0.00089   0.00089   1.91637
   A33        1.92250   0.00098   0.00000   0.00686   0.00685   1.92935
   A34        2.22272   0.00022   0.00000   0.00100   0.00100   2.22372
   A35        2.02650  -0.00016   0.00000  -0.00083  -0.00083   2.02566
   A36        2.03397  -0.00006   0.00000  -0.00017  -0.00017   2.03380
   A37        2.12402  -0.00237   0.00000  -0.01072  -0.01072   2.11330
   A38        2.14257   0.00130   0.00000   0.00605   0.00605   2.14862
   A39        2.01660   0.00107   0.00000   0.00467   0.00467   2.02127
   A40        2.07039   0.00090   0.00000   0.00357   0.00357   2.07395
   A41        2.11127   0.00090   0.00000   0.00360   0.00360   2.11487
   A42        2.10150  -0.00180   0.00000  -0.00718  -0.00718   2.09432
   A43        1.98965   0.00292   0.00000   0.01813   0.01813   2.00778
   A44        1.98480   0.00266   0.00000   0.01653   0.01653   2.00132
    D1       -0.00061  -0.00002   0.00000  -0.00088  -0.00088  -0.00150
    D2        3.14092  -0.00001   0.00000  -0.00044  -0.00044   3.14048
    D3       -3.14152  -0.00001   0.00000  -0.00053  -0.00053   3.14114
    D4        0.00002  -0.00000   0.00000  -0.00009  -0.00009  -0.00007
    D5        0.00011  -0.00000   0.00000   0.00006   0.00006   0.00017
    D6       -3.14077   0.00001   0.00000   0.00047   0.00047  -3.14031
    D7        3.14100  -0.00001   0.00000  -0.00030  -0.00030   3.14071
    D8        0.00012   0.00000   0.00000   0.00011   0.00011   0.00023
    D9        3.14106  -0.00001   0.00000  -0.00028  -0.00028   3.14079
   D10        0.00016   0.00000   0.00000   0.00007   0.00007   0.00023
   D11        0.00002  -0.00000   0.00000  -0.00018  -0.00018  -0.00016
   D12        3.14157   0.00000   0.00000   0.00011   0.00011  -3.14151
   D13       -3.14151  -0.00001   0.00000  -0.00068  -0.00068   3.14100
   D14        0.00004  -0.00001   0.00000  -0.00038  -0.00038  -0.00034
   D15       -3.13977  -0.00003   0.00000  -0.00103  -0.00103  -3.14079
   D16        0.00176  -0.00001   0.00000  -0.00055  -0.00055   0.00122
   D17        0.00107   0.00004   0.00000   0.00204   0.00204   0.00311
   D18       -3.14014  -0.00003   0.00000  -0.00159  -0.00159   3.14145
   D19       -3.14048   0.00003   0.00000   0.00175   0.00175  -3.13873
   D20        0.00149  -0.00004   0.00000  -0.00188  -0.00188  -0.00039
   D21       -0.00157  -0.00006   0.00000  -0.00283  -0.00283  -0.00439
   D22        3.13910  -0.00003   0.00000  -0.00128  -0.00128   3.13782
   D23        3.13963   0.00002   0.00000   0.00098   0.00099   3.14062
   D24       -0.00288   0.00005   0.00000   0.00253   0.00254  -0.00035
   D25        3.13413   0.00005   0.00000   0.00249   0.00249   3.13662
   D26       -0.00761   0.00001   0.00000   0.00050   0.00050  -0.00711
   D27       -0.00707  -0.00002   0.00000  -0.00124  -0.00124  -0.00831
   D28        3.13437  -0.00007   0.00000  -0.00324  -0.00324   3.13114
   D29        0.00098   0.00004   0.00000   0.00179   0.00179   0.00277
   D30       -3.14144   0.00003   0.00000   0.00132   0.00132  -3.14012
   D31       -3.13969   0.00001   0.00000   0.00024   0.00025  -3.13944
   D32        0.00108  -0.00000   0.00000  -0.00022  -0.00022   0.00085
   D33        3.14125   0.00000   0.00000   0.00007   0.00007   3.14132
   D34        0.00043   0.00001   0.00000   0.00050   0.00050   0.00093
   D35        3.14026   0.00000   0.00000   0.00018   0.00018   3.14044
   D36       -1.07067  -0.00018   0.00000  -0.00162  -0.00162  -1.07229
   D37        1.06795   0.00018   0.00000   0.00195   0.00195   1.06990
   D38       -3.14147  -0.00000   0.00000  -0.00016  -0.00016   3.14155
   D39       -1.06723  -0.00018   0.00000  -0.00194  -0.00193  -1.06916
   D40        1.06748   0.00018   0.00000   0.00160   0.00159   1.06908
   D41        3.12598  -0.00008   0.00000  -0.00336  -0.00336   3.12262
   D42       -0.01652  -0.00009   0.00000  -0.00398  -0.00398  -0.02050
   D43       -0.01547  -0.00003   0.00000  -0.00136  -0.00136  -0.01683
   D44        3.12522  -0.00005   0.00000  -0.00198  -0.00198   3.12325
   D45        3.05259   0.00002   0.00000   0.00064   0.00064   3.05323
   D46       -0.09710  -0.00003   0.00000  -0.00089  -0.00089  -0.09799
   D47       -0.08816   0.00003   0.00000   0.00121   0.00121  -0.08695
   D48        3.04534  -0.00001   0.00000  -0.00031  -0.00032   3.04502
   D49        2.86791   0.00001   0.00000   0.00032   0.00032   2.86823
   D50       -0.26564   0.00005   0.00000   0.00179   0.00178  -0.26386
   D51        2.81349   0.00005   0.00000   0.00193   0.00193   2.81542
   D52       -0.33634   0.00002   0.00000   0.00043   0.00043  -0.33591
         Item               Value     Threshold  Converged?
 Maximum Force            0.006341     0.000450     NO 
 RMS     Force            0.001812     0.000300     NO 
 Maximum Displacement     0.059772     0.001800     NO 
 RMS     Displacement     0.014928     0.001200     NO 
 Predicted change in Energy=-5.095511D-04
 GradGradGradGradGradGradGradGradGradGradGradGradGradGradGradGradGradGrad

                          Input orientation:                          
 ---------------------------------------------------------------------
 Center     Atomic      Atomic             Coordinates (Angstroms)
 Number     Number       Type             X           Y           Z
 ---------------------------------------------------------------------
      1          6           0       -2.386111   -0.203660   -0.000831
      2          6           0       -1.918683    1.127570    0.006485
      3          6           0       -0.557139    1.346038    0.010908
      4          6           0        0.357219    0.261859    0.008397
      5          6           0       -0.125562   -1.071450   -0.002590
      6          6           0       -1.478920   -1.290364   -0.005390
      7          8           0       -3.688680   -0.426567   -0.004604
      8          8           0       -2.876998    2.065267    0.008873
      9          6           0       -2.482523    3.432374    0.015201
     10          8           0       -2.112099   -2.485672   -0.013804
     11          6           0       -1.328349   -3.676840   -0.019582
     12          6           0        1.729489    0.567580    0.013058
     13          6           0        2.792279   -0.325183    0.017221
     14          6           0        4.096953    0.121009   -0.000834
     15          8           0        5.072190   -0.760637    0.105916
     16          8           0        4.379151    1.406365   -0.133323
     17          1           0       -0.168002    2.356214    0.016627
     18          1           0        0.562047   -1.905480   -0.008107
     19          1           0       -3.852767   -1.386504   -0.010259
     20          1           0       -3.408229    4.003408    0.014903
     21          1           0       -1.906006    3.666136    0.916206
     22          1           0       -1.901092    3.673040   -0.880809
     23          1           0       -2.039495   -4.499679   -0.025838
     24          1           0       -0.705259   -3.718724   -0.917873
     25          1           0       -0.708523   -3.729551    0.880400
     26          1           0        1.983427    1.625063    0.011338
     27          1           0        2.661957   -1.398627    0.035858
     28          1           0        5.949779   -0.434577   -0.147220
     29          1           0        5.274193    1.654889    0.144565
 ---------------------------------------------------------------------
                    Distance matrix (angstroms):
                    1          2          3          4          5
     1  C    0.000000
     2  C    1.410927   0.000000
     3  C    2.397257   1.378966   0.000000
     4  C    2.782562   2.434992   1.418274   0.000000
     5  C    2.421393   2.837438   2.455746   1.418066   0.000000
     6  C    1.415607   2.457629   2.792949   2.404370   1.370952
     7  O    1.321510   2.355495   3.598460   4.104071   3.621007
     8  O    2.321443   1.340765   2.428794   3.703031   4.172472
     9  C    3.637348   2.372786   2.839000   4.256330   5.083307
    10  O    2.298441   3.618472   4.135277   3.694178   2.438541
    11  C    3.630729   4.840613   5.081830   4.284306   2.869677
    12  C    4.187263   3.690907   2.415506   1.405920   2.475456
    13  C    5.179847   4.929885   3.743210   2.504838   3.011827
    14  C    6.491189   6.099270   4.812630   3.742397   4.387664
    15  O    7.479830   7.242065   6.011360   4.825552   5.208167
    16  O    6.955466   6.305552   4.938766   4.184007   5.142869
    17  H    3.387222   2.138820   1.082551   2.159224   3.427981
    18  H    3.404098   3.918371   3.438795   2.177059   1.080946
    19  H    1.884221   3.171991   4.281167   4.521220   3.740504
    20  H    4.329480   3.238713   3.897480   5.308280   6.044038
    21  H    4.005844   2.696678   2.832289   4.187530   5.143821
    22  H    4.004798   2.695741   2.831309   4.186504   5.141397
    23  H    4.310051   5.628638   6.030848   5.330821   3.926376
    24  H    4.002737   5.080689   5.151348   4.222781   2.860394
    25  H    4.002846   5.081322   5.151750   4.222268   2.860946
    26  H    4.736797   3.933699   2.555843   2.122001   3.423334
    27  H    5.187705   5.231137   4.230412   2.840737   2.806918
    28  H    8.340373   8.023505   6.748006   5.637905   6.110344
    29  H    7.883882   7.213501   5.841035   5.112309   6.050779
                    6          7          8          9         10
     6  C    0.000000
     7  O    2.372591   0.000000
     8  O    3.635256   2.620734   0.000000
     9  C    4.828240   4.043097   1.422895   0.000000
    10  O    1.352682   2.593378   4.614828   5.929699   0.000000
    11  C    2.391263   4.016922   5.947346   7.202378   1.425896
    12  C    3.707585   5.508648   4.843842   5.093927   4.907227
    13  C    4.378952   6.481789   6.152643   6.476324   5.359254
    14  C    5.751727   7.804867   7.239905   7.365793   6.734040
    15  O    6.573434   8.767934   8.437104   8.640790   7.389458
    16  O    6.450249   8.274425   7.287391   7.156070   7.569582
    17  H    3.875116   4.487705   2.724586   2.552475   5.217692
    18  H    2.131648   4.500654   5.253014   6.145131   2.736369
    19  H    2.375798   0.973877   3.587090   5.009970   2.058666
    20  H    5.634418   4.438886   2.009635   1.087664   6.617321
    21  H    5.059510   4.558074   2.080591   1.094909   6.225122
    22  H    5.057665   4.557410   2.080591   1.094904   6.223019
    23  H    3.257969   4.394372   6.618242   7.944521   2.015351
    24  H    2.707047   4.535765   6.247388   7.427483   2.077729
    25  H    2.706985   4.535887   6.248340   7.428917   2.077706
    26  H    4.526350   6.031770   4.880319   4.817790   5.802768
    27  H    4.142498   6.424728   6.532941   7.057243   4.896504
    28  H    7.479175   9.639518   9.175270   9.278115   8.319776
    29  H    7.368958   9.202598   8.162643   7.958821   8.469158
                   11         12         13         14         15
    11  C    0.000000
    12  C    5.231304   0.000000
    13  C    5.311736   1.388007   0.000000
    14  C    6.622531   2.409254   1.378981   0.000000
    15  O    7.034692   3.598114   2.322817   1.319007   0.000000
    16  O    7.643787   2.783109   2.353527   1.322622   2.287670
    17  H    6.143734   2.607623   3.994140   4.815215   6.097732
    18  H    2.590646   2.734849   2.733480   4.074589   4.654573
    19  H    3.408579   5.914437   6.729323   8.091399   8.947628
    20  H    7.956966   6.180702   7.561945   8.449914   9.727380
    21  H    7.424870   4.861435   6.229983   7.031672   8.303500
    22  H    7.422297   4.860453   6.230568   7.026225   8.322126
    23  H    1.087580   6.315368   6.385476   7.681626   8.035786
    24  H    1.094040   5.016676   4.962186   6.216571   6.570947
    25  H    1.094043   5.016126   4.958872   6.220610   6.544533
    26  H    6.251320   1.087547   2.111335   2.594093   3.903968
    27  H    4.595201   2.176232   1.081486   2.090419   2.494225
    28  H    7.968671   4.340605   3.163672   1.939863   0.969823
    29  H    8.488100   3.710048   3.177546   1.939026   2.424266
                   16         17         18         19         20
    16  O    0.000000
    17  H    4.647720   0.000000
    18  H    5.055125   4.323844   0.000000
    19  H    8.693661   5.252252   4.445213   0.000000
    20  H    8.210353   3.634876   7.118889   5.408271   0.000000
    21  H    6.761012   2.354951   6.163485   5.493395   1.784033
    22  H    6.718483   2.354363   6.160240   5.492347   1.784070
    23  H    8.723069   7.106867   3.673990   3.602784   8.612640
    24  H    7.261769   6.169831   2.391985   4.021171   8.234527
    25  H    7.299979   6.170478   2.393956   4.021120   8.236270
    26  H    2.410031   2.272280   3.805974   6.567432   5.892919
    27  H    3.293229   4.701901   2.160661   6.514898   8.125859
    28  H    2.419945   6.726263   5.586642   9.849611  10.358297
    29  H    0.969580   5.488689   5.907948   9.621613   8.995377
                   21         22         23         24         25
    21  H    0.000000
    22  H    1.797035   0.000000
    23  H    8.221058   8.218483   0.000000
    24  H    7.703363   7.487962   1.784881   0.000000
    25  H    7.492091   7.702106   1.784896   1.798308   0.000000
    26  H    4.484691   4.481030   7.327875   6.053803   6.055886
    27  H    6.877000   6.883568   5.632405   4.198881   4.184088
    28  H    8.925250   8.890830   8.964837   7.461171   7.499723
    29  H    7.496386   7.523898   9.560218   8.109152   8.082483
                   26         27         28         29
    26  H    0.000000
    27  H    3.098985   0.000000
    28  H    4.472047   3.431135   0.000000
    29  H    3.293596   4.019894   2.215270   0.000000
 Stoichiometry    C11H13O5(1+)
 Framework group  C1[X(C11H13O5)]
 Deg. of freedom    81
 Full point group                 C1      NOp   1
 Largest Abelian subgroup         C1      NOp   1
 Largest concise Abelian subgroup C1      NOp   1
                         Standard orientation:                         
 ---------------------------------------------------------------------
 Center     Atomic      Atomic             Coordinates (Angstroms)
 Number     Number       Type             X           Y           Z
 ---------------------------------------------------------------------
      1          6           0       -2.387728    0.196898    0.000718
      2          6           0       -1.916395   -1.132954   -0.006599
      3          6           0       -0.554216   -1.347425   -0.011021
      4          6           0        0.356956   -0.260567   -0.008510
      5          6           0       -0.129736    1.071320    0.002477
      6          6           0       -1.483731    1.286261    0.005277
      7          8           0       -3.690946    0.415981    0.004490
      8          8           0       -2.871953   -2.073460   -0.008987
      9          6           0       -2.473467   -3.439403   -0.015314
     10          8           0       -2.120416    2.479705    0.013691
     11          6           0       -1.340166    3.673168    0.019468
     12          6           0        1.730118   -0.562258   -0.013171
     13          6           0        2.790282    0.333620   -0.017334
     14          6           0        4.096261   -0.108740    0.000721
     15          8           0        5.068905    0.775764   -0.106029
     16          8           0        4.382231   -1.393263    0.133210
     17          1           0       -0.162115   -2.356454   -0.016740
     18          1           0        0.555422    1.907365    0.007993
     19          1           0       -3.857849    1.375432    0.010146
     20          1           0       -3.397494   -4.013151   -0.015016
     21          1           0       -1.896267   -3.671472   -0.916319
     22          1           0       -1.891333   -3.678362    0.880695
     23          1           0       -2.053724    4.493916    0.025725
     24          1           0       -0.717201    3.716881    0.917760
     25          1           0       -0.720496    3.727698   -0.880513
     26          1           0        1.987159   -1.618992   -0.011451
     27          1           0        2.656811    1.406677   -0.035971
     28          1           0        5.947448    0.452282    0.147107
     29          1           0        5.277998   -1.639158   -0.144678
 ---------------------------------------------------------------------
 Rotational constants (GHZ):      0.7158169      0.2764710      0.2000387
 Standard basis: 6-31+G(d,p) (6D, 7F)
 There are   369 symmetry adapted cartesian basis functions of A   symmetry.
 There are   369 symmetry adapted basis functions of A   symmetry.
   369 basis functions,   603 primitive gaussians,   369 cartesian basis functions
    59 alpha electrons       59 beta electrons
       nuclear repulsion energy      1076.0484548292 Hartrees.
 NAtoms=   29 NActive=   29 NUniq=   29 SFac= 1.00D+00 NAtFMM=   60 NAOKFM=F Big=F
 Integral buffers will be    131072 words long.
 Raffenetti 2 integral format.
 Two-electron integral symmetry is turned on.
 Nuclear repulsion after empirical dispersion term =     1076.0241229871 Hartrees.
 One-electron integrals computed using PRISM.
 NBasis=   369 RedAO= T EigKep=  1.38D-06  NBF=   369
 NBsUse=   367 1.00D-06 EigRej=  7.51D-07 NBFU=   367
 Initial guess from the checkpoint file:  "lwcamSAYang.chk"
 B after Tr=     0.000000    0.000000    0.000000
         Rot=    0.999999   -0.000003   -0.000025   -0.001334 Ang=  -0.15 deg.
 ExpMin= 4.38D-02 ExpMax= 5.48D+03 ExpMxC= 8.25D+02 IAcc=2 IRadAn=         4 AccDes= 0.00D+00
 Harris functional with IExCor=20419 and IRadAn=       4 diagonalized for initial guess.
 HarFok:  IExCor=20419 AccDes= 0.00D+00 IRadAn=         4 IDoV= 1 UseB2=F ITyADJ=14
 ICtDFT=  3500011 ScaDFX=  1.000000  1.000000  1.000000  1.000000
 FoFCou: FMM=F IPFlag=           0 FMFlag=      100000 FMFlg1=           0
         NFxFlg=           0 DoJE=T BraDBF=F KetDBF=T FulRan=T
         wScrn=  0.000000 ICntrl=     500 IOpCl=  0 I1Cent=   200000004 NGrid=           0
         NMat0=    1 NMatS0=      1 NMatT0=    0 NMatD0=    1 NMtDS0=    0 NMtDT0=    0
 Petite list used in FoFCou.
 Requested convergence on RMS density matrix=1.00D-08 within 128 cycles.
 Requested convergence on MAX density matrix=1.00D-06.
 Requested convergence on             energy=1.00D-06.
[...]
 00000199,-0.00003898,-0.00003707,0.00000642,0.00002901,-0.00002191,-0.
 00000007,0.00050649,-0.00036442,-0.00000252,-0.00002737,0.00019479,0.0
 0000060,0.00000540,0.00000937,0.00000001,-0.00000359,0.00000248,0.0000
 0127,-0.00000359,0.00000247,-0.00000130,0.19020926,-0.00122655,-0.0013
 3765,-0.00001255,0.00036564,0.00009761,-0.00000154,0.00000148,-0.00000
 565,0.00000203,-0.00055349,-0.00006423,-0.00000460,0.00085387,0.000178
 12,-0.00000168,0.00417955,-0.00169494,0.00001771,0.00021155,0.00022778
 ,0.00000334,0.00001904,-0.00027949,-0.00000124,0.00004500,0.00005644,0
 .00000081,-0.01426838,-0.03481689,-0.00022800,-0.13903796,-0.20179419,
 -0.00111008,0.00040028,-0.00016409,0.00000301,-0.00031148,0.00003143,0
 .00000332,0.00032043,0.00010074,-0.00000026,-0.00016798,0.00008541,-0.
 00001865,-0.00006213,-0.00011375,0.00001670,-0.00002245,0.00001201,0.0
 0000009,-0.00021923,0.00022714,0.00000391,-0.00009238,-0.00024945,-0.0
 0000285,-0.00000255,-0.00001700,-0.00000006,-0.00000818,-0.00000666,0.
 00000048,-0.00000819,-0.00000672,-0.00000064,0.14803682,0.23208544,-0.
 00000551,-0.00000359,0.00028615,-0.00000004,-0.00000056,-0.00004987,0.
 00000198,-0.00000110,-0.00000015,-0.00000317,0.00000151,0.00012856,0.0
 0000240,-0.00000167,0.00023389,0.00001455,-0.00000714,0.00055339,0.000
 00241,0.00000128,-0.00012721,0.00000011,-0.00000090,-0.00002505,0.0000
 0004,0.00000014,-0.00000198,-0.00003038,-0.00009168,0.00010262,-0.0010
 5363,-0.00115825,-0.05234580,0.00000181,-0.00000197,0.00003418,-0.0000
 0079,0.00000131,0.00001439,0.00000073,0.00000051,0.00000205,-0.0000007
 6,0.00000064,0.00000133,0.,-0.00000032,-0.00000245,-0.00000003,0.00000
 021,-0.00002030,-0.00000070,0.00000078,-0.00045992,-0.00000102,-0.0000
 0234,0.00020253,-0.00000002,-0.00000009,0.00000326,-0.00000232,-0.0000
 0053,-0.00000050,0.00000225,0.00000050,-0.00000052,0.00111931,0.001313
 44,0.04737316,-0.00019091,0.00066975,-0.00003582,0.00001096,-0.0002727
 5,-0.00005218,0.00011123,0.00025384,0.00000851,0.00028750,-0.00004578,
 0.00027455,0.00012392,0.00048571,-0.00031395,-0.00057008,-0.00357891,-
 0.00045270,0.00003857,0.00029590,-0.00013693,-0.00005201,0.00021210,0.
 00000526,-0.00002350,-0.00008945,0.00001426,-0.01608423,0.01398764,0.0
 1401651,-0.13253330,-0.00048624,0.12042783,-0.00040630,0.00020972,-0.0
 0003772,0.00041201,-0.00005481,0.00001174,-0.00050054,-0.00014638,0.00
 001529,0.00025565,-0.00011528,0.00002743,0.00012615,0.00020026,-0.0000
 3511,0.00001515,-0.00000295,-0.00001431,0.00006113,-0.00055364,-0.0004
 6791,0.00055756,-0.00041499,0.00027635,-0.00000539,0.00000826,0.000002
 13,0.00001127,0.00001118,-0.00000647,0.00001259,0.00000834,0.00000526,
 -0.00927955,0.00067011,0.01779099,0.14527900,0.00126293,-0.00121450,0.
 00064889,0.00044147,0.00041088,0.00011685,-0.00033541,0.00022035,0.000
 06101,-0.00053076,-0.00051623,0.00035189,-0.00079402,0.00070264,0.0002
 2324,0.00314040,0.00602213,-0.00188926,-0.00069302,-0.00063740,0.00002
 631,0.00002320,-0.00013462,-0.00003556,0.00000191,0.00003044,-0.000036
 15,0.02589620,-0.01597173,-0.02590840,-0.00446500,-0.05123911,0.003064
 60,0.00042983,-0.00018544,-0.00001466,-0.00024487,0.00004038,0.0000223
 9,0.00022093,0.00011362,-0.00000219,-0.00011796,0.00005883,-0.00001966
 ,-0.00003482,-0.00009912,0.00001529,-0.00002197,0.00000612,-0.00003265
 ,-0.00051285,-0.00106076,-0.00119907,-0.00060341,0.00047841,-0.0002305
 9,-0.00000196,-0.00000343,-0.00000025,-0.00000171,-0.00002035,-0.00000
 030,-0.00000152,-0.00000587,0.00000543,-0.01170706,0.00362006,0.020483
 41,-0.00963488,0.05784243,0.00011751,-0.00054412,-0.00024500,0.0002757
 4,0.00010410,-0.00003009,-0.00015460,0.00006616,-0.00003731,-0.0005191
 2,0.00009550,-0.00009958,0.00114785,-0.00033010,-0.00009635,0.00034782
 ,0.00120709,0.00059091,-0.00027317,0.00004999,0.00003746,-0.00012752,0
 .00009180,0.00001434,-0.00001238,-0.00003695,0.00000099,-0.00089671,-0
 .00456791,0.00729116,0.12351215,-0.00233275,-0.23949260,0.00015134,-0.
 00012505,0.00002033,-0.00005458,-0.00003411,-0.00000066,-0.00001555,-0
 .00002102,0.00000581,-0.00000923,0.00003397,0.00000718,0.00004095,0.00
 005086,-0.00000338,-0.00003775,0.00003837,-0.00000006,-0.00064102,-0.0
 0008082,-0.00004023,-0.00004702,0.00011246,-0.00000492,-0.00000206,0.0
 0000068,-0.00000037,0.00000766,0.00000291,-0.00000153,0.00000826,-0.00
 000217,0.00000196,-0.00196823,0.00051298,0.00221242,-0.13612425,0.0049
 6382,0.24873616,-0.00018767,0.00066466,0.00004949,0.00001122,-0.000274
 96,0.00004592,0.00011379,0.00025483,-0.00000018,0.00027939,-0.00004061
 ,-0.00028153,0.00012610,0.00048400,0.00032003,-0.00055807,-0.00357773,
 0.00040696,0.00003417,0.00029227,0.00014152,-0.00005221,0.00021207,-0.
 00000419,-0.00002358,-0.00008906,-0.00001554,-0.01601883,0.01408416,-0
 .01402922,-0.13110109,0.00063607,-0.11978782,-0.00040186,0.00020765,0.
 00004112,0.00040936,-0.00005709,-0.00001426,-0.00049730,-0.00014363,-0
 .00000615,0.00025542,-0.00011627,0.00002513,0.00012493,0.00019827,-0.0
 0002681,0.00001497,-0.00000259,0.00001439,0.00005750,-0.00055399,0.000
 46326,0.00055764,-0.00041006,-0.00028002,-0.00000538,0.00000827,-0.000
 00205,0.00001267,0.00000823,-0.00000514,0.00001126,0.00001110,0.000006
 71,-0.00917858,0.00084660,-0.01783891,0.01244424,-0.00173094,0.0153371
 7,0.14367462,0.00127390,-0.00121190,-0.00065711,0.00044416,0.00041633,
 -0.00010714,-0.00033802,0.00022402,-0.00005622,-0.00053739,-0.00051894
 ,-0.00036072,-0.00078028,0.00070933,-0.00021249,0.00312674,0.00603326,
 0.00197303,-0.00069795,-0.00063569,-0.00003718,0.00002397,-0.00013495,
 0.00003451,0.00000167,0.00003006,0.00003619,0.02573147,-0.01627492,0.0
 2582020,-0.00329412,-0.05126318,-0.00131099,0.00043576,-0.00018838,0.0
 0001232,-0.00024397,0.00004206,-0.00001377,0.00022088,0.00011232,0.000
 00239,-0.00011670,0.00005863,-0.00001262,-0.00003610,-0.00009897,0.000
 00970,-0.00002237,0.00000629,0.00003229,-0.00051361,-0.00107224,0.0011
 8463,-0.00060328,0.00047597,0.00023384,-0.00000199,-0.00000343,0.00000
 012,-0.00000136,-0.00000602,-0.00000563,-0.00000176,-0.00002033,0.0000
 0008,-0.01159696,0.00382003,-0.02053313,-0.00159352,0.00151539,0.00077
 200,-0.01088895,0.05795769,-0.00010553,0.00054285,-0.00024718,-0.00027
 262,-0.00010332,-0.00003433,0.00015527,-0.00006127,-0.00003982,0.00051
 008,-0.00009956,-0.00010039,-0.00114832,0.00034374,-0.00010660,-0.0003
 1604,-0.00117485,0.00061087,0.00026634,-0.00005516,0.00003868,0.000127
 59,-0.00009197,0.00001466,0.00001229,0.00003663,0.00000193,0.00099657,
 0.00441368,0.00748999,-0.12291468,0.00411862,-0.24092412,-0.00014777,0
 .00012280,0.00002379,0.00005582,0.00003671,-0.00000710,0.00001360,0.00
 002511,-0.00001005,0.00001254,-0.00003171,0.00001259,-0.00004366,-0.00
 005205,0.00000631,0.00003738,-0.00003789,0.00000004,0.00063118,0.00006
 344,-0.00002900,0.00004432,-0.00011039,-0.00000506,0.00000201,-0.00000
 066,-0.00000036,-0.00000826,0.00000220,0.00000182,-0.00000759,-0.00000
 293,-0.00000159,0.00179733,-0.00049245,0.00192728,-0.01517129,-0.00059
 011,-0.01881576,0.13540823,-0.00682651,0.25023457,-0.00006763,-0.00032
 650,0.00000364,0.00019740,0.00062194,0.00001762,0.00021729,-0.00211326
 ,-0.00003720,-0.00487608,-0.03040051,0.00008516,-0.00526441,0.00081624
 ,0.00005076,0.00027343,-0.00158230,-0.00000768,0.00015432,0.00022729,-
 0.00000546,0.00007333,0.00001736,0.00000238,-0.00004567,-0.00008142,-0
 .00000262,-0.00052552,0.00005368,-0.00001260,-0.00002785,0.00008188,-0
 .00000044,-0.07466486,-0.06325699,0.00004672,0.00826149,0.02561811,-0.
 00019479,0.00109036,0.00373408,-0.00012203,0.00030863,-0.00067844,0.00
 005585,-0.00267049,-0.00146137,0.00056018,-0.00096664,0.00104417,0.000
 00248,0.00013000,0.00005092,0.00000208,0.00004855,-0.00007618,-0.00000
 144,0.00003230,0.00002474,0.00000004,-0.00001062,0.00000422,0.00005583
 ,-0.00001060,0.00000800,-0.00005564,0.00000248,-0.00000464,-0.00000015
 ,0.00000312,0.00000576,0.00000564,0.00000339,0.00000525,-0.00000491,0.
 08190986,-0.00033792,-0.00005833,0.00001094,0.00025530,0.00059142,-0.0
 0000311,0.00208414,0.00145646,-0.00006432,-0.00015551,-0.00452216,0.00
 009657,-0.00073345,0.00079551,0.00009946,0.00048901,-0.00054218,-0.000
 02481,0.00024954,0.00012409,0.00000012,0.00002025,-0.00016820,0.000005
 29,0.00000701,0.00006165,-0.00000085,-0.00012219,0.00014554,-0.0000103
 6,0.00002964,-0.00003238,0.00000118,-0.06335738,-0.32826165,0.00048109
 ,-0.00476035,-0.01754498,0.00023747,-0.00071342,-0.00199869,0.00018487
 ,0.00011189,0.00025277,-0.00002577,-0.00152344,0.00124812,-0.00014659,
 0.00000078,0.00061629,0.00000767,0.00009754,0.00007450,0.00000327,0.00
 001096,-0.00005586,0.00000034,-0.00000276,-0.00000718,0.00000022,0.000
 00193,-0.00000699,-0.00001622,0.00000284,-0.00000798,0.00001646,-0.000
 00875,0.00000527,-0.00000013,0.00000294,0.00001061,0.00001636,0.000003
 55,0.00001169,-0.00001608,0.06606608,0.34735615,0.00006458,-0.00001456
 ,0.00052933,-0.00001276,-0.00004405,0.00048267,0.00004946,-0.00001854,
 -0.00398284,-0.00027130,-0.00014896,0.00786806,0.00002148,0.00001145,0
 .00578971,-0.00006782,0.00005237,-0.00008881,-0.00005960,-0.00001610,-
 0.00018008,-0.00000866,0.00002189,0.00019472,-0.00000399,-0.00001143,0
 .00003028,0.00000197,-0.00002428,-0.00090750,-0.00000759,0.00000947,0.
 00008857,0.00049403,0.00052494,-0.04897242,-0.00063852,0.00010374,0.00
 808372,0.00020452,0.00037317,-0.00458796,-0.00037020,-0.00007210,0.000
 04336,0.00076349,-0.00044468,0.00050556,0.00000797,-0.00000218,0.00024
 162,0.00000242,0.00000536,0.00000490,0.00000323,0.00001000,-0.00002824
 ,-0.00000079,0.00000060,-0.00000956,-0.00000031,-0.00001944,-0.0000219
 8,0.00000372,0.00002097,-0.00002101,-0.00000008,-0.00000100,-0.0000111
 0,-0.00000741,-0.00001246,0.00000327,0.00000970,0.00001118,0.00000313,
 -0.00016223,-0.00082741,0.02822328,0.00032383,0.00037522,-0.00000960,-
 0.00060454,-0.00057067,-0.00000094,0.00074264,-0.00036258,0.00002184,-
 0.00039548,-0.00118245,-0.00007265,-0.00055159,0.00103121,0.00003571,-
 0.00021095,-0.00037471,-0.00002452,-0.00021989,-0.00018572,0.00000846,
 0.00015609,-0.00015231,-0.00000109,0.00003808,0.00010051,0.00000042,0.
 00014611,0.00007398,0.00000166,-0.00003737,0.00006417,-0.00000190,0.01
 114696,0.02550447,-0.00046053,-0.06382220,-0.03365692,0.00095896,-0.00
 000182,-0.03184247,0.00094873,0.00041113,0.00029785,-0.00005958,-0.006
 52315,-0.00156455,-0.00080850,0.00012378,-0.00015001,0.00000212,-0.002
 48456,-0.00092429,-0.00007448,-0.00006271,0.00007311,-0.00000081,-0.00
 000086,-0.00000585,-0.00000017,-0.00001037,0.00000153,-0.00001015,-0.0
 0001045,0.00000101,0.00001006,0.00003892,-0.00001408,0.00000094,-0.000
 01707,-0.00002456,-0.00005623,-0.00001946,-0.00002878,0.00005764,-0.00
 361984,0.00241918,0.00008845,0.06529177,0.00000055,-0.00017746,-0.0000
 0663,0.00011716,0.00001088,-0.00000686,0.00003602,-0.00007798,-0.00000
 618,-0.00131968,-0.00015130,-0.00009228,-0.00054437,-0.00005528,-0.000
 01294,0.00005869,0.00062136,-0.00001165,-0.00013549,0.00001513,0.00000
 793,-0.00002718,0.00008231,0.00000152,-0.00001849,-0.00004949,0.000000
 59,0.00003373,-0.00027738,-0.00000014,-0.00008835,0.00014375,-0.000002
 16,-0.00170869,-0.01431722,0.00028544,-0.04103941,-0.35106797,0.006386
 88,0.00080941,-0.00821523,0.00037730,0.00160656,0.00052127,-0.00016229
 ,-0.00077202,0.00130905,-0.00040771,-0.00002959,0.00009387,0.00000218,
 -0.00114182,0.00095463,0.00000724,0.00001738,0.00002580,-0.00000092,0.
 00000124,0.00000452,0.,0.00000314,0.00000125,0.00000656,0.00000300,0.0
 0000161,-0.00000669,0.00000403,-0.00001020,0.00000069,-0.00000407,0.00
 000017,-0.00003224,-0.00000493,-0.00000078,0.00003420,0.00203011,-0.00
 006316,0.00013909,0.04207175,0.37051357,0.00010330,0.00003903,-0.00028
 803,-0.00006360,-0.00009163,-0.00006807,0.00013189,-0.00006397,-0.0000
 7347,-0.00028261,-0.00008359,-0.00348099,0.00005505,0.00011338,-0.0003
 4159,-0.00005208,0.00003158,-0.00040655,-0.00007377,-0.00002964,0.0002
 2372,-0.00000383,0.00002584,0.00004107,-0.00000198,-0.00001011,0.00002
 355,0.00000643,-0.00003173,0.00005300,-0.00001165,0.00001408,0.0001941
 3,0.00054308,-0.00009723,0.00259706,0.00021901,0.00634787,-0.03222732,
 0.00073807,0.00094408,0.00014154,-0.00049242,0.00003388,-0.00243491,0.
 00033473,-0.00079775,0.00461326,0.00000152,0.,0.00012258,-0.00007369,-
 0.00003792,0.00119624,0.00000087,0.00001400,0.00001105,0.,0.00000109,-
 0.00000106,-0.00000131,0.00000184,-0.00000463,0.00000243,0.00000173,-0
 .00000519,0.00000138,-0.00000161,-0.00003103,-0.00002208,-0.00001537,-
 0.00004307,0.00002124,0.00001230,-0.00003576,-0.00007609,-0.00010272,0
 .00665418,-0.00122354,-0.00684609,0.02281261,-0.00192738,-0.00029615,-
 0.00001274,0.00036849,0.00165988,0.00000869,-0.00132790,0.00065202,0.0
 0006161,0.00310188,0.00090853,0.00002256,-0.00083093,-0.00104490,-0.00
 004487,0.00091194,-0.00141709,-0.00001208,0.00168248,0.00051798,0.0000
 1045,0.00035885,-0.00079800,-0.00001316,0.00007481,0.00035437,0.000005
 68,0.00008507,0.00093017,0.00000568,0.00020637,-0.00035754,0.00000272,
 -0.00547308,0.00094402,-0.00049083,0.00604730,0.00337232,0.00046842,-0
 .03856971,-0.01409291,0.00571653,-0.42120266,-0.13014940,0.09616229,0.
 00587881,-0.00392561,-0.00058532,-0.00004781,-0.00000935,0.00000399,-0
 .00005535,-0.00001853,0.00000920,-0.00010882,-0.00029367,-0.00000145,0
 .00001726,-0.00002450,-0.00000026,-0.00003491,-0.00003686,0.00000622,-
 0.00003526,-0.00003575,-0.00000735,0.00001169,0.00002712,-0.00000014,-
 0.00004862,0.00001849,-0.00000769,-0.00004897,0.00001792,0.00000650,-0
 .00011098,0.00006527,0.00007294,0.00033367,-0.00000563,0.00016528,0.44
 922843,-0.00017516,-0.00003117,-0.00001472,0.00005657,0.00018251,0.000
 02314,-0.00014833,0.00012081,-0.00005762,0.00048841,-0.00011813,-0.000
 30075,-0.00017731,-0.00018691,0.00002342,0.00016610,-0.00008449,0.0000
 1301,0.00014625,0.00003776,0.00000046,0.00002806,-0.00011198,0.0000112
 5,0.00002596,0.00006659,-0.00000150,-0.00001349,-0.00001484,0.00000180
 ,-0.00000791,0.00000891,0.00000755,0.00007580,0.00108330,0.00065538,0.
 00254985,-0.00324806,0.00111951,0.03536158,0.01022226,-0.00855614,-0.1
 7840001,-0.10092408,0.05040598,-0.00172377,0.00036671,0.00088920,0.000
 01462,-0.00001566,-0.00000665,0.00001093,0.00002335,0.00000284,-0.0000
 0415,-0.00002004,0.00000223,-0.00000021,-0.00000483,0.00000039,-0.0000
 0246,-0.00000405,-0.00000727,-0.00000200,-0.00000540,0.00000670,-0.000
 00415,0.00000138,-0.00000040,0.00000054,0.00000555,-0.00000188,0.00000
 151,0.00000538,-0.00000099,0.00005071,-0.00000677,0.00009918,0.0001530
 5,0.00024239,-0.00005999,0.14041793,0.09592329,-0.00054332,-0.00008352
 ,-0.00001873,0.00016218,0.00047863,0.00008347,-0.00045013,0.00020475,-
 0.00036836,0.00098291,0.00027773,-0.00060779,-0.00031701,-0.00035476,0
 .00010700,0.00030785,-0.00036740,0.00003103,0.00045310,0.00013914,-0.0
 0001946,0.00007219,-0.00021376,0.00003767,0.00002343,0.00009623,0.0000
 1946,-0.00000061,0.00020669,-0.00000762,0.00004767,-0.00008140,0.00003
 350,-0.00223025,0.00060593,0.00260390,0.00112991,0.00086643,0.00328263
 ,-0.00935706,-0.00099586,-0.00383342,0.11151703,0.04265714,-0.03011762
 ,-0.00013298,0.00080293,-0.00354311,-0.00000253,-0.00001115,-0.0000210
 1,-0.00000302,0.00001615,-0.00001317,-0.00002230,-0.00008031,0.0000133
 9,0.00000273,-0.00000744,0.00000208,-0.00000954,-0.00001052,-0.0000059
 8,-0.00000475,-0.00001032,-0.00000176,0.00000036,0.00000715,0.00000101
 ,-0.00000921,0.00000753,-0.00000364,-0.00000945,0.00000600,-0.00000636
 ,0.00005746,-0.00000597,0.00013419,0.00004163,0.00006127,-0.00097086,-
 0.10204846,-0.04281116,0.03095436,-0.00158388,-0.00028553,-0.00002112,
 0.00031969,0.00137587,0.00002696,-0.00104411,0.00058585,-0.00002219,0.
 00261950,0.00038550,0.00009428,-0.00075438,-0.00087975,0.00008868,0.00
 074696,-0.00113682,-0.00001734,0.00138351,0.00042832,0.00000775,0.0003
 0588,-0.00067240,0.00000416,0.00006375,0.00030296,-0.00000696,0.000055
 59,0.00072999,-0.00000004,0.00016271,-0.00028188,-0.00000223,-0.003962
 22,0.00176113,-0.00015438,0.00768368,-0.00073090,-0.00126453,-0.012199
 09,-0.00389621,0.00056237,0.00125909,0.00480585,-0.00004909,-0.4535813
 4,-0.12473473,-0.11865430,-0.00003782,-0.00001155,-0.00000958,-0.00004
 571,0.00000159,-0.00000016,-0.00008718,-0.00024024,-0.00000324,0.00001
 475,-0.00002056,0.00000066,-0.00003017,-0.00002975,0.00000591,-0.00002
 996,-0.00003085,-0.00000364,0.00000775,0.00002217,0.00000005,-0.000038
 56,0.00001560,-0.00000498,-0.00003769,0.00001540,0.00000598,0.00015524
 ,-0.00020267,-0.00017672,-0.00016066,0.00004695,0.00005436,0.00151535,
 0.00111107,0.00034215,0.45729931,-0.00098703,-0.00013239,-0.00005519,0
 .00009030,0.00085669,0.00001705,-0.00055340,0.00037863,0.00005780,0.00
 136270,0.00054378,-0.00032779,-0.00031708,-0.00054185,0.00003987,0.000
 48977,-0.00062000,0.00002858,0.00084797,0.00024546,0.00001996,0.000240
 74,-0.00055369,-0.00000521,0.00007645,0.00027660,0.00000444,0.00007428
 ,0.00039793,0.00000531,0.00006679,-0.00013991,-0.00000165,-0.00112616,
 0.00059164,-0.00016937,0.00439021,-0.00548388,0.00077808,-0.05118666,-
 0.01694692,-0.01113116,0.00259012,0.00471946,0.00107731,-0.07843556,-0
 .06258911,-0.01685494,-0.00003301,0.00001965,0.00001129,-0.00003248,0.
 00001147,0.00002604,-0.00006330,-0.00013276,-0.00000120,0.00001182,-0.
 00001588,-0.00000048,-0.00002229,-0.00001873,-0.00000927,-0.00002249,-
 0.00001832,0.00000601,0.00000390,0.00001204,-0.00000063,-0.00002263,0.
 00001057,-0.00000993,-0.00002243,0.00001129,0.00000790,-0.00047893,0.0
 0052644,0.00027377,-0.00112708,-0.00007810,0.00068864,0.00261989,-0.00
 351377,-0.00140015,0.12156560,0.08218366,0.00052221,0.00012789,-0.0000
 0329,-0.00014703,-0.00051279,-0.00001660,0.00042116,-0.00021061,-0.000
 08919,-0.00099236,-0.00011415,0.00013462,0.00031565,0.00036502,0.00015
 841,-0.00025562,0.00038557,-0.00010864,-0.00046532,-0.00015166,0.00001
 685,-0.00008168,0.00021699,-0.00001722,-0.00002355,-0.00009583,0.00004
 192,0.00000615,-0.00023379,-0.00003279,-0.00006377,0.00009964,0.000037
 25,0.00176241,-0.00096400,-0.00074869,-0.00259752,0.00250697,0.0024015
 2,0.00945141,0.00578245,-0.00335759,-0.00019716,0.00071186,-0.00336320
 ,-0.12777793,-0.03383875,-0.03577344,0.00000466,0.00000962,0.00004376,
 0.00000402,-0.00002659,0.00010803,0.00002179,0.00008444,0.00000842,-0.
 00000375,0.00000688,-0.00000019,0.00000672,0.00001168,-0.00000732,0.00
 001049,0.00000934,-0.00000783,-0.00000089,-0.00000777,-0.00000035,0.00
 001124,-0.00000399,-0.00000748,0.00001039,-0.00000727,-0.00000218,-0.0
 0026257,0.00008303,-0.00006902,0.00062806,0.00028387,0.00172856,0.0004
 9559,-0.00144298,0.00223520,0.11919718,0.02692493,0.03669048\\0.000067
 05,0.00000294,0.00000147,0.00001533,-0.00003685,0.00000741,0.00003871,
 -0.00000381,-0.00000040,-0.00005875,-0.00001441,0.00000268,0.00002260,
 0.00001830,-0.00000277,-0.00000857,0.00002990,0.00000480,-0.00006309,0
 .00000988,0.00000051,-0.00000413,0.00005891,-0.00001064,-0.00003363,-0
 .00005805,0.00000510,0.00001349,-0.00003813,-0.00000652,-0.00004272,0.
 00004984,0.00000345,0.00007731,-0.00002327,-0.00000186,-0.00008087,0.0
 0002236,-0.00000377,0.00004889,0.00001374,0.00002593,-0.00002284,-0.00
 001919,-0.00000449,-0.00002151,-0.00000908,-0.00001863,-0.00000607,-0.
 00000010,-0.00000111,-0.00000308,-0.00000956,-0.00000100,0.00000235,-0
 .00001199,0.00000005,0.00000329,0.00000792,0.00000016,0.00001381,0.000
 00899,0.00000105,0.00001159,0.00000992,-0.00000346,-0.00000405,-0.0000
 0096,0.00000078,0.00000776,-0.00000196,-0.00000161,0.00000869,-0.00000
 061,0.00000221,-0.00000808,0.00000257,-0.00000283,0.00000570,-0.000009
 52,-0.00000052,0.00000871,0.00000418,-0.00000216,0.00001211,-0.0000019
 7,0.00000617\\\@


 KNOWLEDGE IS OF TWO KINDS:  WE KNOW A SUBJECT OURSELVES OR WE KNOW 
 WHERE WE CAN FIND INFORMATION UPON IT.

                                    -- SAMUEL JOHNSON
 Job cpu time:       0 days  1 hours 16 minutes 29.6 seconds.
 File lengths (MBytes):  RWF=    392 Int=      0 D2E=      0 Chk=     11 Scr=      1
 Normal termination of Gaussian 09 at Tue Feb 27 12:32:11 2024.
