 Entering Gaussian System, Link 0=g09
 Input=pbeSAgd3.gjf
 Output=pbeSAgd3.log
 Initial command:
 /home/c612/g09E/g09/l1.exe "/mnt/ja_sm883/scratch/Gau-229581.inp" -scrdir="/mnt/ja_sm883/scratch/"
 Default is to use a total of  18 processors:
                               18 via shared-memory
                                1 via Linda
 Entering Link 1 = /home/c612/g09E/g09/l1.exe PID=    229583.
  
 Copyright (c) 1988,1990,1992,1993,1995,1998,2003,2009,2015,
            Gaussian, Inc.  All Rights Reserved.
  
 This is part of the Gaussian(R) 09 program.  It is based on
 the Gaussian(R) 03 system (copyright 2003, Gaussian, Inc.),
 the Gaussian(R) 98 system (copyright 1998, Gaussian, Inc.),
 the Gaussian(R) 94 system (copyright 1995, Gaussian, Inc.),
 the Gaussian 92(TM) system (copyright 1992, Gaussian, Inc.),
 the Gaussian 90(TM) system (copyright 1990, Gaussian, Inc.),
 the Gaussian 88(TM) system (copyright 1988, Gaussian, Inc.),
 the Gaussian 86(TM) system (copyright 1986, Carnegie Mellon
 University), and the Gaussian 82(TM) system (copyright 1983,
 Carnegie Mellon University). Gaussian is a federally registered
 trademark of Gaussian, Inc.
  
 This software contains proprietary and confidential information,
 including trade secrets, belonging to Gaussian, Inc.
  
 This software is provided under written license and may be
 used, copied, transmitted, or stored only in accord with that
 written license.
  
 The following legend is applicable only to US Government
 contracts under FAR:
  
                    RESTRICTED RIGHTS LEGEND
  
 Use, reproduction and disclosure by the US Government is
 subject to restrictions as set forth in subparagraphs (a)
 and (c) of the Commercial Computer Software - Restricted
 Rights clause in FAR 52.227-19.
  
 Gaussian, Inc.
 340 Quinnipiac St., Bldg. 40, Wallingford CT 06492
  
  
 ---------------------------------------------------------------
 Warning -- This program may not be used in any manner that
 competes with the business of Gaussian, Inc. or will provide
 assistance to any competitor of Gaussian, Inc.  The licensee
 of this program is prohibited from giving any competitor of
 Gaussian, Inc. access to this program.  By using this program,
 the user acknowledges that Gaussian, Inc. is engaged in the
 business of creating and licensing software in the field of
 computational chemistry and represents and warrants to the
 licensee that it is not a competitor of Gaussian, Inc. and that
 it will not use this program in any manner prohibited above.
 ---------------------------------------------------------------
  

 Cite this work as:
 Gaussian 09, Revision E.01,
 M. J. Frisch, G. W. Trucks, H. B. Schlegel, G. E. Scuseria, 
 M. A. Robb, J. R. Cheeseman, G. Scalmani, V. Barone, B. Mennucci, 
 G. A. Petersson, H. Nakatsuji, M. Caricato, X. Li, H. P. Hratchian, 
 A. F. Izmaylov, J. Bloino, G. Zheng, J. L. Sonnenberg, M. Hada, 
 M. Ehara, K. Toyota, R. Fukuda, J. Hasegawa, M. Ishida, T. Nakajima, 
 Y. Honda, O. Kitao, H. Nakai, T. Vreven, J. A. Montgomery, Jr., 
 J. E. Peralta, F. Ogliaro, M. Bearpark, J. J. Heyd, E. Brothers, 
 K. N. Kudin, V. N. Staroverov, T. Keith, R. Kobayashi, J. Normand, 
 K. Raghavachari, A. Rendell, J. C. Burant, S. S. Iyengar, J. Tomasi, 
 M. Cossi, N. Rega, J. M. Millam, M. Klene, J. E. Knox, J. B. Cross, 
 V. Bakken, C. Adamo, J. Jaramillo, R. Gomperts, R. E. Stratmann, 
 O. Yazyev, A. J. Austin, R. Cammi, C. Pomelli, J. W. Ochterski, 
 R. L. Martin, K. Morokuma, V. G. Zakrzewski, G. A. Voth, 
 P. Salvador, J. J. Dannenberg, S. Dapprich, A. D. Daniels, 
 O. Farkas, J. B. Foresman, J. V. Ortiz, J. Cioslowski, 
 and D. J. Fox, Gaussian, Inc., Wallingford CT, 2013.
 
 ******************************************
 Gaussian 09:  ES64L-G09RevE.01 30-Nov-2015
                19-Jun-2024 
 ******************************************
 %chk=pbeSAgd3.chk
 --------------------------------------
 # opt freq pbepbe/6-31+g(d,p) em=gd3bj
 --------------------------------------
 1/14=-1,18=20,19=15,26=3,38=1/1,3;
 2/9=110,12=2,17=6,18=5,40=1/2;
 3/5=1,6=6,7=111,11=2,16=1,25=1,30=1,71=1,74=1009,124=41/1,2,3;
 4//1;
 5/5=2,38=5/2;
 6/7=2,8=2,9=2,10=2,28=1/1;
 7//1,2,3,16;
 1/14=-1,18=20,19=15,26=3/3(2);
 2/9=110/2;
 99//99;
 2/9=110/2;
 3/5=1,6=6,7=111,11=2,16=1,25=1,30=1,71=1,74=1009,124=41/1,2,3;
 4/5=5,16=3,69=1/1;
 5/5=2,38=5/2;
 7//1,2,3,16;
 1/14=-1,18=20,19=15,26=3/3(-5);
 2/9=110/2;
 6/7=2,8=2,9=2,10=2,19=2,28=1/1;
 99/9=1/99;
 ----------
 [No Title]
 ----------
 Symbolic Z-matrix:
 Charge =  0 Multiplicity = 1
 C                     2.28114  -0.11493   0.00017 
 C                     1.69778   1.17784   0.00023 
 C                     0.31627   1.33679   0.00024 
 C                    -0.53273   0.21055   0.00017 
 C                     0.04426  -1.06184   0.00008 
 C                     1.43183  -1.23881  -0.00001 
 O                     3.65088  -0.12487  -0.00003 
 O                     2.59517   2.20223   0.0003 
 C                     2.09839   3.53512   0.00032 
 O                     1.79992  -2.56859  -0.00032 
 C                     3.14206  -3.02901  -0.00027 
 C                    -1.97593   0.43232   0.00017 
 C                    -2.95775  -0.49364  -0.00031 
 C                    -4.36706  -0.0767   -0.00022 
 O                    -5.2074   -1.15151  -0.00091 
 O                    -4.79191   1.06697   0.00032 
 H                    -0.12107   2.32736   0.00033 
 H                    -0.56228  -1.9599    0.00001 
 H                     3.99357  -1.02294   0.00204 
 H                     2.98015   4.17671   0.00035 
 H                     1.49903   3.73875  -0.89583 
 H                     1.49899   3.73871   0.89645 
 H                     3.07544  -4.1183   -0.00059 
 H                     3.68418  -2.72768  -0.90753 
 H                     3.68384  -2.72833   0.90745 
 H                    -2.29615   1.47331   0.0006 
 H                    -2.76649  -1.56116  -0.00079 
 H                    -6.11184  -0.79659  -0.00083 
 

 GradGradGradGradGradGradGradGradGradGradGradGradGradGradGradGradGradGrad
 Berny optimization.
 Initialization pass.
                           ----------------------------
                           !    Initial Parameters    !
                           ! (Angstroms and Degrees)  !
 --------------------------                            --------------------------
 ! Name  Definition              Value          Derivative Info.                !
 --------------------------------------------------------------------------------
 ! R1    R(1,2)                  1.4183         estimate D2E/DX2                !
 ! R2    R(1,6)                  1.4087         estimate D2E/DX2                !
 ! R3    R(1,7)                  1.3698         estimate D2E/DX2                !
 ! R4    R(2,3)                  1.3906         estimate D2E/DX2                !
 ! R5    R(2,8)                  1.3619         estimate D2E/DX2                !
 ! R6    R(3,4)                  1.4104         estimate D2E/DX2                !
 ! R7    R(3,17)                 1.0828         estimate D2E/DX2                !
 ! R8    R(4,5)                  1.3971         estimate D2E/DX2                !
 ! R9    R(4,12)                 1.4601         estimate D2E/DX2                !
 ! R10   R(5,6)                  1.3988         estimate D2E/DX2                !
 ! R11   R(5,18)                 1.0837         estimate D2E/DX2                !
 ! R12   R(6,10)                 1.3798         estimate D2E/DX2                !
 ! R13   R(7,19)                 0.9612         estimate D2E/DX2                !
 ! R14   R(8,9)                  1.4225         estimate D2E/DX2                !
 ! R15   R(9,20)                 1.0905         estimate D2E/DX2                !
 ! R16   R(9,21)                 1.0972         estimate D2E/DX2                !
 ! R17   R(9,22)                 1.0972         estimate D2E/DX2                !
 ! R18   R(10,11)                1.4189         estimate D2E/DX2                !
 ! R19   R(11,23)                1.0913         estimate D2E/DX2                !
 ! R20   R(11,24)                1.099          estimate D2E/DX2                !
 ! R21   R(11,25)                1.099          estimate D2E/DX2                !
 ! R22   R(12,13)                1.3496         estimate D2E/DX2                !
 ! R23   R(12,26)                1.0891         estimate D2E/DX2                !
 ! R24   R(13,14)                1.4697         estimate D2E/DX2                !
 ! R25   R(13,27)                1.0845         estimate D2E/DX2                !
 ! R26   R(14,15)                1.3643         estimate D2E/DX2                !
 ! R27   R(14,16)                1.22           estimate D2E/DX2                !
 ! R28   R(15,28)                0.9716         estimate D2E/DX2                !
 ! A1    A(2,1,6)              118.6345         estimate D2E/DX2                !
 ! A2    A(2,1,7)              114.7034         estimate D2E/DX2                !
 ! A3    A(6,1,7)              126.6622         estimate D2E/DX2                !
 ! A4    A(1,2,3)              120.8506         estimate D2E/DX2                !
 ! A5    A(1,2,8)              114.4935         estimate D2E/DX2                !
 ! A6    A(3,2,8)              124.6559         estimate D2E/DX2                !
 ! A7    A(2,3,4)              120.4472         estimate D2E/DX2                !
 ! A8    A(2,3,17)             120.3847         estimate D2E/DX2                !
 ! A9    A(4,3,17)             119.1681         estimate D2E/DX2                !
 ! A10   A(3,4,5)              118.5966         estimate D2E/DX2                !
 ! A11   A(3,4,12)             118.2742         estimate D2E/DX2                !
 ! A12   A(5,4,12)             123.1292         estimate D2E/DX2                !
 ! A13   A(4,5,6)              121.6617         estimate D2E/DX2                !
 ! A14   A(4,5,18)             121.5721         estimate D2E/DX2                !
 ! A15   A(6,5,18)             116.7662         estimate D2E/DX2                !
 ! A16   A(1,6,5)              119.8096         estimate D2E/DX2                !
 ! A17   A(1,6,10)             127.4495         estimate D2E/DX2                !
 ! A18   A(5,6,10)             112.7409         estimate D2E/DX2                !
 ! A19   A(1,7,19)             111.3022         estimate D2E/DX2                !
 ! A20   A(2,8,9)              118.3402         estimate D2E/DX2                !
 ! A21   A(8,9,20)             105.5995         estimate D2E/DX2                !
 ! A22   A(8,9,21)             111.3877         estimate D2E/DX2                !
 ! A23   A(8,9,22)             111.3879         estimate D2E/DX2                !
 ! A24   A(20,9,21)            109.4238         estimate D2E/DX2                !
 ! A25   A(20,9,22)            109.4237         estimate D2E/DX2                !
 ! A26   A(21,9,22)            109.5266         estimate D2E/DX2                !
 ! A27   A(6,10,11)            124.4069         estimate D2E/DX2                !
 ! A28   A(10,11,23)           105.4352         estimate D2E/DX2                !
 ! A29   A(10,11,24)           112.1845         estimate D2E/DX2                !
 ! A30   A(10,11,25)           112.1815         estimate D2E/DX2                !
 ! A31   A(23,11,24)           107.6704         estimate D2E/DX2                !
 ! A32   A(23,11,25)           107.6628         estimate D2E/DX2                !
 ! A33   A(24,11,25)           111.3233         estimate D2E/DX2                !
 ! A34   A(4,12,13)            127.9411         estimate D2E/DX2                !
 ! A35   A(4,12,26)            115.8345         estimate D2E/DX2                !
 ! A36   A(13,12,26)           116.2244         estimate D2E/DX2                !
 ! A37   A(12,13,14)           120.1965         estimate D2E/DX2                !
 ! A38   A(12,13,27)           123.1651         estimate D2E/DX2                !
 ! A39   A(14,13,27)           116.6384         estimate D2E/DX2                !
 ! A40   A(13,14,15)           111.5392         estimate D2E/DX2                !
 ! A41   A(13,14,16)           126.8601         estimate D2E/DX2                !
 ! A42   A(15,14,16)           121.6007         estimate D2E/DX2                !
 ! A43   A(14,15,28)           106.5938         estimate D2E/DX2                !
 ! D1    D(6,1,2,3)              0.0058         estimate D2E/DX2                !
 ! D2    D(6,1,2,8)           -179.9949         estimate D2E/DX2                !
 ! D3    D(7,1,2,3)            179.991          estimate D2E/DX2                !
 ! D4    D(7,1,2,8)             -0.0097         estimate D2E/DX2                !
 ! D5    D(2,1,6,5)             -0.0096         estimate D2E/DX2                !
 ! D6    D(2,1,6,10)           179.9883         estimate D2E/DX2                !
 ! D7    D(7,1,6,5)           -179.9929         estimate D2E/DX2                !
 ! D8    D(7,1,6,10)             0.0051         estimate D2E/DX2                !
 ! D9    D(2,1,7,19)           179.8655         estimate D2E/DX2                !
 ! D10   D(6,1,7,19)            -0.1507         estimate D2E/DX2                !
 ! D11   D(1,2,3,4)             -0.0008         estimate D2E/DX2                !
 ! D12   D(1,2,3,17)           179.9977         estimate D2E/DX2                !
 ! D13   D(8,2,3,4)            179.9999         estimate D2E/DX2                !
 ! D14   D(8,2,3,17)            -0.0015         estimate D2E/DX2                !
 ! D15   D(1,2,8,9)            179.9979         estimate D2E/DX2                !
 ! D16   D(3,2,8,9)             -0.0028         estimate D2E/DX2                !
 ! D17   D(2,3,4,5)             -0.0003         estimate D2E/DX2                !
 ! D18   D(2,3,4,12)          -179.9997         estimate D2E/DX2                !
 ! D19   D(17,3,4,5)          -179.9988         estimate D2E/DX2                !
 ! D20   D(17,3,4,12)            0.0017         estimate D2E/DX2                !
 ! D21   D(3,4,5,6)             -0.0038         estimate D2E/DX2                !
 ! D22   D(3,4,5,18)          -179.9992         estimate D2E/DX2                !
 ! D23   D(12,4,5,6)           179.9957         estimate D2E/DX2                !
 ! D24   D(12,4,5,18)            0.0003         estimate D2E/DX2                !
 ! D25   D(3,4,12,13)          179.9774         estimate D2E/DX2                !
 ! D26   D(3,4,12,26)           -0.0211         estimate D2E/DX2                !
 ! D27   D(5,4,12,13)           -0.022          estimate D2E/DX2                !
 ! D28   D(5,4,12,26)          179.9795         estimate D2E/DX2                !
 ! D29   D(4,5,6,1)              0.0088         estimate D2E/DX2                !
 ! D30   D(4,5,6,10)          -179.9894         estimate D2E/DX2                !
 ! D31   D(18,5,6,1)          -179.9956         estimate D2E/DX2                !
 ! D32   D(18,5,6,10)            0.0062         estimate D2E/DX2                !
 ! D33   D(1,6,10,11)            0.012          estimate D2E/DX2                !
 ! D34   D(5,6,10,11)         -179.9899         estimate D2E/DX2                !
 ! D35   D(2,8,9,20)          -179.9989         estimate D2E/DX2                !
 ! D36   D(2,8,9,21)           -61.3034         estimate D2E/DX2                !
 ! D37   D(2,8,9,22)            61.3057         estimate D2E/DX2                !
 ! D38   D(6,10,11,23)        -179.9988         estimate D2E/DX2                !
 ! D39   D(6,10,11,24)         -63.0841         estimate D2E/DX2                !
 ! D40   D(6,10,11,25)          63.0972         estimate D2E/DX2                !
 ! D41   D(4,12,13,14)        -179.9998         estimate D2E/DX2                !
 ! D42   D(4,12,13,27)          -0.001          estimate D2E/DX2                !
 ! D43   D(26,12,13,14)         -0.0013         estimate D2E/DX2                !
 ! D44   D(26,12,13,27)        179.9975         estimate D2E/DX2                !
 ! D45   D(12,13,14,15)        179.9931         estimate D2E/DX2                !
 ! D46   D(12,13,14,16)         -0.0032         estimate D2E/DX2                !
 ! D47   D(27,13,14,15)         -0.0058         estimate D2E/DX2                !
 ! D48   D(27,13,14,16)        179.9979         estimate D2E/DX2                !
 ! D49   D(13,14,15,28)       -179.9983         estimate D2E/DX2                !
 ! D50   D(16,14,15,28)         -0.0017         estimate D2E/DX2                !
 --------------------------------------------------------------------------------
 Trust Radius=3.00D-01 FncErr=1.00D-07 GrdErr=1.00D-06
 Number of steps in this run=    131 maximum allowed number of steps=    168.
 GradGradGradGradGradGradGradGradGradGradGradGradGradGradGradGradGradGrad

                          Input orientation:                          
 ---------------------------------------------------------------------
 Center     Atomic      Atomic             Coordinates (Angstroms)
 Number     Number       Type             X           Y           Z
 ---------------------------------------------------------------------
      1          6           0        2.281140   -0.114926    0.000168
      2          6           0        1.697776    1.177841    0.000232
      3          6           0        0.316268    1.336787    0.000240
      4          6           0       -0.532731    0.210550    0.000167
      5          6           0        0.044264   -1.061835    0.000081
      6          6           0        1.431825   -1.238812   -0.000012
      7          8           0        3.650879   -0.124871   -0.000028
      8          8           0        2.595166    2.202232    0.000297
      9          6           0        2.098390    3.535123    0.000319
     10          8           0        1.799915   -2.568591   -0.000322
     11          6           0        3.142056   -3.029013   -0.000269
     12          6           0       -1.975931    0.432322    0.000173
     13          6           0       -2.957754   -0.493637   -0.000308
     14          6           0       -4.367059   -0.076696   -0.000216
     15          8           0       -5.207399   -1.151508   -0.000906
     16          8           0       -4.791914    1.066967    0.000323
     17          1           0       -0.121069    2.327355    0.000326
     18          1           0       -0.562283   -1.959901    0.000009
     19          1           0        3.993572   -1.022939    0.002039
     20          1           0        2.980149    4.176705    0.000351
     21          1           0        1.499028    3.738751   -0.895829
     22          1           0        1.498994    3.738712    0.896454
     23          1           0        3.075444   -4.118302   -0.000594
     24          1           0        3.684177   -2.727677   -0.907525
     25          1           0        3.683839   -2.728328    0.907445
     26          1           0       -2.296149    1.473312    0.000595
     27          1           0       -2.766491   -1.561158   -0.000792
     28          1           0       -6.111837   -0.796585   -0.000826
 ---------------------------------------------------------------------
                    Distance matrix (angstroms):
                    1          2          3          4          5
     1  C    0.000000
     2  C    1.418295   0.000000
     3  C    2.442988   1.390622   0.000000
     4  C    2.832632   2.431216   1.410393   0.000000
     5  C    2.429043   2.783927   2.413995   1.397099   0.000000
     6  C    1.408707   2.431243   2.806809   2.441338   1.398802
     7  O    1.369775   2.347695   3.640889   4.197035   3.726335
     8  O    2.338340   1.361868   2.437698   3.708172   4.142612
     9  C    3.654621   2.391081   2.829954   4.239762   5.035023
    10  O    2.500410   3.747824   4.177701   3.628342   2.313574
    11  C    3.038598   4.447872   5.200508   4.898860   3.669619
    12  C    4.292101   3.748589   2.464190   1.460140   2.512706
    13  C    5.252564   4.946494   3.750956   2.525196   3.055317
    14  C    6.648309   6.193229   4.891982   3.845072   4.519986
    15  O    7.559942   7.287476   6.058260   4.869058   5.252429
    16  O    7.171120   6.490637   5.115303   4.344432   5.283977
    17  H    3.425689   2.151646   1.082815   2.156462   3.393220
    18  H    3.389541   3.866949   3.411745   2.170652   1.083707
    19  H    1.938276   3.180270   4.369311   4.691366   3.949500
    20  H    4.348185   3.261543   3.893764   5.298180   6.005141
    21  H    4.033031   2.720420   2.823348   4.168819   5.095549
    22  H    4.033064   2.720439   2.823346   4.168832   5.095584
    23  H    4.081414   5.472394   6.113186   5.635414   4.304654
    24  H    3.101433   4.474694   5.355998   5.219137   4.104600
    25  H    3.101707   4.475001   5.356185   5.219159   4.104511
    26  H    4.845005   4.004840   2.615982   2.168919   3.450290
    27  H    5.250730   5.237537   4.231015   2.851076   2.854762
    28  H    8.420613   8.055335   6.772873   5.669281   6.161813
                    6          7          8          9         10
     6  C    0.000000
     7  O    2.482955   0.000000
     8  O    3.632375   2.555374   0.000000
     9  C    4.820245   3.975648   1.422457   0.000000
    10  O    1.379784   3.065589   4.836649   6.111007   0.000000
    11  C    2.475825   2.948379   5.259754   6.646587   1.418919
    12  C    3.795456   5.654331   4.901786   5.121276   4.823121
    13  C    4.452380   6.618914   6.172733   6.464944   5.190457
    14  C    5.914184   8.018083   7.325714   7.405894   6.651399
    15  O    6.639798   8.917571   8.492797   8.679808   7.149166
    16  O    6.637134   8.526502   7.473806   7.319022   7.527914
    17  H    3.889605   4.499000   2.719115   2.526797   5.259322
    18  H    2.120480   4.595440   5.224255   6.105282   2.439361
    19  H    2.570827   0.961233   3.515291   4.936360   2.683501
    20  H    5.632507   4.353554   2.011655   1.090471   6.847771
    21  H    5.057978   4.512261   2.089366   1.097169   6.377698
    22  H    5.058054   4.512379   2.089369   1.097170   6.377839
    23  H    3.315561   4.034677   6.338755   7.715539   2.007132
    24  H    2.848401   2.756675   5.129726   6.523923   2.097324
    25  H    2.848456   2.757278   5.130161   6.524365   2.097314
    26  H    4.610142   6.158030   4.945330   4.854177   5.754539
    27  H    4.210673   6.576136   6.550608   7.045506   4.676215
    28  H    7.556613   9.785797   9.208952   9.282862   8.107763
                   11         12         13         14         15
    11  C    0.000000
    12  C    6.178562   0.000000
    13  C    6.605741   1.349584   0.000000
    14  C    8.068642   2.444707   1.469687   0.000000
    15  O    8.557945   3.598736   2.343864   1.364329   0.000000
    16  O    8.928882   2.886613   2.408242   1.220028   2.257047
    17  H    6.272054   2.651728   4.000597   4.879333   6.162243
    18  H    3.855532   2.778692   2.808596   4.245325   4.714934
    19  H    2.179316   6.144327   6.971449   8.414008   9.201870
    20  H    7.207537   6.211532   7.554521   8.489575   9.768613
    21  H    7.021695   4.879614   6.211117   7.054838   8.348154
    22  H    7.021814   4.879615   6.211245   7.054923   8.348366
    23  H    1.091324   6.798865   7.038301   8.469087   8.798145
    24  H    1.099005   6.545711   7.066061   8.524864   9.075593
    25  H    1.099038   6.545674   7.066018   8.524785   9.075548
    26  H    7.060099   1.089128   2.075237   2.586734   3.919829
    27  H    6.088146   2.144516   1.084520   2.182990   2.475044
    28  H    9.519363   4.314618   3.168599   1.887456   0.971586
                   16         17         18         19         20
    16  O    0.000000
    17  H    4.837910   0.000000
    18  H    5.201126   4.309900   0.000000
    19  H    9.030641   5.306104   4.651206   0.000000
    20  H    8.371107   3.610768   7.085673   5.297483   0.000000
    21  H    6.893292   2.328056   6.125860   5.450010   1.785682
    22  H    6.893243   2.327999   6.125901   5.449424   1.785682
    23  H    9.422438   7.194734   4.229864   3.228659   8.295554
    24  H    9.331004   6.391982   4.409708   1.956825   6.999313
    25  H    9.330891   6.392192   4.409475   1.955517   6.999820
    26  H    2.528628   2.336742   3.846199   6.766968   5.928546
    27  H    3.318039   4.703062   2.239984   6.781456   8.120772
    28  H    2.283643   6.756353   5.670172  10.107944  10.363292
                   21         22         23         24         25
    21  H    0.000000
    22  H    1.792283   0.000000
    23  H    8.063487   8.063657   0.000000
    24  H    6.825665   7.059997   1.768309   0.000000
    25  H    7.060333   6.826146   1.768250   1.814970   0.000000
    26  H    4.509896   4.509735   7.753719   7.364597   7.364537
    27  H    6.861835   6.862072   6.377083   6.617707   6.617699
    28  H    8.904806   8.904986   9.769337  10.025623  10.025560
                   26         27         28
    26  H    0.000000
    27  H    3.070705   0.000000
    28  H    4.439810   3.431605   0.000000
 Stoichiometry    C11H12O5
 Framework group  C1[X(C11H12O5)]
 Deg. of freedom    78
 Full point group                 C1      NOp   1
 Largest Abelian subgroup         C1      NOp   1
 Largest concise Abelian subgroup C1      NOp   1
                         Standard orientation:                         
 ---------------------------------------------------------------------
 Center     Atomic      Atomic             Coordinates (Angstroms)
 Number     Number       Type             X           Y           Z
 ---------------------------------------------------------------------
      1          6           0        2.281140   -0.114926    0.000168
      2          6           0        1.697776    1.177841    0.000232
      3          6           0        0.316268    1.336787    0.000240
      4          6           0       -0.532731    0.210550    0.000167
      5          6           0        0.044264   -1.061835    0.000081
      6          6           0        1.431825   -1.238812   -0.000012
      7          8           0        3.650879   -0.124871   -0.000028
      8          8           0        2.595166    2.202232    0.000297
      9          6           0        2.098390    3.535123    0.000319
     10          8           0        1.799915   -2.568591   -0.000322
     11          6           0        3.142056   -3.029013   -0.000269
     12          6           0       -1.975931    0.432322    0.000173
     13          6           0       -2.957754   -0.493637   -0.000308
     14          6           0       -4.367059   -0.076696   -0.000216
     15          8           0       -5.207399   -1.151508   -0.000906
     16          8           0       -4.791914    1.066967    0.000323
     17          1           0       -0.121069    2.327355    0.000326
     18          1           0       -0.562283   -1.959901    0.000009
     19          1           0        3.993572   -1.022939    0.002039
     20          1           0        2.980149    4.176705    0.000351
     21          1           0        1.499028    3.738751   -0.895829
     22          1           0        1.498994    3.738712    0.896454
     23          1           0        3.075444   -4.118302   -0.000594
     24          1           0        3.684177   -2.727677   -0.907525
     25          1           0        3.683839   -2.728328    0.907445
     26          1           0       -2.296149    1.473312    0.000595
     27          1           0       -2.766491   -1.561158   -0.000792
     28          1           0       -6.111837   -0.796585   -0.000826
 ---------------------------------------------------------------------
 Rotational constants (GHZ):      0.7709096      0.2562188      0.1927856
 Standard basis: 6-31+G(d,p) (6D, 7F)
 There are   364 symmetry adapted cartesian basis functions of A   symmetry.
 There are   364 symmetry adapted basis functions of A   symmetry.
   364 basis functions,   596 primitive gaussians,   364 cartesian basis functions
    59 alpha electrons       59 beta electrons
       nuclear repulsion energy      1049.0853411847 Hartrees.
 NAtoms=   28 NActive=   28 NUniq=   28 SFac= 1.00D+00 NAtFMM=   60 NAOKFM=F Big=F
 Integral buffers will be    131072 words long.
 Raffenetti 2 integral format.
 Two-electron integral symmetry is turned on.
 Nuclear repulsion after empirical dispersion term =     1049.0554761238 Hartrees.
 One-electron integrals computed using PRISM.
 NBasis=   364 RedAO= T EigKep=  1.46D-06  NBF=   364
 NBsUse=   362 1.00D-06 EigRej=  5.44D-07 NBFU=   362
 ExpMin= 4.38D-02 ExpMax= 5.48D+03 ExpMxC= 8.25D+02 IAcc=2 IRadAn=         4 AccDes= 0.00D+00
 Harris functional with IExCor= 1009 and IRadAn=       4 diagonalized for initial guess.
 HarFok:  IExCor= 1009 AccDes= 0.00D+00 IRadAn=         4 IDoV= 1 UseB2=F ITyADJ=14
 ICtDFT=  3500011 ScaDFX=  1.000000  1.000000  1.000000  1.000000
 FoFCou: FMM=F IPFlag=           0 FMFlag=      100000 FMFlg1=           0
         NFxFlg=           0 DoJE=T BraDBF=F KetDBF=T FulRan=T
         wScrn=  0.000000 ICntrl=     500 IOpCl=  0 I1Cent=   200000004 NGrid=           0
         NMat0=    1 NMatS0=      1 NMatT0=    0 NMatD0=    1 NMtDS0=    0 NMtDT0=    0
 Petite list used in FoFCou.
 Requested convergence on RMS density matrix=1.00D-08 within 128 cycles.
 Requested convergence on MAX density matrix=1.00D-06.
 Requested convergence on             energy=1.00D-06.
 No special actions if energy rises.
 EnCoef did     2 forward-backward iterations
 SCF Done:  E(RPBE-PBE) =  -801.632936090     A.U. after   18 cycles
            NFock= 18  Conv=0.29D-08     -V/T= 2.0090

 **********************************************************************

            Population analysis using the SCF density.

 **********************************************************************

 Orbital symmetries:
       Occupied  (A) (A) (A) (A) (A) (A) (A) (A) (A) (A) (A) (A)
                 (A) (A) (A) (A) (A) (A) (A) (A) (A) (A) (A) (A)
                 (A) (A) (A) (A) (A) (A) (A) (A) (A) (A) (A) (A)
                 (A) (A) (A) (A) (A) (A) (A) (A) (A) (A) (A) (A)
                 (A) (A) (A) (A) (A) (A) (A) (A) (A) (A) (A)
       Virtual   (A) (A) (A) (A) (A) (A) (A) (A) (A) (A) (A) (A)
                 (A) (A) (A) (A) (A) (A) (A) (A) (A) (A) (A) (A)
                 (A) (A) (A) (A) (A) (A) (A) (A) (A) (A) (A) (A)
                 (A) (A) (A) (A) (A) (A) (A) (A) (A) (A) (A) (A)
                 (A) (A) (A) (A) (A) (A) (A) (A) (A) (A) (A) (A)
                 (A) (A) (A) (A) (A) (A) (A) (A) (A) (A) (A) (A)
                 (A) (A) (A) (A) (A) (A) (A) (A) (A) (A) (A) (A)
                 (A) (A) (A) (A) (A) (A) (A) (A) (A) (A) (A) (A)
                 (A) (A) (A) (A) (A) (A) (A) (A) (A) (A) (A) (A)
                 (A) (A) (A) (A) (A) (A) (A) (A) (A) (A) (A) (A)
                 (A) (A) (A) (A) (A) (A) (A) (A) (A) (A) (A) (A)
                 (A) (A) (A) (A) (A) (A) (A) (A) (A) (A) (A) (A)
                 (A) (A) (A) (A) (A) (A) (A) (A) (A) (A) (A) (A)
                 (A) (A) (A) (A) (A) (A) (A) (A) (A) (A) (A) (A)
                 (A) (A) (A) (A) (A) (A) (A) (A) (A) (A) (A) (A)
                 (A) (A) (A) (A) (A) (A) (A) (A) (A) (A) (A) (A)
                 (A) (A) (A) (A) (A) (A) (A) (A) (A) (A) (A) (A)
                 (A) (A) (A) (A) (A) (A) (A) (A) (A) (A) (A) (A)
                 (A) (A) (A) (A) (A) (A) (A) (A) (A) (A) (A) (A)
                 (A) (A) (A) (A) (A) (A) (A) (A) (A) (A) (A) (A)
                 (A) (A) (A) (A) (A) (A) (A) (A) (A) (A) (A) (A)
                 (A) (A) (A) (A) (A) (A) (A) (A) (A) (A) (A) (A)
                 (A) (A) (A) (A) (A) (A) (A) (A) (A) (A) (A) (A)
                 (A) (A) (A) (A) (A) (A) (A) (A) (A) (A) (A) (A)
                 (A) (A) (A) (A) (A) (A) (A) (A) (A) (A) (A) (A)
                 (A) (A) (A)
 The electronic state is 1-A.
 Alpha  occ. eigenvalues --  -18.83162 -18.82816 -18.82266 -18.82015 -18.75996
 Alpha  occ. eigenvalues --  -10.01858  -9.98195  -9.98059  -9.97976  -9.97266
 Alpha  occ. eigenvalues --   -9.95905  -9.92465  -9.92414  -9.91159  -9.91088
 Alpha  occ. eigenvalues --   -9.90915  -1.00896  -1.00775  -0.99391  -0.97989
 Alpha  occ. eigenvalues --   -0.92049  -0.79469  -0.73693  -0.71298  -0.69095
 Alpha  occ. eigenvalues --   -0.65279  -0.64231  -0.61305  -0.57460  -0.55558
 Alpha  occ. eigenvalues --   -0.52114  -0.50347  -0.48348  -0.47212  -0.45801
 Alpha  occ. eigenvalues --   -0.44554  -0.44131  -0.42703  -0.41957  -0.41486
 Alpha  occ. eigenvalues --   -0.40429  -0.39160  -0.38800  -0.37978  -0.36794
 Alpha  occ. eigenvalues --   -0.35937  -0.34889  -0.33621  -0.33124  -0.32229
 Alpha  occ. eigenvalues --   -0.31631  -0.29993  -0.29509  -0.29473  -0.27203
 Alpha  occ. eigenvalues --   -0.23993  -0.22731  -0.20188  -0.18864
 Alpha virt. eigenvalues --   -0.09355  -0.03273  -0.03104  -0.01194  -0.00913
 Alpha virt. eigenvalues --   -0.00557  -0.00376   0.00642   0.01763   0.02460
 Alpha virt. eigenvalues --    0.02489   0.03050   0.03649   0.04419   0.04480
 Alpha virt. eigenvalues --    0.05073   0.05658   0.05970   0.06991   0.07575
 Alpha virt. eigenvalues --    0.07640   0.08372   0.08706   0.09027   0.09938
 Alpha virt. eigenvalues --    0.10065   0.10345   0.10719   0.11616   0.12215
 Alpha virt. eigenvalues --    0.12413   0.12938   0.13476   0.13553   0.14007
 Alpha virt. eigenvalues --    0.15471   0.15808   0.16262   0.16352   0.16507
 Alpha virt. eigenvalues --    0.16601   0.17184   0.17719   0.17780   0.18930
 Alpha virt. eigenvalues --    0.19229   0.19469   0.20085   0.20336   0.20509
 Alpha virt. eigenvalues --    0.20997   0.21580   0.22080   0.22271   0.22705
 Alpha virt. eigenvalues --    0.23986   0.23992   0.24311   0.25163   0.25519
 Alpha virt. eigenvalues --    0.25865   0.26240   0.26766   0.27038   0.27643
 Alpha virt. eigenvalues --    0.28029   0.28833   0.28839   0.29540   0.30402
 Alpha virt. eigenvalues --    0.30658   0.31132   0.31660   0.31976   0.32444
 Alpha virt. eigenvalues --    0.32740   0.33892   0.34341   0.34936   0.35486
 Alpha virt. eigenvalues --    0.36043   0.37062   0.38483   0.39545   0.39965
 Alpha virt. eigenvalues --    0.41508   0.41553   0.43422   0.44482   0.45687
 Alpha virt. eigenvalues --    0.47354   0.49664   0.51539   0.55361   0.57110
 Alpha virt. eigenvalues --    0.61054   0.61724   0.62133   0.62265   0.64048
 Alpha virt. eigenvalues --    0.64378   0.65023   0.66023   0.67108   0.67552
 Alpha virt. eigenvalues --    0.68682   0.68770   0.70188   0.71449   0.72529
 Alpha virt. eigenvalues --    0.74190   0.75446   0.76074   0.77099   0.80946
 Alpha virt. eigenvalues --    0.81821   0.82069   0.84455   0.85632   0.85816
 Alpha virt. eigenvalues --    0.86457   0.87423   0.88606   0.90971   0.92417
 Alpha virt. eigenvalues --    0.93845   0.95468   0.97699   0.99559   1.01289
 Alpha virt. eigenvalues --    1.03843   1.04493   1.06611   1.07222   1.08515
 Alpha virt. eigenvalues --    1.09537   1.10424   1.10442   1.11016   1.12019
 Alpha virt. eigenvalues --    1.13439   1.14401   1.14595   1.15150   1.16416
 Alpha virt. eigenvalues --    1.16757   1.17065   1.18892   1.19257   1.20176
 Alpha virt. eigenvalues --    1.21421   1.21954   1.22914   1.23812   1.24540
 Alpha virt. eigenvalues --    1.25677   1.26968   1.28117   1.28599   1.29323
 Alpha virt. eigenvalues --    1.29731   1.31108   1.31477   1.31846   1.33225
 Alpha virt. eigenvalues --    1.33403   1.36889   1.37747   1.39279   1.40648
 Alpha virt. eigenvalues --    1.42985   1.44392   1.46110   1.48000   1.51211
 Alpha virt. eigenvalues --    1.52252   1.52533   1.53491   1.57779   1.59989
 Alpha virt. eigenvalues --    1.62468   1.67961   1.68791   1.69794   1.70625
 Alpha virt. eigenvalues --    1.71742   1.72304   1.73029   1.75550   1.76377
 Alpha virt. eigenvalues --    1.76469   1.78535   1.80485   1.80943   1.82994
 Alpha virt. eigenvalues --    1.83590   1.84608   1.84950   1.87551   1.88348
 Alpha virt. eigenvalues --    1.88985   1.89189   1.90491   1.90815   1.92493
 Alpha virt. eigenvalues --    1.94124   1.94961   1.96345   1.97448   1.98585
 Alpha virt. eigenvalues --    1.99994   2.00630   2.02966   2.03354   2.03781
 Alpha virt. eigenvalues --    2.06713   2.07964   2.12089   2.12399   2.13150
 Alpha virt. eigenvalues --    2.14281   2.17350   2.19729   2.23228   2.23570
 Alpha virt. eigenvalues --    2.26816   2.29981   2.31857   2.32834   2.35224
 Alpha virt. eigenvalues --    2.36968   2.38620   2.39255   2.40241   2.42704
 Alpha virt. eigenvalues --    2.44059   2.44517   2.46370   2.47718   2.48576
 Alpha virt. eigenvalues --    2.52493   2.53097   2.53202   2.53952   2.55610
 Alpha virt. eigenvalues --    2.56004   2.56550   2.59027   2.60617   2.61799
 Alpha virt. eigenvalues --    2.65180   2.65532   2.67649   2.68850   2.70509
 Alpha virt. eigenvalues --    2.71766   2.73538   2.74349   2.74415   2.76111
 Alpha virt. eigenvalues --    2.77507   2.81588   2.82649   2.86039   2.90161
 Alpha virt. eigenvalues --    2.93361   2.96210   2.99614   3.04072   3.06629
 Alpha virt. eigenvalues --    3.09247   3.11423   3.13298   3.16105   3.16409
 Alpha virt. eigenvalues --    3.21416   3.30456   3.30961   3.32939   3.35533
 Alpha virt. eigenvalues --    3.37255   3.38773   3.39689   3.45498   3.50325
 Alpha virt. eigenvalues --    3.54616   3.67259   4.08609   4.13033   4.20443
 Alpha virt. eigenvalues --    4.25213   4.29425   4.30582   4.34524   4.36603
 Alpha virt. eigenvalues --    4.41613   4.47122   4.51847   4.52216   4.58446
 Alpha virt. eigenvalues --    4.64217   4.73918   5.19627
          Condensed to atoms (all electrons):
               1          2          3          4          5          6
     1  C   37.616596 -13.484183 -14.795425   2.851281  -4.218123   2.686777
     2  C  -13.484183  33.620612  -0.389149  -2.816223   0.089463 -10.226232
     3  C  -14.795425  -0.389149  35.272737  -2.378971  -5.403620  -4.033806
     4  C    2.851281  -2.816223  -2.378971  14.340287  -1.251058  -0.523918
     5  C   -4.218123   0.089463  -5.403620  -1.251058  12.348843   1.816880
     6  C    2.686777 -10.226232  -4.033806  -0.523918   1.816880  16.683847
     7  O    0.130572  -1.121918   0.203791  -0.093478   0.108446   0.627690
     8  O   -0.922209   0.381208   0.553233  -0.068457  -0.030020   0.079083
     9  C    0.044509  -0.121767  -0.022266  -0.182621  -0.009131   0.070179
    10  O    0.417117   0.061204  -0.050700   0.018378  -0.433305  -0.065549
    11  C   -0.275224  -0.206465  -0.011071   0.032784   0.099047   0.247077
    12  C   -4.082767   0.819471  -0.530541  -2.722565   1.843828  -1.192252
    13  C    0.000565  -0.953558  -2.842761  -1.004322   1.355913   0.217868
    14  C   -0.083325   0.063146  -0.253023  -0.699249   0.052262   0.043881
    15  O    0.000131   0.001972   0.022860   0.101333  -0.039485  -0.002061
    16  O   -0.000856  -0.004013   0.054180   0.114444  -0.031034  -0.000123
    17  H    0.053098  -0.219629   0.114442   0.223609   0.049780  -0.012271
    18  H    0.007828   0.006525   0.115487   0.145174   0.180222  -0.100426
    19  H   -0.007530   0.464381   0.026975  -0.000787  -0.012252  -0.450913
    20  H    0.105540   0.114491  -0.184965  -0.025326  -0.002538   0.013183
    21  H   -0.049816  -0.150502   0.142785   0.038578   0.006430  -0.007941
    22  H   -0.049678  -0.150264   0.142476   0.038576   0.006421  -0.007933
    23  H   -0.055049  -0.007078  -0.003578   0.000428   0.005275   0.073477
    24  H    0.058779   0.012148   0.004695  -0.001003  -0.007638  -0.071627
    25  H    0.059825   0.012582   0.004642  -0.000993  -0.007815  -0.072642
    26  H    0.018329   0.022068   0.129998   0.004822  -0.011609  -0.000615
    27  H    0.002875  -0.001432   0.022382   0.073793  -0.015655   0.002842
    28  H    0.000061   0.000015  -0.000853  -0.007918   0.004769   0.000194
               7          8          9         10         11         12
     1  C    0.130572  -0.922209   0.044509   0.417117  -0.275224  -4.082767
     2  C   -1.121918   0.381208  -0.121767   0.061204  -0.206465   0.819471
     3  C    0.203791   0.553233  -0.022266  -0.050700  -0.011071  -0.530541
     4  C   -0.093478  -0.068457  -0.182621   0.018378   0.032784  -2.722565
     5  C    0.108446  -0.030020  -0.009131  -0.433305   0.099047   1.843828
     6  C    0.627690   0.079083   0.070179  -0.065549   0.247077  -1.192252
     7  O    8.459463   0.057226  -0.007231  -0.025028   0.007626   0.029041
     8  O    0.057226   8.421193   0.039702  -0.001604   0.001549  -0.044503
     9  C   -0.007231   0.039702   5.157260  -0.000389  -0.000112   0.005746
    10  O   -0.025028  -0.001604  -0.000389   8.552695   0.009909  -0.023905
    11  C    0.007626   0.001549  -0.000112   0.009909   5.130620  -0.013580
    12  C    0.029041  -0.044503   0.005746  -0.023905  -0.013580  12.632120
    13  C    0.000227  -0.005436  -0.009072   0.011346   0.001741  -2.132328
    14  C    0.000513  -0.000114   0.000306  -0.000184  -0.000085   0.809522
    15  O    0.000000   0.000001   0.000001   0.000004   0.000001  -0.052019
    16  O    0.000001   0.000002   0.000105  -0.000005   0.000006   0.076279
    17  H   -0.000868  -0.016983  -0.006386   0.000173   0.000103   0.072980
    18  H   -0.000425   0.000149   0.000284  -0.018049  -0.002938  -0.041958
    19  H    0.130606  -0.004761   0.000972   0.004972   0.023872   0.005873
    20  H   -0.001059  -0.079404   0.420690  -0.000004   0.000031  -0.004321
    21  H    0.000037  -0.036512   0.399803   0.000003  -0.000022   0.007754
    22  H    0.000036  -0.036515   0.399788   0.000003  -0.000022   0.007712
    23  H    0.002538   0.000004   0.000014  -0.075839   0.415225   0.000098
    24  H   -0.012373  -0.000097  -0.000069  -0.042317   0.392054  -0.000156
    25  H   -0.012545  -0.000100  -0.000070  -0.042303   0.391751  -0.000150
    26  H   -0.000013   0.000073   0.000312   0.000024  -0.000001   0.280105
    27  H   -0.000004   0.000004   0.000035  -0.000007   0.000050  -0.087188
    28  H   -0.000000   0.000000  -0.000001   0.000000  -0.000000   0.025341
              13         14         15         16         17         18
     1  C    0.000565  -0.083325   0.000131  -0.000856   0.053098   0.007828
     2  C   -0.953558   0.063146   0.001972  -0.004013  -0.219629   0.006525
     3  C   -2.842761  -0.253023   0.022860   0.054180   0.114442   0.115487
     4  C   -1.004322  -0.699249   0.101333   0.114444   0.223609   0.145174
     5  C    1.355913   0.052262  -0.039485  -0.031034   0.049780   0.180222
     6  C    0.217868   0.043881  -0.002061  -0.000123  -0.012271  -0.100426
     7  O    0.000227   0.000513   0.000000   0.000001  -0.000868  -0.000425
     8  O   -0.005436  -0.000114   0.000001   0.000002  -0.016983   0.000149
     9  C   -0.009072   0.000306   0.000001   0.000105  -0.006386   0.000284
    10  O    0.011346  -0.000184   0.000004  -0.000005   0.000173  -0.018049
    11  C    0.001741  -0.000085   0.000001   0.000006   0.000103  -0.002938
    12  C   -2.132328   0.809522  -0.052019   0.076279   0.072980  -0.041958
    13  C   13.908657  -1.953452   0.111816  -0.178930   0.029942  -0.014101
    14  C   -1.953452   7.194147  -0.163206   0.265061   0.001748   0.015186
    15  O    0.111816  -0.163206   8.416016  -0.150627   0.000003   0.000120
    16  O   -0.178930   0.265061  -0.150627   8.316807  -0.000081   0.000039
    17  H    0.029942   0.001748   0.000003  -0.000081   0.573986  -0.000142
    18  H   -0.014101   0.015186   0.000120   0.000039  -0.000142   0.570342
    19  H    0.000466   0.000037   0.000000   0.000000   0.000005  -0.000010
    20  H   -0.000117  -0.000001   0.000000  -0.000000   0.000144  -0.000000
    21  H    0.000654  -0.000038  -0.000000   0.000000  -0.000849   0.000000
    22  H    0.000648  -0.000037  -0.000000   0.000000  -0.000848   0.000000
    23  H   -0.000336  -0.000009   0.000000  -0.000000   0.000000  -0.000042
    24  H    0.000204   0.000005  -0.000000   0.000000  -0.000000   0.000005
    25  H    0.000206   0.000005  -0.000000   0.000000  -0.000000   0.000006
    26  H   -0.139699  -0.019550   0.001231  -0.002053   0.003809  -0.000016
    27  H    0.308533  -0.009486  -0.005576   0.006099  -0.000001   0.001979
    28  H   -0.013623   0.035406   0.176080   0.008228  -0.000000  -0.000000
              19         20         21         22         23         24
     1  C   -0.007530   0.105540  -0.049816  -0.049678  -0.055049   0.058779
     2  C    0.464381   0.114491  -0.150502  -0.150264  -0.007078   0.012148
     3  C    0.026975  -0.184965   0.142785   0.142476  -0.003578   0.004695
     4  C   -0.000787  -0.025326   0.038578   0.038576   0.000428  -0.001003
     5  C   -0.012252  -0.002538   0.006430   0.006421   0.005275  -0.007638
     6  C   -0.450913   0.013183  -0.007941  -0.007933   0.073477  -0.071627
     7  O    0.130606  -0.001059   0.000037   0.000036   0.002538  -0.012373
     8  O   -0.004761  -0.079404  -0.036512  -0.036515   0.000004  -0.000097
     9  C    0.000972   0.420690   0.399803   0.399788   0.000014  -0.000069
    10  O    0.004972  -0.000004   0.000003   0.000003  -0.075839  -0.042317
    11  C    0.023872   0.000031  -0.000022  -0.000022   0.415225   0.392054
    12  C    0.005873  -0.004321   0.007754   0.007712   0.000098  -0.000156
    13  C    0.000466  -0.000117   0.000654   0.000648  -0.000336   0.000204
    14  C    0.000037  -0.000001  -0.000038  -0.000037  -0.000009   0.000005
    15  O    0.000000   0.000000  -0.000000  -0.000000   0.000000  -0.000000
    16  O    0.000000  -0.000000   0.000000   0.000000  -0.000000   0.000000
    17  H    0.000005   0.000144  -0.000849  -0.000848   0.000000  -0.000000
    18  H   -0.000010  -0.000000   0.000000   0.000000  -0.000042   0.000005
    19  H    0.450511  -0.000003   0.000001   0.000001  -0.000722   0.007388
    20  H   -0.000003   0.526805  -0.027609  -0.027612  -0.000000   0.000000
    21  H    0.000001  -0.027609   0.552975  -0.044873   0.000000  -0.000000
    22  H    0.000001  -0.027612  -0.044873   0.552985   0.000000   0.000000
    23  H   -0.000722  -0.000000   0.000000   0.000000   0.516338  -0.028044
    24  H    0.007388   0.000000  -0.000000   0.000000  -0.028044   0.571754
    25  H    0.007510   0.000000   0.000000  -0.000000  -0.028049  -0.049921
    26  H   -0.000000   0.000000  -0.000003  -0.000003   0.000000  -0.000000
    27  H   -0.000000   0.000000  -0.000000  -0.000000   0.000000  -0.000000
    28  H    0.000000   0.000000   0.000000   0.000000   0.000000   0.000000
              25         26         27         28
     1  C    0.059825   0.018329   0.002875   0.000061
     2  C    0.012582   0.022068  -0.001432   0.000015
     3  C    0.004642   0.129998   0.022382  -0.000853
     4  C   -0.000993   0.004822   0.073793  -0.007918
     5  C   -0.007815  -0.011609  -0.015655   0.004769
     6  C   -0.072642  -0.000615   0.002842   0.000194
     7  O   -0.012545  -0.000013  -0.000004  -0.000000
     8  O   -0.000100   0.000073   0.000004   0.000000
     9  C   -0.000070   0.000312   0.000035  -0.000001
    10  O   -0.042303   0.000024  -0.000007   0.000000
    11  C    0.391751  -0.000001   0.000050  -0.000000
    12  C   -0.000150   0.280105  -0.087188   0.025341
    13  C    0.000206  -0.139699   0.308533  -0.013623
    14  C    0.000005  -0.019550  -0.009486   0.035406
    15  O   -0.000000   0.001231  -0.005576   0.176080
    16  O    0.000000  -0.002053   0.006099   0.008228
    17  H   -0.000000   0.003809  -0.000001  -0.000000
    18  H    0.000006  -0.000016   0.001979  -0.000000
    19  H    0.007510  -0.000000  -0.000000   0.000000
    20  H    0.000000   0.000000   0.000000   0.000000
    21  H    0.000000  -0.000003  -0.000000   0.000000
    22  H   -0.000000  -0.000003  -0.000000   0.000000
    23  H   -0.028049   0.000000   0.000000   0.000000
    24  H   -0.049921  -0.000000  -0.000000   0.000000
    25  H    0.572036  -0.000000  -0.000000   0.000000
    26  H   -0.000000   0.546435   0.004748  -0.000005
    27  H   -0.000000   0.004748   0.550269   0.000007
    28  H    0.000000  -0.000005   0.000007   0.406878
 Mulliken charges:
               1
     1  C   -0.029698
     2  C    0.183127
     3  C    0.090047
     4  C   -0.206598
     5  C   -0.494297
     6  C    0.205332
     7  O   -0.482870
     8  O   -0.286712
     9  C   -0.180591
    10  O   -0.296645
    11  C   -0.243927
    12  C    0.312363
    13  C   -0.701053
    14  C    0.700533
    15  O   -0.418594
    16  O   -0.473532
    17  H    0.134237
    18  H    0.134758
    19  H    0.353411
    20  H    0.172075
    21  H    0.169144
    22  H    0.169138
    23  H    0.185349
    24  H    0.166213
    25  H    0.166025
    26  H    0.161614
    27  H    0.145732
    28  H    0.365421
 Sum of Mulliken charges =  -0.00000
 Mulliken charges with hydrogens summed into heavy atoms:
               1
     1  C   -0.029698
     2  C    0.183127
     3  C    0.224284
     4  C   -0.206598
     5  C   -0.359539
     6  C    0.205332
     7  O   -0.129459
     8  O   -0.286712
     9  C    0.329765
    10  O   -0.296645
    11  C    0.273660
    12  C    0.473977
    13  C   -0.555321
    14  C    0.700533
    15  O   -0.053173
    16  O   -0.473532
 Electronic spatial extent (au):  <R**2>=           5263.9343
 Charge=             -0.0000 electrons
 Dipole moment (field-independent basis, Debye):
    X=              4.0951    Y=             -1.6895    Z=              0.0022  Tot=              4.4299
 Quadrupole moment (field-independent basis, Debye-Ang):
   XX=            -91.6181   YY=            -79.9894   ZZ=            -96.6122
   XY=             -3.1373   XZ=              0.0156   YZ=             -0.0037
 Traceless Quadrupole moment (field-independent basis, Debye-Ang):
   XX=             -2.2115   YY=              9.4172   ZZ=             -7.2056
   XY=             -3.1373   XZ=              0.0156   YZ=             -0.0037
 Octapole moment (field-independent basis, Debye-Ang**2):
  XXX=              8.3043  YYY=             18.1012  ZZZ=             -0.0034  XYY=             67.5859
  XXY=            -92.9648  XXZ=              0.0230  XZZ=              1.8646  YZZ=             -0.8829
  YYZ=              0.0030  XYZ=             -0.0052
 Hexadecapole moment (field-independent basis, Debye-Ang**3):
 XXXX=          -4211.0377 YYYY=          -1561.1837 ZZZZ=           -118.0060 XXXY=             46.9020
 XXXZ=              0.2778 YYYX=             -2.0672 YYYZ=             -0.0799 ZZZX=             -0.1187
 ZZZY=             -0.1086 XXYY=          -1043.8157 XXZZ=           -823.1794 YYZZ=           -325.6990
 XXYZ=             -0.1252 YYXZ=             -0.0368 ZZXY=             -4.8164
 N-N= 1.049055476124D+03 E-N=-3.970147484178D+03  KE= 7.944803305719D+02
 Calling FoFJK, ICntrl=      2527 FMM=F ISym2X=0 I1Cent= 0 IOpClX= 0 NMat=1 NMatS=1 NMatT=0.
 ***** Axes restored to original set *****
 -------------------------------------------------------------------
 Center     Atomic                   Forces (Hartrees/Bohr)
 Number     Number              X              Y              Z
 -------------------------------------------------------------------
      1        6           0.004629204   -0.001250632    0.000003301
      2        6          -0.000576717    0.003560650   -0.000002791
      3        6          -0.000309214   -0.000035702    0.000000882
      4        6          -0.006534269    0.001825838    0.000000448
      5        6           0.000736266   -0.000879589   -0.000001493
      6        6           0.000480489   -0.003266694   -0.000001576
      7        8           0.001133026    0.010452266   -0.000016974
      8        8           0.006766505   -0.001124906    0.000000150
      9        6          -0.000944412   -0.003011416    0.000000244
     10        8          -0.004236400   -0.003588012    0.000003910
     11        6          -0.001763451    0.003982125   -0.000002646
     12        6           0.009570175    0.000946726    0.000002023
     13        6          -0.006649789   -0.002149808    0.000001763
     14        6           0.007040458   -0.007425631   -0.000009887
     15        8           0.003484589   -0.012637528   -0.000003696
     16        8          -0.005166666    0.017154967    0.000010652
     17        1          -0.002405197    0.005539002    0.000000554
     18        1          -0.003379299   -0.004770738   -0.000000959
     19        1           0.001737454   -0.009633339    0.000015164
     20        1           0.004326943    0.002900116    0.000000136
     21        1          -0.003222095    0.001058253   -0.004391660
     22        1          -0.003222225    0.001058028    0.004391542
     23        1          -0.000304960   -0.005253357   -0.000000969
     24        1           0.003036432    0.001268693   -0.004737228
     25        1           0.003035047    0.001262260    0.004739687
     26        1          -0.001827973    0.005778207    0.000001101
     27        1           0.001474083   -0.005955034   -0.000003016
     28        1          -0.006908005    0.004195257    0.000001340
 -------------------------------------------------------------------
 Cartesian Forces:  Max     0.017154967 RMS     0.004281251

 GradGradGradGradGradGradGradGradGradGradGradGradGradGradGradGradGradGrad
 Berny optimization.
 FormGI is forming the generalized inverse of G from B-inverse, IUseBI=4.
 Internal  Forces:  Max     0.017880718 RMS     0.003325111
 Search for a local minimum.
 Step number   1 out of a maximum of  131
 All quantities printed in internal units (Hartrees-Bohrs-Radians)
 Mixed Optimization -- RFO/linear search
 Second derivative matrix not updated -- first step.
 ITU=  0
     Eigenvalues ---    0.01167   0.01293   0.01395   0.01442   0.01472
     Eigenvalues ---    0.01805   0.01921   0.01959   0.01969   0.02013
     Eigenvalues ---    0.02018   0.02027   0.02039   0.02068   0.02091
     Eigenvalues ---    0.02092   0.02117   0.02123   0.02164   0.02196
     Eigenvalues ---    0.02756   0.09785   0.10039   0.10676   0.10734
     Eigenvalues ---    0.16000   0.16000   0.16000   0.16000   0.16000
     Eigenvalues ---    0.16000   0.16000   0.16000   0.16000   0.16000
     Eigenvalues ---    0.16000   0.16000   0.22000   0.22000   0.23466
     Eigenvalues ---    0.23484   0.25000   0.25000   0.25000   0.25000
     Eigenvalues ---    0.25000   0.25000   0.25000   0.25000   0.25000
     Eigenvalues ---    0.33789   0.33792   0.33997   0.33997   0.34660
     Eigenvalues ---    0.34758   0.34914   0.35454   0.35550   0.35656
     Eigenvalues ---    0.35778   0.36947   0.40503   0.41295   0.42092
     Eigenvalues ---    0.42624   0.44068   0.44278   0.45744   0.46763
     Eigenvalues ---    0.49142   0.51020   0.52082   0.52572   0.53054
     Eigenvalues ---    0.55110   0.55209   0.95371
 RFO step:  Lambda=-2.89393684D-03 EMin= 1.16692802D-02
 Linear search not attempted -- first point.
 Iteration  1 RMS(Cart)=  0.01881228 RMS(Int)=  0.00012058
 Iteration  2 RMS(Cart)=  0.00026303 RMS(Int)=  0.00000150
 Iteration  3 RMS(Cart)=  0.00000005 RMS(Int)=  0.00000150
 Variable       Old X    -DE/DX   Delta X   Delta X   Delta X     New X
                                 (Linear)    (Quad)   (Total)
    R1        2.68019   0.00596   0.00000   0.01381   0.01381   2.69400
    R2        2.66207   0.00667   0.00000   0.01495   0.01495   2.67702
    R3        2.58850   0.00286   0.00000   0.00558   0.00558   2.59408
    R4        2.62789   0.00601   0.00000   0.01265   0.01265   2.64055
    R5        2.57356   0.00310   0.00000   0.00587   0.00587   2.57943
    R6        2.66526   0.00570   0.00000   0.01291   0.01291   2.67817
    R7        2.04622   0.00604   0.00000   0.01680   0.01680   2.06302
    R8        2.64014   0.00679   0.00000   0.01467   0.01467   2.65480
    R9        2.75926  -0.00102   0.00000  -0.00274  -0.00274   2.75653
   R10        2.64335   0.00497   0.00000   0.01079   0.01079   2.65415
   R11        2.04791   0.00584   0.00000   0.01631   0.01631   2.06422
   R12        2.60741   0.00218   0.00000   0.00441   0.00441   2.61183
   R13        1.81647   0.00962   0.00000   0.01733   0.01733   1.83380
   R14        2.68805   0.00295   0.00000   0.00695   0.00695   2.69501
   R15        2.06069   0.00521   0.00000   0.01485   0.01485   2.07554
   R16        2.07335   0.00554   0.00000   0.01617   0.01617   2.08952
   R17        2.07335   0.00554   0.00000   0.01617   0.01617   2.08952
   R18        2.68137   0.00338   0.00000   0.00787   0.00787   2.68924
   R19        2.06230   0.00526   0.00000   0.01506   0.01506   2.07736
   R20        2.07682   0.00576   0.00000   0.01689   0.01689   2.09371
   R21        2.07688   0.00576   0.00000   0.01689   0.01689   2.09377
   R22        2.55034   0.00957   0.00000   0.01727   0.01727   2.56762
   R23        2.05815   0.00606   0.00000   0.01722   0.01722   2.07537
   R24        2.77731   0.00185   0.00000   0.00513   0.00513   2.78244
   R25        2.04945   0.00612   0.00000   0.01713   0.01713   2.06657
   R26        2.57821   0.00876   0.00000   0.01672   0.01672   2.59493
   R27        2.30552   0.01788   0.00000   0.01869   0.01869   2.32421
   R28        1.83603   0.00796   0.00000   0.01493   0.01493   1.85096
    A1        2.07056  -0.00021   0.00000  -0.00091  -0.00091   2.06965
    A2        2.00195   0.00066   0.00000   0.00266   0.00266   2.00462
    A3        2.21067  -0.00045   0.00000  -0.00176  -0.00176   2.20892
    A4        2.10924   0.00010   0.00000   0.00036   0.00036   2.10960
    A5        1.99829  -0.00014   0.00000  -0.00055  -0.00055   1.99774
    A6        2.17566   0.00004   0.00000   0.00019   0.00019   2.17584
    A7        2.10220  -0.00022   0.00000  -0.00086  -0.00086   2.10134
    A8        2.10111   0.00007   0.00000   0.00020   0.00020   2.10131
    A9        2.07988   0.00015   0.00000   0.00066   0.00066   2.08054
   A10        2.06990   0.00040   0.00000   0.00178   0.00178   2.07168
   A11        2.06427   0.00016   0.00000   0.00052   0.00052   2.06480
   A12        2.14901  -0.00056   0.00000  -0.00230  -0.00230   2.14671
   A13        2.12340  -0.00047   0.00000  -0.00196  -0.00196   2.12144
   A14        2.12183   0.00010   0.00000   0.00016   0.00016   2.12199
   A15        2.03796   0.00037   0.00000   0.00180   0.00180   2.03976
   A16        2.09107   0.00040   0.00000   0.00159   0.00159   2.09266
   A17        2.22441  -0.00202   0.00000  -0.00798  -0.00798   2.21643
   A18        1.96770   0.00162   0.00000   0.00640   0.00640   1.97410
   A19        1.94259  -0.00329   0.00000  -0.02020  -0.02020   1.92239
   A20        2.06543  -0.00550   0.00000  -0.02173  -0.02173   2.04369
   A21        1.84306  -0.00027   0.00000  -0.00145  -0.00145   1.84161
   A22        1.94408   0.00013   0.00000   0.00068   0.00068   1.94476
   A23        1.94408   0.00013   0.00000   0.00068   0.00068   1.94476
   A24        1.90981   0.00015   0.00000   0.00110   0.00110   1.91090
   A25        1.90980   0.00015   0.00000   0.00110   0.00110   1.91090
   A26        1.91160  -0.00027   0.00000  -0.00201  -0.00201   1.90960
   A27        2.17131  -0.00585   0.00000  -0.02312  -0.02312   2.14819
   A28        1.84019  -0.00025   0.00000  -0.00215  -0.00215   1.83804
   A29        1.95799   0.00044   0.00000   0.00303   0.00302   1.96101
   A30        1.95794   0.00044   0.00000   0.00304   0.00303   1.96097
   A31        1.87920  -0.00028   0.00000  -0.00235  -0.00235   1.87686
   A32        1.87907  -0.00028   0.00000  -0.00236  -0.00236   1.87671
   A33        1.94296  -0.00014   0.00000   0.00015   0.00014   1.94310
   A34        2.23299  -0.00056   0.00000  -0.00252  -0.00252   2.23047
   A35        2.02169   0.00033   0.00000   0.00157   0.00157   2.02326
   A36        2.02850   0.00023   0.00000   0.00096   0.00096   2.02946
   A37        2.09782  -0.00033   0.00000  -0.00148  -0.00148   2.09635
   A38        2.14964  -0.00025   0.00000  -0.00178  -0.00178   2.14785
   A39        2.03572   0.00058   0.00000   0.00326   0.00326   2.03898
   A40        1.94673  -0.00174   0.00000  -0.00688  -0.00688   1.93985
   A41        2.21413  -0.00043   0.00000  -0.00171  -0.00171   2.21241
   A42        2.12233   0.00217   0.00000   0.00860   0.00860   2.13093
   A43        1.86041  -0.00254   0.00000  -0.01558  -0.01558   1.84483
    D1        0.00010   0.00000   0.00000   0.00000   0.00000   0.00010
    D2       -3.14150  -0.00000   0.00000  -0.00000  -0.00000  -3.14150
    D3        3.14144  -0.00000   0.00000  -0.00001  -0.00001   3.14143
    D4       -0.00017  -0.00000   0.00000  -0.00001  -0.00001  -0.00018
    D5       -0.00017   0.00000   0.00000   0.00000   0.00000  -0.00016
    D6        3.14139   0.00000   0.00000   0.00002   0.00002   3.14141
    D7       -3.14147   0.00000   0.00000   0.00002   0.00002  -3.14145
    D8        0.00009   0.00000   0.00000   0.00003   0.00003   0.00012
    D9        3.13924   0.00001   0.00000   0.00027   0.00027   3.13951
   D10       -0.00263   0.00001   0.00000   0.00025   0.00025  -0.00238
   D11       -0.00001  -0.00000   0.00000  -0.00001  -0.00001  -0.00002
   D12        3.14155  -0.00000   0.00000  -0.00000  -0.00000   3.14155
   D13        3.14159  -0.00000   0.00000  -0.00000  -0.00000   3.14159
   D14       -0.00003   0.00000   0.00000   0.00000   0.00000  -0.00003
   D15        3.14156   0.00000   0.00000   0.00001   0.00001   3.14157
   D16       -0.00005   0.00000   0.00000   0.00000   0.00000  -0.00004
   D17       -0.00000   0.00000   0.00000   0.00000   0.00000  -0.00000
   D18       -3.14159   0.00000   0.00000   0.00000   0.00000  -3.14158
   D19       -3.14157  -0.00000   0.00000  -0.00000  -0.00000  -3.14157
   D20        0.00003   0.00000   0.00000   0.00000   0.00000   0.00003
   D21       -0.00007   0.00000   0.00000   0.00001   0.00001  -0.00006
   D22       -3.14158   0.00000   0.00000   0.00001   0.00001  -3.14157
   D23        3.14152   0.00000   0.00000   0.00000   0.00000   3.14152
   D24        0.00000   0.00000   0.00000   0.00000   0.00000   0.00001
   D25        3.14120   0.00000   0.00000   0.00007   0.00007   3.14127
   D26       -0.00037   0.00000   0.00000   0.00008   0.00008  -0.00029
   D27       -0.00038   0.00000   0.00000   0.00007   0.00007  -0.00031
   D28        3.14123   0.00000   0.00000   0.00008   0.00008   3.14132
   D29        0.00015  -0.00000   0.00000  -0.00001  -0.00001   0.00014
   D30       -3.14141  -0.00000   0.00000  -0.00002  -0.00002  -3.14143
   D31       -3.14152  -0.00000   0.00000  -0.00001  -0.00001  -3.14152
   D32        0.00011  -0.00000   0.00000  -0.00002  -0.00002   0.00009
   D33        0.00021  -0.00000   0.00000  -0.00008  -0.00008   0.00013
   D34       -3.14142  -0.00000   0.00000  -0.00007  -0.00007  -3.14149
   D35       -3.14157   0.00000   0.00000   0.00000   0.00000  -3.14157
   D36       -1.06995   0.00008   0.00000   0.00081   0.00081  -1.06914
   D37        1.06999  -0.00008   0.00000  -0.00081  -0.00081   1.06918
   D38       -3.14157   0.00000   0.00000   0.00007   0.00007  -3.14151
   D39       -1.10102  -0.00025   0.00000  -0.00246  -0.00247  -1.10350
   D40        1.10125   0.00026   0.00000   0.00261   0.00262   1.10387
   D41       -3.14159   0.00000   0.00000   0.00001   0.00001  -3.14158
   D42       -0.00002   0.00000   0.00000   0.00001   0.00001  -0.00001
   D43       -0.00002   0.00000   0.00000   0.00000   0.00000  -0.00002
   D44        3.14155   0.00000   0.00000   0.00000   0.00000   3.14155
   D45        3.14147   0.00000   0.00000   0.00014   0.00014  -3.14158
   D46       -0.00006  -0.00000   0.00000  -0.00007  -0.00007  -0.00013
   D47       -0.00010   0.00000   0.00000   0.00014   0.00014   0.00004
   D48        3.14156  -0.00000   0.00000  -0.00007  -0.00007   3.14149
   D49       -3.14156  -0.00000   0.00000  -0.00009  -0.00009   3.14153
   D50       -0.00003   0.00000   0.00000   0.00010   0.00010   0.00007
         Item               Value     Threshold  Converged?
 Maximum Force            0.017881     0.000450     NO 
 RMS     Force            0.003325     0.000300     NO 
 Maximum Displacement     0.077812     0.001800     NO 
 RMS     Displacement     0.018912     0.001200     NO 
 Predicted change in Energy=-1.457727D-03
 GradGradGradGradGradGradGradGradGradGradGradGradGradGradGradGradGradGrad

                          Input orientation:                          
 ---------------------------------------------------------------------
 Center     Atomic      Atomic             Coordinates (Angstroms)
 Number     Number       Type             X           Y           Z
 ---------------------------------------------------------------------
      1          6           0        2.289175   -0.127106    0.000201
      2          6           0        1.708910    1.175059    0.000249
      3          6           0        0.321575    1.341788    0.000227
      4          6           0       -0.536274    0.213684    0.000131
      5          6           0        0.036272   -1.069212    0.000054
      6          6           0        1.428775   -1.252501    0.000001
      7          8           0        3.661758   -0.147170    0.000023
      8          8           0        2.613719    2.197056    0.000336
      9          6           0        2.093694    3.525002    0.000354
     10          8           0        1.800663   -2.583649   -0.000278
     11          6           0        3.158079   -3.010950   -0.000253
     12          6           0       -1.977220    0.440529    0.000100
     13          6           0       -2.966762   -0.490567   -0.000334
     14          6           0       -4.377571   -0.069152   -0.000307
     15          8           0       -5.218750   -1.154527   -0.000763
     16          8           0       -4.800865    1.085631    0.000206
     17          1           0       -0.114495    2.342618    0.000306
     18          1           0       -0.580357   -1.970861   -0.000042
     19          1           0        3.982610   -1.062996    0.001897
     20          1           0        2.971987    4.184494    0.000405
     21          1           0        1.485561    3.720664   -0.902153
     22          1           0        1.485493    3.720617    0.902826
     23          1           0        3.116620   -4.109459   -0.000608
     24          1           0        3.698758   -2.696993   -0.914930
     25          1           0        3.698465   -2.697723    0.914888
     26          1           0       -2.297906    1.490904    0.000440
     27          1           0       -2.773217   -1.566886   -0.000734
     28          1           0       -6.126432   -0.786417   -0.000651
 ---------------------------------------------------------------------
                    Distance matrix (angstroms):
                    1          2          3          4          5
     1  C    0.000000
     2  C    1.425602   0.000000
     3  C    2.455422   1.397317   0.000000
     4  C    2.845927   2.442354   1.417224   0.000000
     5  C    2.441954   2.799012   2.427822   1.404860   0.000000
     6  C    1.416616   2.443669   2.820678   2.451758   1.404514
     7  O    1.372729   2.358369   3.657023   4.213513   3.740897
     8  O    2.346711   1.364975   2.446509   3.722394   4.160738
     9  C    3.657335   2.381237   2.811908   4.228659   5.033864
    10  O    2.504645   3.759827   4.194848   3.645044   2.325208
    11  C    3.011902   4.429758   5.195390   4.903724   3.676415
    12  C    4.303991   3.758602   2.469156   1.458692   2.516638
    13  C    5.268489   4.963488   3.764397   2.530462   3.058274
    14  C    6.666998   6.212351   4.906397   3.851695   4.525719
    15  O    7.577897   7.308860   6.076742   4.878276   5.255714
    16  O    7.193010   6.510389   5.128841   4.352818   5.295398
    17  H    3.446327   2.165179   1.091705   2.170313   3.415160
    18  H    3.410813   3.890701   3.433238   2.184990   1.092338
    19  H    1.934843   3.190393   4.380202   4.695768   3.946344
    20  H    4.365332   3.263750   3.886600   5.298606   6.018293
    21  H    4.033035   2.710041   2.797893   4.147390   5.085010
    22  H    4.033064   2.710061   2.797895   4.147407   5.085047
    23  H    4.067408   5.468801   6.126041   5.659789   4.328008
    24  H    3.070621   4.448577   5.343653   5.219663   4.111043
    25  H    3.070965   4.448970   5.343935   5.219779   4.111038
    26  H    4.864079   4.019245   2.623722   2.175922   3.464474
    27  H    5.263153   5.254305   4.247131   2.859081   2.853228
    28  H    8.441394   8.077126   6.790144   5.678914   6.169189
                    6          7          8          9         10
     6  C    0.000000
     7  O    2.491579   0.000000
     8  O    3.647401   2.567836   0.000000
     9  C    4.823551   3.992953   1.426137   0.000000
    10  O    1.382120   3.065959   4.849350   6.115675   0.000000
    11  C    2.466300   2.907736   5.236378   6.622053   1.423083
    12  C    3.803571   5.669520   4.915497   5.107476   4.839220
    13  C    4.461086   6.637409   6.193955   6.460109   5.206662
    14  C    5.925704   8.039707   7.349410   7.402379   6.670327
    15  O    6.648247   8.937459   8.519429   8.681579   7.163417
    16  O    6.653967   8.551946   7.497421   7.313376   7.552733
    17  H    3.912361   4.523177   2.732095   2.504821   5.285446
    18  H    2.133695   4.617509   5.251062   6.111878   2.458610
    19  H    2.560857   0.970406   3.535789   4.961626   2.659565
    20  H    5.651762   4.386239   2.019471   1.098330   6.868752
    21  H    5.054649   4.528785   2.099669   1.105725   6.376286
    22  H    5.054722   4.528903   2.099672   1.105726   6.376417
    23  H    3.318288   3.999614   6.326535   7.702686   2.014905
    24  H    2.841915   2.709263   5.095757   6.490547   2.110024
    25  H    2.842038   2.709917   5.096267   6.491069   2.110023
    26  H    4.627572   6.180686   4.962127   4.839804   5.779294
    27  H    4.213737   6.589727   6.571631   7.043731   4.685529
    28  H    7.569570   9.809041   9.235331   9.282176   8.128276
                   11         12         13         14         15
    11  C    0.000000
    12  C    6.187407   0.000000
    13  C    6.623142   1.358724   0.000000
    14  C    8.089512   2.453866   1.472404   0.000000
    15  O    8.580068   3.612716   2.347827   1.373179   0.000000
    16  O    8.951355   2.896399   2.418332   1.229919   2.278801
    17  H    6.274587   2.662271   4.020244   4.898005   6.187361
    18  H    3.880424   2.786759   2.808238   4.246802   4.709680
    19  H    2.115273   6.146558   6.972909   8.419048   9.201816
    20  H    7.197849   6.205798   7.558104   8.491732   9.777183
    21  H    6.994667   4.854297   6.194427   7.039343   8.338331
    22  H    6.994790   4.854305   6.194542   7.039426   8.338488
    23  H    1.099292   6.830051   7.078412   8.513929   8.843643
    24  H    1.107942   6.549661   7.080534   8.542200   9.095980
    25  H    1.107976   6.549723   7.080567   8.542209   9.095966
    26  H    7.073504   1.098238   2.091314   2.599766   3.940765
    27  H    6.104556   2.159473   1.093582   2.194803   2.480054
    28  H    9.547287   4.326818   3.173490   1.890234   0.979485
                   16         17         18         19         20
    16  O    0.000000
    17  H    4.852018   0.000000
    18  H    5.211029   4.338563   0.000000
    19  H    9.042457   5.327709   4.652407   0.000000
    20  H    8.367806   3.594284   7.106865   5.343922   0.000000
    21  H    6.875813   2.296437   6.121705   5.471377   1.799781
    22  H    6.875767   2.296386   6.121751   5.470852   1.799780
    23  H    9.469716   7.215914   4.270977   3.167157   8.295214
    24  H    9.348225   6.385628   4.435664   1.895018   6.980036
    25  H    9.348210   6.385936   4.435510   1.893839   6.980613
    26  H    2.535557   2.343651   3.864426   6.779918   5.918378
    27  H    3.338742   4.727899   2.229760   6.774594   8.129314
    28  H    2.293838   6.777481   5.671142  10.112825  10.367796
                   21         22         23         24         25
    21  H    0.000000
    22  H    1.804979   0.000000
    23  H    8.048849   8.049029   0.000000
    24  H    6.788573   7.027696   1.780430   0.000000
    25  H    7.028106   6.789145   1.780358   1.829819   0.000000
    26  H    4.483428   4.483306   7.789811   7.371320   7.371383
    27  H    6.848937   6.849140   6.415206   6.633201   6.633237
    28  H    8.892071   8.892190   9.822251  10.050898  10.050866
                   26         27         28
    26  H    0.000000
    27  H    3.094511   0.000000
    28  H    4.454638   3.442845   0.000000
 Stoichiometry    C11H12O5
 Framework group  C1[X(C11H12O5)]
 Deg. of freedom    78
 Full point group                 C1      NOp   1
 Largest Abelian subgroup         C1      NOp   1
 Largest concise Abelian subgroup C1      NOp   1
                         Standard orientation:                         
 ---------------------------------------------------------------------
 Center     Atomic      Atomic             Coordinates (Angstroms)
 Number     Number       Type             X           Y           Z
 ---------------------------------------------------------------------
      1          6           0        2.288966   -0.118052    0.000198
      2          6           0        1.704487    1.182227    0.000246
      3          6           0        0.316620    1.344463    0.000224
      4          6           0       -0.537572    0.213588    0.000127
      5          6           0        0.039125   -1.067448    0.000051
      6          6           0        1.432214   -1.246227   -0.000003
      7          8           0        3.661606   -0.133672    0.000020
      8          8           0        2.605983    2.207148    0.000333
      9          6           0        2.081661    3.533403    0.000351
     10          8           0        1.808410   -2.576164   -0.000281
     11          6           0        3.167203   -2.999068   -0.000256
     12          6           0       -1.979245    0.435765    0.000097
     13          6           0       -2.965767   -0.498529   -0.000337
     14          6           0       -4.377933   -0.081684   -0.000310
     15          8           0       -5.215593   -1.169777   -0.000767
     16          8           0       -4.804963    1.071721    0.000203
     17          1           0       -0.122688    2.343876    0.000302
     18          1           0       -0.574581   -1.971089   -0.000045
     19          1           0        3.985423   -1.048454    0.001894
     20          1           0        2.957814    4.195735    0.000402
     21          1           0        1.472898    3.727095   -0.902156
     22          1           0        1.472830    3.727049    0.902823
     23          1           0        3.129301   -4.097706   -0.000611
     24          1           0        3.706862   -2.683362   -0.914933
     25          1           0        3.706572   -2.684093    0.914885
     26          1           0       -2.303330    1.485097    0.000437
     27          1           0       -2.768738   -1.574216   -0.000737
     28          1           0       -6.124462   -0.804609   -0.000655
 ---------------------------------------------------------------------
 Rotational constants (GHZ):      0.7708590      0.2548862      0.1920344
 Standard basis: 6-31+G(d,p) (6D, 7F)
 There are   364 symmetry adapted cartesian basis functions of A   symmetry.
 There are   364 symmetry adapted basis functions of A   symmetry.
   364 basis functions,   596 primitive gaussians,   364 cartesian basis functions
    59 alpha electrons       59 beta electrons
       nuclear repulsion energy      1046.2530101308 Hartrees.
 NAtoms=   28 NActive=   28 NUniq=   28 SFac= 1.00D+00 NAtFMM=   60 NAOKFM=F Big=F
 Integral buffers will be    131072 words long.
 Raffenetti 2 integral format.
 Two-electron integral symmetry is turned on.
 Nuclear repulsion after empirical dispersion term =     1046.2231690089 Hartrees.
 One-electron integrals computed using PRISM.
 NBasis=   364 RedAO= T EigKep=  1.49D-06  NBF=   364
 NBsUse=   362 1.00D-06 EigRej=  5.72D-07 NBFU=   362
 Initial guess from the checkpoint file:  "pbeSAgd3.chk"
 B after Tr=    -0.000000    0.000000   -0.000000
         Rot=    1.000000    0.000003    0.000003   -0.000954 Ang=   0.11 deg.
 ExpMin= 4.38D-02 ExpMax= 5.48D+03 ExpMxC= 8.25D+02 IAcc=2 IRadAn=         4 AccDes= 0.00D+00
 Harris functional with IExCor= 1009 and IRadAn=       4 diagonalized for initial guess.
 HarFok:  IExCor= 1009 AccDes= 0.00D+00 IRadAn=         4 IDoV= 1 UseB2=F ITyADJ=14
 ICtDFT=  3500011 ScaDFX=  1.000000  1.000000  1.000000  1.000000
 FoFCou: FMM=F IPFlag=           0 FMFlag=      100000 FMFlg1=           0
         NFxFlg=           0 DoJE=T BraDBF=F KetDBF=T FulRan=T
         wScrn=  0.000000 ICntrl=     500 IOpCl=  0 I1Cent=   200000004 NGrid=           0
         NMat0=    1 NMatS0=      1 NMatT0=    0 NMatD0=    1 NMtDS0=    0 NMtDT0=    0
 Petite list used in FoFCou.
 Requested convergence on RMS density matrix=1.00D-08 within 128 cycles.
 Requested convergence on MAX density matrix=1.00D-06.
 Requested convergence on             energy=1.00D-06.
 No special actions if energy rises.
 SCF Done:  E(RPBE-PBE) =  -801.634351679     A.U. after   13 cycles
            NFock= 13  Conv=0.94D-08     -V/T= 2.0094
 Calling FoFJK, ICntrl=      2527 FMM=F ISym2X=0 I1Cent= 0 IOpClX= 0 NMat=1 NMatS=1 NMatT=0.
 ***** Axes restored to original set *****
 -------------------------------------------------------------------
 Center     Atomic                   Forces (Hartrees/Bohr)
 Number     Number              X              Y              Z
 -------------------------------------------------------------------
      1        6          -0.000079936    0.000337815   -0.000002733
      2        6          -0.001703306   -0.000998533   -0.000001440
      3        6           0.000198180   -0.000551006    0.000000981
      4        6          -0.001226745    0.000507115    0.000001077
      5        6           0.001430401   -0.000434284   -0.000001517
      6        6          -0.000954650    0.001222550    0.000000001
      7        8           0.000329845    0.002593481    0.000006512
      8        8           0.001744505   -0.000243185   -0.000000368
      9        6          -0.000099800    0.001143569    0.000000128
     10        8          -0.000742084   -0.001489532    0.000005405
     11        6           0.000139469   -0.000329934   -0.000005529
     12        6           0.001947570    0.000162402   -0.000000635
     13        6          -0.001862827   -0.000000534   -0.000004917
     14        6           0.004008326   -0.000336258    0.000019359
     15        8          -0.000546145   -0.001659771   -0.000006102
     16        8          -0.001302434    0.000989059   -0.000007216
     17        1          -0.000169887   -0.000486883   -0.000000023
     18        1           0.000012602    0.000176276   -0.000000447
     19        1          -0.000096671   -0.000497586   -0.000003255
     20        1           0.000009941    0.000013776    0.000000030
     21        1           0.000029039   -0.000020228   -0.000047301
     22        1           0.000029099   -0.000020297    0.000047363
     23        1           0.000226718   -0.000082743    0.000000095
     24        1          -0.000127359   -0.000384159   -0.000450547
     25        1          -0.000127057   -0.000384824    0.000452154
     26        1          -0.000341769   -0.000188296   -0.000001067
     27        1           0.000144578    0.000225361   -0.000000216
     28        1          -0.000869604    0.000736651    0.000000207
 -------------------------------------------------------------------
 Cartesian Forces:  Max     0.004008326 RMS     0.000823702

[...]
 5,-0.01461833,-0.02647207,0.06124012,0.00021751,0.00045483,-0.00025972
 ,-0.00129371,-0.00160193,0.00080981,-0.00078063,0.00072751,-0.00011031
 ,0.00042509,-0.00034249,-0.00010332,0.00010146,0.00004188,-0.00002345,
 -0.00013910,-0.00010305,-0.00006291,0.00005183,-0.00010482,0.00009519,
 0.00095610,0.00606378,0.00639769,-0.10958184,0.02741014,-0.21779594,0.
 00006877,-0.00006860,0.00002211,-0.00002968,0.00000650,-0.00000221,-0.
 00010442,0.00009867,0.00003566,0.00009230,-0.00000952,0.00000456,-0.00
 005963,0.00010226,-0.00000631,-0.00000576,-0.00003022,0.00000296,0.000
 02230,-0.00008764,0.00001507,0.00072980,-0.00010403,-0.00017305,0.0000
 2624,-0.00006390,0.00002071,0.00004171,-0.00002300,-0.00002095,0.00203
 010,-0.00061882,0.00127246,0.12142602,-0.03420369,0.22900475,0.0003386
 0,0.00026209,-0.00001549,-0.00095352,-0.00255720,-0.00082423,0.0004234
 5,0.00050915,-0.00036842,-0.00005062,-0.00038255,0.00041712,0.00007461
 ,0.00045902,0.00005603,0.00019307,-0.00025106,-0.00001788,-0.00033321,
 0.00002012,-0.00008916,-0.00731740,0.01274456,0.00783077,-0.11734172,0
 .01649870,0.10925932,-0.00009852,0.00019144,0.00001395,0.00011508,-0.0
 0001860,0.00001542,-0.00015707,0.00001078,-0.00004095,0.00022688,0.000
 03323,0.00000112,-0.00032682,0.00008670,0.00000404,0.00012678,0.000055
 83,-0.00000142,0.00013402,-0.00010912,-0.00000115,-0.00048345,-0.00085
 179,-0.00089349,-0.00000072,0.00000391,-0.00007231,0.00006903,-0.00003
 087,0.00004643,-0.01097254,0.00339078,0.02040022,0.00910868,-0.0035536
 1,-0.01425832,0.12729362,0.00030214,-0.00166279,0.00072290,0.00542749,
 0.00592982,-0.00165756,-0.00094196,0.00076432,0.00021695,-0.00038223,-
 0.00053869,0.00041878,-0.00060381,0.00031156,-0.00005478,0.00089946,0.
 00051552,0.00027383,-0.00026039,0.00007091,-0.00010170,0.02112123,-0.0
 2339702,-0.02621897,0.01385580,-0.04923475,-0.02351434,-0.00005567,-0.
 00013425,-0.00010234,-0.00004600,0.00000047,-0.00001538,0.00019626,-0.
 00005866,-0.00003313,-0.00019263,-0.00002422,0.00004646,0.00016691,-0.
 00007009,-0.00001396,-0.00005494,-0.00002672,0.00000361,-0.00005565,0.
 00007564,0.00000672,-0.00103569,-0.00074613,-0.00121423,-0.00002146,0.
 00001900,-0.00005043,-0.00012185,-0.00005180,0.00000961,-0.00814634,0.
 00448845,0.01461602,-0.00355306,0.00250498,0.00247020,-0.02649083,0.06
 124612,-0.00021746,-0.00045464,-0.00025989,0.00129287,0.00160074,0.000
 81006,0.00078097,-0.00072740,-0.00011014,-0.00042510,0.00034237,-0.000
 10348,-0.00010145,-0.00004176,-0.00002330,0.00013913,0.00010296,-0.000
 06306,-0.00005192,0.00010479,0.00009481,-0.00096126,-0.00605819,0.0064
 0226,0.10960531,-0.02742028,-0.21773635,-0.00006882,0.00006868,0.00002
 212,0.00002975,-0.00000649,-0.00000214,0.00010438,-0.00009868,0.000035
 62,-0.00009224,0.00000954,0.00000453,0.00005953,-0.00010225,-0.0000062
 7,0.00000580,0.00003024,0.00000297,-0.00002227,0.00008762,0.00001505,-
 0.00072985,0.00010379,-0.00017317,-0.00002625,0.00006390,0.00002069,-0
 .00004163,0.00002298,-0.00002067,-0.00203242,0.00061936,0.00127566,0.0
 1426571,-0.00247300,-0.01909354,-0.12144890,0.03421167,0.22893758,-0.0
 0327777,0.00056691,0.00000004,0.00044010,-0.00031468,-0.00000041,-0.00
 010928,0.00001150,0.00000006,-0.00031335,-0.00029632,-0.00000025,-0.00
 003494,0.00166682,0.00000009,-0.00383101,0.00014500,0.00000569,0.00175
 077,-0.00187810,-0.00000229,0.00008291,0.00019792,0.00000008,0.0000451
 9,0.00004606,0.,-0.01231105,0.04298685,0.00001782,-0.04157653,-0.03196
 332,-0.00001216,-0.00000752,0.00018368,-0.00000012,-0.00000945,0.00001
 562,0.00000003,0.00005225,0.00002478,0.,-0.00003293,-0.00002496,-0.000
 00001,-0.00002449,-0.00001190,0.,0.00001700,0.00001383,0.00000003,-0.0
 0001228,-0.00007636,0.00000021,0.00072577,0.00189904,0.00000490,-0.000
 00364,0.00001577,0.,0.00000266,-0.00000901,0.00000613,0.00000266,-0.00
 000899,-0.00000613,0.05800268,-0.00032268,-0.00008531,0.00000051,0.000
 10853,0.00014041,0.00000009,-0.00004811,-0.00009749,0.00000013,0.00030
 710,0.00003513,0.00000004,-0.00010757,-0.00046860,-0.00000004,0.000355
 35,0.00286590,-0.00000281,-0.00023200,0.00051862,-0.00000300,-0.000062
 27,-0.00021676,0.00000009,-0.00004450,0.00011728,-0.00000002,0.0084584
 2,-0.01145333,-0.00000450,-0.01858739,-0.30842208,-0.00009411,-0.00023
 400,-0.00008194,-0.00000002,0.00023186,0.00003789,0.00000005,-0.000308
 62,0.00004291,-0.00000006,0.00012666,0.00007462,0.00000004,0.00011044,
 -0.00007567,0.00000002,0.00002064,-0.00001317,-0.00000004,0.00002042,0
 .00001738,-0.00000002,0.00046939,-0.00067489,0.00000365,-0.00000842,-0
 .00001483,0.,0.00002067,-0.00001150,0.00000375,0.00002067,-0.00001150,
 -0.00000374,0.01315011,0.33268806,-0.00000142,-0.00000038,-0.00026792,
 0.00000051,-0.00000032,-0.00008156,-0.00000021,-0.00000014,0.00005243,
 0.00000045,0.00000010,-0.00010639,-0.00000022,-0.00000038,0.00018348,0
 .00000160,0.00000056,0.00048980,0.00000063,-0.00000200,0.00131338,0.00
 000006,0.00000001,-0.00000343,-0.00000004,0.00000016,-0.00000376,0.000
 00792,-0.00001928,0.00112837,-0.00000332,-0.00009264,-0.04501508,-0.00
 000025,-0.00000004,-0.00002019,0.00000023,0.00000003,0.00000280,-0.000
 00027,0.00000003,0.00000322,0.00000011,0.00000007,-0.00000820,0.000000
 09,-0.00000006,-0.00000106,0.00000006,-0.00000002,0.00001444,0.0000001
 0,0.00000004,0.00001357,0.00000185,0.00000871,-0.00221889,0.,-0.000000
 01,0.00000070,0.00000025,0.00000094,0.00000078,-0.00000020,-0.00000098
 ,0.00000077,0.00000148,0.00010834,0.04374420,-0.00200003,0.00102331,-0
 .00037744,-0.00005677,-0.00040012,-0.00000457,-0.00003750,0.00047600,-
 0.00003959,0.00019646,-0.00044584,-0.00037401,-0.00126072,0.00113628,-
 0.00028471,0.00275422,-0.00667054,0.00091994,0.00203174,-0.00133955,-0
 .00030850,0.00019131,0.00038774,-0.00001508,0.00006346,-0.00008532,0.0
 0001275,-0.03304114,-0.00029395,0.02420810,-0.09050022,-0.03155954,0.0
 8500488,0.00011407,0.00009571,0.00002231,-0.00018709,-0.00003019,-0.00
 005112,0.00033226,-0.00003631,0.00001493,-0.00013979,-0.00007348,-0.00
 000310,-0.00013824,0.00008389,-0.00000550,0.00001566,0.00001353,0.0000
 6428,0.00024740,-0.00001155,0.00026010,0.00076644,0.00084779,0.0008458
 6,0.00001370,0.00002357,-0.00000144,-0.00002256,0.00000277,0.00000397,
 -0.00001796,0.00000088,-0.00001083,0.00023176,-0.00171782,0.00283961,0
 .11108593,0.00047055,0.00030729,0.00032530,-0.00008763,-0.00011017,0.0
 0001087,0.00003825,0.00007269,0.00001423,-0.00010032,0.00011395,0.0000
 4896,0.00034125,-0.00024784,0.00026808,0.00000625,0.00213099,-0.001610
 05,-0.00149520,-0.00168242,-0.00107976,0.00002774,0.00015359,0.0000452
 2,0.00003275,-0.00006370,-0.00002322,0.00881714,0.00451960,-0.00962799
 ,-0.03350013,-0.06823017,0.05981435,0.00017145,0.00000387,-0.00002535,
 -0.00015370,-0.00002295,0.00007800,0.00019300,-0.00003564,-0.00002148,
 -0.00007644,-0.00004319,-0.00001030,-0.00006829,0.00005261,0.00000130,
 -0.00001518,0.00000296,0.00005932,-0.00007830,-0.00002750,-0.00013624,
 0.00012677,-0.00275371,-0.00125860,0.00000500,0.00001070,-0.00000248,-
 0.00000692,0.00001312,0.00000067,-0.00001502,-0.00000039,0.00000228,-0
 .01316781,-0.00745340,0.02618401,0.03429930,0.07038014,0.00354085,-0.0
 0073090,-0.00059019,-0.00039705,0.00041800,0.00002846,0.00020180,-0.00
 012019,0.00003621,-0.00029328,0.00017507,-0.00004225,0.00028083,-0.000
 48292,-0.00015625,-0.00105244,0.00147000,0.00050277,-0.00235055,0.0024
 9588,0.00173060,-0.00011933,-0.00015112,0.00000475,-0.00001331,-0.0000
 7414,-0.00000257,0.00448167,-0.00487938,0.00728716,0.08768355,0.061174
 49,-0.21856879,0.00011536,-0.00003584,-0.00000077,-0.00008905,-0.00001
 447,0.00001918,0.00004855,-0.00001679,-0.00000599,-0.00001552,-0.00001
 671,0.00000162,-0.00000125,0.00001287,0.00000295,-0.00003250,0.0000011
 5,-0.00003094,-0.00009286,0.00002875,0.00003486,-0.00007809,-0.0037735
 3,-0.00275889,0.00000121,-0.00000977,-0.00000153,-0.00000654,0.0000121
 5,-0.00000846,-0.00001519,0.00001505,0.00001099,-0.00095459,-0.0005755
 7,0.00039575,-0.10178525,-0.06398666,0.22950268,-0.00200891,0.00102472
 ,0.00037729,-0.00005562,-0.00040173,0.00000543,-0.00003802,0.00047615,
 0.00003954,0.00019661,-0.00044623,0.00037444,-0.00126192,0.00113936,0.
 00028483,0.00275236,-0.00667742,-0.00092396,0.00204056,-0.00134855,0.0
 0031046,0.00019188,0.00038854,0.00001508,0.00006358,-0.00008519,-0.000
 01269,-0.03307037,-0.00025900,-0.02417764,-0.09058276,-0.03151636,-0.0
 8508218,0.00011383,0.00009599,-0.00002224,-0.00018703,-0.00003019,0.00
 005108,0.00033235,-0.00003632,-0.00001480,-0.00013984,-0.00007348,0.00
 000301,-0.00013834,0.00008393,0.00000543,0.00001579,0.00001355,-0.0000
 6454,0.00024792,-0.00001154,-0.00026012,0.00076730,0.00086107,-0.00085
 559,0.00001371,0.00002360,0.00000143,-0.00001794,0.00000086,0.00001085
 ,-0.00002256,0.00000273,-0.00000402,0.00022880,-0.00171733,-0.00284903
 ,0.00933331,0.00421867,0.01094765,0.11120102,0.00046738,0.00030904,-0.
 00031987,-0.00008700,-0.00011059,-0.00001128,0.00003821,0.00007308,-0.
 00001365,-0.00009930,0.00011303,-0.00004939,0.00033988,-0.00024739,-0.
 00026791,0.00001102,0.00212176,0.00160848,-0.00149268,-0.00169228,0.00
 107287,0.00002787,0.00015357,-0.00004463,0.00003264,-0.00006351,0.0000
 2332,0.00881105,0.00451643,0.00961731,-0.03343270,-0.06809824,-0.05960
 257,0.00017092,0.00000382,0.00002547,-0.00015321,-0.00002288,-0.000077
 75,0.00019253,-0.00003553,0.00002145,-0.00007628,-0.00004308,0.0000102
 3,-0.00006816,0.00005250,-0.00000132,-0.00001513,0.00000295,-0.0000596
 6,-0.00007817,-0.00002746,0.00013603,0.00012711,-0.00276013,0.00126004
 ,0.00000497,0.00001072,0.00000248,-0.00001499,-0.00000042,-0.00000231,
 -0.00000689,0.00001312,-0.00000067,-0.01318849,-0.00743565,-0.02618675
 ,0.00423594,0.00289954,0.00907439,0.03423660,0.07025755,-0.00354431,0.
 00073013,-0.00059235,0.00039769,-0.00041816,0.00003011,-0.00020161,0.0
 0012010,0.00003579,0.00029374,-0.00017558,-0.00004192,-0.00028117,0.00
 048327,-0.00015637,0.00105326,-0.00147174,0.00050398,0.00235272,-0.002
 50336,0.00173148,0.00011953,0.00015132,0.00000429,0.00001339,0.0000743
 4,-0.00000253,-0.00445675,0.00488840,0.00732131,-0.08776013,-0.0609901
 0,-0.21849880,-0.00011567,0.00003582,-0.00000076,0.00008929,0.00001454
 ,0.00001904,-0.00004876,0.00001682,-0.00000598,0.00001560,0.00001678,0
 .00000166,0.00000129,-0.00001291,0.00000296,0.00003260,-0.00000114,-0.
 00003109,0.00009287,-0.00002879,0.00003500,0.00007713,0.00379549,-0.00
 274871,-0.00000122,0.00000977,-0.00000153,0.00001520,-0.00001511,0.000
 01102,0.00000659,-0.00001217,-0.00000848,0.00093936,0.00056724,0.00036
 749,-0.01096974,-0.00906775,-0.01738364,0.10187443,0.06378299,0.229415
 74,0.00005028,-0.00015233,0.00000009,-0.00000626,-0.00016245,-0.000000
 13,0.00097402,0.00211391,0.00000015,-0.00775965,0.02678482,-0.00000034
 ,-0.00507236,-0.00127860,-0.00000086,0.00067759,0.00139805,0.00000003,
 -0.00001133,-0.00011810,0.00000005,0.00003441,-0.00016487,0.00000002,-
 0.00009230,0.00012762,-0.00000003,-0.00057180,-0.00000984,0.00000020,-
 0.00001331,0.00011087,-0.00000011,-0.07471318,0.07436186,0.00000010,0.
 00899658,-0.02234905,-0.00000091,0.00000941,-0.00447956,0.00000034,0.0
 0089939,0.00184189,0.00000040,-0.00005357,0.00205812,-0.00000007,-0.00
 065594,-0.00111658,0.00000005,0.00013553,0.00005672,0.00000004,0.00003
 726,0.00002393,0.,0.00003951,-0.00002061,0.,-0.00000257,-0.00001407,0.
 00005453,-0.00000256,-0.00001408,-0.00005453,-0.00004893,0.00001447,0.
 ,-0.00001725,0.00000605,0.00000684,-0.00001733,0.00000606,-0.00000684,
 0.08052506,-0.00014938,0.00001621,0.,-0.00004723,0.00015285,0.00000016
 ,-0.00199365,0.00132087,-0.00000006,-0.00024585,-0.00328354,-0.0000001
 4,0.00008595,0.00103286,-0.00000031,-0.00029128,-0.00007048,-0.0000000
 2,0.00013867,0.00003465,-0.00000003,0.00009324,0.00012288,0.,0.0000514
 0,-0.00008109,0.,0.00014520,-0.00003863,-0.00000002,-0.00006813,0.0000
 0896,0.00000004,0.07339159,-0.29235406,-0.00000409,0.00544773,-0.02118
 839,-0.00000072,0.00160522,-0.00262361,0.00000037,-0.00009118,0.000497
 10,0.00000004,0.00068770,0.00214804,0.,0.00052710,0.00041997,-0.000000
 09,-0.00010674,0.00005136,0.,-0.00002186,0.00000885,-0.00000001,0.0000
 0121,0.00000617,0.,-0.00000548,0.00000920,-0.00000314,-0.00000549,0.00
 000920,0.00000314,0.00000941,-0.00000787,0.,0.00001290,0.00000372,-0.0
 0000429,0.00001294,0.00000372,0.00000430,-0.07650664,0.31468780,0.0000
 0031,0.00000019,0.00008896,-0.00000013,0.00000012,0.00011484,0.0000005
 1,0.00000028,-0.00174992,-0.00000245,0.00000270,0.00378039,-0.00000040
 ,-0.00000046,0.00288466,-0.00000056,-0.00000014,0.00005907,-0.00000017
 ,0.,-0.00000227,0.00000003,-0.00000004,0.00000360,-0.00000002,0.000000
 02,0.00006434,0.00000004,0.00000029,-0.00016922,0.00000001,-0.00000004
 ,-0.00012777,0.00000134,-0.00000280,-0.04052801,-0.00000115,-0.0000044
 9,0.00662727,0.00000187,-0.00000058,-0.00692446,-0.00000015,0.00000013
 ,0.00038347,-0.00000017,0.00000055,0.00011040,-0.00000008,-0.00000013,
 0.00035262,-0.00000001,0.00000002,-0.00003684,0.,-0.00000005,-0.000009
 09,0.,0.,-0.00001299,0.00000371,0.00001910,-0.00002212,-0.00000370,-0.
 00001911,-0.00002213,0.00000002,0.,0.00000040,0.00002463,-0.00001368,-
 0.00000042,-0.00002465,0.00001367,-0.00000040,0.00000252,0.00000547,0.
 02577613,0.00006335,-0.00005006,0.00000002,-0.00023648,0.00016227,-0.0
 0000006,0.00026272,0.00020324,0.00000005,0.00019353,0.00068925,0.00000
 045,-0.00083830,-0.00110080,-0.00000022,0.00000133,0.00029912,0.000000
 16,-0.00000819,0.00007439,0.00000004,0.00013817,0.00020372,0.00000002,
 0.00005089,-0.00010385,0.,0.00005862,-0.00007856,0.,-0.00010581,0.0000
 5584,0.00000001,0.00977784,-0.02239693,-0.00000060,-0.06146700,0.04752
 201,0.00000024,0.00168459,0.02838859,0.00000239,-0.00080767,-0.0013982
 2,-0.00000046,-0.00718358,0.00235697,-0.00000179,0.00012182,0.00015025
 ,-0.00000002,-0.00176312,0.00068334,-0.00000036,-0.00002820,-0.0000151
 7,-0.00000007,-0.00000145,0.00000898,0.,-0.00001225,0.00000620,-0.0000
 1360,-0.00001225,0.00000620,0.00001360,0.00000942,-0.00000771,0.,0.000
 02338,0.00000036,-0.00001217,0.00002342,0.00000038,0.00001217,-0.00317
 382,-0.00258021,-0.00000130,0.06255345,0.00004840,-0.00006369,-0.00000
 002,-0.00009081,-0.00008459,0.00000004,-0.00009051,-0.00000485,-0.0000
 0003,0.00154290,-0.00011129,0.00000053,0.00037272,0.00011859,-0.000000
 01,-0.00018104,0.00050840,0.00000008,0.00010045,0.00006203,0.00000001,
 0.00004604,0.00019111,0.,0.00005482,-0.00009983,0.,0.00002274,-0.00006
 657,-0.00000003,-0.00007552,0.00003408,0.00000002,0.00515136,-0.016179
 60,-0.00000033,0.05063890,-0.31706773,-0.00001094,-0.00317855,-0.00765
 198,-0.00000071,-0.00077545,0.00131921,0.00000007,0.00168398,0.0011435
 1,0.,0.00005747,0.00014980,-0.00000003,0.00001667,0.00089747,-0.000000
 11,-0.00002631,0.00000551,-0.00000002,-0.00000334,0.00000976,0.,-0.000
 00943,0.00000675,-0.00001839,-0.00000944,0.00000675,0.00001839,0.00000
 452,-0.00000661,0.,0.00001531,0.00000194,-0.00000563,0.00001533,0.0000
 0195,0.00000563,-0.00245337,-0.00087725,-0.00000097,-0.05296501,0.3377
 3200,-0.00000020,-0.00000021,-0.00039119,-0.00000025,0.00000010,-0.000
 08462,0.00000029,0.00000009,-0.00001651,0.00000036,0.00000047,-0.00505
 031,-0.00000011,-0.00000026,-0.00008630,0.00000034,0.00000033,-0.00038
 299,0.00000003,-0.00000004,0.00028744,0.00000005,0.00000004,0.00002536
 ,0.00000001,-0.00000004,0.00002980,-0.00000007,-0.00000014,0.00003932,
 -0.00000004,0.00000005,0.00001294,0.00000105,-0.00000369,0.00397817,0.
 00000002,-0.00001102,-0.03167920,0.00000029,0.00000184,0.00008914,-0.0
 0000002,0.00000029,-0.00070104,-0.00000129,0.00000045,0.00285730,-0.00
 000004,0.00000007,0.00012257,-0.00000055,-0.00000008,0.00107338,0.0000
 0012,0.00000002,0.00001914,0.,0.,-0.00000118,0.00000169,0.00000086,-0.
 00000613,-0.00000170,-0.00000086,-0.00000612,0.,-0.00000001,0.00001072
 ,0.00000639,0.00000744,-0.00000547,-0.00000639,-0.00000744,-0.00000548
 ,-0.00000151,-0.00000057,0.00919465,0.00000133,0.00001233,0.02097152,-
 0.00034495,-0.00000979,-0.00000003,-0.00001011,-0.00036674,0.00000007,
 -0.00024522,-0.00006104,0.00000004,0.00035991,-0.00062476,0.00000027,-
 0.00002732,0.00016361,-0.00000001,0.00011042,0.00034868,-0.00000004,0.
 00039854,-0.00006150,-0.00000009,0.00008092,0.00019873,0.,0.00002389,-
 0.00008435,0.,0.00011085,-0.00022179,-0.00000002,-0.00011833,0.0000311
 8,0.00000005,-0.00181732,0.00061562,-0.00000046,-0.00017566,-0.0053733
 4,-0.00000242,-0.04227565,0.00796679,-0.00000870,-0.38826213,0.1339691
 8,-0.00007510,0.00613952,0.00620489,0.00000281,-0.00002056,-0.00000610
 ,-0.00000001,-0.00001062,0.00000855,0.00000001,-0.00003265,0.00006499,
 0.00000008,0.00001264,0.00001028,0.,-0.00001558,0.00000647,0.00000197,
 -0.00001558,0.00000648,-0.00000198,0.00000119,-0.00001632,-0.00000002,
 0.00001818,0.00001046,0.00000066,0.00001819,0.00001044,-0.00000067,-0.
 00016688,-0.00009714,-0.00000008,0.00067559,0.00008714,0.00000019,0.42
 558872,-0.00010000,-0.00001358,0.,-0.00002679,-0.00009688,0.,-0.000057
 70,0.00003225,0.00000008,-0.00016508,-0.00031896,0.00000007,0.00006327
 ,-0.00002288,0.00000001,-0.00000740,0.00013622,-0.00000001,0.00013251,
 -0.00002250,-0.00000003,0.00002397,0.00003822,0.,-0.00000592,-0.000008
 29,0.,0.00005766,-0.00010640,-0.00000002,-0.00005445,0.00001686,0.0000
 0002,-0.00120243,0.00071561,-0.00000016,-0.00225012,-0.00426200,-0.000
 00122,-0.03893602,0.01852134,-0.00000838,0.17890196,-0.11300137,0.0000
 3118,0.00661250,-0.00254336,0.00000222,-0.00001346,-0.00001523,0.,-0.0
 0001806,0.00001874,0.,-0.00001191,0.00002325,0.00000003,0.00000518,0.0
 0000232,0.,-0.00000450,0.00000112,0.00000535,-0.00000449,0.00000112,-0
 .00000535,0.00000212,-0.00000760,0.,0.00000929,0.00000438,0.00000011,0
 .00000930,0.00000437,-0.00000012,-0.00006421,-0.00000951,-0.00000006,-
 0.00011459,0.00002512,-0.00000004,-0.14278061,0.10088761,-0.00000009,0
 .,-0.00003378,-0.00000005,-0.00000010,0.00011576,-0.00000002,0.,-0.000
 20085,0.00000015,-0.00000020,-0.00064478,-0.00000001,0.00000006,0.0000
 2013,0.00000004,0.00000011,0.00005093,0.00000013,-0.00000003,-0.000009
 54,0.00000002,0.00000005,0.00000642,0.,-0.00000003,0.00002134,0.000000
 03,-0.00000008,-0.00001404,-0.00000004,0.,0.00001235,-0.00000076,0.000
 00030,0.00078792,-0.00000045,-0.00000232,0.00489402,-0.00001641,0.0000
 0381,0.00388223,-0.00006953,0.00002089,-0.01524601,0.00000338,0.000001
 10,-0.00568309,0.,0.,-0.00001625,0.,0.,-0.00001583,-0.00000002,0.00000
 003,0.00000698,0.,0.,0.00000129,-0.00000152,0.00000191,-0.00000437,0.0
 0000151,-0.00000190,-0.00000437,0.,0.,0.00000417,0.00000313,0.00000353
 ,-0.00000183,-0.00000311,-0.00000352,-0.00000184,-0.00000005,-0.000000
 03,0.00016486,0.00000019,0.00000011,-0.00029494,0.00008347,-0.00002368
 ,0.01220313\\-0.00004813,0.00000973,-0.00000050,-0.00002969,-0.0000424
 5,0.00000165,0.00001219,0.00000857,-0.00000024,-0.00001580,0.00000728,
 0.00000033,0.00002185,-0.00000241,0.00000182,-0.00001285,0.00001185,0.
 00000765,0.00003392,-0.00002858,-0.00000498,0.00001199,0.00002268,0.00
 000018,0.00000470,0.00002510,-0.00000014,0.00001433,-0.00001943,-0.000
 01502,-0.00000190,0.00001518,0.00000976,0.00001516,0.00000912,-0.00000
 154,-0.00004822,0.00000599,-0.00000891,0.00005253,-0.00003925,0.000030
 40,-0.00002146,0.00000576,-0.00000904,-0.00000732,0.00001177,-0.000011
 72,0.00000606,-0.00002283,0.00000009,0.00000577,0.00001481,0.00000055,
 -0.00000288,0.00000950,0.00000234,-0.00001688,-0.00001137,-0.00000003,
 0.00001263,-0.00000146,0.00001667,0.00001264,-0.00000136,-0.00001673,0
 .00000439,0.00001720,0.00000023,-0.00000894,-0.00000710,0.00001433,-0.
 00000946,-0.00000316,-0.00001667,-0.00000342,-0.00002035,0.00000003,-0
 .00000362,0.00002080,-0.00000045,0.00002240,0.00000441,-0.00000007\\\@


 YOU KNOW YOU'VE SPOKEN TOO LONG WHEN THE AUDIENCE STOPS LOOKING AT
 THEIR WATCHES AND STARTS SHAKING THEM.
 Job cpu time:       0 days  0 hours 38 minutes 46.2 seconds.
 File lengths (MBytes):  RWF=    373 Int=      0 D2E=      0 Chk=     11 Scr=      1
 Normal termination of Gaussian 09 at Wed Jun 19 14:37:56 2024.
