 Entering Gaussian System, Link 0=g09
 Input=ccpvTZAnthranilicyang.gjf
 Output=ccpvTZAnthranilicyang.log
 Initial command:
 /home/c612/g09E/g09/l1.exe "/mnt/ja_sm883/scratch/Gau-2074757.inp" -scrdir="/mnt/ja_sm883/scratch/"
 Default is to use a total of  18 processors:
                               18 via shared-memory
                                1 via Linda
 Entering Link 1 = /home/c612/g09E/g09/l1.exe PID=   2074759.
  
 Copyright (c) 1988,1990,1992,1993,1995,1998,2003,2009,2015,
            Gaussian, Inc.  All Rights Reserved.
  
 This is part of the Gaussian(R) 09 program.  It is based on
 the Gaussian(R) 03 system (copyright 2003, Gaussian, Inc.),
 the Gaussian(R) 98 system (copyright 1998, Gaussian, Inc.),
 the Gaussian(R) 94 system (copyright 1995, Gaussian, Inc.),
 the Gaussian 92(TM) system (copyright 1992, Gaussian, Inc.),
 the Gaussian 90(TM) system (copyright 1990, Gaussian, Inc.),
 the Gaussian 88(TM) system (copyright 1988, Gaussian, Inc.),
 the Gaussian 86(TM) system (copyright 1986, Carnegie Mellon
 University), and the Gaussian 82(TM) system (copyright 1983,
 Carnegie Mellon University). Gaussian is a federally registered
 trademark of Gaussian, Inc.
  
 This software contains proprietary and confidential information,
 including trade secrets, belonging to Gaussian, Inc.
  
 This software is provided under written license and may be
 used, copied, transmitted, or stored only in accord with that
 written license.
  
 The following legend is applicable only to US Government
 contracts under FAR:
  
                    RESTRICTED RIGHTS LEGEND
  
 Use, reproduction and disclosure by the US Government is
 subject to restrictions as set forth in subparagraphs (a)
 and (c) of the Commercial Computer Software - Restricted
 Rights clause in FAR 52.227-19.
  
 Gaussian, Inc.
 340 Quinnipiac St., Bldg. 40, Wallingford CT 06492
  
  
 ---------------------------------------------------------------
 Warning -- This program may not be used in any manner that
 competes with the business of Gaussian, Inc. or will provide
 assistance to any competitor of Gaussian, Inc.  The licensee
 of this program is prohibited from giving any competitor of
 Gaussian, Inc. access to this program.  By using this program,
 the user acknowledges that Gaussian, Inc. is engaged in the
 business of creating and licensing software in the field of
 computational chemistry and represents and warrants to the
 licensee that it is not a competitor of Gaussian, Inc. and that
 it will not use this program in any manner prohibited above.
 ---------------------------------------------------------------
  

 Cite this work as:
 Gaussian 09, Revision E.01,
 M. J. Frisch, G. W. Trucks, H. B. Schlegel, G. E. Scuseria, 
 M. A. Robb, J. R. Cheeseman, G. Scalmani, V. Barone, B. Mennucci, 
 G. A. Petersson, H. Nakatsuji, M. Caricato, X. Li, H. P. Hratchian, 
 A. F. Izmaylov, J. Bloino, G. Zheng, J. L. Sonnenberg, M. Hada, 
 M. Ehara, K. Toyota, R. Fukuda, J. Hasegawa, M. Ishida, T. Nakajima, 
 Y. Honda, O. Kitao, H. Nakai, T. Vreven, J. A. Montgomery, Jr., 
 J. E. Peralta, F. Ogliaro, M. Bearpark, J. J. Heyd, E. Brothers, 
 K. N. Kudin, V. N. Staroverov, T. Keith, R. Kobayashi, J. Normand, 
 K. Raghavachari, A. Rendell, J. C. Burant, S. S. Iyengar, J. Tomasi, 
 M. Cossi, N. Rega, J. M. Millam, M. Klene, J. E. Knox, J. B. Cross, 
 V. Bakken, C. Adamo, J. Jaramillo, R. Gomperts, R. E. Stratmann, 
 O. Yazyev, A. J. Austin, R. Cammi, C. Pomelli, J. W. Ochterski, 
 R. L. Martin, K. Morokuma, V. G. Zakrzewski, G. A. Voth, 
 P. Salvador, J. J. Dannenberg, S. Dapprich, A. D. Daniels, 
 O. Farkas, J. B. Foresman, J. V. Ortiz, J. Cioslowski, 
 and D. J. Fox, Gaussian, Inc., Wallingford CT, 2013.
 
 ******************************************
 Gaussian 09:  ES64L-G09RevE.01 30-Nov-2015
                19-Dec-2024 
 ******************************************
 %chk=ccpvTZAnthranilicyang.chk
 ------------------------
 # opt freq m062x/cc-pvtz
 ------------------------
 1/14=-1,18=20,19=15,26=3,38=1/1,3;
 2/9=110,12=2,17=6,18=5,40=1/2;
 3/5=16,6=1,11=2,16=1,25=1,30=1,71=1,74=-55/1,2,3;
 4//1;
 5/5=2,38=5/2;
 6/7=2,8=2,9=2,10=2,28=1/1;
 7//1,2,3,16;
 1/14=-1,18=20,19=15,26=3/3(2);
 2/9=110/2;
 99//99;
 2/9=110/2;
 3/5=16,6=1,11=2,16=1,25=1,30=1,71=1,74=-55/1,2,3;
 4/5=5,16=3,69=1/1;
 5/5=2,38=5/2;
 7//1,2,3,16;
 1/14=-1,18=20,19=15,26=3/3(-5);
 2/9=110/2;
 6/7=2,8=2,9=2,10=2,19=2,28=1/1;
 99/9=1/99;
 ----------
 [No Title]
 ----------
 Symbolic Z-matrix:
 Charge =  1 Multiplicity = 1
 C                     1.93062  -1.4739   0. 
 C                     2.61435  -0.25949   0.00001 
 C                     1.91018   0.94647   0.00002 
 C                     0.52729   0.90775   0.00001 
 C                    -0.18462  -0.2993    0.00001 
 C                     0.53793  -1.49597  0. 
 C                    -1.67328  -0.29668   0.00006 
 O                    -2.21416  -1.49736  -0.00011 
 N                    -0.23444   2.17227  -0.00003 
 O                    -2.34211   0.73151   0.0001 
 H                     2.48581  -2.40963  0. 
 H                     3.70267  -0.24348   0.00002 
 H                     2.44123   1.89829   0.00002 
 H                    -0.00198  -2.4402    0. 
 H                    -3.18256  -1.41231  -0.00014 
 H                    -0.03074   2.73701  -0.82962 
 H                    -1.26709   1.8809   -0.00015 
 H                    -0.03088   2.73698   0.82961 
 

 GradGradGradGradGradGradGradGradGradGradGradGradGradGradGradGradGradGrad
 Berny optimization.
 Initialization pass.
                           ----------------------------
                           !    Initial Parameters    !
                           ! (Angstroms and Degrees)  !
 --------------------------                            --------------------------
 ! Name  Definition              Value          Derivative Info.                !
 --------------------------------------------------------------------------------
 ! R1    R(1,2)                  1.3937         estimate D2E/DX2                !
 ! R2    R(1,6)                  1.3929         estimate D2E/DX2                !
 ! R3    R(1,11)                 1.088          estimate D2E/DX2                !
 ! R4    R(2,3)                  1.3965         estimate D2E/DX2                !
 ! R5    R(2,12)                 1.0884         estimate D2E/DX2                !
 ! R6    R(3,4)                  1.3834         estimate D2E/DX2                !
 ! R7    R(3,13)                 1.0899         estimate D2E/DX2                !
 ! R8    R(4,5)                  1.4013         estimate D2E/DX2                !
 ! R9    R(4,9)                  1.4762         estimate D2E/DX2                !
 ! R10   R(5,6)                  1.3979         estimate D2E/DX2                !
 ! R11   R(5,7)                  1.4887         estimate D2E/DX2                !
 ! R12   R(6,14)                 1.0877         estimate D2E/DX2                !
 ! R13   R(7,8)                  1.3169         estimate D2E/DX2                !
 ! R14   R(7,10)                 1.2266         estimate D2E/DX2                !
 ! R15   R(8,15)                 0.9721         estimate D2E/DX2                !
 ! R16   R(9,16)                 1.024          estimate D2E/DX2                !
 ! R17   R(9,17)                 1.073          estimate D2E/DX2                !
 ! R18   R(9,18)                 1.024          estimate D2E/DX2                !
 ! A1    A(2,1,6)              120.2884         estimate D2E/DX2                !
 ! A2    A(2,1,11)             119.9385         estimate D2E/DX2                !
 ! A3    A(6,1,11)             119.7731         estimate D2E/DX2                !
 ! A4    A(1,2,3)              120.3387         estimate D2E/DX2                !
 ! A5    A(1,2,12)             120.223          estimate D2E/DX2                !
 ! A6    A(3,2,12)             119.4383         estimate D2E/DX2                !
 ! A7    A(2,3,4)              118.677          estimate D2E/DX2                !
 ! A8    A(2,3,13)             120.5601         estimate D2E/DX2                !
 ! A9    A(4,3,13)             120.763          estimate D2E/DX2                !
 ! A10   A(3,4,5)              122.1363         estimate D2E/DX2                !
 ! A11   A(3,4,9)              119.4602         estimate D2E/DX2                !
 ! A12   A(5,4,9)              118.4035         estimate D2E/DX2                !
 ! A13   A(4,5,6)              118.3443         estimate D2E/DX2                !
 ! A14   A(4,5,7)              120.4312         estimate D2E/DX2                !
 ! A15   A(6,5,7)              121.2245         estimate D2E/DX2                !
 ! A16   A(1,6,5)              120.2153         estimate D2E/DX2                !
 ! A17   A(1,6,14)             120.6693         estimate D2E/DX2                !
 ! A18   A(5,6,14)             119.1154         estimate D2E/DX2                !
 ! A19   A(5,7,8)              114.1492         estimate D2E/DX2                !
 ! A20   A(5,7,10)             123.1444         estimate D2E/DX2                !
 ! A21   A(8,7,10)             122.7064         estimate D2E/DX2                !
 ! A22   A(7,8,15)             109.2309         estimate D2E/DX2                !
 ! A23   A(4,9,16)             111.7017         estimate D2E/DX2                !
 ! A24   A(4,9,17)             105.3077         estimate D2E/DX2                !
 ! A25   A(4,9,18)             111.702          estimate D2E/DX2                !
 ! A26   A(16,9,17)            109.9451         estimate D2E/DX2                !
 ! A27   A(16,9,18)            108.2202         estimate D2E/DX2                !
 ! A28   A(17,9,18)            109.947          estimate D2E/DX2                !
 ! D1    D(6,1,2,3)             -0.0004         estimate D2E/DX2                !
 ! D2    D(6,1,2,12)           180.0            estimate D2E/DX2                !
 ! D3    D(11,1,2,3)          -180.0            estimate D2E/DX2                !
 ! D4    D(11,1,2,12)            0.0005         estimate D2E/DX2                !
 ! D5    D(2,1,6,5)              0.0            estimate D2E/DX2                !
 ! D6    D(2,1,6,14)          -179.9991         estimate D2E/DX2                !
 ! D7    D(11,1,6,5)           179.9996         estimate D2E/DX2                !
 ! D8    D(11,1,6,14)            0.0004         estimate D2E/DX2                !
 ! D9    D(1,2,3,4)             -0.0002         estimate D2E/DX2                !
 ! D10   D(1,2,3,13)          -179.9992         estimate D2E/DX2                !
 ! D11   D(12,2,3,4)           179.9994         estimate D2E/DX2                !
 ! D12   D(12,2,3,13)            0.0004         estimate D2E/DX2                !
 ! D13   D(2,3,4,5)              0.0012         estimate D2E/DX2                !
 ! D14   D(2,3,4,9)           -179.9981         estimate D2E/DX2                !
 ! D15   D(13,3,4,5)          -179.9998         estimate D2E/DX2                !
 ! D16   D(13,3,4,9)             0.0009         estimate D2E/DX2                !
 ! D17   D(3,4,5,6)             -0.0016         estimate D2E/DX2                !
 ! D18   D(3,4,5,7)            179.9973         estimate D2E/DX2                !
 ! D19   D(9,4,5,6)            179.9977         estimate D2E/DX2                !
 ! D20   D(9,4,5,7)             -0.0034         estimate D2E/DX2                !
 ! D21   D(3,4,9,16)            60.6808         estimate D2E/DX2                !
 ! D22   D(3,4,9,17)           179.9938         estimate D2E/DX2                !
 ! D23   D(3,4,9,18)           -60.6909         estimate D2E/DX2                !
 ! D24   D(5,4,9,16)          -119.3185         estimate D2E/DX2                !
 ! D25   D(5,4,9,17)            -0.0056         estimate D2E/DX2                !
 ! D26   D(5,4,9,18)           119.3098         estimate D2E/DX2                !
 ! D27   D(4,5,6,1)              0.0009         estimate D2E/DX2                !
 ! D28   D(4,5,6,14)          -179.9999         estimate D2E/DX2                !
 ! D29   D(7,5,6,1)           -179.998          estimate D2E/DX2                !
 ! D30   D(7,5,6,14)             0.0012         estimate D2E/DX2                !
 ! D31   D(4,5,7,8)            179.992          estimate D2E/DX2                !
 ! D32   D(4,5,7,10)            -0.0006         estimate D2E/DX2                !
 ! D33   D(6,5,7,8)             -0.0091         estimate D2E/DX2                !
 ! D34   D(6,5,7,10)           179.9983         estimate D2E/DX2                !
 ! D35   D(5,7,8,15)          -179.996          estimate D2E/DX2                !
 ! D36   D(10,7,8,15)           -0.0034         estimate D2E/DX2                !
 --------------------------------------------------------------------------------
 Trust Radius=3.00D-01 FncErr=1.00D-07 GrdErr=1.00D-06
 Number of steps in this run=     92 maximum allowed number of steps=    108.
 GradGradGradGradGradGradGradGradGradGradGradGradGradGradGradGradGradGrad

                          Input orientation:                          
 ---------------------------------------------------------------------
 Center     Atomic      Atomic             Coordinates (Angstroms)
 Number     Number       Type             X           Y           Z
 ---------------------------------------------------------------------
      1          6           0        1.930619   -1.473896   -0.000001
      2          6           0        2.614350   -0.259487    0.000014
      3          6           0        1.910177    0.946473    0.000019
      4          6           0        0.527292    0.907745    0.000005
      5          6           0       -0.184623   -0.299298    0.000011
      6          6           0        0.537929   -1.495974   -0.000002
      7          6           0       -1.673284   -0.296675    0.000055
      8          8           0       -2.214157   -1.497358   -0.000112
      9          7           0       -0.234444    2.172267   -0.000033
     10          8           0       -2.342106    0.731513    0.000098
     11          1           0        2.485807   -2.409634   -0.000004
     12          1           0        3.702666   -0.243477    0.000015
     13          1           0        2.441231    1.898288    0.000017
     14          1           0       -0.001983   -2.440202    0.000001
     15          1           0       -3.182559   -1.412305   -0.000135
     16          1           0       -0.030738    2.737011   -0.829621
     17          1           0       -1.267094    1.880900   -0.000150
     18          1           0       -0.030884    2.736978    0.829613
 ---------------------------------------------------------------------
                    Distance matrix (angstroms):
                    1          2          3          4          5
     1  C    0.000000
     2  C    1.393656   0.000000
     3  C    2.420455   1.396495   0.000000
     4  C    2.764334   2.391285   1.383427   0.000000
     5  C    2.419489   2.799256   2.437239   1.401348   0.000000
     6  C    1.392865   2.416697   2.801537   2.403743   1.397897
     7  C    3.791301   4.287795   3.792968   2.508618   1.488663
     8  O    4.144842   4.984657   4.794001   3.646925   2.356768
     9  N    4.240519   3.745538   2.470217   1.476231   2.472067
    10  O    4.808327   5.054556   4.257713   2.874805   2.391089
    11  H    1.088044   2.153986   3.405114   3.852374   3.403633
    12  H    2.157332   1.088434   2.151511   3.377619   3.887690
    13  H    3.410623   2.164709   1.089940   2.155073   3.424105
    14  H    2.160717   3.405982   3.889206   3.389525   2.148680
    15  H    5.113549   5.910427   5.612468   4.375572   3.197875
    16  H    4.718785   4.082130   2.767938   2.084680   3.151371
    17  H    4.634655   4.432478   3.311828   2.041287   2.434134
    18  H    4.718815   4.082193   2.768005   2.084683   3.151325
                    6          7          8          9         10
     6  C    0.000000
     7  C    2.515508   0.000000
     8  O    2.752086   1.316884   0.000000
     9  N    3.748673   2.857610   4.169582   0.000000
    10  O    3.640920   1.226578   2.232540   2.553040   0.000000
    11  H    2.151512   4.665044   4.787683   5.328563   5.759822
    12  H    3.403573   5.376213   6.048224   4.619162   6.122898
    13  H    3.891474   4.663378   5.762209   2.689666   4.923584
    14  H    1.087691   2.718079   2.404718   4.618323   3.941567
    15  H    3.721429   1.876843   0.972130   4.641179   2.302676
    16  H    4.350840   3.548178   4.835833   1.024035   3.170627
    17  H    3.829019   2.215135   3.508498   1.072968   1.573767
    18  H    4.350827   3.548055   4.835776   1.024035   3.170447
                   11         12         13         14         15
    11  H    0.000000
    12  H    2.484549   0.000000
    13  H    4.308153   2.485634   0.000000
    14  H    2.487978   4.306974   4.979135   0.000000
    15  H    5.755436   6.983730   6.525875   3.342549   0.000000
    16  H    5.788715   4.848702   2.739048   5.243342   5.276253
    17  H    5.700259   5.404766   3.708366   4.502491   3.809751
    18  H    5.788749   4.848788   2.739157   5.243309   5.276181
                   16         17         18
    16  H    0.000000
    17  H    1.717418   0.000000
    18  H    1.659234   1.717437   0.000000
 Stoichiometry    C7H8NO2(1+)
 Framework group  C1[X(C7H8NO2)]
 Deg. of freedom    48
 Full point group                 C1      NOp   1
 Largest Abelian subgroup         C1      NOp   1
 Largest concise Abelian subgroup C1      NOp   1
                         Standard orientation:                         
 ---------------------------------------------------------------------
 Center     Atomic      Atomic             Coordinates (Angstroms)
 Number     Number       Type             X           Y           Z
 ---------------------------------------------------------------------
      1          6           0       -1.930620   -1.473895    0.000001
      2          6           0       -2.614350   -0.259486   -0.000014
      3          6           0       -1.910177    0.946474   -0.000019
      4          6           0       -0.527292    0.907745   -0.000005
      5          6           0        0.184623   -0.299298   -0.000011
      6          6           0       -0.537930   -1.495974    0.000002
      7          6           0        1.673284   -0.296676   -0.000055
      8          8           0        2.214156   -1.497359    0.000112
      9          7           0        0.234445    2.172267    0.000033
     10          8           0        2.342106    0.731512   -0.000098
     11          1           0       -2.485808   -2.409633    0.000004
     12          1           0       -3.702666   -0.243476   -0.000015
     13          1           0       -2.441230    1.898289   -0.000017
     14          1           0        0.001982   -2.440202   -0.000001
     15          1           0        3.182558   -1.412306    0.000135
     16          1           0        0.030739    2.737011    0.829621
     17          1           0        1.267095    1.880900    0.000150
     18          1           0        0.030885    2.736978   -0.829613
 ---------------------------------------------------------------------
 Rotational constants (GHZ):      2.2506133      1.2107263      0.7906490
 Standard basis: CC-pVTZ (5D, 7F)
 There are   470 symmetry adapted cartesian basis functions of A   symmetry.
 There are   412 symmetry adapted basis functions of A   symmetry.
   412 basis functions,   656 primitive gaussians,   470 cartesian basis functions
    36 alpha electrons       36 beta electrons
       nuclear repulsion energy       515.7875089771 Hartrees.
 NAtoms=   18 NActive=   18 NUniq=   18 SFac= 1.00D+00 NAtFMM=   60 NAOKFM=F Big=F
 Integral buffers will be    131072 words long.
 Raffenetti 2 integral format.
 Two-electron integral symmetry is turned on.
 One-electron integrals computed using PRISM.
 NBasis=   412 RedAO= T EigKep=  2.90D-05  NBF=   412
 NBsUse=   412 1.00D-06 EigRej= -1.00D+00 NBFU=   412
 ExpMin= 1.03D-01 ExpMax= 1.53D+04 ExpMxC= 5.22D+02 IAcc=1 IRadAn=         1 AccDes= 0.00D+00
 Harris functional with IExCor= 1009 and IRadAn=       1 diagonalized for initial guess.
 HarFok:  IExCor= 1009 AccDes= 0.00D+00 IRadAn=         1 IDoV= 1 UseB2=F ITyADJ=14
 ICtDFT=  3500011 ScaDFX=  1.000000  1.000000  1.000000  1.000000
 FoFCou: FMM=F IPFlag=           0 FMFlag=      100000 FMFlg1=           0
         NFxFlg=           0 DoJE=T BraDBF=F KetDBF=T FulRan=T
         wScrn=  0.000000 ICntrl=     500 IOpCl=  0 I1Cent=   200000004 NGrid=           0
         NMat0=    1 NMatS0=      1 NMatT0=    0 NMatD0=    1 NMtDS0=    0 NMtDT0=    0
 Petite list used in FoFCou.
 Requested convergence on RMS density matrix=1.00D-08 within 128 cycles.
 Requested convergence on MAX density matrix=1.00D-06.
 Requested convergence on             energy=1.00D-06.
 No special actions if energy rises.
 Integral accuracy reduced to 1.0D-05 until final iterations.
 Initial convergence to 1.0D-05 achieved.  Increase integral accuracy.
 SCF Done:  E(RM062X) =  -476.529850917     A.U. after   15 cycles
            NFock= 15  Conv=0.27D-08     -V/T= 2.0059

 **********************************************************************

            Population analysis using the SCF density.

 **********************************************************************

 Orbital symmetries:
       Occupied  (A) (A) (A) (A) (A) (A) (A) (A) (A) (A) (A) (A)
                 (A) (A) (A) (A) (A) (A) (A) (A) (A) (A) (A) (A)
                 (A) (A) (A) (A) (A) (A) (A) (A) (A) (A) (A) (A)
       Virtual   (A) (A) (A) (A) (A) (A) (A) (A) (A) (A) (A) (A)
                 (A) (A) (A) (A) (A) (A) (A) (A) (A) (A) (A) (A)
                 (A) (A) (A) (A) (A) (A) (A) (A) (A) (A) (A) (A)
                 (A) (A) (A) (A) (A) (A) (A) (A) (A) (A) (A) (A)
                 (A) (A) (A) (A) (A) (A) (A) (A) (A) (A) (A) (A)
                 (A) (A) (A) (A) (A) (A) (A) (A) (A) (A) (A) (A)
                 (A) (A) (A) (A) (A) (A) (A) (A) (A) (A) (A) (A)
                 (A) (A) (A) (A) (A) (A) (A) (A) (A) (A) (A) (A)
                 (A) (A) (A) (A) (A) (A) (A) (A) (A) (A) (A) (A)
                 (A) (A) (A) (A) (A) (A) (A) (A) (A) (A) (A) (A)
                 (A) (A) (A) (A) (A) (A) (A) (A) (A) (A) (A) (A)
                 (A) (A) (A) (A) (A) (A) (A) (A) (A) (A) (A) (A)
                 (A) (A) (A) (A) (A) (A) (A) (A) (A) (A) (A) (A)
                 (A) (A) (A) (A) (A) (A) (A) (A) (A) (A) (A) (A)
                 (A) (A) (A) (A) (A) (A) (A) (A) (A) (A) (A) (A)
                 (A) (A) (A) (A) (A) (A) (A) (A) (A) (A) (A) (A)
                 (A) (A) (A) (A) (A) (A) (A) (A) (A) (A) (A) (A)
                 (A) (A) (A) (A) (A) (A) (A) (A) (A) (A) (A) (A)
                 (A) (A) (A) (A) (A) (A) (A) (A) (A) (A) (A) (A)
                 (A) (A) (A) (A) (A) (A) (A) (A) (A) (A) (A) (A)
                 (A) (A) (A) (A) (A) (A) (A) (A) (A) (A) (A) (A)
                 (A) (A) (A) (A) (A) (A) (A) (A) (A) (A) (A) (A)
                 (A) (A) (A) (A) (A) (A) (A) (A) (A) (A) (A) (A)
                 (A) (A) (A) (A) (A) (A) (A) (A) (A) (A) (A) (A)
                 (A) (A) (A) (A) (A) (A) (A) (A) (A) (A) (A) (A)
                 (A) (A) (A) (A) (A) (A) (A) (A) (A) (A) (A) (A)
                 (A) (A) (A) (A) (A) (A) (A) (A) (A) (A) (A) (A)
                 (A) (A) (A) (A) (A) (A) (A) (A) (A) (A) (A) (A)
                 (A) (A) (A) (A) (A) (A) (A) (A) (A) (A) (A) (A)
                 (A) (A) (A) (A) (A) (A) (A) (A) (A) (A) (A) (A)
                 (A) (A) (A) (A) (A) (A) (A) (A) (A) (A) (A) (A)
                 (A) (A) (A) (A)
 The electronic state is 1-A.
 Alpha  occ. eigenvalues --  -19.84040 -19.79843 -15.03356 -10.86306 -10.78466
 Alpha  occ. eigenvalues --  -10.74192 -10.72675 -10.72086 -10.71911 -10.71040
 Alpha  occ. eigenvalues --   -1.41614  -1.32451  -1.28225  -1.13969  -1.04386
 Alpha  occ. eigenvalues --   -1.01856  -0.92590  -0.89086  -0.85935  -0.82957
 Alpha  occ. eigenvalues --   -0.81493  -0.78566  -0.75725  -0.75051  -0.71453
 Alpha  occ. eigenvalues --   -0.69839  -0.68242  -0.67453  -0.64205  -0.61543
 Alpha  occ. eigenvalues --   -0.60256  -0.58492  -0.57313  -0.53874  -0.48762
 Alpha  occ. eigenvalues --   -0.48612
 Alpha virt. eigenvalues --   -0.19136  -0.15638  -0.12022  -0.07619  -0.06589
 Alpha virt. eigenvalues --   -0.05611  -0.05392  -0.02669  -0.00324   0.00800
 Alpha virt. eigenvalues --    0.02619   0.04183   0.04494   0.07028   0.07429
 Alpha virt. eigenvalues --    0.10491   0.12166   0.12428   0.13806   0.14024
 Alpha virt. eigenvalues --    0.15113   0.16753   0.17000   0.18901   0.19054
 Alpha virt. eigenvalues --    0.20319   0.22399   0.23146   0.23791   0.24558
 Alpha virt. eigenvalues --    0.24816   0.26920   0.27142   0.27874   0.28695
 Alpha virt. eigenvalues --    0.29021   0.31324   0.31434   0.32287   0.32783
 Alpha virt. eigenvalues --    0.34514   0.35464   0.36583   0.36938   0.38358
 Alpha virt. eigenvalues --    0.39887   0.39993   0.41252   0.43864   0.44707
 Alpha virt. eigenvalues --    0.45972   0.48087   0.48092   0.50752   0.51032
 Alpha virt. eigenvalues --    0.51787   0.52587   0.54694   0.55019   0.57961
 Alpha virt. eigenvalues --    0.59593   0.60354   0.61597   0.62893   0.63918
 Alpha virt. eigenvalues --    0.63931   0.64953   0.66038   0.68436   0.69354
 Alpha virt. eigenvalues --    0.71445   0.71662   0.73467   0.74072   0.75606
 Alpha virt. eigenvalues --    0.77324   0.80238   0.81570   0.82558   0.83522
 Alpha virt. eigenvalues --    0.86156   0.87397   0.87804   0.89102   0.90770
 Alpha virt. eigenvalues --    0.91921   0.94457   0.96273   0.98596   0.99425
 Alpha virt. eigenvalues --    1.02922   1.03607   1.05289   1.05698   1.06159
 Alpha virt. eigenvalues --    1.08411   1.10278   1.11386   1.12926   1.13227
 Alpha virt. eigenvalues --    1.15451   1.16314   1.16770   1.18470   1.19692
 Alpha virt. eigenvalues --    1.20918   1.22420   1.23325   1.24270   1.26608
 Alpha virt. eigenvalues --    1.28592   1.29365   1.30574   1.32861   1.33810
 Alpha virt. eigenvalues --    1.36280   1.36895   1.37010   1.41570   1.43981
 Alpha virt. eigenvalues --    1.46637   1.48392   1.49826   1.54740   1.56481
 Alpha virt. eigenvalues --    1.56607   1.58563   1.61712   1.62556   1.63383
 Alpha virt. eigenvalues --    1.73588   1.78762   1.81943   1.83009   1.87821
 Alpha virt. eigenvalues --    1.89370   1.90060   1.90681   1.91163   1.95536
 Alpha virt. eigenvalues --    1.97247   1.99474   2.00152   2.02643   2.04106
 Alpha virt. eigenvalues --    2.05033   2.09623   2.10706   2.10904   2.14527
 Alpha virt. eigenvalues --    2.17399   2.18546   2.19141   2.23183   2.25720
 Alpha virt. eigenvalues --    2.27402   2.30259   2.32271   2.33079   2.34102
 Alpha virt. eigenvalues --    2.35710   2.37852   2.39108   2.42279   2.44671
 Alpha virt. eigenvalues --    2.45822   2.46643   2.50648   2.50772   2.52858
 Alpha virt. eigenvalues --    2.55688   2.55837   2.57837   2.58478   2.58758
 Alpha virt. eigenvalues --    2.59748   2.64267   2.65114   2.68351   2.69128
 Alpha virt. eigenvalues --    2.70469   2.72285   2.74597   2.75028   2.76214
 Alpha virt. eigenvalues --    2.78808   2.79943   2.81085   2.81491   2.82944
 Alpha virt. eigenvalues --    2.83349   2.85318   2.86298   2.88589   2.89378
 Alpha virt. eigenvalues --    2.89486   2.91123   2.92712   2.93610   2.94499
 Alpha virt. eigenvalues --    2.94555   2.95361   2.97318   2.98839   2.99476
 Alpha virt. eigenvalues --    2.99828   3.00621   3.01701   3.03019   3.04595
 Alpha virt. eigenvalues --    3.06606   3.07823   3.10939   3.11802   3.12068
 Alpha virt. eigenvalues --    3.13005   3.15626   3.15788   3.16057   3.17006
 Alpha virt. eigenvalues --    3.18875   3.20493   3.22595   3.23206   3.23821
 Alpha virt. eigenvalues --    3.25008   3.26773   3.26943   3.28796   3.30535
 Alpha virt. eigenvalues --    3.33113   3.35403   3.36450   3.37058   3.39528
 Alpha virt. eigenvalues --    3.41861   3.44629   3.46897   3.47205   3.50877
 Alpha virt. eigenvalues --    3.51837   3.54501   3.56169   3.56321   3.57325
 Alpha virt. eigenvalues --    3.59796   3.60418   3.62376   3.62953   3.63561
 Alpha virt. eigenvalues --    3.64108   3.65473   3.67372   3.68693   3.69177
 Alpha virt. eigenvalues --    3.72364   3.74348   3.75030   3.75806   3.76763
 Alpha virt. eigenvalues --    3.80868   3.81211   3.83421   3.84757   3.85815
 Alpha virt. eigenvalues --    3.86804   3.89067   3.91237   3.91801   3.94571
 Alpha virt. eigenvalues --    3.94689   3.95569   3.96399   3.96979   4.00891
 Alpha virt. eigenvalues --    4.01395   4.01960   4.03185   4.07096   4.07105
 Alpha virt. eigenvalues --    4.07685   4.09710   4.10305   4.10428   4.11498
 Alpha virt. eigenvalues --    4.11912   4.15525   4.16027   4.17959   4.17983
 Alpha virt. eigenvalues --    4.24105   4.29088   4.32859   4.33348   4.35206
 Alpha virt. eigenvalues --    4.40074   4.41224   4.46964   4.48762   4.50603
 Alpha virt. eigenvalues --    4.51494   4.53538   4.55714   4.55777   4.64967
 Alpha virt. eigenvalues --    4.66827   4.67196   4.70926   4.71505   4.77026
 Alpha virt. eigenvalues --    4.77717   4.79774   4.84406   4.86511   4.89280
 Alpha virt. eigenvalues --    4.90728   4.97438   5.01138   5.07332   5.10659
 Alpha virt. eigenvalues --    5.11794   5.17203   5.18222   5.20516   5.22151
 Alpha virt. eigenvalues --    5.23843   5.24723   5.31493   5.38241   5.39605
 Alpha virt. eigenvalues --    5.40359   5.43299   5.52308   5.52727   5.57862
 Alpha virt. eigenvalues --    5.62542   5.65804   5.67506   5.73127   5.73244
 Alpha virt. eigenvalues --    5.76812   5.79908   5.81592   5.84861   5.89394
 Alpha virt. eigenvalues --    5.92829   6.05734   6.07632   6.10744   6.23989
 Alpha virt. eigenvalues --    6.28444   6.30322   6.40423   6.44921   6.48353
 Alpha virt. eigenvalues --    6.51123   6.57308   6.60142   6.66263   6.69222
 Alpha virt. eigenvalues --    6.74632   6.86381   6.99453   7.12269   7.29479
 Alpha virt. eigenvalues --    7.32990   8.20664  10.51477  12.06592  12.29890
 Alpha virt. eigenvalues --   12.52383  12.73266  13.03166  13.17987  14.17268
 Alpha virt. eigenvalues --   15.26674
          Condensed to atoms (all electrons):
               1          2          3          4          5          6
     1  C    4.879123   0.490091  -0.051996  -0.046371  -0.037979   0.481307
     2  C    0.490091   4.860490   0.476161  -0.037880  -0.051680  -0.050256
     3  C   -0.051996   0.476161   4.997943   0.362646   0.003430  -0.034232
     4  C   -0.046371  -0.037880   0.362646   5.217635   0.338329  -0.038217
     5  C   -0.037979  -0.051680   0.003430   0.338329   5.530083   0.344687
     6  C    0.481307  -0.050256  -0.034232  -0.038217   0.344687   4.929482
     7  C    0.005126  -0.002599   0.007920  -0.084275   0.255182  -0.003995
     8  O    0.000853   0.000091  -0.000041   0.002683  -0.123304   0.022467
     9  N   -0.000413   0.004466  -0.047567   0.293550  -0.047676   0.005010
    10  O    0.000206  -0.000226   0.003807   0.004277  -0.108768   0.002164
    11  H    0.438871  -0.045989   0.007376  -0.002252   0.009292  -0.046753
    12  H   -0.043251   0.433488  -0.042726   0.009423  -0.001946   0.006176
    13  H    0.005395  -0.025896   0.436848  -0.074033   0.011813  -0.001532
    14  H   -0.035987   0.005312  -0.001096   0.006264  -0.049726   0.429539
    15  H   -0.000059   0.000010  -0.000027  -0.000128   0.021827  -0.002364
    16  H    0.000156   0.000067   0.000377  -0.030735   0.000464  -0.000331
    17  H    0.000107  -0.000266   0.001779  -0.018681  -0.003550  -0.000274
    18  H    0.000155   0.000067   0.000374  -0.030738   0.000466  -0.000331
               7          8          9         10         11         12
     1  C    0.005126   0.000853  -0.000413   0.000206   0.438871  -0.043251
     2  C   -0.002599   0.000091   0.004466  -0.000226  -0.045989   0.433488
     3  C    0.007920  -0.000041  -0.047567   0.003807   0.007376  -0.042726
     4  C   -0.084275   0.002683   0.293550   0.004277  -0.002252   0.009423
     5  C    0.255182  -0.123304  -0.047676  -0.108768   0.009292  -0.001946
     6  C   -0.003995   0.022467   0.005010   0.002164  -0.046753   0.006176
     7  C    4.340778   0.487577  -0.011377   0.664597   0.000069  -0.000004
     8  O    0.487577   7.619482  -0.000352  -0.079342  -0.000054  -0.000000
     9  N   -0.011377  -0.000352   5.972776  -0.063469   0.000010  -0.000153
    10  O    0.664597  -0.079342  -0.063469   7.817206   0.000004  -0.000002
    11  H    0.000069  -0.000054   0.000010   0.000004   0.505407  -0.006144
    12  H   -0.000004  -0.000000  -0.000153  -0.000002  -0.006144   0.502555
    13  H    0.000092   0.000003   0.000185   0.000092  -0.000097  -0.006919
    14  H   -0.005605   0.013083  -0.000047   0.000172  -0.006165  -0.000094
    15  H   -0.033815   0.316979   0.000099   0.004347  -0.000001   0.000000
    16  H    0.000178   0.000022   0.366271   0.001248  -0.000000  -0.000014
    17  H   -0.007506   0.000886   0.339764   0.099736  -0.000001   0.000011
    18  H    0.000177   0.000022   0.366275   0.001247  -0.000000  -0.000014
              13         14         15         16         17         18
     1  C    0.005395  -0.035987  -0.000059   0.000156   0.000107   0.000155
     2  C   -0.025896   0.005312   0.000010   0.000067  -0.000266   0.000067
     3  C    0.436848  -0.001096  -0.000027   0.000377   0.001779   0.000374
     4  C   -0.074033   0.006264  -0.000128  -0.030735  -0.018681  -0.030738
     5  C    0.011813  -0.049726   0.021827   0.000464  -0.003550   0.000466
     6  C   -0.001532   0.429539  -0.002364  -0.000331  -0.000274  -0.000331
     7  C    0.000092  -0.005605  -0.033815   0.000178  -0.007506   0.000177
     8  O    0.000003   0.013083   0.316979   0.000022   0.000886   0.000022
     9  N    0.000185  -0.000047   0.000099   0.366271   0.339764   0.366275
    10  O    0.000092   0.000172   0.004347   0.001248   0.099736   0.001247
    11  H   -0.000097  -0.006165  -0.000001  -0.000000  -0.000001  -0.000000
    12  H   -0.006919  -0.000094   0.000000  -0.000014   0.000011  -0.000014
    13  H    0.511038   0.000009  -0.000001   0.000809   0.000039   0.000808
    14  H    0.000009   0.475057  -0.000447   0.000007  -0.000067   0.000007
    15  H   -0.000001  -0.000447   0.391110  -0.000005   0.000013  -0.000005
    16  H    0.000809   0.000007  -0.000005   0.455975  -0.012470  -0.033542
    17  H    0.000039  -0.000067   0.000013  -0.012470   0.360688  -0.012472
    18  H    0.000808   0.000007  -0.000005  -0.033542  -0.012472   0.455970
 Mulliken charges:
               1
     1  C   -0.085333
     2  C   -0.055452
     3  C   -0.120975
     4  C    0.128504
     5  C   -0.090941
     6  C   -0.042546
     7  C    0.387479
     8  O   -0.261057
     9  N   -0.177351
    10  O   -0.347295
    11  H    0.146429
    12  H    0.149613
    13  H    0.141349
    14  H    0.169786
    15  H    0.302468
    16  H    0.251524
    17  H    0.252266
    18  H    0.251532
 Sum of Mulliken charges =   1.00000
 Mulliken charges with hydrogens summed into heavy atoms:
               1
     1  C    0.061096
     2  C    0.094161
     3  C    0.020374
     4  C    0.128504
     5  C   -0.090941
     6  C    0.127240
     7  C    0.387479
     8  O    0.041411
     9  N    0.577971
    10  O   -0.347295
 Electronic spatial extent (au):  <R**2>=           1366.6197
 Charge=              1.0000 electrons
 Dipole moment (field-independent basis, Debye):
    X=             -1.0495    Y=              4.1552    Z=              0.0002  Tot=              4.2857
 Quadrupole moment (field-independent basis, Debye-Ang):
   XX=            -35.6368   YY=            -28.6742   ZZ=            -56.4027
   XY=             -3.5756   XZ=              0.0008   YZ=              0.0005
 Traceless Quadrupole moment (field-independent basis, Debye-Ang):
   XX=              4.6011   YY=             11.5637   ZZ=            -16.1648
   XY=             -3.5756   XZ=              0.0008   YZ=              0.0005
 Octapole moment (field-independent basis, Debye-Ang**2):
  XXX=             12.7587  YYY=             48.6556  ZZZ=              0.0003  XYY=              0.8928
  XXY=            -25.2900  XXZ=              0.0029  XZZ=             11.6991  YZZ=              9.6513
  YYZ=              0.0011  XYZ=             -0.0000
 Hexadecapole moment (field-independent basis, Debye-Ang**3):
 XXXX=           -779.6833 YYYY=           -402.0863 ZZZZ=            -59.6171 XXXY=            -81.8079
 XXXZ=              0.0096 YYYX=              5.7443 YYYZ=              0.0040 ZZZX=             -0.0015
 ZZZY=              0.0028 XXYY=           -222.1838 XXZZ=           -195.8712 YYZZ=            -96.2778
 XXYZ=             -0.0002 YYXZ=              0.0003 ZZXY=             -3.4781
 N-N= 5.157875089771D+02 E-N=-2.130434298009D+03  KE= 4.737156516281D+02
 Calling FoFJK, ICntrl=      2127 FMM=F ISym2X=0 I1Cent= 0 IOpClX= 0 NMat=1 NMatS=1 NMatT=0.
 ***** Axes restored to original set *****
 -------------------------------------------------------------------
 Center     Atomic                   Forces (Hartrees/Bohr)
 Number     Number              X              Y              Z
 -------------------------------------------------------------------
      1        6          -0.000660259    0.001523390    0.000000013
      2        6          -0.001423039   -0.000304293    0.000000079
      3        6          -0.001043850   -0.001989854   -0.000002397
      4        6           0.003460158   -0.003984378    0.000001354
      5        6           0.003444540   -0.000307889    0.000005218
      6        6           0.001114927    0.001285496    0.000001473
      7        6          -0.003913812    0.002783758   -0.000020002
      8        8           0.000358419    0.005506869    0.000007346
      9        7           0.000113634    0.001594251   -0.000007805
     10        8           0.005420264   -0.007715474    0.000002190
     11        1          -0.002755630    0.004490130   -0.000000274
     12        1          -0.005282563   -0.000057805    0.000000378
     13        1          -0.002653084   -0.004291754   -0.000000051
     14        1           0.002356713    0.004541583   -0.000000092
     15        1           0.001552583   -0.000426225    0.000000558
     16        1          -0.000487777   -0.001358040    0.001948520
     17        1           0.000891583    0.000068350    0.000010658
     18        1          -0.000492808   -0.001358116   -0.001947167
 -------------------------------------------------------------------
 Cartesian Forces:  Max     0.007715474 RMS     0.002434559

 GradGradGradGradGradGradGradGradGradGradGradGradGradGradGradGradGradGrad
 Berny optimization.
 FormGI is forming the generalized inverse of G from B-inverse, IUseBI=4.
 Internal  Forces:  Max     0.009421772 RMS     0.002549400
 Search for a local minimum.
 Step number   1 out of a maximum of   92
 All quantities printed in internal units (Hartrees-Bohrs-Radians)
 Mixed Optimization -- RFO/linear search
 Second derivative matrix not updated -- first step.
 ITU=  0
     Eigenvalues ---    0.00683   0.00916   0.01537   0.01603   0.01732
     Eigenvalues ---    0.02104   0.02147   0.02154   0.02165   0.02178
     Eigenvalues ---    0.02205   0.02238   0.02791   0.07114   0.07783
     Eigenvalues ---    0.16000   0.16000   0.16000   0.16000   0.16000
     Eigenvalues ---    0.16000   0.16000   0.16000   0.22000   0.22494
     Eigenvalues ---    0.24487   0.25000   0.25000   0.25000   0.25000
     Eigenvalues ---    0.33596   0.34820   0.34994   0.35005   0.35040
     Eigenvalues ---    0.35081   0.36857   0.42010   0.42566   0.43700
     Eigenvalues ---    0.43701   0.45922   0.46091   0.46637   0.47977
     Eigenvalues ---    0.52944   0.62714   0.92527
 RFO step:  Lambda=-1.12725950D-03 EMin= 6.83391847D-03
 Linear search not attempted -- first point.
 Iteration  1 RMS(Cart)=  0.01176037 RMS(Int)=  0.00000823
 Iteration  2 RMS(Cart)=  0.00001439 RMS(Int)=  0.00000015
 Iteration  3 RMS(Cart)=  0.00000000 RMS(Int)=  0.00000015
 Variable       Old X    -DE/DX   Delta X   Delta X   Delta X     New X
                                 (Linear)    (Quad)   (Total)
    R1        2.63363  -0.00683   0.00000  -0.01458  -0.01458   2.61905
    R2        2.63213  -0.00679   0.00000  -0.01444  -0.01444   2.61770
    R3        2.05610  -0.00527   0.00000  -0.01498  -0.01498   2.04112
    R4        2.63899  -0.00649   0.00000  -0.01404  -0.01404   2.62496
    R5        2.05684  -0.00528   0.00000  -0.01505  -0.01505   2.04179
    R6        2.61430  -0.00705   0.00000  -0.01453  -0.01453   2.59977
    R7        2.05969  -0.00504   0.00000  -0.01443  -0.01443   2.04526
    R8        2.64816  -0.00675   0.00000  -0.01484  -0.01484   2.63333
    R9        2.78967  -0.00092   0.00000  -0.00261  -0.00261   2.78706
   R10        2.64164  -0.00677   0.00000  -0.01467  -0.01467   2.62697
   R11        2.81317  -0.00342   0.00000  -0.01013  -0.01013   2.80303
   R12        2.05544  -0.00511   0.00000  -0.01452  -0.01452   2.04091
   R13        2.48855  -0.00542   0.00000  -0.00863  -0.00863   2.47992
   R14        2.31790  -0.00942   0.00000  -0.01017  -0.01017   2.30773
   R15        1.83706  -0.00158   0.00000  -0.00298  -0.00298   1.83408
   R16        1.93515  -0.00242   0.00000  -0.00553  -0.00553   1.92961
   R17        2.02762  -0.00088   0.00000  -0.00238  -0.00238   2.02524
   R18        1.93515  -0.00242   0.00000  -0.00553  -0.00553   1.92961
    A1        2.09943   0.00000   0.00000   0.00007   0.00007   2.09950
    A2        2.09332   0.00008   0.00000   0.00048   0.00048   2.09380
    A3        2.09043  -0.00008   0.00000  -0.00055  -0.00055   2.08988
    A4        2.10031   0.00000   0.00000  -0.00002  -0.00002   2.10029
    A5        2.09829   0.00002   0.00000   0.00012   0.00012   2.09841
    A6        2.08459  -0.00002   0.00000  -0.00010  -0.00010   2.08449
    A7        2.07130   0.00004   0.00000   0.00010   0.00010   2.07140
    A8        2.10417   0.00021   0.00000   0.00138   0.00138   2.10555
    A9        2.10771  -0.00025   0.00000  -0.00148  -0.00148   2.10623
   A10        2.13168  -0.00011   0.00000  -0.00048  -0.00048   2.13120
   A11        2.08497   0.00095   0.00000   0.00381   0.00381   2.08879
   A12        2.06653  -0.00084   0.00000  -0.00333  -0.00333   2.06320
   A13        2.06550   0.00019   0.00000   0.00077   0.00077   2.06627
   A14        2.10192  -0.00088   0.00000  -0.00353  -0.00353   2.09839
   A15        2.11577   0.00070   0.00000   0.00276   0.00276   2.11853
   A16        2.09815  -0.00012   0.00000  -0.00044  -0.00044   2.09771
   A17        2.10608   0.00028   0.00000   0.00156   0.00156   2.10764
   A18        2.07896  -0.00016   0.00000  -0.00112  -0.00112   2.07784
   A19        1.99228   0.00049   0.00000   0.00194   0.00194   1.99422
   A20        2.14928  -0.00064   0.00000  -0.00253  -0.00253   2.14674
   A21        2.14163   0.00015   0.00000   0.00059   0.00059   2.14222
   A22        1.90644   0.00053   0.00000   0.00327   0.00327   1.90970
   A23        1.94956   0.00003   0.00000   0.00030   0.00030   1.94986
   A24        1.83797  -0.00027   0.00000  -0.00187  -0.00187   1.83609
   A25        1.94957   0.00003   0.00000   0.00028   0.00028   1.94984
   A26        1.91890   0.00009   0.00000   0.00039   0.00039   1.91930
   A27        1.88880   0.00004   0.00000   0.00060   0.00060   1.88940
   A28        1.91894   0.00008   0.00000   0.00027   0.00027   1.91921
    D1       -0.00001   0.00000   0.00000   0.00003   0.00003   0.00002
    D2        3.14159   0.00000   0.00000   0.00000   0.00000  -3.14159
    D3       -3.14159   0.00000   0.00000  -0.00000  -0.00000  -3.14159
    D4        0.00001  -0.00000   0.00000  -0.00002  -0.00002  -0.00002
    D5        0.00000  -0.00000   0.00000  -0.00000  -0.00000  -0.00000
    D6       -3.14158  -0.00000   0.00000  -0.00006  -0.00006   3.14155
    D7        3.14159   0.00000   0.00000   0.00003   0.00003  -3.14157
    D8        0.00001  -0.00000   0.00000  -0.00003  -0.00003  -0.00002
    D9       -0.00000   0.00000   0.00000   0.00001   0.00001   0.00001
   D10       -3.14158  -0.00000   0.00000  -0.00005  -0.00005   3.14156
   D11        3.14158   0.00000   0.00000   0.00003   0.00003  -3.14157
   D12        0.00001  -0.00000   0.00000  -0.00002  -0.00002  -0.00002
   D13        0.00002  -0.00000   0.00000  -0.00007  -0.00007  -0.00005
   D14       -3.14156  -0.00000   0.00000  -0.00012  -0.00012   3.14151
   D15       -3.14159  -0.00000   0.00000  -0.00001  -0.00001   3.14158
   D16        0.00002  -0.00000   0.00000  -0.00006  -0.00006  -0.00004
   D17       -0.00003   0.00000   0.00000   0.00010   0.00010   0.00007
   D18        3.14155   0.00000   0.00000   0.00017   0.00017  -3.14147
   D19        3.14155   0.00000   0.00000   0.00014   0.00014  -3.14149
   D20       -0.00006   0.00000   0.00000   0.00021   0.00021   0.00015
   D21        1.05908   0.00004   0.00000   0.00084   0.00084   1.05992
   D22        3.14148   0.00001   0.00000   0.00032   0.00032  -3.14138
   D23       -1.05926  -0.00004   0.00000  -0.00034  -0.00034  -1.05960
   D24       -2.08250   0.00004   0.00000   0.00079   0.00079  -2.08171
   D25       -0.00010   0.00001   0.00000   0.00028   0.00028   0.00018
   D26        2.08235  -0.00004   0.00000  -0.00038  -0.00038   2.08197
   D27        0.00002  -0.00000   0.00000  -0.00006  -0.00006  -0.00004
   D28       -3.14159  -0.00000   0.00000  -0.00001  -0.00001   3.14159
   D29       -3.14156  -0.00000   0.00000  -0.00013  -0.00013   3.14150
   D30        0.00002  -0.00000   0.00000  -0.00008  -0.00008  -0.00006
   D31        3.14145   0.00001   0.00000   0.00046   0.00046  -3.14127
   D32       -0.00001  -0.00000   0.00000   0.00002   0.00002   0.00001
   D33       -0.00016   0.00001   0.00000   0.00054   0.00054   0.00038
   D34        3.14156  -0.00000   0.00000   0.00009   0.00009  -3.14153
   D35       -3.14152  -0.00000   0.00000  -0.00024  -0.00024   3.14142
   D36       -0.00006   0.00000   0.00000   0.00021   0.00021   0.00015
         Item               Value     Threshold  Converged?
 Maximum Force            0.009422     0.000450     NO 
 RMS     Force            0.002549     0.000300     NO 
 Maximum Displacement     0.039381     0.001800     NO 
 RMS     Displacement     0.011761     0.001200     NO 
 Predicted change in Energy=-5.650881D-04
 GradGradGradGradGradGradGradGradGradGradGradGradGradGradGradGradGradGrad

                          Input orientation:                          
 ---------------------------------------------------------------------
 Center     Atomic      Atomic             Coordinates (Angstroms)
 Number     Number       Type             X           Y           Z
 ---------------------------------------------------------------------
      1          6           0        1.925589   -1.467103    0.000025
      2          6           0        2.605350   -0.259314    0.000023
      3          6           0        1.904714    0.940110   -0.000009
      4          6           0        0.529516    0.901492   -0.000032
      5          6           0       -0.177740   -0.299182   -0.000085
      6          6           0        0.540543   -1.489369   -0.000029
      7          6           0       -1.661025   -0.292156   -0.000264
      8          8           0       -2.205901   -1.486011    0.000089
      9          7           0       -0.236413    2.161863    0.000040
     10          8           0       -2.321267    0.735172   -0.000378
     11          1           0        2.476425   -2.396203    0.000051
     12          1           0        3.685699   -0.243125    0.000062
     13          1           0        2.430576    1.886076    0.000021
     14          1           0        0.003193   -2.426207   -0.000065
     15          1           0       -3.172589   -1.399499    0.000098
     16          1           0       -0.036260    2.725704   -0.827416
     17          1           0       -1.266159    1.864900    0.000226
     18          1           0       -0.036051    2.725721    0.827433
 ---------------------------------------------------------------------
                    Distance matrix (angstroms):
                    1          2          3          4          5
     1  C    0.000000
     2  C    1.385940   0.000000
     3  C    2.407304   1.389068   0.000000
     4  C    2.749411   2.378352   1.375740   0.000000
     5  C    2.405833   2.783376   2.423316   1.393496   0.000000
     6  C    1.385225   2.403428   2.786276   2.390887   1.390135
     7  C    3.774163   4.266502   3.772662   2.494648   1.483302
     8  O    4.131533   4.965171   4.773177   3.630796   2.349894
     9  N    4.224173   3.733325   2.465178   1.474849   2.461744
    10  O    4.783910   5.025988   4.230947   2.855630   2.380041
    11  H    1.080115   2.140775   3.384943   3.829523   3.382615
    12  H    2.143854   1.080470   2.138213   3.357326   3.863846
    13  H    3.390991   2.152497   1.082304   2.140895   3.402743
    14  H    2.148369   3.386244   3.866248   3.369065   2.134707
    15  H    5.098626   5.889363   5.590418   4.358915   3.190583
    16  H    4.702461   4.071007   2.764115   2.081445   3.139176
    17  H    4.614054   4.415979   3.302980   2.037794   2.422376
    18  H    4.702383   4.070878   2.763989   2.081436   3.139251
                    6          7          8          9         10
     6  C    0.000000
     7  C    2.506037   0.000000
     8  O    2.746446   1.312319   0.000000
     9  N    3.732982   2.837556   4.145584   0.000000
    10  O    3.624712   1.221196   2.224177   2.526274   0.000000
    11  H    2.137753   4.641714   4.769971   5.304286   5.729167
    12  H    3.383066   5.346950   6.021272   4.600753   6.086107
    13  H    3.868572   4.635288   5.733052   2.681210   4.889232
    14  H    1.080005   2.706252   2.400846   4.594322   3.923956
    15  H    3.714219   1.873775   0.970551   4.615672   2.298166
    16  H    4.334064   3.525836   4.809433   1.021107   3.141252
    17  H    3.809894   2.192899   3.480189   1.071711   1.545813
    18  H    4.334067   3.526075   4.809515   1.021107   3.141618
                   11         12         13         14         15
    11  H    0.000000
    12  H    2.469431   0.000000
    13  H    4.282525   2.471605   0.000000
    14  H    2.473414   4.280970   4.948532   0.000000
    15  H    5.736268   6.955093   6.495418   3.337622   0.000000
    16  H    5.764739   4.832354   2.734028   5.218070   5.247727
    17  H    5.671325   5.381884   3.696796   4.474914   3.780313
    18  H    5.764651   4.832185   2.733836   5.218108   5.247837
                   16         17         18
    16  H    0.000000
    17  H    1.714242   0.000000
    18  H    1.654848   1.714191   0.000000
 Stoichiometry    C7H8NO2(1+)
 Framework group  C1[X(C7H8NO2)]
 Deg. of freedom    48
 Full point group                 C1      NOp   1
 Largest Abelian subgroup         C1      NOp   1
 Largest concise Abelian subgroup C1      NOp   1
                         Standard orientation:                         
 ---------------------------------------------------------------------
 Center     Atomic      Atomic             Coordinates (Angstroms)
 Number     Number       Type             X           Y           Z
 ---------------------------------------------------------------------
      1          6           0       -1.928320   -1.460618   -0.000078
      2          6           0       -2.603403   -0.250208   -0.000076
      3          6           0       -1.898130    0.946496   -0.000044
      4          6           0       -0.523092    0.902557   -0.000021
      5          6           0        0.179512   -0.300846    0.000032
      6          6           0       -0.543371   -1.488244   -0.000024
      7          6           0        1.662814   -0.299559    0.000212
      8          8           0        2.203065   -1.495515   -0.000142
      9          7           0        0.247709    2.159953   -0.000092
     10          8           0        2.327026    0.725205    0.000325
     11          1           0       -2.482748   -2.387580   -0.000104
     12          1           0       -3.683681   -0.229837   -0.000115
     13          1           0       -2.420327    1.894490   -0.000074
     14          1           0       -0.009650   -2.427155    0.000012
     15          1           0        3.170081   -1.412744   -0.000151
     16          1           0        0.049740    2.724565    0.827363
     17          1           0        1.276299    1.859008   -0.000279
     18          1           0        0.049531    2.724583   -0.827485
 ---------------------------------------------------------------------
 Rotational constants (GHZ):      2.2737078      1.2221513      0.7983532
 Standard basis: CC-pVTZ (5D, 7F)
 There are   470 symmetry adapted cartesian basis functions of A   symmetry.
 There are   412 symmetry adapted basis functions of A   symmetry.
   412 basis functions,   656 primitive gaussians,   470 cartesian basis functions
    36 alpha electrons       36 beta electrons
       nuclear repulsion energy       518.2805148945 Hartrees.
 NAtoms=   18 NActive=   18 NUniq=   18 SFac= 1.00D+00 NAtFMM=   60 NAOKFM=F Big=F
 Integral buffers will be    131072 words long.
 Raffenetti 2 integral format.
 Two-electron integral symmetry is turned on.
 One-electron integrals computed using PRISM.
 NBasis=   412 RedAO= T EigKep=  2.78D-05  NBF=   412
 NBsUse=   412 1.00D-06 EigRej= -1.00D+00 NBFU=   412
 Initial guess from the checkpoint file:  "ccpvTZAnthranilicyang.chk"
 B after Tr=    -0.000000   -0.000000   -0.000000
         Rot=    0.999999   -0.000013    0.000016    0.001610 Ang=  -0.18 deg.
 ExpMin= 1.03D-01 ExpMax= 1.53D+04 ExpMxC= 5.22D+02 IAcc=1 IRadAn=         1 AccDes= 0.00D+00
 Harris functional with IExCor= 1009 and IRadAn=       1 diagonalized for initial guess.
 HarFok:  IExCor= 1009 AccDes= 0.00D+00 IRadAn=         1 IDoV= 1 UseB2=F ITyADJ=14
 ICtDFT=  3500011 ScaDFX=  1.000000  1.000000  1.000000  1.000000
 FoFCou: FMM=F IPFlag=           0 FMFlag=      100000 FMFlg1=           0
         NFxFlg=           0 DoJE=T BraDBF=F KetDBF=T FulRan=T
         wScrn=  0.000000 ICntrl=     500 IOpCl=  0 I1Cent=   200000004 NGrid=           0
         NMat0=    1 NMatS0=      1 NMatT0=    0 NMatD0=    1 NMtDS0=    0 NMtDT0=    0
 Petite list used in FoFCou.
 Requested convergence on RMS density matrix=1.00D-08 within 128 cycles.
 Requested convergence on MAX density matrix=1.00D-06.
 Requested convergence on             energy=1.00D-06.
 No special actions if energy rises.
 Integral accuracy reduced to 1.0D-05 until final iterations.
 Initial convergence to 1.0D-05 achieved.  Increase integral accuracy.
 SCF Done:  E(RM062X) =  -476.530306843     A.U. after   11 cycles
            NFock= 11  Conv=0.54D-08     -V/T= 2.0054
 Calling FoFJK, ICntrl=      2127 FMM=F ISym2X=0 I1Cent= 0 IOpClX= 0 NMat=1 NMatS=1 NMatT=0.
 ***** Axes restored to original set *****
 -------------------------------------------------------------------
 Center     Atomic                   Forces (Hartrees/Bohr)
 Number     Number              X              Y              Z
 -------------------------------------------------------------------
      1        6           0.000392704   -0.000653028    0.000000514
      2        6           0.000679860    0.000019080   -0.000000381
      3        6           0.000389285    0.000526190    0.000005460
      4        6          -0.000294383    0.001059452   -0.000002990
      5        6          -0.000324478   -0.000111973   -0.000013015
      6        6          -0.000259472   -0.000622809   -0.000003886
      7        6          -0.000569643   -0.001392395    0.000049289
      8        8          -0.000112504    0.001048879   -0.000016930
      9        7           0.002482225    0.001915815    0.000017230
     10        8          -0.002029933   -0.001003020   -0.000007514
     11        1           0.000106961   -0.000188541    0.000000620
     12        1           0.000192642    0.000000903   -0.000000881
     13        1           0.000060668    0.000143819    0.000000249
     14        1          -0.000100185   -0.000197959    0.000000202
     15        1           0.000052999   -0.000352399   -0.000001188
     16        1           0.000127764   -0.000015579    0.000156710
     17        1          -0.000935037   -0.000162121   -0.000024083
     18        1           0.000140527   -0.000014315   -0.000159406
 -------------------------------------------------------------------
 Cartesian Forces:  Max     0.002482225 RMS     0.000650697

 GradGradGradGradGradGradGradGradGradGradGradGradGradGradGradGradGradGrad
 Berny optimization.
 Using GEDIIS/GDIIS optimizer.
 FormGI is forming the generalized inverse of G from B-inverse, IUseBI=4.
 Internal  Forces:  Max     0.005478570 RMS     0.001252734
 Search for a local minimum.
 Step number   2 out of a maximum of   92
 All quantities printed in internal units (Hartrees-Bohrs-Radians)
 Mixed Optimization -- RFO/linear search
 Update second derivatives using D2CorX and points    1    2
 DE= -4.56D-04 DEPred=-5.65D-04 R= 8.07D-01
 TightC=F SS=  1.41D+00  RLast= 5.08D-02 DXNew= 5.0454D-01 1.5240D-01
 Trust test= 8.07D-01 RLast= 5.08D-02 DXMaxT set to 3.00D-01
 ITU=  1  0
 Use linear search instead of GDIIS.
     Eigenvalues ---    0.00683   0.00916   0.01539   0.01603   0.01732
     Eigenvalues ---    0.02104   0.02148   0.02154   0.02165   0.02178
     Eigenvalues ---    0.02205   0.02238   0.02791   0.07114   0.07795
     Eigenvalues ---    0.15864   0.16000   0.16000   0.16000   0.16000
     Eigenvalues ---    0.16000   0.16000   0.16008   0.21260   0.22000
     Eigenvalues ---    0.22868   0.24491   0.25000   0.25000   0.25017
     Eigenvalues ---    0.33356   0.34866   0.34981   0.35015   0.35065
     Eigenvalues ---    0.36527   0.37483   0.41455   0.42437   0.43700
     Eigenvalues ---    0.43729   0.45883   0.46637   0.47408   0.52901
     Eigenvalues ---    0.61443   0.64211   0.92818
 RFO step:  Lambda=-2.94099542D-04 EMin= 6.83398306D-03
 Quartic linear search produced a step of -0.16432.
 Iteration  1 RMS(Cart)=  0.02089016 RMS(Int)=  0.00012325
 Iteration  2 RMS(Cart)=  0.00016987 RMS(Int)=  0.00000068
 Iteration  3 RMS(Cart)=  0.00000000 RMS(Int)=  0.00000068
 Variable       Old X    -DE/DX   Delta X   Delta X   Delta X     New X
                                 (Linear)    (Quad)   (Total)
    R1        2.61905   0.00026   0.00240  -0.00601  -0.00361   2.61544
    R2        2.61770   0.00062   0.00237  -0.00520  -0.00283   2.61487
    R3        2.04112   0.00022   0.00246  -0.00593  -0.00347   2.03766
    R4        2.62496   0.00056   0.00231  -0.00512  -0.00282   2.62214
    R5        2.04179   0.00019   0.00247  -0.00601  -0.00354   2.03825
    R6        2.59977   0.00120   0.00239  -0.00404  -0.00165   2.59812
    R7        2.04526   0.00015   0.00237  -0.00584  -0.00347   2.04179
    R8        2.63333   0.00417   0.00244   0.00154   0.00398   2.63731
    R9        2.78706   0.00053   0.00043   0.00014   0.00056   2.78763
   R10        2.62697   0.00137   0.00241  -0.00369  -0.00128   2.62569
   R11        2.80303   0.00265   0.00166   0.00223   0.00390   2.80693
   R12        2.04091   0.00022   0.00239  -0.00572  -0.00333   2.03758
   R13        2.47992  -0.00061   0.00142  -0.00451  -0.00309   2.47684
   R14        2.30773   0.00026   0.00167  -0.00411  -0.00244   2.30529
   R15        1.83408  -0.00008   0.00049  -0.00141  -0.00092   1.83316
   R16        1.92961  -0.00011   0.00091  -0.00258  -0.00167   1.92794
   R17        2.02524   0.00094   0.00039   0.00111   0.00150   2.02674
   R18        1.92961  -0.00011   0.00091  -0.00258  -0.00167   1.92794
    A1        2.09950   0.00001  -0.00001  -0.00080  -0.00081   2.09869
    A2        2.09380   0.00000  -0.00008   0.00066   0.00059   2.09439
    A3        2.08988  -0.00001   0.00009   0.00013   0.00022   2.09011
    A4        2.10029  -0.00001   0.00000  -0.00089  -0.00089   2.09940
    A5        2.09841  -0.00000  -0.00002   0.00046   0.00044   2.09885
    A6        2.08449   0.00001   0.00002   0.00042   0.00044   2.08493
    A7        2.07140   0.00092  -0.00002   0.00344   0.00342   2.07482
    A8        2.10555  -0.00045  -0.00023  -0.00102  -0.00124   2.10431
    A9        2.10623  -0.00048   0.00024  -0.00242  -0.00218   2.10406
   A10        2.13120  -0.00079   0.00008  -0.00233  -0.00225   2.12895
   A11        2.08879  -0.00328  -0.00063  -0.00957  -0.01020   2.07859
   A12        2.06320   0.00408   0.00055   0.01190   0.01245   2.07565
   A13        2.06627  -0.00124  -0.00013  -0.00327  -0.00340   2.06287
   A14        2.09839   0.00548   0.00058   0.01650   0.01708   2.11547
   A15        2.11853  -0.00424  -0.00045  -0.01323  -0.01368   2.10485
   A16        2.09771   0.00110   0.00007   0.00385   0.00393   2.10164
   A17        2.10764  -0.00056  -0.00026  -0.00139  -0.00165   2.10599
   A18        2.07784  -0.00054   0.00018  -0.00246  -0.00228   2.07556
   A19        1.99422  -0.00157  -0.00032  -0.00441  -0.00473   1.98950
   A20        2.14674   0.00338   0.00042   0.01019   0.01060   2.15735
   A21        2.14222  -0.00181  -0.00010  -0.00578  -0.00588   2.13634
   A22        1.90970   0.00063  -0.00054   0.00471   0.00417   1.91387
   A23        1.94986  -0.00011  -0.00005  -0.00074  -0.00079   1.94907
   A24        1.83609   0.00024   0.00031   0.00093   0.00124   1.83733
   A25        1.94984  -0.00011  -0.00005  -0.00071  -0.00076   1.94909
   A26        1.91930   0.00002  -0.00006   0.00070   0.00063   1.91993
   A27        1.88940  -0.00006  -0.00010  -0.00095  -0.00105   1.88835
   A28        1.91921   0.00004  -0.00004   0.00088   0.00083   1.92004
    D1        0.00002  -0.00000  -0.00000  -0.00004  -0.00004  -0.00002
    D2       -3.14159  -0.00000  -0.00000  -0.00000  -0.00000   3.14159
    D3       -3.14159  -0.00000   0.00000  -0.00000  -0.00000   3.14159
    D4       -0.00002   0.00000   0.00000   0.00004   0.00004   0.00002
    D5       -0.00000  -0.00000   0.00000  -0.00000  -0.00000  -0.00000
    D6        3.14155   0.00000   0.00001   0.00008   0.00009  -3.14154
    D7       -3.14157  -0.00000  -0.00000  -0.00004  -0.00005   3.14156
    D8       -0.00002   0.00000   0.00000   0.00005   0.00005   0.00003
    D9        0.00001  -0.00000  -0.00000  -0.00001  -0.00001  -0.00001
   D10        3.14156   0.00000   0.00001   0.00007   0.00008  -3.14155
   D11       -3.14157  -0.00000  -0.00001  -0.00005  -0.00005   3.14156
   D12       -0.00002   0.00000   0.00000   0.00004   0.00004   0.00002
   D13       -0.00005   0.00000   0.00001   0.00011   0.00012   0.00007
   D14        3.14151   0.00001   0.00002   0.00017   0.00019  -3.14149
   D15        3.14158   0.00000   0.00000   0.00003   0.00003  -3.14158
   D16       -0.00004   0.00000   0.00001   0.00009   0.00010   0.00005
   D17        0.00007  -0.00001  -0.00002  -0.00015  -0.00017  -0.00010
   D18       -3.14147  -0.00001  -0.00003  -0.00025  -0.00028   3.14143
   D19       -3.14149  -0.00001  -0.00002  -0.00021  -0.00024   3.14146
   D20        0.00015  -0.00001  -0.00003  -0.00031  -0.00035  -0.00020
   D21        1.05992  -0.00012  -0.00014  -0.00147  -0.00160   1.05831
   D22       -3.14138  -0.00001  -0.00005  -0.00045  -0.00051   3.14130
   D23       -1.05960   0.00012   0.00006   0.00079   0.00084  -1.05875
   D24       -2.08171  -0.00012  -0.00013  -0.00141  -0.00154  -2.08325
   D25        0.00018  -0.00001  -0.00005  -0.00039  -0.00044  -0.00026
   D26        2.08197   0.00012   0.00006   0.00085   0.00091   2.08288
   D27       -0.00004   0.00000   0.00001   0.00010   0.00011   0.00006
   D28        3.14159   0.00000   0.00000   0.00001   0.00001  -3.14159
   D29        3.14150   0.00001   0.00002   0.00020   0.00022  -3.14147
   D30       -0.00006   0.00000   0.00001   0.00011   0.00013   0.00007
   D31       -3.14127  -0.00001  -0.00008  -0.00074  -0.00082   3.14110
   D32        0.00001   0.00000  -0.00000   0.00004   0.00004   0.00004
   D33        0.00038  -0.00002  -0.00009  -0.00084  -0.00093  -0.00056
   D34       -3.14153   0.00000  -0.00001  -0.00006  -0.00008   3.14157
   D35        3.14142   0.00001   0.00004   0.00041   0.00045  -3.14131
   D36        0.00015  -0.00001  -0.00003  -0.00036  -0.00040  -0.00025
         Item               Value     Threshold  Converged?
 Maximum Force            0.005479     0.000450     NO 
 RMS     Force            0.001253     0.000300     NO 
 Maximum Displacement     0.083458     0.001800     NO 
 RMS     Displacement     0.020862     0.001200     NO 
 Predicted change in Energy=-1.652596D-04
 GradGradGradGradGradGradGradGradGradGradGradGradGradGradGradGradGradGrad

                          Input orientation:                          
 ---------------------------------------------------------------------
 Center     Atomic      Atomic             Coordinates (Angstroms)
 Number     Number       Type             X           Y           Z
 ---------------------------------------------------------------------
      1          6           0        1.916739   -1.464497   -0.000015
      2          6           0        2.599051   -0.260343    0.000001
      3          6           0        1.901575    0.939197    0.000031
      4          6           0        0.527061    0.908063    0.000035
      5          6           0       -0.185079   -0.292171    0.000093
      6          6           0        0.533118   -1.481617    0.000029
      7          6           0       -1.670383   -0.305785    0.000299
      8          8           0       -2.192274   -1.508084   -0.000260
      9          7           0       -0.219231    2.180506   -0.000072
     10          8           0       -2.354876    0.703988    0.000384
     11          1           0        2.463410   -2.393927   -0.000039
     12          1           0        3.677562   -0.246823   -0.000032
     13          1           0        2.429613    1.881847    0.000001
     14          1           0       -0.005277   -2.415821    0.000066
     15          1           0       -3.160199   -1.443663   -0.000344
     16          1           0       -0.008840    2.740641   -0.826411
     17          1           0       -1.254607    1.900748   -0.000349
     18          1           0       -0.009164    2.740609    0.826373
 ---------------------------------------------------------------------
                    Distance matrix (angstroms):
                    1          2          3          4          5
     1  C    0.000000
     2  C    1.384029   0.000000
     3  C    2.403742   1.387577   0.000000
     4  C    2.749591   2.378721   1.374867   0.000000
     5  C    2.406655   2.784312   2.422890   1.395603   0.000000
     6  C    1.383727   2.399915   2.780830   2.389688   1.389456
     7  C    3.769623   4.269675   3.782706   2.510415   1.485366
     8  O    4.109245   4.951127   4.769569   3.637657   2.346758
     9  N    4.224739   3.728331   2.457369   1.475148   2.472913
    10  O    4.790514   5.046912   4.262945   2.889153   2.387541
    11  H    1.078281   2.137892   3.380145   3.827870   3.381105
    12  H    2.140847   1.078596   2.135597   3.355506   3.862908
    13  H    3.385418   2.148880   1.080469   2.137279   3.400437
    14  H    2.144566   3.380623   3.859046   3.366243   2.131248
    15  H    5.076981   5.879558   5.594602   4.373385   3.190183
    16  H    4.698294   4.060782   2.752796   2.080515   3.148352
    17  H    4.624101   4.418257   3.299404   2.039550   2.439833
    18  H    4.698398   4.060959   2.752971   2.080528   3.148244
                    6          7          8          9         10
     6  C    0.000000
     7  C    2.497598   0.000000
     8  O    2.725520   1.310685   0.000000
     9  N    3.738606   2.878800   4.183133   0.000000
    10  O    3.621792   1.219907   2.218040   2.596360   0.000000
    11  H    2.135026   4.631261   4.739210   5.303018   5.728260
    12  H    3.378201   5.348270   6.003812   4.590961   6.106910
    13  H    3.861293   4.647117   5.731795   2.665628   4.927341
    14  H    1.078242   2.687904   2.367898   4.601304   3.905614
    15  H    3.693512   1.874652   0.970066   4.667322   2.293676
    16  H    4.336379   3.567196   4.847842   1.020222   3.214876
    17  H    3.825749   2.245364   3.535443   1.072506   1.625678
    18  H    4.336371   3.566870   4.847751   1.020222   3.214412
                   11         12         13         14         15
    11  H    0.000000
    12  H    2.466621   0.000000
    13  H    4.275908   2.467512   0.000000
    14  H    2.468784   4.274091   4.939498   0.000000
    15  H    5.703330   6.941714   6.504230   3.301306   0.000000
    16  H    5.758359   4.816368   2.714136   5.222277   5.303004
    17  H    5.680483   5.379438   3.684268   4.493729   3.849204
    18  H    5.758476   4.816602   2.714406   5.222219   5.302887
                   16         17         18
    16  H    0.000000
    17  H    1.714565   0.000000
    18  H    1.652784   1.714632   0.000000
 Stoichiometry    C7H8NO2(1+)
 Framework group  C1[X(C7H8NO2)]
 Deg. of freedom    48
 Full point group                 C1      NOp   1
 Largest Abelian subgroup         C1      NOp   1
 Largest concise Abelian subgroup C1      NOp   1
                         Standard orientation:                         
 ---------------------------------------------------------------------
 Center     Atomic      Atomic             Coordinates (Angstroms)
 Number     Number       Type             X           Y           Z
 ---------------------------------------------------------------------
      1          6           0       -1.900704   -1.484072    0.000050
      2          6           0       -2.596602   -0.287718    0.000035
      3          6           0       -1.912748    0.919640    0.000005
      4          6           0       -0.537970    0.904066    0.000000
      5          6           0        0.187710   -0.288030   -0.000058
      6          6           0       -0.516977   -1.485529    0.000007
      7          6           0        1.673072   -0.284831   -0.000264
      8          8           0        2.208539   -1.481146    0.000295
      9          7           0        0.193871    2.184875    0.000107
     10          8           0        2.346092    0.732625   -0.000348
     11          1           0       -2.436819   -2.419630    0.000074
     12          1           0       -3.675197   -0.286407    0.000068
     13          1           0       -2.451423    1.856253    0.000035
     14          1           0        0.031957   -2.413579   -0.000030
     15          1           0        3.175673   -1.405772    0.000380
     16          1           0       -0.022847    2.742592    0.826447
     17          1           0        1.232347    1.916855    0.000385
     18          1           0       -0.022522    2.742565   -0.826337
 ---------------------------------------------------------------------
 Rotational constants (GHZ):      2.2575905      1.2205956      0.7956875
 Standard basis: CC-pVTZ (5D, 7F)
 There are   470 symmetry adapted cartesian basis functions of A   symmetry.
 There are   412 symmetry adapted basis functions of A   symmetry.
   412 basis functions,   656 primitive gaussians,   470 cartesian basis functions
    36 alpha electrons       36 beta electrons
       nuclear repulsion energy       517.6203244099 Hartrees.
 NAtoms=   18 NActive=   18 NUniq=   18 SFac= 1.00D+00 NAtFMM=   60 NAOKFM=F Big=F
 Integral buffers will be    131072 words long.
 Raffenetti 2 integral format.
 Two-electron integral symmetry is turned on.
 One-electron integrals computed using PRISM.
 NBasis=   412 RedAO= T EigKep=  2.76D-05  NBF=   412
 NBsUse=   412 1.00D-06 EigRej= -1.00D+00 NBFU=   412
 Initial guess from the checkpoint file:  "ccpvTZAnthranilicyang.chk"
 B after Tr=     0.000000   -0.000000    0.000000
         Rot=    0.999980    0.000021   -0.000026   -0.006272 Ang=   0.72 deg.
 ExpMin= 1.03D-01 ExpMax= 1.53D+04 ExpMxC= 5.22D+02 IAcc=1 IRadAn=         1 AccDes= 0.00D+00
 Harris functional with IExCor= 1009 and IRadAn=       1 diagonalized for initial guess.
 HarFok:  IExCor= 1009 AccDes= 0.00D+00 IRadAn=         1 IDoV= 1 UseB2=F ITyADJ=14
 ICtDFT=  3500011 ScaDFX=  1.000000  1.000000  1.000000  1.000000
 FoFCou: FMM=F IPFlag=           0 FMFlag=      100000 FMFlg1=           0
         NFxFlg=           0 DoJE=T BraDBF=F KetDBF=T FulRan=T
         wScrn=  0.000000 ICntrl=     500 IOpCl=  0 I1Cent=   200000004 NGrid=           0
         NMat0=    1 NMatS0=      1 NMatT0=    0 NMatD0=    1 NMtDS0=    0 NMtDT0=    0
 Petite list used in FoFCou.
 Requested convergence on RMS density matrix=1.00D-08 within 128 cycles.
 Requested convergence on MAX density matrix=1.00D-06.
 Requested convergence on             energy=1.00D-06.
 No special actions if energy rises.
 Integral accuracy reduced to 1.0D-05 until final iterations.
 Initial convergence to 1.0D-05 achieved.  Increase integral accuracy.
 SCF Done:  E(RM062X) =  -476.530075754     A.U. after   12 cycles
            NFock= 12  Conv=0.55D-08     -V/T= 2.0054
 Calling FoFJK, ICntrl=      2127 FMM=F ISym2X=0 I1Cent= 0 IOpClX= 0 NMat=1 NMatS=1 NMatT=0.
 ***** Axes restored to original set *****
 -------------------------------------------------------------------
 Center     Atomic                   Forces (Hartrees/Bohr)
 Number     Number              X              Y              Z
 -------------------------------------------------------------------
      1        6           0.000571938   -0.000576828   -0.000001173
      2        6           0.000915566    0.000081352    0.000000680
      3        6           0.000200278    0.000608091   -0.000007374
      4        6          -0.000752301   -0.001072195    0.000004721
      5        6          -0.000461146    0.000897877    0.000021751
      6        6          -0.000396282   -0.000229466    0.000005813
      7        6          -0.002123156    0.002486625   -0.000081550
      8        8          -0.000171699   -0.003153667    0.000025554
      9        7          -0.007221582   -0.003598587   -0.000019973
     10        8           0.004477286    0.003584882    0.000017981
     11        1           0.000769933   -0.001313604   -0.000000924
     12        1           0.001484183    0.000082385    0.000001198
     13        1           0.000784990    0.001310946   -0.000000468
     14        1          -0.000587637   -0.001119489   -0.000000220
     15        1          -0.000037029    0.000284925    0.000002087
     16        1          -0.000285916    0.000279946   -0.000817535
     17        1           0.003134473    0.001168131    0.000029086
     18        1          -0.000301899    0.000278677    0.000820344
 -------------------------------------------------------------------
 Cartesian Forces:  Max     0.007221582 RMS     0.001638294

 GradGradGradGradGradGradGradGradGradGradGradGradGradGradGradGradGradGrad
 Berny optimization.
 Using GEDIIS/GDIIS optimizer.
 FormGI is forming the generalized inverse of G from B-inverse, IUseBI=4.
 Internal  Forces:  Max     0.011149799 RMS     0.002515013
 Search for a local minimum.
 Step number   3 out of a maximum of   92
 All quantities printed in internal units (Hartrees-Bohrs-Radians)
 Mixed Optimization -- RFO/linear search
 Update second derivatives using D2CorX and points    1    3    2
 DE=  2.31D-04 DEPred=-1.65D-04 R=-1.40D+00
 Trust test=-1.40D+00 RLast= 3.37D-02 DXMaxT set to 1.50D-01
 ITU= -1  1  0
 Use linear search instead of GDIIS.
 Energy rises -- skip Quadratic/GDIIS search.
 Quartic linear search produced a step of -0.72159.
 Iteration  1 RMS(Cart)=  0.01500796 RMS(Int)=  0.00006381
 Iteration  2 RMS(Cart)=  0.00009615 RMS(Int)=  0.00000014
 Iteration  3 RMS(Cart)=  0.00000000 RMS(Int)=  0.00000014
 Variable       Old X    -DE/DX   Delta X   Delta X   Delta X     New X
                                 (Linear)    (Quad)   (Total)
    R1        2.61544   0.00332   0.00261   0.00000   0.00261   2.61804
    R2        2.61487   0.00306   0.00204   0.00000   0.00204   2.61691
    R3        2.03766   0.00152   0.00250   0.00000   0.00250   2.04016
    R4        2.62214   0.00267   0.00203   0.00000   0.00203   2.62417
    R5        2.03825   0.00149   0.00256   0.00000   0.00256   2.04081
    R6        2.59812   0.00167   0.00119   0.00000   0.00119   2.59931
    R7        2.04179   0.00153   0.00250   0.00000   0.00250   2.04429
    R8        2.63731  -0.00510  -0.00287   0.00000  -0.00287   2.63443
    R9        2.78763   0.00075  -0.00041   0.00000  -0.00041   2.78722
   R10        2.62569   0.00139   0.00093   0.00000   0.00093   2.62662
   R11        2.80693  -0.00218  -0.00281   0.00000  -0.00281   2.80412
   R12        2.03758   0.00126   0.00240   0.00000   0.00240   2.03999
   R13        2.47684   0.00272   0.00223   0.00000   0.00223   2.47906
   R14        2.30529   0.00045   0.00176   0.00000   0.00176   2.30705
   R15        1.83316   0.00005   0.00066   0.00000   0.00066   1.83382
   R16        1.92794   0.00076   0.00121   0.00000   0.00121   1.92915
   R17        2.02674  -0.00333  -0.00108   0.00000  -0.00108   2.02566
   R18        1.92794   0.00075   0.00121   0.00000   0.00121   1.92915
    A1        2.09869  -0.00019   0.00058   0.00000   0.00058   2.09927
    A2        2.09439   0.00010  -0.00042   0.00000  -0.00042   2.09397
    A3        2.09011   0.00010  -0.00016   0.00000  -0.00016   2.08994
    A4        2.09940  -0.00027   0.00064   0.00000   0.00064   2.10004
    A5        2.09885   0.00020  -0.00032   0.00000  -0.00032   2.09853
    A6        2.08493   0.00006  -0.00032   0.00000  -0.00032   2.08461
    A7        2.07482  -0.00154  -0.00247   0.00000  -0.00247   2.07235
    A8        2.10431   0.00073   0.00090   0.00000   0.00090   2.10521
    A9        2.10406   0.00081   0.00157   0.00000   0.00157   2.10563
   A10        2.12895   0.00176   0.00162   0.00000   0.00162   2.13057
   A11        2.07859   0.00619   0.00736   0.00000   0.00736   2.08595
   A12        2.07565  -0.00795  -0.00899   0.00000  -0.00899   2.06667
   A13        2.06287   0.00209   0.00245   0.00000   0.00245   2.06533
   A14        2.11547  -0.01115  -0.01232   0.00000  -0.01232   2.10314
   A15        2.10485   0.00906   0.00987   0.00000   0.00987   2.11472
   A16        2.10164  -0.00186  -0.00283   0.00000  -0.00283   2.09881
   A17        2.10599   0.00087   0.00119   0.00000   0.00119   2.10718
   A18        2.07556   0.00098   0.00164   0.00000   0.00164   2.07720
   A19        1.98950   0.00315   0.00341   0.00000   0.00341   1.99291
   A20        2.15735  -0.00816  -0.00765   0.00000  -0.00765   2.14970
   A21        2.13634   0.00501   0.00424   0.00000   0.00424   2.14058
   A22        1.91387  -0.00051  -0.00301   0.00000  -0.00301   1.91086
   A23        1.94907   0.00016   0.00057   0.00000   0.00057   1.94964
   A24        1.83733   0.00024  -0.00090   0.00000  -0.00090   1.83644
   A25        1.94909   0.00016   0.00055   0.00000   0.00055   1.94963
   A26        1.91993  -0.00037  -0.00046   0.00000  -0.00046   1.91947
   A27        1.88835   0.00017   0.00076   0.00000   0.00076   1.88910
   A28        1.92004  -0.00039  -0.00060   0.00000  -0.00060   1.91944
    D1       -0.00002   0.00000   0.00003   0.00000   0.00003   0.00001
    D2        3.14159   0.00000   0.00000   0.00000   0.00000  -3.14159
    D3        3.14159   0.00000   0.00000   0.00000   0.00000  -3.14159
    D4        0.00002  -0.00000  -0.00003   0.00000  -0.00003  -0.00001
    D5       -0.00000   0.00000   0.00000   0.00000   0.00000  -0.00000
    D6       -3.14154  -0.00000  -0.00007   0.00000  -0.00007   3.14158
[...]
 3,-0.018331,0.4311266,-0.0000224,0.000053,-0.0000243,-0.0472568,-0.717
 7327,0.0334435,-0.0000023,-0.0775396,-0.0946449,0.,0.0000056,0.0000087
 ,-0.0044608,0.0847547,0.1310575,0.0000047,-0.0525344,0.0168777,0.00000
 11,-0.0000088,0.0000025,-0.0493065,2.0516091,0.0172343,-0.0000048,0.23
 63411,1.7862888,0.0001843,0.0000273,0.0002158,0.3737401,-0.90853,-0.51
 3692,-0.0000663,-0.552603,-1.0515658,-0.0000849,-0.0001057,-0.0001357,
 -0.3179653,-0.4972699,-0.1556519,-0.0000105,0.0401763,-0.5518065,0.000
 014,-0.0000644,-0.0000334,-0.0603562,-1.136209,0.2014373,0.0000614,0.0
 68963,-1.2202051,-0.0000567,0.0000834,0.000008,-0.3317694,0.0756496,0.
 010745,0.0000003,0.0149204,0.0590391,-0.0000013,-0.0000026,-0.0000002,
 0.1419555,0.0592222,-0.0028021,-0.0000014,-0.0043685,0.0862367,0.00000
 02,0.0000024,-0.0000023,0.1378014,0.0980916,0.0008605,-0.0000009,-0.00
 41259,0.0097944,0.0000015,-0.000005,0.0000098,0.1467806,0.0975011,-0.0
 082846,0.0000015,-0.0095159,0.0983902,0.0000011,0.0000114,-0.0000012,0
 .1363602,0.4740519,0.1331982,0.0000185,0.1297606,0.3258042,-0.0000053,
 0.0000245,0.0000003,0.3586868,0.198696,0.0110344,0.0121893,0.0136394,0
 .2644831,-0.0589631,0.0179867,-0.0960794,0.2729709,0.6970671,0.4085144
 ,-0.0000145,0.2533522,0.5385304,-0.0000496,-0.0000208,-0.0000715,0.186
 9592,0.1987097,0.0110382,-0.0121862,0.0136395,0.2644849,0.058975,-0.01
 7984,0.0961003,0.2729839\Polar=112.341346,-1.1034778,99.5564468,-0.000
 1055,0.0009181,45.5670606\PG=C01 [X(C7H8N1O2)]\NImag=0\\0.70709581,-0.
 03626328,0.74805118,0.00000273,0.00000807,0.14587234,-0.18863659,-0.12
 996838,-0.00000315,0.76147988,-0.05380829,-0.30341730,-0.00000495,0.00
 454100,0.68420043,-0.00000261,-0.00000545,-0.06797095,0.00000446,0.000
 00753,0.14916326,0.07675581,0.02749743,0.00000026,-0.18694339,0.052161
 14,0.00000105,0.71414214,-0.02181408,-0.05603451,-0.00000088,0.1308739
 2,-0.29183071,-0.00000148,0.03511136,0.74536334,0.00000010,-0.00000047
 ,0.00733124,0.00000032,-0.00000047,-0.06669018,0.00000616,0.00000002,0
 .13841231,-0.06446403,-0.03572380,-0.00000066,-0.02769361,0.09746231,-
 0.00000011,-0.35790078,-0.07069570,-0.00000488,0.72739227,-0.03685431,
 -0.02225497,-0.00000009,0.02881209,0.03991533,0.00000007,0.02250591,-0
 .12614195,0.00000030,0.04574019,0.63656353,-0.00000102,-0.00000056,-0.
 00631501,-0.00000009,0.00000120,0.00457520,-0.00000332,-0.00000082,-0.
 06780078,0.00000547,-0.00000726,0.17179006,-0.02713951,0.02820694,0.00
 000059,-0.00072588,-0.00791745,-0.00000010,-0.03522430,-0.01941496,-0.
 00000028,-0.17486442,-0.12560505,0.00000266,0.67091497,0.08045200,0.03
 980750,-0.00000076,0.00274103,-0.07523117,-0.00000039,-0.08207656,0.03
 168783,-0.00000079,-0.05103744,-0.26308166,0.00000303,-0.00733427,0.72
 486865,0.00000128,0.00000031,0.00834382,-0.00000019,-0.00000128,-0.006
 58941,-0.00000233,0.00000123,0.01188092,0.00000424,-0.00000029,-0.0638
 8097,-0.00000879,0.00000824,0.14432386,-0.35313739,0.03631401,-0.00000
 081,-0.02324911,-0.08452313,-0.00000075,-0.05931419,0.02533795,-0.0000
 0009,0.07294128,0.03481473,0.00000094,-0.17543416,0.05206120,0.0000013
 1,0.71247248,-0.03942777,-0.13584624,0.00000030,-0.03482418,0.04013862
 ,-0.00000017,0.03599294,-0.01661916,0.00000009,-0.02766829,-0.06040534
 ,-0.00000109,0.12052200,-0.28867766,-0.00000394,0.04052217,0.73451833,
 -0.00000045,-0.00000019,-0.06889056,-0.00000040,0.00000024,0.00707583,
 0.00000043,-0.00000019,-0.00603360,-0.00000003,-0.00000005,0.00573905,
 0.00000150,-0.00000411,-0.06690253,-0.00000305,0.00000455,0.14985872,0
 .00242315,0.00264467,0.00000028,0.00066674,0.00558851,0.00000010,0.011
 30072,-0.00548296,0.00000085,-0.02228601,-0.02870047,-0.00000117,-0.20
 701265,-0.00229716,0.00000643,-0.01979010,0.01662283,0.00000135,0.7474
 9487,0.00523202,-0.00608792,-0.00000027,0.00041163,-0.00436635,-0.0000
 0001,-0.00548460,-0.00675550,-0.00000031,-0.03367575,0.01554750,0.0000
 0099,-0.01077714,-0.10434922,0.00000251,0.02700381,0.01164428,-0.00000
 086,-0.10994719,0.92307759,-0.00000044,-0.00000035,0.00889804,-0.00000
 016,0.00000029,-0.00149573,-0.00000005,-0.00000031,0.00667204,-0.00000
 078,0.00000102,-0.00057318,0.00000313,0.00000273,-0.08229811,0.0000001
 6,-0.00000018,0.00096540,-0.00001106,0.00006935,0.22019109,0.00131226,
 -0.00057865,0.00000012,-0.00029748,-0.00234939,-0.00000005,-0.00344358
 ,-0.00119856,0.00000019,-0.00499828,0.00878428,0.00000015,-0.03233162,
 -0.04554492,-0.00000618,-0.00424161,-0.00217582,-0.00000039,-0.1871659
 3,-0.11590579,-0.00001626,0.68345680,-0.00031491,0.00082985,0.00000014
 ,0.00006894,-0.00116593,-0.00000003,-0.00195230,0.00198621,0.00000008,
 0.00377222,0.00089722,0.00000004,-0.01791946,-0.00535878,-0.00000296,0
 .00189507,-0.00462411,0.,-0.08369091,-0.31399495,-0.00003176,0.0695326
 4,0.48002828,0.00000005,0.00000002,-0.00080809,-0.00000003,-0.00000018
 ,0.00006115,-0.00000017,0.00000026,-0.00089245,0.00000008,0.00000024,0
 .00206261,-0.00000155,-0.00000234,0.01109436,0.00000025,-0.00000039,0.
 00036616,-0.00001290,-0.00003453,-0.06874747,0.00001721,0.00005974,0.0
 4359885,0.00109398,0.00073544,0.00000019,-0.00733856,-0.00567374,0.000
 00003,-0.02010368,0.04831568,-0.00000068,-0.12626901,0.03312801,-0.000
 00204,0.01403839,-0.00698962,-0.00000028,-0.00070958,-0.00076344,-0.00
 000036,-0.02259898,0.01739312,0.00000419,0.00237380,-0.00914823,-0.000
 00269,0.54810848,-0.00227865,-0.00178383,0.,-0.00035266,0.00606185,0.0
 0000061,0.00905599,-0.00880546,0.00000081,0.04464298,-0.17509017,0.000
 00278,0.02287333,-0.02987783,0.00000127,-0.00464040,-0.00419310,0.0000
 0047,-0.00114014,0.00682321,0.00000088,-0.00021456,-0.00357662,-0.0000
 0130,0.08190075,0.60606875,0.00000068,0.00000009,-0.00130609,-0.000000
 26,-0.00000090,0.00738038,-0.00000154,0.00000206,0.00326816,-0.0000011
 6,0.00000455,-0.07479370,-0.00000235,-0.00000081,0.00043708,0.00000031
 ,0.00000077,0.00790032,-0.00000036,0.00000079,-0.00330010,-0.00000062,
 -0.00000035,-0.00112979,-0.00002081,0.00000110,0.70534562,-0.00207252,
 0.00172431,-0.00000023,0.00002173,-0.00019371,0.00000008,-0.00186597,0
 .00161073,0.00000005,0.00615035,0.00381575,0.00000055,-0.03231744,0.04
 418842,0.00000457,-0.00550250,-0.00742366,0.00000040,-0.30964477,0.262
 94821,0.00002827,0.03889309,-0.00581844,-0.00000108,-0.02163076,-0.024
 46421,0.00000700,0.34961119,0.00136040,0.00162422,0.00000030,-0.000122
 02,0.00094302,0.00000012,0.00245869,0.00207115,0.00000067,0.00307097,-
 0.01959204,-0.00000039,0.02862522,-0.00476262,-0.00000351,-0.00050565,
 0.00423163,0.00000024,0.24709023,-0.48483492,-0.00003728,0.01516455,-0
 .11770403,-0.00002041,-0.05099194,-0.01924328,0.00000282,-0.28723275,0
 .60959788,-0.00000003,-0.00000027,-0.00189307,0.,0.00000010,0.00031370
 ,0.00000029,-0.00000071,-0.00051345,-0.00000088,0.00000171,-0.00102691
 ,0.00000354,-0.00000334,0.02204964,0.00000025,0.00000017,0.00255932,0.
 00003123,-0.00004185,-0.08062585,0.00000110,-0.00001580,0.02885231,0.0
 0001091,0.00000649,0.01027297,-0.00003840,0.00006569,0.04001104,-0.134
 68101,0.12646855,0.00000079,0.01251206,-0.01562787,-0.00000020,-0.0008
 2359,-0.00362407,-0.00000017,-0.00117097,-0.00113772,-0.00000003,-0.00
 516754,-0.00078549,0.,-0.01144717,0.02752868,0.00000022,0.00050431,0.0
 0153896,-0.00000003,-0.00013640,-0.00021689,0.,0.00030953,0.00008630,0
 .00000004,-0.00078670,0.00030721,0.00000002,0.13896094,0.12639442,-0.2
 7348523,-0.00000168,0.01480084,-0.01736313,-0.00000019,-0.00294728,-0.
 00314617,-0.00000016,-0.00132483,-0.00000849,0.,-0.00124662,0.00147761
 ,-0.00000007,-0.00282088,0.00605102,0.,-0.00009318,0.00037259,0.,0.000
 00217,-0.00003009,0.,0.00025666,0.00008692,0.00000006,-0.00017253,0.00
 004987,0.,-0.13370748,0.28538498,0.00000077,-0.00000135,-0.04309535,0.
 00000031,-0.00000079,0.00492106,-0.00000040,-0.00000014,0.00763202,0.,
 0.00000006,-0.00026416,0.,0.00000010,0.00758234,0.00000011,0.00000016,
 0.00460370,0.00000003,0.00000008,0.00016907,-0.00000003,-0.00000003,0.
 00001696,-0.00000002,-0.00000008,-0.00110420,-0.00000009,-0.00000003,-
 0.00023844,-0.00000075,0.00000193,0.02851684,-0.00851199,0.00202440,-0
 .00000004,-0.34684716,-0.00390254,-0.00000139,-0.00943586,-0.00193908,
 -0.00000010,0.00083012,0.00210098,-0.00000005,0.00102132,-0.00025045,0
 .00000002,0.00003663,-0.00232029,-0.00000004,-0.00053236,-0.00003718,0
 .00000002,0.00006309,0.00008248,0.,-0.00065087,-0.00009889,-0.00000003
 ,0.00010468,-0.00018139,0.00000003,0.00065458,0.00002964,0.,0.36291044
 ,-0.02807629,0.00502637,-0.00000025,-0.00432356,-0.06027802,-0.0000003
 5,0.02844519,0.00386532,0.00000015,0.00196439,-0.00374542,-0.00000006,
 0.00000093,-0.00149440,-0.00000004,-0.00299083,-0.00473311,-0.00000021
 ,0.00019498,-0.00035474,-0.00000003,-0.00006745,0.00017609,0.00000003,
 0.00224083,-0.00027979,0.00000010,-0.00004484,0.00042611,-0.00000004,0
 .00037857,0.00088833,0.00000009,0.00409418,0.05963698,-0.00000077,-0.0
 0000004,0.00622232,-0.00000111,-0.00000035,-0.04370622,0.,0.00000027,0
 .00511099,0.00000015,0.,0.00756152,0.00000014,0.00000011,-0.00111160,0
 .00000001,-0.00000045,0.00774891,-0.00000017,0.00000005,-0.00112553,0.
 ,0.,0.00018524,0.,-0.00000003,0.00003049,0.00000001,-0.00000015,0.0001
 4135,0.00000006,0.00000006,-0.00420382,0.00000156,0.00000052,0.0279124
 6,-0.00138856,0.00351374,-0.00000001,0.01326341,0.01527286,-0.00000004
 ,-0.12799863,-0.12002251,-0.00000071,-0.01088478,-0.02836063,0.0000000
 1,-0.00507475,0.00171555,0.00000012,-0.00060296,0.00084551,0.,0.000730
 21,-0.00172545,-0.00000009,-0.00072015,0.00005767,0.00000003,0.0031874
 2,-0.00016244,0.00000038,0.00009112,0.00090692,-0.00000018,0.00051597,
 0.00076140,0.00000005,0.00063927,-0.00034621,0.00000005,0.13069462,0.0
 0356104,-0.00302450,-0.00000003,-0.01502693,-0.01746134,0.,-0.12008658
 ,-0.27196852,0.00000004,0.00295553,0.00270023,0.00000012,0.00070395,0.
 00155534,0.,0.00117047,-0.00012546,0.00000004,0.00049394,0.00001546,-0
 .00000010,0.00005915,0.00007515,0.,0.00013931,0.00149849,-0.00000005,-
 0.00005055,0.00026070,0.00000004,-0.00082620,-0.00078965,-0.00000005,-
 0.00008651,0.00101385,-0.00000002,0.12801936,0.28575947,0.00000036,0.0
 0000009,0.00709199,0.00000025,-0.00000070,0.00457409,-0.00000112,0.000
 00068,-0.03804630,0.00000020,0.00000024,0.00435816,-0.00000025,-0.0000
 0007,0.00624120,-0.00000026,0.00000025,-0.00123927,0.,-0.00000007,0.00
 124376,0.00000002,0.,-0.00022482,-0.00000005,-0.00000056,-0.00394182,-
 0.00000003,-0.00000006,-0.00011940,0.00000002,0.,-0.00020980,0.0000000
 2,0.00000003,-0.00411056,0.00000057,0.00000005,0.02565262,-0.00884315,
 -0.02685609,0.00000006,-0.00557532,0.00026105,0.00000002,-0.00116031,0
 .00107338,0.00000002,-0.00125055,0.00247334,0.00000009,0.01176727,0.01
 527347,0.00000002,-0.13000399,-0.12570787,0.00000071,0.00197136,0.0019
 3986,0.00000032,-0.00452488,-0.00014977,-0.00000018,-0.00010965,0.0015
 3827,-0.00000019,-0.00006369,-0.00142566,-0.00000006,0.00103014,0.0002
 3883,-0.00000004,-0.00038211,-0.00126198,-0.00000007,0.00004763,-0.000
 08565,-0.00000001,0.13640799,0.00240473,0.00649716,0.00000002,0.001177
 47,0.00095572,0.,0.00033766,0.00036736,0.00000003,0.00358252,-0.001437
 48,-0.00000008,-0.01323742,-0.01873873,-0.00000002,-0.12330061,-0.2776
 6552,-0.00000011,-0.00133652,-0.00215990,-0.00000024,-0.00105682,0.001
 08797,0.00000003,-0.00021994,-0.00104656,0.00000009,0.00001003,0.00111
 646,-0.00000001,-0.00018701,0.00053847,0.00000001,0.00024610,0.0002386
 9,0.00000002,-0.00009312,-0.00000577,0.,0.13204904,0.29024017,-0.00000
 065,-0.00000007,0.00632036,-0.00000005,0.00000027,0.00742935,0.0000003
 6,0.,-0.00115372,0.00000006,-0.00000029,0.00617890,0.00000006,0.000000
 49,0.00433631,0.00000137,-0.00000016,-0.04274107,-0.00000034,0.0000001
 1,-0.00460027,-0.00000026,-0.00000007,0.00028778,-0.00000022,-0.000000
 17,0.00087592,0.00000015,-0.00000037,0.00067660,0.,0.00000004,-0.00426
 534,0.,0.00000003,-0.00062236,0.,0.,-0.00068294,-0.00000067,0.00000020
 ,0.02805554,-0.00012584,0.00012508,-0.00000001,0.00007549,0.00036204,0
 .,0.00060191,-0.00048711,0.00000005,-0.00106347,0.00002525,-0.00000023
 ,0.00244191,-0.00164184,-0.00000039,0.00076010,0.00005966,0.00000006,-
 0.02817845,-0.01339562,-0.00000154,-0.48604079,0.02883513,-0.00000369,
 0.00139365,0.00060853,0.00000015,0.00155816,0.01122870,0.00000070,0.00
 001807,0.00000814,0.,-0.00001275,0.00001764,0.,-0.00002887,-0.00000078
 ,0.00000002,-0.00004246,0.00010752,0.00000004,0.51054402,0.00006189,0.
 00033221,0.00000004,0.00016640,0.00000422,-0.00000003,0.00004302,-0.00
 054822,0.00000008,-0.00155042,0.00079336,-0.00000012,-0.00096422,-0.00
 576320,-0.00000157,0.00082996,-0.00032804,0.00000011,-0.05675026,0.002
 27168,-0.00000093,0.07553346,-0.05066665,-0.00000502,0.00141333,0.0006
 3710,-0.00000011,0.00735456,0.00220324,0.00000083,0.00002066,0.0000111
 6,0.,0.00000497,0.00002791,0.,-0.00012236,0.00000822,0.00000002,-0.000
 09684,0.00065179,-0.00000005,-0.02401339,0.05208394,-0.00000012,0.,0.0
 0007953,0.00000005,0.00000015,0.00007764,0.00000018,-0.00000024,-0.000
 32926,-0.00000055,0.00000021,0.00076307,0.00000049,-0.00000144,0.00512
 451,0.00000024,-0.00000006,-0.00034933,-0.00001025,-0.00000075,0.00362
 577,0.00000424,-0.00000522,-0.01714459,0.00000048,0.00000022,0.0001872
 6,0.00000120,0.00000132,-0.00593813,0.,0.,0.00003668,0.,0.,-0.00002509
 ,-0.00000003,0.,-0.00012902,0.00000003,0.00000003,-0.00011102,0.000004
 54,0.00000622,0.01413129,0.00059743,0.00057182,-0.00019732,-0.00008516
 ,-0.00067949,0.00068189,0.00058993,0.00167091,0.00049513,0.00480114,0.
 01117470,-0.01691687,-0.00118200,0.00004712,-0.00073794,-0.00083300,0.
 00059153,0.00076430,-0.00071425,0.00066915,-0.00041592,0.00004095,-0.0
 0025635,0.00051324,-0.06888137,-0.04293125,0.06367850,-0.00287634,-0.0
 0262545,-0.00237443,-0.00002377,-0.00007606,-0.00007973,-0.00002135,0.
 00000807,-0.00001025,-0.00078355,-0.00044970,-0.00039306,-0.00006704,0
 .00008847,0.00013390,0.00004462,0.00002703,0.00000124,0.06480839,0.000
 36390,0.00037577,0.00019126,-0.00008061,-0.00117486,-0.00111851,-0.001
 56441,0.00232398,-0.00052619,-0.00494305,-0.02068357,0.02033714,0.0027
 9351,-0.00142872,0.00073877,-0.00076717,-0.00054320,-0.00103351,0.0002
 8312,-0.00104554,0.00058111,0.00018192,0.00055679,0.00008477,-0.041912
 26,-0.15770678,0.15866347,-0.00030035,0.00089015,-0.00046793,0.0000264
 4,0.00001913,0.00018738,-0.00001573,0.00008681,0.00002623,0.00029198,0
 .00025851,0.00074548,0.00016333,-0.00016534,-0.00016552,-0.00013432,-0
 .00007641,-0.00000323,0.04093281,0.16844891,-0.00034228,-0.00049864,0.
 00001492,0.00000914,0.00058191,0.00026362,0.00084735,-0.00123323,0.000
 40422,-0.00398050,0.00108661,0.00588092,0.00032300,-0.00136770,-0.0002
 7277,0.00025490,-0.00051528,-0.00020909,0.00050529,0.00095175,0.000313
 58,-0.00038838,-0.00069671,0.00001791,0.05858486,0.15031504,-0.2918389
 0,-0.00162591,-0.00176910,-0.00068048,-0.00001659,-0.00000642,-0.00004
 728,0.00004073,-0.00007934,0.00001571,-0.00032057,0.00018911,-0.000128
 71,0.00006770,-0.00009402,0.00000805,0.00014076,0.00007228,0.00005895,
 -0.06613344,-0.16500403,0.30638965,-0.00087504,-0.00100780,-0.00000005
 ,-0.00054171,-0.00029406,-0.00000016,0.00023404,-0.00098564,-0.0000005
 0,-0.02406410,0.01610948,-0.00000192,-0.00252751,0.00143255,0.00000009
 ,-0.00111190,-0.00296522,0.00000003,0.03354399,-0.02685543,-0.00000603
 ,-0.00227981,0.01547876,0.00000515,-0.23335978,-0.04153238,-0.00003473
 ,-0.01679611,0.03549340,-0.00001083,-0.00024469,-0.00002719,0.00000002
 ,0.00015567,-0.00024171,0.00000009,-0.00090392,-0.00004032,0.00000006,
 0.00086573,-0.00066050,0.00000006,-0.00198990,-0.00198466,-0.00000054,
 0.00304575,-0.00097768,0.00350275,0.24379527,-0.00135673,-0.00098546,0
 .00000004,0.00118554,0.00124457,-0.00000031,0.00206684,-0.00813820,0.0
 0000017,0.02836426,0.01670444,0.00000441,-0.00210141,0.00079613,-0.000
 00024,0.00036604,-0.00227987,-0.00000020,0.01623632,-0.03475646,-0.000
 00252,-0.00034799,0.01092655,0.00000373,-0.02795470,-0.06188605,-0.000
 00982,0.00434903,0.02183117,-0.00001349,-0.00026907,-0.00007648,0.0000
 0004,0.00026501,-0.00058776,-0.00000002,-0.00084413,-0.00002863,0.0000
 0010,0.00041003,-0.00030918,0.00000005,-0.00157030,-0.00156585,-0.0000
 0044,-0.01441709,-0.00456430,-0.00005486,0.01003374,0.06823917,0.00000
 013,0.00000009,0.00008960,0.00000004,-0.00000011,0.00035373,0.00000027
 ,0.00000033,0.00034379,-0.00000135,-0.00000094,-0.00014001,0.00000079,
 -0.00000092,-0.00008576,0.00000016,0.00000017,-0.00024264,-0.00000336,
 0.00000418,0.00037405,0.00000063,-0.00000375,0.00238567,-0.00004306,-0
 .00001415,-0.06640987,-0.00000123,-0.00000782,-0.01315948,0.00000005,0
 .,-0.00000299,0.,0.00000003,-0.00003952,0.00000005,-0.00000003,-0.0002
 0046,-0.00000005,0.00000004,-0.00000017,0.00000033,0.00000050,-0.00011
 716,0.02951507,0.00488243,0.00269624,0.00004848,0.00002147,0.07146565,
 0.00059718,0.00057161,0.00019728,-0.00008533,-0.00067925,-0.00068223,0
 .00058973,0.00167075,-0.00049546,0.00479485,0.01117346,0.01691687,-0.0
 0118207,0.00004641,0.00073801,-0.00083285,0.00059122,-0.00076427,-0.00
 071188,0.00066738,0.00041628,0.00004054,-0.00025563,-0.00051369,-0.068
 85300,-0.04289057,-0.06362500,-0.00287351,-0.00262143,0.00237672,-0.00
 002378,-0.00007605,0.00007977,-0.00002135,0.00000808,0.00001029,-0.000
 78349,-0.00044954,0.00039326,-0.00006699,0.00008841,-0.00013381,0.0000
 4461,0.00002688,-0.00000119,0.00153964,0.00565859,0.00853118,0.0030540
 2,-0.01441539,-0.02951695,0.06477369,0.00036391,0.00037569,-0.00019127
 ,-0.00008054,-0.00117495,0.00111860,-0.00156443,0.00232320,0.00052594,
 -0.00493611,-0.02068051,-0.02033932,0.00279212,-0.00142907,-0.00073841
 ,-0.00076675,-0.00054306,0.00103378,0.00028418,-0.00104682,-0.00058169
 ,0.00018180,0.00055705,-0.00008464,-0.04186925,-0.15768685,-0.15866387
 ,-0.00029998,0.00089128,0.00046840,0.00002643,0.00001914,-0.00018740,-
 0.00001571,0.00008677,-0.00002621,0.00029187,0.00025843,-0.00074549,0.
 00016326,-0.00016531,0.00016550,-0.00013434,-0.00007646,0.00000322,0.0
 0565379,0.01442866,0.01812264,-0.00097532,-0.00456379,-0.00488153,0.04
 088507,0.16842660,0.00034227,0.00049873,0.00001494,-0.00000912,-0.0005
 8195,0.00026349,-0.00084741,0.00123315,0.00040404,0.00398069,-0.001086
 09,0.00588522,-0.00032259,0.00136796,-0.00027290,-0.00025505,0.0005152
 6,-0.00020930,-0.00050595,-0.00095116,0.00031345,0.00038851,0.00069668
 ,0.00001821,-0.05853045,-0.15031337,-0.29187373,0.00162467,0.00176795,
 -0.00068171,0.00001659,0.00000640,-0.00004727,-0.00004072,0.00007933,0
 .00001573,0.00032038,-0.00018912,-0.00012872,-0.00006769,0.00009401,0.
 00000809,-0.00014079,-0.00007227,0.00005891,-0.00852431,-0.01811911,-0
 .02288652,-0.00350197,0.00005187,0.00268934,0.06607295,0.16500173,0.30
 642873\\0.00001375,-0.00003108,0.,0.00002734,-0.00000153,-0.00000016,0
 .00003679,-0.00000027,0.00000300,-0.00001752,0.00017536,-0.00000152,-0
 .00014393,0.00002847,-0.00000436,-0.00002549,-0.00010827,-0.00000206,0
 .00043754,-0.00011995,0.00001800,-0.00012306,-0.00011576,-0.00000667,0
 .00026399,-0.00001649,0.00001104,-0.00013330,0.00015919,0.00000024,-0.
 00000212,0.00003192,0.00000036,-0.00002690,-0.00001692,-0.00000049,-0.
 00001418,-0.00003636,0.00000008,0.00003025,0.00003632,0.00000021,-0.00
 002874,0.00001991,-0.00000064,-0.00000848,0.00001101,0.00002766,-0.000
 28528,-0.00002727,-0.00001537,-0.00000064,0.00001170,-0.00002933\\\@


 SATCHEL PAIGE'S GUIDE TO LONGEVITY

    1.  AVOID FRIED MEATS, WHICH ANGRY UP THE BLOOD.

    2.  IF YOUR STOMACH DISPUTES YOU, LIE DOWN AND PACIFY IT WITH COOL
        THOUGHTS.

    3.  KEEP THE JUICES FLOWING BY JANGLING AROUND GENTLY AS YOU MOVE.

    4.  GO VERY LIGHT ON THE VICES, SUCH AS CARRYING ON IN SOCIETY.
        THE SOCIAL RUMBLE AIN'T RESTFUL.

    5.  AVOID RUNNING AT ALL TIMES.

    6.  DON'T LOOK BACK.  SOMETHING MAY BE GAINING ON YOU.
 Job cpu time:       0 days  1 hours 35 minutes 37.3 seconds.
 File lengths (MBytes):  RWF=    241 Int=      0 D2E=      0 Chk=     13 Scr=      1
 Normal termination of Gaussian 09 at Thu Dec 19 23:09:31 2024.
