 Entering Gaussian System, Link 0=g09
 Input=lwAPFDDHB.gjf
 Output=lwAPFDDHB.log
 Initial command:
 /home/phzd/g09E/g09/l1.exe "/home/phzd/g09E/scratch/Gau-538514.inp" -scrdir="/home/phzd/g09E/scratch/"
 Default is to use a total of  18 processors:
                               18 via shared-memory
                                1 via Linda
 Entering Link 1 = /home/phzd/g09E/g09/l1.exe PID=    538516.
  
 Copyright (c) 1988,1990,1992,1993,1995,1998,2003,2009,2015,
            Gaussian, Inc.  All Rights Reserved.
  
 This is part of the Gaussian(R) 09 program.  It is based on
 the Gaussian(R) 03 system (copyright 2003, Gaussian, Inc.),
 the Gaussian(R) 98 system (copyright 1998, Gaussian, Inc.),
 the Gaussian(R) 94 system (copyright 1995, Gaussian, Inc.),
 the Gaussian 92(TM) system (copyright 1992, Gaussian, Inc.),
 the Gaussian 90(TM) system (copyright 1990, Gaussian, Inc.),
 the Gaussian 88(TM) system (copyright 1988, Gaussian, Inc.),
 the Gaussian 86(TM) system (copyright 1986, Carnegie Mellon
 University), and the Gaussian 82(TM) system (copyright 1983,
 Carnegie Mellon University). Gaussian is a federally registered
 trademark of Gaussian, Inc.
  
 This software contains proprietary and confidential information,
 including trade secrets, belonging to Gaussian, Inc.
  
 This software is provided under written license and may be
 used, copied, transmitted, or stored only in accord with that
 written license.
  
 The following legend is applicable only to US Government
 contracts under FAR:
  
                    RESTRICTED RIGHTS LEGEND
  
 Use, reproduction and disclosure by the US Government is
 subject to restrictions as set forth in subparagraphs (a)
 and (c) of the Commercial Computer Software - Restricted
 Rights clause in FAR 52.227-19.
  
 Gaussian, Inc.
 340 Quinnipiac St., Bldg. 40, Wallingford CT 06492
  
  
 ---------------------------------------------------------------
 Warning -- This program may not be used in any manner that
 competes with the business of Gaussian, Inc. or will provide
 assistance to any competitor of Gaussian, Inc.  The licensee
 of this program is prohibited from giving any competitor of
 Gaussian, Inc. access to this program.  By using this program,
 the user acknowledges that Gaussian, Inc. is engaged in the
 business of creating and licensing software in the field of
 computational chemistry and represents and warrants to the
 licensee that it is not a competitor of Gaussian, Inc. and that
 it will not use this program in any manner prohibited above.
 ---------------------------------------------------------------
  

 Cite this work as:
 Gaussian 09, Revision E.01,
 M. J. Frisch, G. W. Trucks, H. B. Schlegel, G. E. Scuseria, 
 M. A. Robb, J. R. Cheeseman, G. Scalmani, V. Barone, B. Mennucci, 
 G. A. Petersson, H. Nakatsuji, M. Caricato, X. Li, H. P. Hratchian, 
 A. F. Izmaylov, J. Bloino, G. Zheng, J. L. Sonnenberg, M. Hada, 
 M. Ehara, K. Toyota, R. Fukuda, J. Hasegawa, M. Ishida, T. Nakajima, 
 Y. Honda, O. Kitao, H. Nakai, T. Vreven, J. A. Montgomery, Jr., 
 J. E. Peralta, F. Ogliaro, M. Bearpark, J. J. Heyd, E. Brothers, 
 K. N. Kudin, V. N. Staroverov, T. Keith, R. Kobayashi, J. Normand, 
 K. Raghavachari, A. Rendell, J. C. Burant, S. S. Iyengar, J. Tomasi, 
 M. Cossi, N. Rega, J. M. Millam, M. Klene, J. E. Knox, J. B. Cross, 
 V. Bakken, C. Adamo, J. Jaramillo, R. Gomperts, R. E. Stratmann, 
 O. Yazyev, A. J. Austin, R. Cammi, C. Pomelli, J. W. Ochterski, 
 R. L. Martin, K. Morokuma, V. G. Zakrzewski, G. A. Voth, 
 P. Salvador, J. J. Dannenberg, S. Dapprich, A. D. Daniels, 
 O. Farkas, J. B. Foresman, J. V. Ortiz, J. Cioslowski, 
 and D. J. Fox, Gaussian, Inc., Wallingford CT, 2013.
 
 ******************************************
 Gaussian 09:  ES64L-G09RevE.01 30-Nov-2015
                20-May-2024 
 ******************************************
 %chk=lwAPFDDHB.chk
 ---------------------------
 # opt freq apfd/6-31+g(d,p)
 ---------------------------
 1/14=-1,18=20,19=15,26=3,38=1/1,3;
 2/9=110,12=2,17=6,18=5,40=1/2;
 3/5=1,6=6,7=111,11=2,16=1,25=1,30=1,71=1,74=-44/1,2,3;
 4//1;
 5/5=2,38=5/2;
 6/7=2,8=2,9=2,10=2,28=1/1;
 7//1,2,3,16;
 1/14=-1,18=20,19=15,26=3/3(2);
 2/9=110/2;
 99//99;
 2/9=110/2;
 3/5=1,6=6,7=111,11=2,16=1,25=1,30=1,71=1,74=-44/1,2,3;
 4/5=5,16=3,69=1/1;
 5/5=2,38=5/2;
 7//1,2,3,16;
 1/14=-1,18=20,19=15,26=3/3(-5);
 2/9=110/2;
 6/7=2,8=2,9=2,10=2,19=2,28=1/1;
 99/9=1/99;
 ----------
 [No Title]
 ----------
 Symbolic Z-matrix:
 Charge =  0 Multiplicity = 1
 C                     0.23182   1.26855   0.00005 
 C                     0.46365  -0.11791   0.00005 
 C                    -0.62657  -0.99348   0.00003 
 C                    -1.92784  -0.51946  -0.00002 
 C                    -2.15553   0.85313  -0.00004 
 C                    -1.08277   1.73286   0.00001 
 O                    -2.93835  -1.44224  -0.00012 
 C                     1.84098  -0.67091   0.00007 
 O                     1.84971  -2.02788   0.00016 
 O                     2.87126  -0.04028  -0.0003 
 O                     1.27885   2.12974   0.00009 
 H                    -0.45475  -2.06166   0.00005 
 H                    -3.17002   1.24272  -0.00011 
 H                    -1.26786   2.80354   0.00001 
 H                    -3.7959   -1.00249   0.00036 
 H                     2.78295  -2.29048  0. 
 H                     0.95138   3.03697   0.00012 
 

 GradGradGradGradGradGradGradGradGradGradGradGradGradGradGradGradGradGrad
 Berny optimization.
 Initialization pass.
                           ----------------------------
                           !    Initial Parameters    !
                           ! (Angstroms and Degrees)  !
 --------------------------                            --------------------------
 ! Name  Definition              Value          Derivative Info.                !
 --------------------------------------------------------------------------------
 ! R1    R(1,2)                  1.4057         estimate D2E/DX2                !
 ! R2    R(1,6)                  1.3942         estimate D2E/DX2                !
 ! R3    R(1,11)                 1.3557         estimate D2E/DX2                !
 ! R4    R(2,3)                  1.3983         estimate D2E/DX2                !
 ! R5    R(2,8)                  1.4842         estimate D2E/DX2                !
 ! R6    R(3,4)                  1.3849         estimate D2E/DX2                !
 ! R7    R(3,12)                 1.0819         estimate D2E/DX2                !
 ! R8    R(4,5)                  1.3913         estimate D2E/DX2                !
 ! R9    R(4,7)                  1.3684         estimate D2E/DX2                !
 ! R10   R(5,6)                  1.3874         estimate D2E/DX2                !
 ! R11   R(5,13)                 1.0867         estimate D2E/DX2                !
 ! R12   R(6,14)                 1.0866         estimate D2E/DX2                !
 ! R13   R(7,15)                 0.9637         estimate D2E/DX2                !
 ! R14   R(8,9)                  1.357          estimate D2E/DX2                !
 ! R15   R(8,10)                 1.208          estimate D2E/DX2                !
 ! R16   R(9,16)                 0.9695         estimate D2E/DX2                !
 ! R17   R(11,17)                0.9645         estimate D2E/DX2                !
 ! A1    A(2,1,6)              118.9457         estimate D2E/DX2                !
 ! A2    A(2,1,11)             119.9454         estimate D2E/DX2                !
 ! A3    A(6,1,11)             121.1089         estimate D2E/DX2                !
 ! A4    A(1,2,3)              119.276          estimate D2E/DX2                !
 ! A5    A(1,2,8)              121.3682         estimate D2E/DX2                !
 ! A6    A(3,2,8)              119.3558         estimate D2E/DX2                !
 ! A7    A(2,3,4)              121.2162         estimate D2E/DX2                !
 ! A8    A(2,3,12)             119.6309         estimate D2E/DX2                !
 ! A9    A(4,3,12)             119.1529         estimate D2E/DX2                !
 ! A10   A(3,4,5)              119.4339         estimate D2E/DX2                !
 ! A11   A(3,4,7)              117.5826         estimate D2E/DX2                !
 ! A12   A(5,4,7)              122.9835         estimate D2E/DX2                !
 ! A13   A(4,5,6)              119.9354         estimate D2E/DX2                !
 ! A14   A(4,5,13)             120.4265         estimate D2E/DX2                !
 ! A15   A(6,5,13)             119.6381         estimate D2E/DX2                !
 ! A16   A(1,6,5)              121.1929         estimate D2E/DX2                !
 ! A17   A(1,6,14)             119.2609         estimate D2E/DX2                !
 ! A18   A(5,6,14)             119.5462         estimate D2E/DX2                !
 ! A19   A(4,7,15)             110.4493         estimate D2E/DX2                !
 ! A20   A(2,8,9)              112.2441         estimate D2E/DX2                !
 ! A21   A(2,8,10)             126.6536         estimate D2E/DX2                !
 ! A22   A(9,8,10)             121.1023         estimate D2E/DX2                !
 ! A23   A(8,9,16)             106.0845         estimate D2E/DX2                !
 ! A24   A(1,11,17)            109.5906         estimate D2E/DX2                !
 ! D1    D(6,1,2,3)             -0.0003         estimate D2E/DX2                !
 ! D2    D(6,1,2,8)            179.9994         estimate D2E/DX2                !
 ! D3    D(11,1,2,3)           179.9988         estimate D2E/DX2                !
 ! D4    D(11,1,2,8)            -0.0015         estimate D2E/DX2                !
 ! D5    D(2,1,6,5)             -0.0012         estimate D2E/DX2                !
 ! D6    D(2,1,6,14)           179.9999         estimate D2E/DX2                !
 ! D7    D(11,1,6,5)           179.9998         estimate D2E/DX2                !
 ! D8    D(11,1,6,14)            0.0008         estimate D2E/DX2                !
 ! D9    D(2,1,11,17)         -179.9976         estimate D2E/DX2                !
 ! D10   D(6,1,11,17)            0.0014         estimate D2E/DX2                !
 ! D11   D(1,2,3,4)              0.001          estimate D2E/DX2                !
 ! D12   D(1,2,3,12)          -179.9989         estimate D2E/DX2                !
 ! D13   D(8,2,3,4)           -179.9987         estimate D2E/DX2                !
 ! D14   D(8,2,3,12)             0.0014         estimate D2E/DX2                !
 ! D15   D(1,2,8,9)            179.996          estimate D2E/DX2                !
 ! D16   D(1,2,8,10)            -0.0229         estimate D2E/DX2                !
 ! D17   D(3,2,8,9)             -0.0042         estimate D2E/DX2                !
 ! D18   D(3,2,8,10)           179.9768         estimate D2E/DX2                !
 ! D19   D(2,3,4,5)             -0.0003         estimate D2E/DX2                !
 ! D20   D(2,3,4,7)            179.9967         estimate D2E/DX2                !
 ! D21   D(12,3,4,5)           179.9996         estimate D2E/DX2                !
 ! D22   D(12,3,4,7)            -0.0034         estimate D2E/DX2                !
 ! D23   D(3,4,5,6)             -0.0011         estimate D2E/DX2                !
 ! D24   D(3,4,5,13)           179.9985         estimate D2E/DX2                !
 ! D25   D(7,4,5,6)           -179.998          estimate D2E/DX2                !
 ! D26   D(7,4,5,13)             0.0017         estimate D2E/DX2                !
 ! D27   D(3,4,7,15)           179.9682         estimate D2E/DX2                !
 ! D28   D(5,4,7,15)            -0.035          estimate D2E/DX2                !
 ! D29   D(4,5,6,1)              0.0019         estimate D2E/DX2                !
 ! D30   D(4,5,6,14)          -179.9992         estimate D2E/DX2                !
 ! D31   D(13,5,6,1)          -179.9978         estimate D2E/DX2                !
 ! D32   D(13,5,6,14)            0.0012         estimate D2E/DX2                !
 ! D33   D(2,8,9,16)           179.9892         estimate D2E/DX2                !
 ! D34   D(10,8,9,16)            0.007          estimate D2E/DX2                !
 --------------------------------------------------------------------------------
 Trust Radius=3.00D-01 FncErr=1.00D-07 GrdErr=1.00D-06
 Number of steps in this run=     85 maximum allowed number of steps=    102.
 GradGradGradGradGradGradGradGradGradGradGradGradGradGradGradGradGradGrad

                          Input orientation:                          
 ---------------------------------------------------------------------
 Center     Atomic      Atomic             Coordinates (Angstroms)
 Number     Number       Type             X           Y           Z
 ---------------------------------------------------------------------
      1          6           0        0.231821    1.268546    0.000045
      2          6           0        0.463648   -0.117907    0.000050
      3          6           0       -0.626567   -0.993476    0.000026
      4          6           0       -1.927841   -0.519457   -0.000024
      5          6           0       -2.155527    0.853126   -0.000044
      6          6           0       -1.082767    1.732857    0.000010
      7          8           0       -2.938346   -1.442241   -0.000115
      8          6           0        1.840981   -0.670913    0.000074
      9          8           0        1.849706   -2.027878    0.000162
     10          8           0        2.871257   -0.040283   -0.000296
     11          8           0        1.278848    2.129744    0.000093
     12          1           0       -0.454754   -2.061655    0.000048
     13          1           0       -3.170023    1.242717   -0.000107
     14          1           0       -1.267855    2.803539    0.000008
     15          1           0       -3.795901   -1.002488    0.000359
     16          1           0        2.782945   -2.290483   -0.000004
     17          1           0        0.951379    3.036972    0.000120
 ---------------------------------------------------------------------
                    Distance matrix (angstroms):
                    1          2          3          4          5
     1  C    0.000000
     2  C    1.405701   0.000000
     3  C    2.419416   1.398281   0.000000
     4  C    2.803764   2.424966   1.384922   0.000000
     5  C    2.423222   2.793382   2.397427   1.391339   0.000000
     6  C    1.394176   2.411789   2.764238   2.405633   1.387350
     7  O    4.171130   3.650674   2.354934   1.368448   2.425184
     8  C    2.520099   1.484204   2.488542   3.771864   4.277239
     9  O    3.672052   2.359904   2.683638   4.067579   4.933769
    10  O    2.946126   2.408860   3.625376   4.822961   5.105559
    11  O    1.355702   2.390917   3.658567   4.159462   3.663971
    12  H    3.400239   2.149795   1.081909   2.132688   3.374697
    13  H    3.401942   3.880060   3.386699   2.155985   1.086731
    14  H    2.145980   3.396020   3.850789   3.387903   2.142912
    15  H    4.623866   4.350430   3.169347   1.929499   2.476718
    16  H    4.378918   3.177928   3.647876   5.032697   5.854125
    17  H    1.909213   3.192357   4.328328   4.575816   3.797637
                    6          7          8          9         10
     6  C    0.000000
     7  O    3.677556   0.000000
     8  C    3.785025   4.841169   0.000000
     9  O    4.768912   4.823734   1.356993   0.000000
    10  O    4.333397   5.976368   1.207958   2.234748   0.000000
    11  O    2.394733   5.526645   2.856514   4.196630   2.691614
    12  H    3.846131   2.559669   2.684132   2.304708   3.892081
    13  H    2.144032   2.694935   5.363967   5.991199   6.176014
    14  H    1.086562   4.562586   4.662261   5.749937   5.021909
    15  H    3.852688   0.963734   5.646626   5.737970   6.736233
    16  H    5.579516   5.783830   1.873580   0.969483   2.251932
    17  H    2.416292   5.932395   3.813109   5.143899   3.627042
                   11         12         13         14         15
    11  O    0.000000
    12  H    4.535769   0.000000
    13  H    4.536438   4.276863   0.000000
    14  H    2.634330   4.932671   2.460571   0.000000
    15  H    5.963552   3.505010   2.330809   4.569120   0.000000
    16  H    4.669124   3.245775   6.922523   6.508306   6.703741
    17  H    0.964520   5.288970   4.495031   2.231477   6.233290
                   16         17
    16  H    0.000000
    17  H    5.633508   0.000000
 Stoichiometry    C7H6O4
 Framework group  C1[X(C7H6O4)]
 Deg. of freedom    45
 Full point group                 C1      NOp   1
 Largest Abelian subgroup         C1      NOp   1
 Largest concise Abelian subgroup C1      NOp   1
                         Standard orientation:                         
 ---------------------------------------------------------------------
 Center     Atomic      Atomic             Coordinates (Angstroms)
 Number     Number       Type             X           Y           Z
 ---------------------------------------------------------------------
      1          6           0        0.231821    1.268546    0.000045
      2          6           0        0.463648   -0.117907    0.000050
      3          6           0       -0.626567   -0.993476    0.000026
      4          6           0       -1.927841   -0.519457   -0.000024
      5          6           0       -2.155527    0.853126   -0.000044
      6          6           0       -1.082767    1.732857    0.000010
      7          8           0       -2.938346   -1.442240   -0.000115
      8          6           0        1.840981   -0.670913    0.000074
      9          8           0        1.849706   -2.027878    0.000162
     10          8           0        2.871257   -0.040283   -0.000296
     11          8           0        1.278848    2.129744    0.000093
     12          1           0       -0.454754   -2.061655    0.000048
     13          1           0       -3.170023    1.242718   -0.000107
     14          1           0       -1.267855    2.803539    0.000008
     15          1           0       -3.795901   -1.002487    0.000359
     16          1           0        2.782945   -2.290483   -0.000004
     17          1           0        0.951379    3.036972    0.000120
 ---------------------------------------------------------------------
 Rotational constants (GHZ):      1.7698998      0.9204408      0.6055322
 Standard basis: 6-31+G(d,p) (6D, 7F)
 There are   239 symmetry adapted cartesian basis functions of A   symmetry.
 There are   239 symmetry adapted basis functions of A   symmetry.
   239 basis functions,   394 primitive gaussians,   239 cartesian basis functions
    40 alpha electrons       40 beta electrons
       nuclear repulsion energy       591.8166198815 Hartrees.
 NAtoms=   17 NActive=   17 NUniq=   17 SFac= 1.00D+00 NAtFMM=   60 NAOKFM=F Big=F
 Integral buffers will be    131072 words long.
 Raffenetti 2 integral format.
 Two-electron integral symmetry is turned on.
 R6APFD:  NTU= -4 IXU= 1 FactS= 1.050
 Nuclear repulsion after empirical dispersion term =      591.8057319396 Hartrees.
 One-electron integrals computed using PRISM.
 NBasis=   239 RedAO= T EigKep=  3.11D-06  NBF=   239
 NBsUse=   239 1.00D-06 EigRej= -1.00D+00 NBFU=   239
 ExpMin= 4.38D-02 ExpMax= 5.48D+03 ExpMxC= 8.25D+02 IAcc=2 IRadAn=         4 AccDes= 0.00D+00
 Harris functional with IExCor= 3731 and IRadAn=       4 diagonalized for initial guess.
 HarFok:  IExCor= 3731 AccDes= 0.00D+00 IRadAn=         4 IDoV= 1 UseB2=F ITyADJ=14
 ICtDFT=  3500011 ScaDFX=  1.000000  1.000000  1.000000  1.000000
 FoFCou: FMM=F IPFlag=           0 FMFlag=      100000 FMFlg1=           0
         NFxFlg=           0 DoJE=T BraDBF=F KetDBF=T FulRan=T
         wScrn=  0.000000 ICntrl=     500 IOpCl=  0 I1Cent=   200000004 NGrid=           0
         NMat0=    1 NMatS0=      1 NMatT0=    0 NMatD0=    1 NMtDS0=    0 NMtDT0=    0
 Petite list used in FoFCou.
 Keep R1 ints in memory in canonical form, NReq=418393415.
 Requested convergence on RMS density matrix=1.00D-08 within 128 cycles.
 Requested convergence on MAX density matrix=1.00D-06.
 Requested convergence on             energy=1.00D-06.
 No special actions if energy rises.
 SCF Done:  E(RAPFD) =  -570.845389681     A.U. after   15 cycles
            NFock= 15  Conv=0.65D-08     -V/T= 2.0085

 **********************************************************************

            Population analysis using the SCF density.

 **********************************************************************

 Orbital symmetries:
       Occupied  (A) (A) (A) (A) (A) (A) (A) (A) (A) (A) (A) (A)
                 (A) (A) (A) (A) (A) (A) (A) (A) (A) (A) (A) (A)
                 (A) (A) (A) (A) (A) (A) (A) (A) (A) (A) (A) (A)
                 (A) (A) (A) (A)
       Virtual   (A) (A) (A) (A) (A) (A) (A) (A) (A) (A) (A) (A)
                 (A) (A) (A) (A) (A) (A) (A) (A) (A) (A) (A) (A)
                 (A) (A) (A) (A) (A) (A) (A) (A) (A) (A) (A) (A)
                 (A) (A) (A) (A) (A) (A) (A) (A) (A) (A) (A) (A)
                 (A) (A) (A) (A) (A) (A) (A) (A) (A) (A) (A) (A)
                 (A) (A) (A) (A) (A) (A) (A) (A) (A) (A) (A) (A)
                 (A) (A) (A) (A) (A) (A) (A) (A) (A) (A) (A) (A)
                 (A) (A) (A) (A) (A) (A) (A) (A) (A) (A) (A) (A)
                 (A) (A) (A) (A) (A) (A) (A) (A) (A) (A) (A) (A)
                 (A) (A) (A) (A) (A) (A) (A) (A) (A) (A) (A) (A)
                 (A) (A) (A) (A) (A) (A) (A) (A) (A) (A) (A) (A)
                 (A) (A) (A) (A) (A) (A) (A) (A) (A) (A) (A) (A)
                 (A) (A) (A) (A) (A) (A) (A) (A) (A) (A) (A) (A)
                 (A) (A) (A) (A) (A) (A) (A) (A) (A) (A) (A) (A)
                 (A) (A) (A) (A) (A) (A) (A) (A) (A) (A) (A) (A)
                 (A) (A) (A) (A) (A) (A) (A) (A) (A) (A) (A) (A)
                 (A) (A) (A) (A) (A) (A) (A)
 The electronic state is 1-A.
 Alpha  occ. eigenvalues --  -19.24209 -19.23826 -19.23750 -19.18257 -10.34783
 Alpha  occ. eigenvalues --  -10.29638 -10.28740 -10.24387 -10.24255 -10.23811
 Alpha  occ. eigenvalues --  -10.23094  -1.13157  -1.09924  -1.09486  -1.03601
 Alpha  occ. eigenvalues --   -0.89227  -0.80392  -0.77176  -0.69265  -0.66082
 Alpha  occ. eigenvalues --   -0.62787  -0.57673  -0.56812  -0.52116  -0.50385
 Alpha  occ. eigenvalues --   -0.49214  -0.46952  -0.46432  -0.44543  -0.43784
 Alpha  occ. eigenvalues --   -0.42986  -0.41646  -0.40717  -0.38607  -0.37412
 Alpha  occ. eigenvalues --   -0.33569  -0.33174  -0.28559  -0.28390  -0.23088
 Alpha virt. eigenvalues --   -0.05678  -0.00361  -0.00302   0.00342   0.01887
 Alpha virt. eigenvalues --    0.02905   0.04902   0.05355   0.06005   0.06337
 Alpha virt. eigenvalues --    0.07297   0.08739   0.08994   0.09846   0.10333
 Alpha virt. eigenvalues --    0.11725   0.13068   0.13377   0.14428   0.14779
 Alpha virt. eigenvalues --    0.15829   0.15853   0.16242   0.17390   0.17949
 Alpha virt. eigenvalues --    0.18100   0.19600   0.19712   0.20009   0.20228
 Alpha virt. eigenvalues --    0.21103   0.21507   0.22782   0.23349   0.24452
 Alpha virt. eigenvalues --    0.25135   0.25881   0.25935   0.27154   0.27447
 Alpha virt. eigenvalues --    0.27629   0.28170   0.28934   0.30053   0.30567
 Alpha virt. eigenvalues --    0.31594   0.31849   0.32177   0.32270   0.33312
 Alpha virt. eigenvalues --    0.34401   0.35302   0.37098   0.37618   0.39570
 Alpha virt. eigenvalues --    0.40072   0.41213   0.43081   0.43761   0.45996
 Alpha virt. eigenvalues --    0.47775   0.51059   0.53872   0.61161   0.64058
 Alpha virt. eigenvalues --    0.65814   0.68987   0.69444   0.71733   0.73321
 Alpha virt. eigenvalues --    0.74337   0.75310   0.76221   0.77767   0.79086
 Alpha virt. eigenvalues --    0.80977   0.84743   0.85444   0.86809   0.87798
 Alpha virt. eigenvalues --    0.94723   0.95187   1.00038   1.01084   1.02523
 Alpha virt. eigenvalues --    1.04479   1.06907   1.09605   1.10027   1.14706
 Alpha virt. eigenvalues --    1.17062   1.17576   1.18108   1.19338   1.20868
 Alpha virt. eigenvalues --    1.21853   1.21911   1.23737   1.25221   1.25778
 Alpha virt. eigenvalues --    1.27154   1.28967   1.31500   1.31601   1.32837
 Alpha virt. eigenvalues --    1.33716   1.35956   1.37815   1.38104   1.38176
 Alpha virt. eigenvalues --    1.39424   1.41155   1.41770   1.42978   1.45722
 Alpha virt. eigenvalues --    1.48690   1.51449   1.57505   1.58102   1.59809
 Alpha virt. eigenvalues --    1.59931   1.69669   1.71432   1.74423   1.76690
 Alpha virt. eigenvalues --    1.78175   1.81060   1.85177   1.87325   1.87633
 Alpha virt. eigenvalues --    1.89276   1.90135   1.90136   1.91572   1.94399
 Alpha virt. eigenvalues --    1.94683   1.99897   2.02392   2.05090   2.06629
 Alpha virt. eigenvalues --    2.08200   2.10639   2.14880   2.23581   2.24759
 Alpha virt. eigenvalues --    2.26606   2.32196   2.33411   2.35015   2.37550
 Alpha virt. eigenvalues --    2.39716   2.40944   2.42785   2.46740   2.49095
 Alpha virt. eigenvalues --    2.50351   2.51646   2.53356   2.55439   2.56011
 Alpha virt. eigenvalues --    2.59320   2.60788   2.61410   2.64028   2.65647
 Alpha virt. eigenvalues --    2.68224   2.70295   2.73607   2.76506   2.76552
 Alpha virt. eigenvalues --    2.79597   2.85057   2.89490   2.97365   3.03524
 Alpha virt. eigenvalues --    3.06128   3.10648   3.14556   3.17879   3.22901
 Alpha virt. eigenvalues --    3.27274   3.32315   3.41740   3.48655   3.52434
 Alpha virt. eigenvalues --    3.54449   3.55695   3.82442   4.21273   4.26846
 Alpha virt. eigenvalues --    4.31293   4.35453   4.36479   4.47408   4.51890
 Alpha virt. eigenvalues --    4.57831   4.62224   4.85508   4.96396
          Condensed to atoms (all electrons):
               1          2          3          4          5          6
     1  C   14.845661  -3.945336  -2.032029   0.195007   0.795377  -1.779240
     2  C   -3.945336  13.041806  -2.179973   0.697112  -0.958286  -0.979504
     3  C   -2.032029  -2.179973  14.706202  -4.167344  -0.271302  -0.710941
     4  C    0.195007   0.697112  -4.167344  10.113777  -0.423097   0.557022
     5  C    0.795377  -0.958286  -0.271302  -0.423097   6.896581  -0.586987
     6  C   -1.779240  -0.979504  -0.710941   0.557022  -0.586987   9.343590
     7  O   -0.023031   0.050878  -0.045947  -0.009194  -0.068808   0.053595
     8  C   -1.039125   0.001256   0.448554  -0.807449   0.099547  -0.381700
     9  O   -0.004489  -0.183119   0.003045   0.112637   0.002262  -0.001559
    10  O   -0.145059  -0.143546   0.027774   0.057842   0.002436   0.024408
    11  O    0.228279  -0.412456   0.094638  -0.020779   0.061825   0.199508
    12  H   -0.001340   0.070382   0.104774   0.124598   0.016188  -0.000276
    13  H   -0.021859   0.018232  -0.029911   0.071677   0.169114   0.115130
    14  H    0.090519  -0.012350  -0.009648  -0.016039   0.136462   0.124715
    15  H   -0.005905  -0.007431   0.129728  -0.019152  -0.088703  -0.002524
    16  H   -0.003150   0.047210  -0.011963  -0.011172  -0.000647   0.006295
    17  H    0.003159   0.199255  -0.014374   0.004653  -0.007558  -0.202065
               7          8          9         10         11         12
     1  C   -0.023031  -1.039125  -0.004489  -0.145059   0.228279  -0.001340
     2  C    0.050878   0.001256  -0.183119  -0.143546  -0.412456   0.070382
     3  C   -0.045947   0.448554   0.003045   0.027774   0.094638   0.104774
     4  C   -0.009194  -0.807449   0.112637   0.057842  -0.020779   0.124598
     5  C   -0.068808   0.099547   0.002262   0.002436   0.061825   0.016188
     6  C    0.053595  -0.381700  -0.001559   0.024408   0.199508  -0.000276
     7  O    8.381417  -0.005415   0.000307   0.000090   0.000345  -0.006635
     8  C   -0.005415   6.450703   0.068622   0.474060  -0.182191   0.009107
     9  O    0.000307   0.068622   8.442426  -0.159764   0.000008  -0.000313
    10  O    0.000090   0.474060  -0.159764   8.303266  -0.005357  -0.000173
    11  O    0.000345  -0.182191   0.000008  -0.005357   8.345446  -0.000353
    12  H   -0.006635   0.009107  -0.000313  -0.000173  -0.000353   0.487478
    13  H   -0.013936   0.001348   0.000006   0.000008  -0.000513  -0.000144
    14  H   -0.000554   0.012556   0.000019  -0.000003  -0.017512   0.000011
    15  H    0.205671   0.002635   0.000016   0.000000  -0.000008  -0.000067
    16  H   -0.000001   0.012420   0.190992   0.006949   0.000126   0.000137
    17  H   -0.000007   0.032057   0.000008   0.001144   0.170601   0.000004
              13         14         15         16         17
     1  C   -0.021859   0.090519  -0.005905  -0.003150   0.003159
     2  C    0.018232  -0.012350  -0.007431   0.047210   0.199255
     3  C   -0.029911  -0.009648   0.129728  -0.011963  -0.014374
     4  C    0.071677  -0.016039  -0.019152  -0.011172   0.004653
     5  C    0.169114   0.136462  -0.088703  -0.000647  -0.007558
     6  C    0.115130   0.124715  -0.002524   0.006295  -0.202065
     7  O   -0.013936  -0.000554   0.205671  -0.000001  -0.000007
     8  C    0.001348   0.012556   0.002635   0.012420   0.032057
     9  O    0.000006   0.000019   0.000016   0.190992   0.000008
    10  O    0.000008  -0.000003   0.000000   0.006949   0.001144
    11  O   -0.000513  -0.017512  -0.000008   0.000126   0.170601
    12  H   -0.000144   0.000011  -0.000067   0.000137   0.000004
    13  H    0.543367  -0.004843   0.006052  -0.000000  -0.000020
    14  H   -0.004843   0.545069  -0.000009  -0.000000   0.008746
    15  H    0.006052  -0.000009   0.417500   0.000000   0.000000
    16  H   -0.000000  -0.000000   0.000000   0.371734  -0.000000
    17  H   -0.000020   0.008746   0.000000  -0.000000   0.434076
 Mulliken charges:
               1
     1  C   -1.157437
     2  C    0.695870
     3  C   -0.041283
     4  C   -0.460097
     5  C    0.225595
     6  C    0.220533
     7  O   -0.518774
     8  C    0.803015
     9  O   -0.471103
    10  O   -0.444077
    11  O   -0.461608
    12  H    0.196623
    13  H    0.146294
    14  H    0.142861
    15  H    0.362197
    16  H    0.391070
    17  H    0.370320
 Sum of Mulliken charges =  -0.00000
 Mulliken charges with hydrogens summed into heavy atoms:
               1
     1  C   -1.157437
     2  C    0.695870
     3  C    0.155339
     4  C   -0.460097
     5  C    0.371889
     6  C    0.363394
     7  O   -0.156578
     8  C    0.803015
     9  O   -0.080032
    10  O   -0.444077
    11  O   -0.091288
 Electronic spatial extent (au):  <R**2>=           1734.8152
 Charge=              0.0000 electrons
 Dipole moment (field-independent basis, Debye):
    X=             -3.7275    Y=              1.7778    Z=              0.0011  Tot=              4.1298
 Quadrupole moment (field-independent basis, Debye-Ang):
   XX=            -57.6386   YY=            -52.6322   ZZ=            -65.2902
   XY=            -10.1013   XZ=             -0.0019   YZ=              0.0000
 Traceless Quadrupole moment (field-independent basis, Debye-Ang):
   XX=              0.8817   YY=              5.8881   ZZ=             -6.7699
   XY=            -10.1013   XZ=             -0.0019   YZ=              0.0000
 Octapole moment (field-independent basis, Debye-Ang**2):
  XXX=            -61.4303  YYY=             33.9850  ZZZ=             -0.0005  XYY=             23.7718
  XXY=            -20.1731  XXZ=              0.0169  XZZ=              7.9857  YZZ=             -3.0711
  YYZ=             -0.0002  XYZ=              0.0059
 Hexadecapole moment (field-independent basis, Debye-Ang**3):
 XXXX=          -1127.2525 YYYY=           -591.9610 ZZZZ=            -67.2827 XXXY=            -75.0784
 XXXZ=             -0.0372 YYYX=            -25.7789 YYYZ=              0.0084 ZZZX=             -0.0023
 ZZZY=              0.0003 XXYY=           -313.5735 XXZZ=           -243.1852 YYZZ=           -143.9986
 XXYZ=             -0.0135 YYXZ=             -0.0074 ZZXY=              4.0120
 N-N= 5.918057319396D+02 E-N=-2.518977875781D+03  KE= 5.660281488734D+02
 R6APFD:  NTU= -4 IXU= 1 FactS= 1.050
 Calling FoFJK, ICntrl=      2127 FMM=F ISym2X=0 I1Cent= 0 IOpClX= 0 NMat=1 NMatS=1 NMatT=0.
 ***** Axes restored to original set *****
 -------------------------------------------------------------------
 Center     Atomic                   Forces (Hartrees/Bohr)
 Number     Number              X              Y              Z
 -------------------------------------------------------------------
      1        6           0.004236753    0.005084948    0.000000948
      2        6           0.001941951   -0.003453929    0.000012896
      3        6           0.000523758   -0.001777219    0.000001164
      4        6          -0.005788383   -0.003941218   -0.000002142
      5        6          -0.001337426    0.003121057    0.000001058
      6        6          -0.001639496    0.001514946   -0.000000858
      7        8           0.000783230   -0.000667134    0.000003402
      8        6          -0.002516490   -0.002064829   -0.000043708
      9        8          -0.001010095   -0.003302362    0.000013832
     10        8           0.005525447    0.005553149    0.000015120
     11        8           0.000811272   -0.000432907    0.000000818
     12        1           0.000131040   -0.001244142    0.000000066
     13        1          -0.001113906    0.000646808    0.000000096
     14        1          -0.000510180    0.001248179   -0.000000143
     15        1           0.001620413    0.000197262   -0.000002772
     16        1          -0.001266021    0.000981372    0.000000412
     17        1          -0.000391868   -0.001463979   -0.000000189
 -------------------------------------------------------------------
 Cartesian Forces:  Max     0.005788383 RMS     0.002109076

 GradGradGradGradGradGradGradGradGradGradGradGradGradGradGradGradGradGrad
 Berny optimization.
 FormGI is forming the generalized inverse of G from B-inverse, IUseBI=4.
 Internal  Forces:  Max     0.007609893 RMS     0.001696054
 Search for a local minimum.
 Step number   1 out of a maximum of   85
 All quantities printed in internal units (Hartrees-Bohrs-Radians)
 Mixed Optimization -- RFO/linear search
 Second derivative matrix not updated -- first step.
 ITU=  0
     Eigenvalues ---    0.00975   0.01367   0.01733   0.02070   0.02109
     Eigenvalues ---    0.02129   0.02186   0.02197   0.02207   0.02220
     Eigenvalues ---    0.02232   0.02248   0.02261   0.02278   0.16000
     Eigenvalues ---    0.16000   0.16000   0.16000   0.16000   0.16000
     Eigenvalues ---    0.22369   0.23488   0.24602   0.25000   0.25000
     Eigenvalues ---    0.25000   0.25000   0.25000   0.34093   0.35193
     Eigenvalues ---    0.35213   0.35765   0.42034   0.42646   0.45660
     Eigenvalues ---    0.46576   0.47256   0.47870   0.51276   0.53483
     Eigenvalues ---    0.53560   0.53826   0.54512   0.54678   1.00924
 RFO step:  Lambda=-4.78485594D-04 EMin= 9.74896829D-03
 Linear search not attempted -- first point.
 Iteration  1 RMS(Cart)=  0.00678030 RMS(Int)=  0.00001704
 Iteration  2 RMS(Cart)=  0.00002288 RMS(Int)=  0.00000111
 Iteration  3 RMS(Cart)=  0.00000000 RMS(Int)=  0.00000111
 Variable       Old X    -DE/DX   Delta X   Delta X   Delta X     New X
                                 (Linear)    (Quad)   (Total)
    R1        2.65639   0.00391   0.00000   0.00863   0.00863   2.66502
    R2        2.63461   0.00462   0.00000   0.00991   0.00991   2.64452
    R3        2.56191  -0.00088   0.00000  -0.00163  -0.00163   2.56027
    R4        2.64237   0.00316   0.00000   0.00677   0.00677   2.64913
    R5        2.80474   0.00024   0.00000   0.00071   0.00071   2.80545
    R6        2.61712   0.00362   0.00000   0.00749   0.00749   2.62461
    R7        2.04451   0.00125   0.00000   0.00349   0.00349   2.04800
    R8        2.62925   0.00567   0.00000   0.01213   0.01213   2.64138
    R9        2.58599  -0.00146   0.00000  -0.00285  -0.00285   2.58315
   R10        2.62171   0.00317   0.00000   0.00673   0.00673   2.62845
   R11        2.05362   0.00127   0.00000   0.00361   0.00361   2.05723
   R12        2.05331   0.00132   0.00000   0.00374   0.00374   2.05704
   R13        1.82119  -0.00135   0.00000  -0.00247  -0.00247   1.81873
   R14        2.56435   0.00231   0.00000   0.00431   0.00431   2.56866
   R15        2.28271   0.00761   0.00000   0.00754   0.00754   2.29025
   R16        1.83206  -0.00149   0.00000  -0.00278  -0.00278   1.82928
   R17        1.82268  -0.00125   0.00000  -0.00228  -0.00228   1.82039
    A1        2.07599  -0.00051   0.00000  -0.00229  -0.00229   2.07370
    A2        2.09344  -0.00118   0.00000  -0.00460  -0.00460   2.08885
    A3        2.11375   0.00169   0.00000   0.00689   0.00689   2.12064
    A4        2.08176   0.00060   0.00000   0.00197   0.00197   2.08373
    A5        2.11828  -0.00190   0.00000  -0.00737  -0.00737   2.11091
    A6        2.08315   0.00130   0.00000   0.00540   0.00540   2.08855
    A7        2.11562   0.00027   0.00000   0.00097   0.00097   2.11659
    A8        2.08795  -0.00006   0.00000  -0.00004  -0.00004   2.08792
    A9        2.07961  -0.00021   0.00000  -0.00093  -0.00093   2.07868
   A10        2.08451  -0.00060   0.00000  -0.00227  -0.00227   2.08225
   A11        2.05220  -0.00140   0.00000  -0.00565  -0.00565   2.04655
   A12        2.14647   0.00200   0.00000   0.00792   0.00792   2.15439
   A13        2.09327   0.00011   0.00000   0.00087   0.00088   2.09414
   A14        2.10184   0.00016   0.00000   0.00089   0.00089   2.10273
   A15        2.08808  -0.00027   0.00000  -0.00177  -0.00177   2.08631
   A16        2.11522   0.00013   0.00000   0.00075   0.00075   2.11596
   A17        2.08150   0.00023   0.00000   0.00146   0.00146   2.08296
   A18        2.08647  -0.00036   0.00000  -0.00221  -0.00221   2.08426
   A19        1.92770  -0.00167   0.00000  -0.01041  -0.01041   1.91729
   A20        1.95903  -0.00179   0.00000  -0.00714  -0.00714   1.95189
   A21        2.21052  -0.00122   0.00000  -0.00486  -0.00486   2.20567
   A22        2.11363   0.00300   0.00000   0.01199   0.01199   2.12563
   A23        1.85152  -0.00110   0.00000  -0.00683  -0.00683   1.84470
   A24        1.91272  -0.00157   0.00000  -0.00980  -0.00980   1.90291
    D1       -0.00001  -0.00000   0.00000  -0.00003  -0.00003  -0.00004
    D2        3.14158  -0.00000   0.00000  -0.00004  -0.00004   3.14154
    D3        3.14157  -0.00000   0.00000  -0.00002  -0.00002   3.14155
    D4       -0.00003  -0.00000   0.00000  -0.00003  -0.00003  -0.00006
    D5       -0.00002   0.00000   0.00000   0.00001   0.00001  -0.00001
    D6        3.14159   0.00000   0.00000   0.00001   0.00001  -3.14158
    D7        3.14159   0.00000   0.00000   0.00001   0.00001  -3.14159
    D8        0.00001   0.00000   0.00000   0.00000   0.00000   0.00002
    D9       -3.14155  -0.00000   0.00000  -0.00001  -0.00001  -3.14156
   D10        0.00003  -0.00000   0.00000  -0.00000  -0.00000   0.00002
   D11        0.00002   0.00000   0.00000   0.00003   0.00003   0.00005
   D12       -3.14157   0.00000   0.00000   0.00001   0.00001  -3.14156
   D13       -3.14157   0.00000   0.00000   0.00004   0.00004  -3.14153
   D14        0.00002   0.00000   0.00000   0.00002   0.00002   0.00004
   D15        3.14152  -0.00001   0.00000  -0.00080  -0.00080   3.14073
   D16       -0.00040   0.00001   0.00000   0.00079   0.00079   0.00039
   D17       -0.00007  -0.00001   0.00000  -0.00081  -0.00080  -0.00088
   D18        3.14119   0.00001   0.00000   0.00078   0.00078  -3.14122
   D19       -0.00001  -0.00000   0.00000  -0.00002  -0.00002  -0.00002
   D20        3.14153  -0.00000   0.00000  -0.00001  -0.00001   3.14152
   D21        3.14159   0.00000   0.00000   0.00001   0.00001   3.14159
   D22       -0.00006   0.00000   0.00000   0.00001   0.00001  -0.00004
   D23       -0.00002   0.00000   0.00000   0.00000   0.00000  -0.00002
   D24        3.14157   0.00000   0.00000   0.00001   0.00001   3.14157
   D25       -3.14156  -0.00000   0.00000  -0.00001  -0.00001  -3.14156
   D26        0.00003   0.00000   0.00000  -0.00000  -0.00000   0.00003
   D27        3.14104   0.00000   0.00000   0.00009   0.00009   3.14113
   D28       -0.00061   0.00000   0.00000   0.00010   0.00010  -0.00051
   D29        0.00003  -0.00000   0.00000  -0.00000  -0.00000   0.00003
   D30       -3.14158   0.00000   0.00000   0.00000   0.00000  -3.14157
   D31       -3.14155  -0.00000   0.00000  -0.00001  -0.00001  -3.14156
   D32        0.00002  -0.00000   0.00000  -0.00000  -0.00000   0.00002
   D33        3.14140   0.00001   0.00000   0.00075   0.00076  -3.14102
   D34        0.00012  -0.00001   0.00000  -0.00073  -0.00074  -0.00062
         Item               Value     Threshold  Converged?
 Maximum Force            0.007610     0.000450     NO 
 RMS     Force            0.001696     0.000300     NO 
 Maximum Displacement     0.026696     0.001800     NO 
 RMS     Displacement     0.006780     0.001200     NO 
 Predicted change in Energy=-2.395684D-04
 GradGradGradGradGradGradGradGradGradGradGradGradGradGradGradGradGradGrad

                          Input orientation:                          
 ---------------------------------------------------------------------
 Center     Atomic      Atomic             Coordinates (Angstroms)
 Number     Number       Type             X           Y           Z
 ---------------------------------------------------------------------
      1          6           0        0.235680    1.270328   -0.000076
      2          6           0        0.464123   -0.121316   -0.000260
      3          6           0       -0.629764   -0.998029   -0.000223
      4          6           0       -1.934747   -0.522609   -0.000069
      5          6           0       -2.160309    0.856829    0.000081
      6          6           0       -1.083537    1.737284    0.000096
      7          8           0       -2.938944   -1.450036   -0.000127
      8          6           0        1.844224   -0.668403   -0.000509
      9          8           0        1.849235   -2.027669    0.000432
     10          8           0        2.872004   -0.026156   -0.000201
     11          8           0        1.288526    2.123032   -0.000057
     12          1           0       -0.458693   -2.068196   -0.000338
     13          1           0       -3.175336    1.250348    0.000186
     14          1           0       -1.269802    2.809769    0.000231
     15          1           0       -3.793223   -1.006777    0.000415
     16          1           0        2.782123   -2.286069    0.000717
     17          1           0        0.959444    3.028391    0.000108
 ---------------------------------------------------------------------
                    Distance matrix (angstroms):
                    1          2          3          4          5
     1  C    0.000000
     2  C    1.410269   0.000000
     3  C    2.427847   1.401861   0.000000
     4  C    2.815205   2.432203   1.388886   0.000000
     5  C    2.431409   2.800787   2.404801   1.397758   0.000000
     6  C    1.399422   2.418604   2.772697   2.414887   1.390914
     7  O    4.180744   3.653267   2.353003   1.366943   2.434727
     8  C    2.519145   1.484582   2.495850   3.781782   4.285163
     9  O    3.671559   2.356421   2.684324   4.072312   4.939309
    10  O    2.937869   2.409761   3.634132   4.832321   5.109192
    11  O    1.354839   2.390970   3.663449   4.170001   3.673926
    12  H    3.409970   2.154514   1.083754   2.137188   3.383972
    13  H    3.411075   3.889360   3.396342   2.163894   1.088640
    14  H    2.153219   3.405547   3.861214   3.398072   2.146387
    15  H    4.627880   4.348452   3.163471   1.920508   2.477789
    16  H    4.374052   3.171637   3.646919   5.035738   5.857085
    17  H    1.901214   3.188416   4.328699   4.581042   3.801124
                    6          7          8          9         10
     6  C    0.000000
     7  O    3.688028   0.000000
     8  C    3.789342   4.846612   0.000000
     9  O    4.772423   4.822895   1.359275   0.000000
    10  O    4.330823   5.982855   1.211946   2.247690   0.000000
    11  O    2.403223   5.535189   2.846210   4.188403   2.669535
    12  H    3.856437   2.556123   2.694967   2.308284   3.906849
    13  H    2.147728   2.710711   5.373787   5.999309   6.180598
    14  H    1.088539   4.575147   4.668494   5.755797   5.019664
    15  H    3.856459   0.962430   5.647593   5.734069   6.736978
    16  H    5.579489   5.781830   1.869892   0.968014   2.261700
    17  H    2.416759   5.937486   3.801200   5.133757   3.603906
                   11         12         13         14         15
    11  O    0.000000
    12  H    4.540833   0.000000
    13  H    4.548367   4.288692   0.000000
    14  H    2.648895   4.944940   2.462287   0.000000
    15  H    5.968239   3.499385   2.340170   4.575334   0.000000
    16  H    4.655213   3.248132   6.928027   6.510427   6.698639
    17  H    0.963311   5.290208   4.500872   2.239940   6.234615
                   16         17
    16  H    0.000000
    17  H    5.618331   0.000000
 Stoichiometry    C7H6O4
 Framework group  C1[X(C7H6O4)]
 Deg. of freedom    45
 Full point group                 C1      NOp   1
 Largest Abelian subgroup         C1      NOp   1
 Largest concise Abelian subgroup C1      NOp   1
                         Standard orientation:                         
 ---------------------------------------------------------------------
 Center     Atomic      Atomic             Coordinates (Angstroms)
 Number     Number       Type             X           Y           Z
 ---------------------------------------------------------------------
      1          6           0        0.241511    1.269108   -0.000025
      2          6           0        0.463216   -0.123626   -0.000209
      3          6           0       -0.634901   -0.995035   -0.000173
      4          6           0       -1.937568   -0.513306   -0.000019
      5          6           0       -2.156451    0.867208    0.000132
      6          6           0       -1.075431    1.742442    0.000147
      7          8           0       -2.946241   -1.435862   -0.000076
      8          6           0        1.840654   -0.677386   -0.000458
      9          8           0        1.839087   -2.036659    0.000483
     10          8           0        2.871530   -0.040120   -0.000150
     11          8           0        1.298471    2.116707   -0.000006
     12          1           0       -0.469011   -2.066017   -0.000288
     13          1           0       -3.169562    1.265634    0.000237
     14          1           0       -1.256503    2.815816    0.000282
     15          1           0       -3.798365   -0.988474    0.000465
     16          1           0        2.770713   -2.299571    0.000768
     17          1           0        0.973774    3.023647    0.000159
 ---------------------------------------------------------------------
 Rotational constants (GHZ):      1.7682972      0.9181043      0.6043331
 Standard basis: 6-31+G(d,p) (6D, 7F)
 There are   239 symmetry adapted cartesian basis functions of A   symmetry.
 There are   239 symmetry adapted basis functions of A   symmetry.
   239 basis functions,   394 primitive gaussians,   239 cartesian basis functions
    40 alpha electrons       40 beta electrons
       nuclear repulsion energy       591.0382273367 Hartrees.
 NAtoms=   17 NActive=   17 NUniq=   17 SFac= 1.00D+00 NAtFMM=   60 NAOKFM=F Big=F
 Integral buffers will be    131072 words long.
 Raffenetti 2 integral format.
 Two-electron integral symmetry is turned on.
 R6APFD:  NTU= -4 IXU= 1 FactS= 1.050
 Nuclear repulsion after empirical dispersion term =      591.0271849520 Hartrees.
 One-electron integrals computed using PRISM.
 NBasis=   239 RedAO= T EigKep=  3.21D-06  NBF=   239
 NBsUse=   239 1.00D-06 EigRej= -1.00D+00 NBFU=   239
 Initial guess from the checkpoint file:  "lwAPFDDHB.chk"
 B after Tr=    -0.000000    0.000000    0.000000
         Rot=    0.999998    0.000006   -0.000004    0.002188 Ang=   0.25 deg.
 ExpMin= 4.38D-02 ExpMax= 5.48D+03 ExpMxC= 8.25D+02 IAcc=2 IRadAn=         4 AccDes= 0.00D+00
 Harris functional with IExCor= 3731 and IRadAn=       4 diagonalized for initial guess.
 HarFok:  IExCor= 3731 AccDes= 0.00D+00 IRadAn=         4 IDoV= 1 UseB2=F ITyADJ=14
 ICtDFT=  3500011 ScaDFX=  1.000000  1.000000  1.000000  1.000000
 FoFCou: FMM=F IPFlag=           0 FMFlag=      100000 FMFlg1=           0
         NFxFlg=           0 DoJE=T BraDBF=F KetDBF=T FulRan=T
         wScrn=  0.000000 ICntrl=     500 IOpCl=  0 I1Cent=   200000004 NGrid=           0
         NMat0=    1 NMatS0=      1 NMatT0=    0 NMatD0=    1 NMtDS0=    0 NMtDT0=    0
 Petite list used in FoFCou.
 Keep R1 ints in memory in canonical form, NReq=418393415.
 Requested convergence on RMS density matrix=1.00D-08 within 128 cycles.
 Requested convergence on MAX density matrix=1.00D-06.
 Requested convergence on             energy=1.00D-06.
 No special actions if energy rises.
 SCF Done:  E(RAPFD) =  -570.845593131     A.U. after   11 cycles
            NFock= 11  Conv=0.51D-08     -V/T= 2.0087
 R6APFD:  NTU= -4 IXU= 1 FactS= 1.050
 Calling FoFJK, ICntrl=      2127 FMM=F ISym2X=0 I1Cent= 0 IOpClX= 0 NMat=1 NMatS=1 NMatT=0.
 ***** Axes restored to original set *****
 -------------------------------------------------------------------
 Center     Atomic                   Forces (Hartrees/Bohr)
 Number     Number              X              Y              Z
 -------------------------------------------------------------------
      1        6           0.000457657    0.000585039   -0.000003706
      2        6          -0.000625989   -0.000967103   -0.000050831
      3        6           0.000515587    0.000924907   -0.000005732
      4        6          -0.000347479   -0.000346535    0.000001814
      5        6           0.000402300   -0.000326552    0.000000697
      6        6          -0.000353349   -0.000631587    0.000003013
      7        8           0.000583476    0.000811274    0.000003213
      8        6          -0.001256077    0.000729648    0.000178365
      9        8           0.000876751    0.000447431   -0.000053430
     10        8           0.000347906   -0.001094731   -0.000067415
     11        8          -0.000376827   -0.000093023   -0.000002502
     12        1          -0.000073079    0.000067399   -0.000001120
     13        1           0.000077966    0.000028109   -0.000000269
     14        1          -0.000125670   -0.000057708    0.000000293
     15        1          -0.000394375   -0.000077270   -0.000001834
     16        1           0.000278123   -0.000389262   -0.000000726
     17        1           0.000013077    0.000389962    0.000000170
 -------------------------------------------------------------------
 Cartesian Forces:  Max     0.001256077 RMS     0.000447243

 GradGradGradGradGradGradGradGradGradGradGradGradGradGradGradGradGradGrad
 Berny optimization.
 Using GEDIIS/GDIIS optimizer.
 FormGI is forming the generalized inverse of G from B-inverse, IUseBI=4.
 Internal  Forces:  Max     0.001652479 RMS     0.000352970
 Search for a local minimum.
 Step number   2 out of a maximum of   85
 All quantities printed in internal units (Hartrees-Bohrs-Radians)
 Mixed Optimization -- En-DIIS/RFO-DIIS
 Update second derivatives using D2CorX and points    1    2
 DE= -2.03D-04 DEPred=-2.40D-04 R= 8.49D-01
 TightC=F SS=  1.41D+00  RLast= 3.69D-02 DXNew= 5.0454D-01 1.1065D-01
 Trust test= 8.49D-01 RLast= 3.69D-02 DXMaxT set to 3.00D-01
 ITU=  1  0
 Use linear search instead of GDIIS.
     Eigenvalues ---    0.00975   0.01374   0.01734   0.02070   0.02109
     Eigenvalues ---    0.02130   0.02186   0.02197   0.02207   0.02220
     Eigenvalues ---    0.02232   0.02248   0.02261   0.02278   0.15886
     Eigenvalues ---    0.16000   0.16000   0.16000   0.16000   0.16381
     Eigenvalues ---    0.22294   0.23300   0.24398   0.24849   0.25000
     Eigenvalues ---    0.25000   0.25000   0.28522   0.34013   0.35202
     Eigenvalues ---    0.35208   0.35779   0.41029   0.42495   0.45351
     Eigenvalues ---    0.46815   0.47692   0.48849   0.51397   0.53470
     Eigenvalues ---    0.53762   0.53818   0.54595   0.55343   1.00450
 RFO step:  Lambda=-1.85303497D-05 EMin= 9.74896943D-03
 Quartic linear search produced a step of -0.12698.
 Iteration  1 RMS(Cart)=  0.00250471 RMS(Int)=  0.00000425
 Iteration  2 RMS(Cart)=  0.00000431 RMS(Int)=  0.00000206
 Iteration  3 RMS(Cart)=  0.00000000 RMS(Int)=  0.00000206
 Variable       Old X    -DE/DX   Delta X   Delta X   Delta X     New X
                                 (Linear)    (Quad)   (Total)
    R1        2.66502   0.00070  -0.00110   0.00287   0.00178   2.66680
    R2        2.64452   0.00003  -0.00126   0.00174   0.00048   2.64500
    R3        2.56027  -0.00009   0.00021  -0.00042  -0.00021   2.56006
    R4        2.64913  -0.00065  -0.00086  -0.00010  -0.00096   2.64818
    R5        2.80545   0.00034  -0.00009   0.00099   0.00090   2.80635
    R6        2.62461  -0.00009  -0.00095   0.00103   0.00007   2.62469
    R7        2.04800  -0.00008  -0.00044   0.00038  -0.00006   2.04793
    R8        2.64138  -0.00082  -0.00154   0.00039  -0.00115   2.64023
    R9        2.58315  -0.00064   0.00036  -0.00155  -0.00119   2.58195
   R10        2.62845  -0.00062  -0.00086  -0.00007  -0.00092   2.62752
   R11        2.05723  -0.00006  -0.00046   0.00044  -0.00002   2.05721
   R12        2.05704  -0.00004  -0.00047   0.00052   0.00005   2.05709
   R13        1.81873   0.00032   0.00031   0.00010   0.00041   1.81914
   R14        2.56866  -0.00005  -0.00055   0.00063   0.00008   2.56874
   R15        2.29025  -0.00029  -0.00096   0.00100   0.00004   2.29029
   R16        1.82928   0.00037   0.00035   0.00015   0.00050   1.82978
   R17        1.82039   0.00036   0.00029   0.00020   0.00049   1.82089
    A1        2.07370  -0.00042   0.00029  -0.00162  -0.00133   2.07237
    A2        2.08885   0.00066   0.00058   0.00145   0.00203   2.09088
    A3        2.12064  -0.00024  -0.00087   0.00017  -0.00070   2.11994
    A4        2.08373  -0.00027  -0.00025  -0.00044  -0.00069   2.08304
    A5        2.11091   0.00049   0.00094   0.00042   0.00136   2.11227
    A6        2.08855  -0.00022  -0.00069   0.00001  -0.00067   2.08788
    A7        2.11659   0.00038  -0.00012   0.00158   0.00145   2.11805
    A8        2.08792  -0.00013   0.00000  -0.00037  -0.00036   2.08756
    A9        2.07868  -0.00025   0.00012  -0.00121  -0.00109   2.07758
   A10        2.08225  -0.00010   0.00029  -0.00102  -0.00074   2.08151
   A11        2.04655   0.00036   0.00072   0.00049   0.00121   2.04776
   A12        2.15439  -0.00026  -0.00101   0.00054  -0.00047   2.15392
   A13        2.09414   0.00009  -0.00011   0.00017   0.00006   2.09420
   A14        2.10273   0.00001  -0.00011   0.00045   0.00033   2.10306
   A15        2.08631  -0.00010   0.00022  -0.00061  -0.00039   2.08592
   A16        2.11596   0.00031  -0.00009   0.00134   0.00124   2.11720
   A17        2.08296  -0.00002  -0.00019   0.00037   0.00018   2.08314
   A18        2.08426  -0.00029   0.00028  -0.00170  -0.00142   2.08284
   A19        1.91729   0.00045   0.00132   0.00079   0.00211   1.91940
   A20        1.95189   0.00075   0.00091   0.00147   0.00237   1.95426
   A21        2.20567   0.00090   0.00062   0.00235   0.00296   2.20863
   A22        2.12563  -0.00165  -0.00152  -0.00382  -0.00534   2.12028
   A23        1.84470   0.00055   0.00087   0.00192   0.00279   1.84749
   A24        1.90291   0.00027   0.00124  -0.00012   0.00112   1.90404
    D1       -0.00004   0.00000   0.00000   0.00010   0.00011   0.00007
    D2        3.14154   0.00000   0.00000   0.00013   0.00013  -3.14151
    D3        3.14155   0.00000   0.00000   0.00008   0.00009  -3.14155
    D4       -0.00006   0.00000   0.00000   0.00011   0.00011   0.00005
    D5       -0.00001  -0.00000  -0.00000  -0.00005  -0.00005  -0.00005
    D6       -3.14158  -0.00000  -0.00000  -0.00003  -0.00004   3.14156
    D7       -3.14159  -0.00000  -0.00000  -0.00002  -0.00003   3.14157
    D8        0.00002  -0.00000  -0.00000  -0.00001  -0.00001   0.00000
    D9       -3.14156   0.00000   0.00000   0.00001   0.00001  -3.14154
   D10        0.00002  -0.00000   0.00000  -0.00001  -0.00001   0.00002
   D11        0.00005  -0.00000  -0.00000  -0.00011  -0.00011  -0.00006
   D12       -3.14156  -0.00000  -0.00000  -0.00004  -0.00004   3.14158
   D13       -3.14153  -0.00000  -0.00001  -0.00013  -0.00014   3.14152
   D14        0.00004  -0.00000  -0.00000  -0.00007  -0.00007  -0.00003
   D15        3.14073   0.00004   0.00010   0.00281   0.00291  -3.13954
   D16        0.00039  -0.00004  -0.00010  -0.00263  -0.00274  -0.00235
   D17       -0.00088   0.00005   0.00010   0.00283   0.00294   0.00206
   D18       -3.14122  -0.00004  -0.00010  -0.00261  -0.00271   3.13925
   D19       -0.00002   0.00000   0.00000   0.00005   0.00005   0.00003
   D20        3.14152   0.00000   0.00000   0.00006   0.00006   3.14158
   D21        3.14159  -0.00000  -0.00000  -0.00002  -0.00002   3.14158
   D22       -0.00004  -0.00000  -0.00000  -0.00001  -0.00001  -0.00006
   D23       -0.00002   0.00000  -0.00000   0.00001   0.00001  -0.00001
   D24        3.14157  -0.00000  -0.00000  -0.00001  -0.00001   3.14157
   D25       -3.14156   0.00000   0.00000   0.00000   0.00001  -3.14156
   D26        0.00003  -0.00000   0.00000  -0.00001  -0.00001   0.00002
   D27        3.14113   0.00000  -0.00001   0.00008   0.00007   3.14119
   D28       -0.00051   0.00000  -0.00001   0.00008   0.00007  -0.00044
   D29        0.00003  -0.00000   0.00000  -0.00001  -0.00001   0.00002
   D30       -3.14157  -0.00000  -0.00000  -0.00002  -0.00002   3.14159
   D31       -3.14156   0.00000   0.00000   0.00000   0.00001  -3.14155
   D32        0.00002  -0.00000   0.00000  -0.00001  -0.00001   0.00001
   D33       -3.14102  -0.00004  -0.00010  -0.00261  -0.00270   3.13946
   D34       -0.00062   0.00004   0.00009   0.00255   0.00263   0.00201
         Item               Value     Threshold  Converged?
 Maximum Force            0.001652     0.000450     NO 
 RMS     Force            0.000353     0.000300     NO 
 Maximum Displacement     0.011010     0.001800     NO 
 RMS     Displacement     0.002504     0.001200     NO 
 Predicted change in Energy=-1.352361D-05
 GradGradGradGradGradGradGradGradGradGradGradGradGradGradGradGradGradGrad

                          Input orientation:                          
 ---------------------------------------------------------------------
 Center     Atomic      Atomic             Coordinates (Angstroms)
 Number     Number       Type             X           Y           Z
 ---------------------------------------------------------------------
      1          6           0        0.235967    1.271726    0.000356
      2          6           0        0.464665   -0.120829    0.000868
      3          6           0       -0.629364   -0.996555    0.000715
      4          6           0       -1.934784   -0.522220    0.000143
      5          6           0       -2.160393    0.856593   -0.000324
      6          6           0       -1.084142    1.736914   -0.000204
      7          8           0       -2.938855   -1.448852    0.000021
      8          6           0        1.844505   -0.669865    0.001580
      9          8           0        1.850995   -2.029164   -0.000587
     10          8           0        2.875023   -0.031982   -0.000494
     11          8           0        1.286926    2.126574    0.000450
     12          1           0       -0.458569   -2.066731    0.001092
     13          1           0       -3.175320    1.250339   -0.000800
     14          1           0       -1.272112    2.809128   -0.000575
     15          1           0       -3.794101   -1.006986   -0.000024
     16          1           0        2.783696   -2.289223   -0.001912
     17          1           0        0.956866    3.031853    0.000098
 ---------------------------------------------------------------------
                    Distance matrix (angstroms):
                    1          2          3          4          5
     1  C    0.000000
     2  C    1.411209   0.000000
     3  C    2.427735   1.401355   0.000000
     4  C    2.816097   2.432791   1.388926   0.000000
     5  C    2.432052   2.801122   2.403791   1.397149   0.000000
     6  C    1.399674   2.418680   2.771043   2.413976   1.390425
     7  O    4.181033   3.653436   2.353364   1.366311   2.433328
     8  C    2.521343   1.485059   2.495347   3.782173   4.285941
     9  O    3.674805   2.358740   2.686720   4.074678   4.941541
    10  O    2.943513   2.411995   3.634712   4.834726   5.113216
    11  O    1.354725   2.393101   3.664164   4.170794   3.673807
    12  H    3.409938   2.153810   1.083720   2.136522   3.382608
    13  H    3.411354   3.889677   3.395647   2.163537   1.088628
    14  H    2.153580   3.406031   3.859579   3.396618   2.145096
    15  H    4.629684   4.349984   3.164754   1.921473   2.478292
    16  H    4.378503   3.174878   3.649655   5.038488   5.860050
    17  H    1.902036   3.190872   4.329457   4.581820   3.801192
                    6          7          8          9         10
     6  C    0.000000
     7  O    3.686336   0.000000
     8  C    3.790721   4.846376   0.000000
     9  O    4.774764   4.824876   1.359317   0.000000
    10  O    4.336356   5.984037   1.211967   2.244408   0.000000
    11  O    2.402873   5.535422   2.851484   4.193845   2.679816
    12  H    3.854746   2.556090   2.693583   2.309870   3.905514
    13  H    2.147040   2.709529   5.374554   6.001581   6.184738
    14  H    1.088566   4.572574   4.670835   5.758721   5.026991
    15  H    3.856536   0.962648   5.648675   5.736894   6.740018
    16  H    5.583006   5.783928   1.872008   0.968279   2.259088
    17  H    2.417143   5.937454   3.806655   5.139393   3.614749
                   11         12         13         14         15
    11  O    0.000000
    12  H    4.542088   0.000000
    13  H    4.547464   4.287621   0.000000
    14  H    2.648501   4.943264   2.460086   0.000000
    15  H    5.969592   3.499833   2.340600   4.574184   0.000000
    16  H    4.662573   3.249891   6.930972   6.514812   6.701608
    17  H    0.963572   5.291410   4.499861   2.240078   6.235696
                   16         17
    16  H    0.000000
    17  H    5.625937   0.000000
 Stoichiometry    C7H6O4
 Framework group  C1[X(C7H6O4)]
 Deg. of freedom    45
 Full point group                 C1      NOp   1
 Largest Abelian subgroup         C1      NOp   1
 Largest concise Abelian subgroup C1      NOp   1
                         Standard orientation:                         
 ---------------------------------------------------------------------
 Center     Atomic      Atomic             Coordinates (Angstroms)
 Number     Number       Type             X           Y           Z
 ---------------------------------------------------------------------
      1          6           0        0.239095    1.271077    0.000208
      2          6           0        0.463656   -0.122151    0.000721
      3          6           0       -0.632970   -0.994624    0.000567
      4          6           0       -1.936975   -0.516413   -0.000005
      5          6           0       -2.158488    0.863064   -0.000471
      6          6           0       -1.079626    1.740184   -0.000351
      7          8           0       -2.943794   -1.440059   -0.000126
      8          6           0        1.841859   -0.675283    0.001433
      9          8           0        1.844311   -2.034596   -0.000734
     10          8           0        2.874267   -0.040465   -0.000642
     11          8           0        1.292589    2.122799    0.000302
     12          1           0       -0.465354   -2.065303    0.000944
     13          1           0       -3.172240    1.259822   -0.000947
     14          1           0       -1.264411    2.812952   -0.000723
     15          1           0       -3.797724   -0.995655   -0.000171
     16          1           0        2.776236   -2.297424   -0.002060
     17          1           0        0.965219    3.029055   -0.000049
 ---------------------------------------------------------------------
 Rotational constants (GHZ):      1.7661649      0.9175554      0.6038463
 Standard basis: 6-31+G(d,p) (6D, 7F)
 There are   239 symmetry adapted cartesian basis functions of A   symmetry.
 There are   239 symmetry adapted basis functions of A   symmetry.
   239 basis functions,   394 primitive gaussians,   239 cartesian basis functions
    40 alpha electrons       40 beta electrons
       nuclear repulsion energy       590.8895081328 Hartrees.
 NAtoms=   17 NActive=   17 NUniq=   17 SFac= 1.00D+00 NAtFMM=   60 NAOKFM=F Big=F
 Integral buffers will be    131072 words long.
 Raffenetti 2 integral format.
 Two-electron integral symmetry is turned on.
 R6APFD:  NTU= -4 IXU= 1 FactS= 1.050
 Nuclear repulsion after empirical dispersion term =      590.8784891158 Hartrees.
 One-electron integrals computed using PRISM.
 NBasis=   239 RedAO= T EigKep=  3.21D-06  NBF=   239
 NBsUse=   239 1.00D-06 EigRej= -1.00D+00 NBFU=   239
 Initial guess from the checkpoint file:  "lwAPFDDHB.chk"
 B after Tr=     0.000000   -0.000000    0.000000
         Rot=    1.000000   -0.000019    0.000010   -0.000839 Ang=  -0.10 deg.
 Keep R1 ints in memory in canonical form, NReq=418393415.
 Requested convergence on RMS density matrix=1.00D-08 within 128 cycles.
 Requested convergence on MAX density matrix=1.00D-06.
 Requested convergence on             energy=1.00D-06.
 No special actions if energy rises.
 SCF Done:  E(RAPFD) =  -570.845604580     A.U. after   10 cycles
            NFock= 10  Conv=0.72D-08     -V/T= 2.0087
 R6APFD:  NTU= -4 IXU= 1 FactS= 1.050
 Calling FoFJK, ICntrl=      2127 FMM=F ISym2X=0 I1Cent= 0 IOpClX= 0 NMat=1 NMatS=1 NMatT=0.
 ***** Axes restored to original set *****
 -------------------------------------------------------------------
 Center     Atomic                   Forces (Hartrees/Bohr)
 Number     Number              X              Y              Z
 -------------------------------------------------------------------
      1        6           0.000107644    0.000182373    0.000013033
      2        6          -0.000165116   -0.000341562    0.000175486
      3        6           0.000228660    0.000282339    0.000017733
      4        6          -0.000214352   -0.000173795   -0.000011710
      5        6           0.000139269   -0.000102327    0.000001149
      6        6           0.000079424   -0.000236240   -0.000010915
      7        8           0.000234293    0.000240037    0.000001546
      8        6          -0.000103284    0.000046303   -0.000619802
      9        8          -0.000201582   -0.000057243    0.000184314
     10        8          -0.000034772    0.000180776    0.000235505
     11        8          -0.000063149   -0.000145394    0.000008912
     12        1           0.000001514    0.000008550    0.000003208
     13        1           0.000053154    0.000008484    0.000001385
     14        1          -0.000000693   -0.000031883   -0.000001099
     15        1          -0.000052780   -0.000026865   -0.000001917
     16        1          -0.000021514    0.000111147    0.000003892
     17        1           0.000013284    0.000055300   -0.000000720
 -------------------------------------------------------------------
 Cartesian Forces:  Max     0.000619802 RMS     0.000156302

 GradGradGradGradGradGradGradGradGradGradGradGradGradGradGradGradGradGrad
 Berny optimization.
 Using GEDIIS/GDIIS optimizer.
 FormGI is forming the generalized inverse of G from B-inverse, IUseBI=4.
 Internal  Forces:  Max     0.000440480 RMS     0.000115676
 Search for a local minimum.
 Step number   3 out of a maximum of   85
 All quantities printed in internal units (Hartrees-Bohrs-Radians)
 Mixed Optimization -- En-DIIS/RFO-DIIS
 Swapping is turned off.
 Update second derivatives using D2CorX and points    1    2    3
 DE= -1.14D-05 DEPred=-1.35D-05 R= 8.47D-01
 TightC=F SS=  1.41D+00  RLast= 1.14D-02 DXNew= 5.0454D-01 3.4319D-02
 Trust test= 8.47D-01 RLast= 1.14D-02 DXMaxT set to 3.00D-01
 ITU=  1  1  0
     Eigenvalues ---    0.00975   0.01615   0.01734   0.02071   0.02109
     Eigenvalues ---    0.02130   0.02186   0.02197   0.02207   0.02220
     Eigenvalues ---    0.02232   0.02248   0.02261   0.02278   0.15649
     Eigenvalues ---    0.16000   0.16000   0.16000   0.16029   0.16404
     Eigenvalues ---    0.21297   0.22726   0.23897   0.24927   0.25000
     Eigenvalues ---    0.25000   0.25022   0.30245   0.35189   0.35201
     Eigenvalues ---    0.35750   0.37091   0.41864   0.43518   0.45494
     Eigenvalues ---    0.46864   0.47199   0.47899   0.50482   0.53532
     Eigenvalues ---    0.53699   0.53962   0.54579   0.54913   1.00443
 En-DIIS/RFO-DIIS IScMMF=        0 using points:     3    2
 RFO step:  Lambda=-2.24371383D-06.
 DidBck=F Rises=F RFO-DIIS coefs:    0.84829    0.15171
 Iteration  1 RMS(Cart)=  0.00282178 RMS(Int)=  0.00001268
 Iteration  2 RMS(Cart)=  0.00001548 RMS(Int)=  0.00000795
 Iteration  3 RMS(Cart)=  0.00000000 RMS(Int)=  0.00000795
 Variable       Old X    -DE/DX   Delta X   Delta X   Delta X     New X
                                 (Linear)    (Quad)   (Total)
    R1        2.66680  -0.00016  -0.00027   0.00071   0.00044   2.66724
    R2        2.64500  -0.00023  -0.00007  -0.00004  -0.00011   2.64489
    R3        2.56006  -0.00009   0.00003  -0.00027  -0.00024   2.55982
    R4        2.64818  -0.00035   0.00014  -0.00102  -0.00088   2.64730
    R5        2.80635  -0.00044  -0.00014  -0.00061  -0.00074   2.80561
    R6        2.62469  -0.00010  -0.00001  -0.00003  -0.00004   2.62465
    R7        2.04793  -0.00001   0.00001  -0.00000   0.00001   2.04794
    R8        2.64023  -0.00016   0.00017  -0.00068  -0.00051   2.63972
    R9        2.58195  -0.00028   0.00018  -0.00109  -0.00091   2.58105
   R10        2.62752  -0.00010   0.00014  -0.00054  -0.00040   2.62712
   R11        2.05721  -0.00005   0.00000  -0.00007  -0.00007   2.05714
   R12        2.05709  -0.00003  -0.00001   0.00000  -0.00000   2.05709
   R13        1.81914   0.00004  -0.00006   0.00023   0.00017   1.81931
   R14        2.56874  -0.00005  -0.00001   0.00002   0.00001   2.56874
   R15        2.29029   0.00006  -0.00001   0.00017   0.00017   2.29045
   R16        1.82978  -0.00005  -0.00008   0.00013   0.00006   1.82984
   R17        1.82089   0.00005  -0.00007   0.00028   0.00021   1.82110
    A1        2.07237  -0.00015   0.00020  -0.00123  -0.00103   2.07134
    A2        2.09088  -0.00001  -0.00031   0.00094   0.00063   2.09151
    A3        2.11994   0.00016   0.00011   0.00029   0.00040   2.12034
    A4        2.08304   0.00017   0.00010   0.00022   0.00032   2.08336
    A5        2.11227  -0.00024  -0.00021  -0.00022  -0.00042   2.11184
    A6        2.08788   0.00007   0.00010  -0.00000   0.00010   2.08798
    A7        2.11805   0.00000  -0.00022   0.00073   0.00051   2.11856
    A8        2.08756  -0.00000   0.00005  -0.00018  -0.00013   2.08743
    A9        2.07758   0.00000   0.00017  -0.00055  -0.00038   2.07720
   A10        2.08151  -0.00011   0.00011  -0.00077  -0.00066   2.08085
   A11        2.04776   0.00007  -0.00018   0.00074   0.00055   2.04831
   A12        2.15392   0.00005   0.00007   0.00004   0.00011   2.15403
   A13        2.09420   0.00005  -0.00001   0.00025   0.00024   2.09444
   A14        2.10306   0.00000  -0.00005   0.00023   0.00018   2.10324
   A15        2.08592  -0.00006   0.00006  -0.00048  -0.00042   2.08550
   A16        2.11720   0.00004  -0.00019   0.00080   0.00061   2.11781
   A17        2.08314  -0.00002  -0.00003   0.00005   0.00002   2.08316
   A18        2.08284  -0.00003   0.00022  -0.00085  -0.00063   2.08221
   A19        1.91940   0.00008  -0.00032   0.00134   0.00102   1.92042
   A20        1.95426  -0.00014  -0.00036   0.00065   0.00025   1.95451
   A21        2.20863  -0.00013  -0.00045   0.00102   0.00053   2.20916
   A22        2.12028   0.00026   0.00081  -0.00161  -0.00084   2.11945
   A23        1.84749  -0.00018  -0.00042   0.00037  -0.00006   1.84743
   A24        1.90404   0.00006  -0.00017   0.00073   0.00056   1.90460
    D1        0.00007  -0.00001  -0.00002  -0.00030  -0.00031  -0.00024
    D2       -3.14151  -0.00001  -0.00002  -0.00037  -0.00039   3.14129
    D3       -3.14155  -0.00001  -0.00001  -0.00024  -0.00025   3.14139
    D4        0.00005  -0.00001  -0.00002  -0.00030  -0.00032  -0.00027
    D5       -0.00005   0.00000   0.00001   0.00014   0.00015   0.00010
    D6        3.14156   0.00000   0.00001   0.00010   0.00010  -3.14152
    D7        3.14157   0.00000   0.00000   0.00008   0.00008  -3.14153
    D8        0.00000   0.00000   0.00000   0.00003   0.00004   0.00004
    D9       -3.14154  -0.00000  -0.00000  -0.00005  -0.00005   3.14159
   D10        0.00002   0.00000   0.00000   0.00001   0.00001   0.00003
   D11       -0.00006   0.00001   0.00002   0.00030   0.00032   0.00026
   D12        3.14158   0.00000   0.00001   0.00011   0.00012  -3.14149
   D13        3.14152   0.00001   0.00002   0.00037   0.00039  -3.14127
   D14       -0.00003   0.00001   0.00001   0.00018   0.00019   0.00016
   D15       -3.13954  -0.00016  -0.00044  -0.00805  -0.00850   3.13515
   D16       -0.00235   0.00015   0.00042   0.00765   0.00807   0.00572
   D17        0.00206  -0.00016  -0.00045  -0.00812  -0.00857  -0.00651
   D18        3.13925   0.00015   0.00041   0.00758   0.00800  -3.13594
   D19        0.00003  -0.00000  -0.00001  -0.00014  -0.00015  -0.00012
   D20        3.14158  -0.00000  -0.00001  -0.00013  -0.00014   3.14144
   D21        3.14158   0.00000   0.00000   0.00005   0.00005  -3.14156
   D22       -0.00006   0.00000   0.00000   0.00006   0.00006   0.00001
   D23       -0.00001  -0.00000  -0.00000  -0.00002  -0.00002  -0.00003
   D24        3.14157   0.00000   0.00000   0.00003   0.00004  -3.14158
   D25       -3.14156  -0.00000  -0.00000  -0.00003  -0.00003   3.14159
   D26        0.00002   0.00000   0.00000   0.00002   0.00002   0.00004
   D27        3.14119   0.00000  -0.00001   0.00009   0.00008   3.14128
   D28       -0.00044   0.00000  -0.00001   0.00011   0.00010  -0.00034
   D29        0.00002   0.00000   0.00000   0.00002   0.00002   0.00004
   D30        3.14159   0.00000   0.00000   0.00006   0.00006  -3.14153
   D31       -3.14155  -0.00000  -0.00000  -0.00004  -0.00004  -3.14159
   D32        0.00001   0.00000   0.00000   0.00001   0.00001   0.00002
   D33        3.13946   0.00015   0.00041   0.00750   0.00790  -3.13582
   D34        0.00201  -0.00014  -0.00040  -0.00730  -0.00769  -0.00568
         Item               Value     Threshold  Converged?
 Maximum Force            0.000440     0.000450     YES
 RMS     Force            0.000116     0.000300     YES
 Maximum Displacement     0.014485     0.001800     NO 
 RMS     Displacement     0.002822     0.001200     NO 
 Predicted change in Energy=-4.388169D-06
 GradGradGradGradGradGradGradGradGradGradGradGradGradGradGradGradGradGrad

                          Input orientation:                          
 ---------------------------------------------------------------------
 Center     Atomic      Atomic             Coordinates (Angstroms)
 Number     Number       Type             X           Y           Z
 ---------------------------------------------------------------------
      1          6           0        0.236356    1.271976   -0.000911
      2          6           0        0.464472   -0.120908   -0.002429
      3          6           0       -0.629300   -0.996212   -0.002013
      4          6           0       -1.934884   -0.522393   -0.000446
      5          6           0       -2.160078    0.856215    0.000890
      6          6           0       -1.083969    1.736374    0.000676
      7          8           0       -2.938754   -1.448538   -0.000332
      8          6           0        1.843935   -0.669824   -0.004532
      9          8           0        1.850756   -2.029110    0.002365
     10          8           0        2.874879   -0.032478    0.000404
     11          8           0        1.287058    2.126937   -0.001054
     12          1           0       -0.458497   -2.066390   -0.003077
     13          1           0       -3.174793    1.250404    0.002140
     14          1           0       -1.272588    2.808472    0.001784
     15          1           0       -3.794454   -1.007364    0.001093
     16          1           0        2.783562   -2.288885    0.005753
     17          1           0        0.957304    3.032444    0.000092
 ---------------------------------------------------------------------
                    Distance matrix (angstroms):
                    1          2          3          4          5
     1  C    0.000000
     2  C    1.411440   0.000000
     3  C    2.427763   1.400890   0.000000
     4  C    2.816744   2.432716   1.388905   0.000000
     5  C    2.432232   2.800543   2.403076   1.396881   0.000000
     6  C    1.399616   2.418093   2.770154   2.413729   1.390212
     7  O    4.181210   3.653020   2.353334   1.365832   2.432740
     8  C    2.520894   1.484665   2.494679   3.781696   4.284967
     9  O    3.674706   2.358610   2.686554   4.074466   4.940839
    10  O    2.943366   2.412030   3.634289   4.834650   5.112784
    11  O    1.354597   2.393628   3.664217   4.171315   3.673892
    12  H    3.409914   2.153317   1.083724   2.136271   3.381866
    13  H    3.411219   3.889057   3.395120   2.163375   1.088593
    14  H    2.153541   3.405680   3.858685   3.396072   2.144515
    15  H    4.630639   4.350203   3.165175   1.921769   2.478732
    16  H    4.378131   3.174645   3.649478   5.038280   5.859288
    17  H    1.902372   3.191633   4.329825   4.582753   3.801847
                    6          7          8          9         10
     6  C    0.000000
     7  O    3.685633   0.000000
     8  C    3.789780   4.845671   0.000000
     9  O    4.774042   4.824570   1.359321   0.000000
    10  O    4.336048   5.983607   1.212056   2.243964   0.000000
    11  O    2.402980   5.535477   2.851665   4.194102   2.680344
    12  H    3.853861   2.556056   2.692878   2.309560   3.904895
    13  H    2.146559   2.709245   5.373542   6.000946   6.184199
    14  H    1.088564   4.571460   4.670256   5.758252   5.027173
    15  H    3.856790   0.962735   5.648486   5.736929   6.740208
    16  H    5.582162   5.783694   1.871995   0.968309   2.258261
    17  H    2.417973   5.937884   3.806957   5.139805   3.615362
                   11         12         13         14         15
    11  O    0.000000
    12  H    4.542131   0.000000
    13  H    4.547135   4.287122   0.000000
    14  H    2.648827   4.942372   2.458854   0.000000
    15  H    5.970395   3.500023   2.341260   4.573884   0.000000
    16  H    4.662516   3.249697   6.930266   6.514247   6.701687
    17  H    0.963682   5.291750   4.499989   2.241112   6.236927
                   16         17
    16  H    0.000000
    17  H    5.625993   0.000000
 Stoichiometry    C7H6O4
 Framework group  C1[X(C7H6O4)]
 Deg. of freedom    45
 Full point group                 C1      NOp   1
 Largest Abelian subgroup         C1      NOp   1
 Largest concise Abelian subgroup C1      NOp   1
                         Standard orientation:                         
 ---------------------------------------------------------------------
 Center     Atomic      Atomic             Coordinates (Angstroms)
 Number     Number       Type             X           Y           Z
 ---------------------------------------------------------------------
      1          6           0        0.239623    1.271314   -0.000489
      2          6           0        0.463458   -0.122264   -0.002007
      3          6           0       -0.632999   -0.994203   -0.001592
      4          6           0       -1.937121   -0.516375   -0.000024
[...]
 ! D26   D(7,4,5,13)             0.001          -DE/DX =    0.0                 !
 ! D27   D(3,4,7,15)          -180.0175         -DE/DX =    0.0                 !
 ! D28   D(5,4,7,15)            -0.0192         -DE/DX =    0.0                 !
 ! D29   D(4,5,6,1)              0.0012         -DE/DX =    0.0                 !
 ! D30   D(4,5,6,14)          -179.9994         -DE/DX =    0.0                 !
 ! D31   D(13,5,6,1)          -179.9986         -DE/DX =    0.0                 !
 ! D32   D(13,5,6,14)            0.0008         -DE/DX =    0.0                 !
 ! D33   D(2,8,9,16)           179.993          -DE/DX =    0.0                 !
 ! D34   D(10,8,9,16)            0.0037         -DE/DX =    0.0                 !
 --------------------------------------------------------------------------------
 GradGradGradGradGradGradGradGradGradGradGradGradGradGradGradGradGradGrad

 1\1\ WCSS.PL-BEM-QINLAB\Freq\RAPFD\6-31+G(d,p)\C7H6O4\PHZD\20-May-2024
 \0\\#N Geom=AllCheck Guess=TCheck SCRF=Check GenChk RAPFD/6-31+G(d,p) 
 Freq\\[No Title]\\0,1\C,0.2363564076,1.2716802183,0.0000333214\C,0.464
 2691489,-0.1210476741,0.000033821\C,-0.6293875363,-0.9964786722,0.0000
 278802\C,-1.9348932648,-0.5225166756,0.0000023573\C,-2.1599506572,0.85
 61768897,-0.0000074086\C,-1.0837559702,1.7363246616,0.00002038\O,-2.93
 87576704,-1.4487143263,-0.000046708\C,1.8436955818,-0.6694770558,0.000
 0316742\O,1.8503224709,-2.028769646,0.0001519043\O,2.8740687063,-0.031
 1957659,-0.0002553856\O,1.2874227429,2.1261674219,0.0000622591\H,-0.45
 8510238,-2.0666450846,0.0000394095\H,-3.1746253496,1.2504295381,-0.000
 0394562\H,-1.2720957109,2.8084556494,0.0000222719\H,-3.7943407063,-1.0
 073809808,0.0002152753\H,2.7832246629,-2.2880342661,0.0000265682\H,0.9
 579613823,3.0317457685,0.0000868361\\Version=ES64L-G09RevE.01\State=1-
 A\HF=-570.8456066\RMSD=3.102e-09\RMSF=3.279e-05\ZeroPoint=0.124127\The
 rmal=0.1338583\Dipole=-1.4739832,0.6956437,0.0002839\DipoleDeriv=0.702
 7511,0.8932931,0.0000316,0.4984896,0.6259255,0.0000249,0.0000049,0.000
 0349,0.0788247,-0.6200696,0.435563,0.0000154,-0.0324814,-0.1270267,0.0
 000052,0.0000144,-0.0000008,-0.020935,0.0856728,-0.4880854,-0.0000014,
 0.1970044,-0.0503573,-0.0000011,-0.0000162,0.0000289,-0.1302943,0.8364
 132,0.9529526,0.0000343,0.9460358,0.3440258,-0.0000013,0.0000449,0.000
 0245,0.0692849,-0.04684,0.1573523,0.0000179,-0.3937302,0.1437366,-0.00
 00057,-0.0000134,0.0000014,-0.1493385,-0.1319016,-0.487276,-0.000011,0
 .1156718,0.0256444,0.0000027,0.0000109,-0.0000201,-0.1792111,-1.108033
 5,-0.6976722,-0.0000531,-0.7620208,-0.6694923,0.0000515,-0.0001288,-0.
 000013,-0.3728197,1.9762258,-0.3066814,-0.0001255,-0.2632254,1.7929287
 ,-0.0002104,-0.000126,-0.0001778,0.2949558,-0.5087757,0.247253,-0.0000
 304,0.2775089,-1.4025456,0.0001362,-0.0000437,0.000071,-0.3757004,-1.3
 260609,-0.1408309,0.0001126,-0.1065983,-0.6607125,0.0000574,0.0001495,
 0.0001095,-0.3530422,-0.7434042,-0.77212,-0.0000315,-0.6281875,-0.8766
 812,-0.0000168,-0.00002,-0.0000326,-0.329002,0.1302509,-0.0064989,-0.0
 000022,-0.0102755,0.0402181,0.0000002,0.0000095,-0.0000024,0.1476433,-
 0.100404,0.0307533,-0.0000039,0.0284757,0.0722732,0.0000033,-0.0000076
 ,0.0000021,0.1489634,0.0606999,-0.0163673,-0.0000013,0.0015621,-0.1072
 207,-0.0000022,0.0000041,-0.000002,0.1534451,0.333416,0.0842852,0.0000
 18,0.1358772,0.1968833,-0.0000531,0.000071,-0.0000141,0.341646,0.22402
 74,-0.0491225,0.0000268,-0.1049616,0.3574895,0.00001,0.0000469,-0.0000
 096,0.3424615,0.2360325,0.1632021,0.0000037,0.100855,0.2949112,-0.0000
 006,-0.0000004,0.,0.3331183\Polar=128.092239,-0.5111403,110.1627255,-0
 .0016439,-0.000812,50.9153724\PG=C01 [X(C7H6O4)]\NImag=0\\0.69816282,0
 .01301836,0.71298388,0.00000825,0.00000548,0.15159004,-0.14143073,0.06
 268834,-0.00000010,0.64531622,0.01101160,-0.28989337,-0.00000133,0.017
 00528,0.67208862,0.00000028,0.00000050,-0.06221264,-0.00000190,-0.0000
 0611,0.13072553,0.05793237,-0.06130462,0.00000122,-0.24466125,-0.08396
 123,-0.00000414,0.71887923,-0.01950614,-0.03712419,-0.00000002,-0.1316
 5725,-0.21380973,0.00000091,-0.01287604,0.75768241,-0.00000055,-0.0000
 0071,-0.00161572,-0.00000494,0.00000076,-0.04988741,0.00001035,-0.0000
 0559,0.12509192,-0.03915616,0.03811435,-0.00000088,-0.05274259,-0.0398
 7434,-0.00000037,-0.30835184,0.11780800,-0.00000417,0.72969301,0.04143
 989,-0.04623843,0.00000035,0.00853277,0.05787750,-0.00000155,0.0431817
 0,-0.15970322,0.00000124,-0.00729251,0.70542715,-0.00000170,0.00000133
 ,0.00157796,-0.00000112,0.00000004,-0.00192320,-0.00000342,0.00000096,
 -0.06190906,0.00000208,0.00000870,0.13850642,-0.05362935,0.00180239,-0
 .00000088,-0.01042185,-0.01632547,-0.00000005,0.01606539,0.03205197,-0
 .00000079,-0.14084265,0.08227519,-0.00000234,0.74717872,-0.04824448,0.
 06358221,-0.00000067,-0.02031255,-0.05111745,0.00000049,0.07750047,-0.
 00851174,0.00000085,0.00227657,-0.31853974,-0.00000097,0.00080990,0.70
 672375,-0.00000084,0.00000016,-0.00313301,0.00000047,-0.00000064,0.002
 69665,-0.00000039,0.00000122,0.00251933,-0.00000115,0.00000183,-0.0578
 3695,0.00001815,0.00000042,0.11765708,-0.28602601,0.03340492,-0.000002
 20,0.01423585,0.06944744,-0.00000031,-0.06417821,-0.00583851,0.0000001
 0,0.05849837,-0.06558319,0.00000302,-0.26903223,-0.08989639,-0.0000064
 6,0.66678839,0.10852274,-0.15938423,0.00000069,0.02770011,-0.00480859,
 0.00000049,-0.00576957,-0.00984853,-0.00000032,-0.01680508,-0.04134171
 ,-0.00000079,-0.15115707,-0.22013722,-0.00000359,0.01131851,0.74761829
 ,-0.00000146,-0.00000129,-0.06128183,-0.00000028,0.00000248,0.00395579
 ,-0.00000119,-0.00000026,0.00266170,0.00000139,-0.00000061,-0.00139954
 ,-0.00000535,-0.00000252,-0.04734916,0.00000911,0.00000402,0.11322501,
 0.00764434,-0.00081862,0.00000056,0.00020157,0.00659615,0.00000016,-0.
 05397708,-0.03531821,-0.00000193,-0.21714607,-0.13396922,-0.00000328,0
 .00048402,-0.00756230,-0.00000124,-0.00734523,0.00097222,0.00000024,0.
 69056159,-0.00044137,0.00525311,0.00000008,0.00081069,-0.00704659,0.00
 000107,0.00481028,0.01637390,0.00000048,-0.08052611,-0.20461174,-0.000
 01811,-0.04866248,-0.05000564,-0.00000253,0.00731530,-0.00217902,-0.00
 000036,-0.05707235,0.39977295,0.00000180,-0.00000083,-0.00160728,0.000
 00198,0.00000031,0.00479714,-0.00000149,0.00000142,0.00638816,0.000009
 98,-0.00000907,-0.03686113,0.00000105,0.00000095,0.00626715,-0.0000024
 4,0.00000026,0.00704540,-0.00012904,0.00008600,0.02215771,0.01679069,0
 .03113010,-0.00000040,-0.17650017,0.03671715,-0.00000489,-0.03857681,-
 0.00163108,0.00000151,0.00331169,-0.01287732,0.00000060,0.00396358,0.0
 0446456,-0.00000017,-0.00247493,-0.00069822,0.00000084,0.00257193,0.00
 365599,0.00000003,0.90633516,0.03350846,-0.00793582,0.00000042,0.05093
 279,-0.12189097,0.00000061,-0.01187970,0.02039544,-0.00000137,-0.00549
 939,0.00125772,-0.00000052,-0.00285926,-0.00439779,0.00000021,0.002057
 31,-0.00683044,-0.00000005,-0.00387939,-0.00213068,0.00000028,0.167492
 78,0.67181945,-0.00000140,-0.00000295,0.00176541,-0.00000029,-0.000002
 02,-0.07894565,0.00000043,0.00000123,-0.00109526,-0.00000041,0.0000003
 7,0.00842213,0.00000035,-0.00000040,-0.00118014,-0.00000028,0.00000024
 ,0.00598431,-0.00000034,0.00000007,0.00033729,-0.00013158,-0.00008816,
 0.21099051,-0.00906248,-0.00451085,-0.00000027,-0.00619149,0.04301510,
 -0.00000297,-0.00737070,0.00317191,-0.00000043,0.00205722,0.00186749,0
 .00000041,-0.00054633,0.00036229,-0.00000001,0.00004152,0.00232439,0.0
 0000014,-0.00103035,-0.00079314,-0.00000008,-0.12610211,0.03108656,0.0
 0000573,0.62209903,0.00214599,0.00437084,0.00000010,0.01758250,-0.0305
 1753,0.00000172,-0.00116248,-0.00493284,0.00000107,-0.00003922,-0.0029
 0055,-0.00000011,0.00083324,0.00096160,-0.00000010,0.00017075,-0.00036
 073,0.00000003,0.00208240,0.00195368,0.00000001,-0.00450470,-0.2540309
 6,0.00002045,-0.09825743,0.43932005,0.00000070,-0.00000028,0.00169313,
 -0.00000139,0.00000137,0.01118697,0.00000011,0.00000003,0.00092691,0.0
 0000039,-0.00000002,-0.00087443,-0.00000001,0.00000030,0.00007066,-0.0
 0000034,-0.00000019,-0.00071069,-0.00000005,-0.00000011,0.00012849,0.0
 0000755,0.00001193,-0.06390505,-0.00007952,-0.00002879,0.03562104,-0.0
 0773807,-0.01213830,-0.00000026,-0.05044433,-0.02103463,0.00001362,0.0
 0057807,0.00912107,-0.00000015,-0.00250195,0.00381206,-0.00000109,-0.0
 0198440,-0.00334222,0.00000015,0.00297524,-0.00016665,-0.00000041,-0.0
 0254444,-0.00141563,0.00000009,-0.57182064,-0.26843549,0.00012677,0.00
 740962,-0.05406838,0.00001168,0.62416292,-0.00739433,-0.00741153,-0.00
 000036,-0.00895882,0.01958549,0.00000186,0.00471604,-0.00131699,-0.000
 00022,-0.00136315,0.00242453,-0.00000023,-0.00031313,-0.00101497,-0.00
 000002,0.00136029,0.00072296,-0.00000029,0.00086195,0.00025648,0.00000
 005,-0.26941605,-0.27307811,0.00007699,-0.06755409,-0.08023281,0.00002
 493,0.34272371,0.33636809,0.00000045,0.00000233,-0.00121051,0.00000758
 ,0.00000498,0.02047475,0.00000044,-0.00000193,0.00271604,0.00000019,-0
 .00000005,-0.00159518,-0.00000012,0.00000025,0.00020725,0.00000022,-0.
 00000009,-0.00073047,0.00000048,0.00000003,-0.00015822,0.00013145,0.00
 007623,-0.07795298,0.00001156,0.00002261,0.02968233,-0.00015224,-0.000
 10214,0.03190071,-0.24465334,-0.08285875,-0.00000369,0.02300971,0.0032
 7869,-0.00000005,-0.01117434,0.00316206,0.00000062,0.00830540,-0.00334
 795,0.00000085,0.00113801,0.00949428,-0.00000033,-0.02721618,-0.033035
 47,-0.00000119,-0.00642089,-0.00440619,-0.00000120,-0.01521030,0.00083
 251,0.00000148,0.00229576,-0.00010303,-0.00000016,0.00598295,0.0084209
 8,-0.00000091,0.36620659,-0.13575822,-0.19291025,-0.00000426,-0.021497
 50,-0.01133305,-0.00000055,0.00353966,-0.00280753,0.00000055,0.0022855
 4,0.00406637,0.00000047,0.00204027,-0.00450417,-0.00000042,0.00104142,
 0.00859569,-0.00000009,-0.00604588,-0.00430089,-0.00000095,-0.01415048
 ,0.00121639,0.00000079,0.00145869,-0.00168147,0.00000002,0.01070951,-0
 .00317032,-0.00000174,-0.03700336,0.66374790,-0.00000520,-0.00000397,-
 0.04082101,0.00000045,-0.00000058,0.00436168,-0.00000039,0.00000011,0.
 00425169,0.00000043,-0.00000018,-0.00133307,-0.00000013,0.00000002,0.0
 0762054,-0.00000067,-0.00000062,0.00980904,-0.00000044,-0.00000005,-0.
 00042082,-0.00000096,0.00000005,-0.00330088,0.,-0.00000053,0.00036099,
 0.00000078,-0.00000025,0.00144093,0.00000179,0.00001835,0.02581124,-0.
 00384923,-0.00185981,-0.00000004,0.00799632,-0.02362741,0.00000035,-0.
 06450359,0.04759519,-0.00000041,0.00063948,0.02950420,-0.00000055,-0.0
 0549566,0.00144597,-0.00000012,-0.00108847,-0.00077567,-0.00000011,0.0
 0210581,-0.00029585,-0.00000001,0.00141721,-0.00367924,0.00000038,-0.0
 0475148,0.00192040,-0.00000040,0.00066916,0.00117035,-0.00000040,0.000
 32593,-0.00165026,-0.00000004,0.06647170,-0.00318473,0.00108211,-0.000
 00006,0.00363875,-0.01415779,0.00000013,0.04659341,-0.34586982,0.00000
 358,-0.00112030,-0.00610219,0.00000006,0.00143155,0.00029205,0.0000000
 8,0.00031382,0.00071510,0.,-0.00050313,0.00051682,-0.00000007,0.000345
 63,-0.00190185,-0.00000002,0.00311144,0.00028212,0.00000002,0.00006572
 ,0.00040292,-0.00000001,0.00046586,-0.00083743,0.00000002,-0.05114327,
 0.36523063,-0.00000011,0.00000002,0.00596491,0.00000081,-0.00000038,0.
 00239155,-0.00000075,0.00000323,-0.03683097,-0.00000067,0.00000020,0.0
 0696837,-0.00000007,0.00000010,0.00523008,-0.00000004,-0.00000004,-0.0
 0076679,0.00000001,0.00000012,-0.00350022,-0.00000049,0.00000022,-0.00
 426144,-0.00000060,-0.00000005,0.00049855,0.00000061,0.00000027,0.0007
 5738,-0.00000006,0.,0.00037273,0.00000105,-0.00000381,0.02488822,-0.00
 031869,-0.00403226,-0.00000033,0.00029527,-0.00037531,0.,0.00175433,0.
 00116430,-0.00000015,-0.00473312,-0.00279641,-0.00000027,-0.29955506,0
 .09563371,-0.00000823,-0.01820333,0.01113142,-0.00000053,0.00320280,0.
 00016402,0.00000002,0.00027507,-0.00018633,0.,-0.00013479,0.00021787,-
 0.00000001,-0.00018589,0.00004896,0.00000003,-0.00167822,0.00011687,-0
 .00000003,-0.00016887,-0.00002626,0.00000003,0.31856735,-0.00324713,-0
 .00218699,-0.00000014,-0.00126518,-0.00094332,0.00000005,0.00042361,-0
 .00649034,-0.00000001,0.02947490,-0.00419758,0.00000074,0.09648143,-0.
 09791315,0.00000319,-0.01942846,0.01097508,-0.00000051,0.00081227,0.00
 276476,-0.00000022,0.00011460,-0.00037860,0.00000002,0.00014346,0.0001
 4893,0.,0.00001626,0.00008027,-0.00000003,-0.00118098,0.00028378,0.000
 00005,0.00149549,-0.00013651,-0.00000002,-0.10246826,0.09865001,-0.000
 00029,0.00000021,0.00719934,0.00000005,-0.00000023,-0.00068725,-0.0000
 0015,-0.00000012,0.00519761,0.00000027,0.00000053,0.00490247,-0.000008
 96,0.00000253,-0.03398487,-0.00000016,0.00000037,0.00285688,-0.0000007
 0,0.00000015,-0.00354772,-0.00000007,-0.00000005,-0.00072581,-0.000000
 05,0.00000005,0.00014876,0.00000004,0.00000008,0.00006250,0.00000003,0
 .,0.00000549,0.00000004,-0.00000005,-0.00045153,0.00000918,-0.00000374
 ,0.02262064,-0.00111465,0.02874906,0.00000011,-0.00518357,0.00093174,-
 0.00000018,-0.00142432,-0.00061291,-0.00000001,-0.00346411,-0.00251122
 ,-0.00000029,0.00795240,-0.02514987,0.00000013,-0.06737330,0.05035155,
 -0.00000034,-0.00006054,-0.00166277,0.00000008,0.00080815,0.00130061,-
 0.00000002,-0.00061539,0.00034273,0.00000005,-0.00009716,-0.00017312,0
 .,0.00269811,0.00157296,0.00000015,0.00006181,0.00003837,0.,0.00072297
 ,0.00001545,0.00000012,0.06811167,-0.00390467,-0.01010195,-0.00000011,
 0.00272541,0.00091919,0.00000005,-0.00008337,0.00063459,0.,-0.00358198
 ,0.00096325,-0.00000025,0.00564468,-0.01580909,0.00000011,0.04997607,-
 0.32830160,-0.00000055,-0.00006746,-0.00139388,0.00000011,-0.00134417,
 -0.00036077,0.00000011,0.00042706,-0.00023264,-0.00000001,0.00053273,0
 .00025481,-0.00000011,-0.00027808,0.00345024,0.00000004,0.00002068,-0.
 00006095,0.,-0.00026555,0.00076024,0.00000007,-0.05206726,0.34909635,0
 .00000012,-0.00000009,0.00424242,0.00000002,0.00000018,0.00450239,-0.0
 0000020,0.00000004,-0.00091678,-0.00000003,-0.00000004,0.00652799,0.00
 000014,-0.00000044,0.00220477,-0.00000062,-0.00000036,-0.03137729,-0.0
 0000021,0.,0.00044707,-0.00000008,0.00000004,0.00025946,0.00000002,-0.
 00000002,-0.00010385,0.00000006,0.,-0.00000600,0.00000013,0.00000024,-
 0.00401311,0.00000001,0.,-0.00024929,0.00000019,0.,-0.00407166,0.00000
 045,0.00000063,0.02193148,-0.00005492,-0.00063784,-0.00000009,-0.00029
 129,0.00169127,-0.00000048,-0.00222031,-0.00569808,0.00000084,-0.03345
 096,0.01750713,0.00000713,0.00528310,0.00251252,0.00000009,-0.00074608
 ,0.00036197,-0.00000084,-0.41822795,0.17828692,0.00011929,-0.00079354,
 0.00003502,-0.00000001,0.00017665,-0.00028018,0.,0.00019829,0.00002937
 ,0.,0.00078885,0.00066745,0.00000016,0.00034505,-0.00008631,0.00000018
 ,0.00000057,-0.00144346,0.00000064,0.00024872,0.00027042,0.00000003,0.
 44884908,0.00054910,-0.00002694,0.00000027,0.00001876,0.00100307,-0.00
 000064,-0.00454142,-0.00363519,0.00000007,-0.03279761,0.01007164,0.000
 00884,-0.00364970,0.00203401,-0.00000004,-0.00024101,-0.00061770,-0.00
 000008,0.23326749,-0.15562545,-0.00007843,-0.00063537,0.00005701,-0.00
 000012,0.00011130,-0.00021407,0.00000002,0.00013745,0.00003721,0.00000
 006,-0.00010026,-0.00029757,-0.00000007,-0.00029932,0.00012298,0.00000
 009,0.00141193,-0.00163173,0.00000021,0.00003048,0.00008453,-0.0000000
 9,-0.19312223,0.14861096,-0.00000070,0.00000040,0.00027005,-0.00000133
 ,-0.00000030,0.00165871,-0.00000024,-0.00000106,0.00147450,-0.00000690
 ,-0.00000181,-0.00357225,-0.00000101,-0.00000084,-0.00007217,0.0000009
 2,-0.00000022,-0.00079821,0.00013575,-0.00006687,-0.00137090,0.0000000
 4,-0.00000019,0.00004710,-0.00000003,0.00000005,-0.00003448,-0.0000001
 1,0.00000001,-0.00007200,0.00000043,0.00000043,-0.00009921,0.00000009,
 0.00000002,-0.00071889,0.00000008,0.00000062,0.00051200,-0.00000010,-0
 .00000011,-0.00005950,-0.00012694,0.00006991,0.00277257,-0.00014949,0.
 00017483,-0.00000001,0.00175417,-0.00065410,0.00000114,0.00009860,-0.0
 0024266,0.00000005,0.00008995,-0.00013585,-0.00000007,0.00004900,0.000
 04613,0.00000002,0.00006281,0.00013825,-0.00000007,0.00009735,0.000070
 84,0.,-0.00221752,0.01043485,-0.00000120,-0.47852752,0.13245765,0.0000
 6162,-0.00417841,-0.00648823,0.00000101,-0.00005347,-0.00018089,-0.000
 00004,0.00009918,0.00024348,0.00000008,0.00001681,0.00001186,0.,-0.000
 00139,-0.00001375,0.,-0.00003535,-0.00001677,0.,0.48286225,0.00193193,
 0.00020420,0.00000022,-0.00220991,-0.00735932,0.00000107,-0.00147900,0
 .00001473,-0.00000026,0.00024504,0.00085423,-0.00000003,-0.00035108,-0
 .00020102,0.00000002,0.00002993,-0.00056781,-0.00000008,-0.00033420,-0
 .00029284,0.,0.05924384,-0.02183798,-0.00000638,0.08435392,-0.07222459
 ,-0.00000929,-0.00591289,0.00695650,-0.00000040,-0.00012318,0.00030745
 ,0.00000004,0.00049427,0.00052467,0.00000007,-0.00003878,0.00004807,0.
 ,0.00014333,-0.00004391,0.,0.00005405,0.00003727,0.,-0.13590365,0.0936
 0823,-0.00000025,0.00000043,0.00070530,0.00000028,0.00000135,0.0042627
 0,-0.00000019,-0.00000013,-0.00029260,-0.00000015,0.00000012,0.0002417
 0,-0.00000001,-0.00000012,-0.00000533,0.00000014,0.00000014,-0.0002886
 7,0.00000004,0.00000001,-0.00007423,-0.00000363,0.00000023,0.00386259,
 0.00006619,-0.00001659,-0.01435491,0.00000014,-0.00000038,-0.00579549,
 -0.00000014,-0.00000021,0.00007452,0.00000016,0.00000008,-0.00030079,0
 .,0.00000001,-0.00003550,-0.00000003,0.,-0.00004972,0.,0.,0.00004390,-
 0.00006257,0.00001503,0.01200662,0.00665291,-0.04092131,-0.00000097,-0
 .00494182,-0.00384194,-0.00000022,0.00113045,-0.00069363,0.00000008,-0
 .00020566,0.00039322,0.00000004,-0.00060670,-0.00003860,-0.00000006,0.
 00108179,-0.00441344,0.00000005,-0.00011686,0.00016186,-0.00000006,-0.
 00177746,-0.00126209,0.00000036,0.00025284,0.00066191,-0.00000021,-0.0
 0048094,0.00232928,0.00000024,-0.10434459,0.19285425,0.00000412,-0.000
 27435,-0.00018401,0.00000002,0.00014280,0.00004413,0.,-0.00126940,0.00
 200923,-0.00000005,-0.00006990,-0.00012281,0.00000005,0.00003302,-0.00
 014361,0.00000003,0.10479388,0.00955297,-0.03426263,-0.00000066,-0.005
 73418,0.00140383,-0.00000009,0.00229226,-0.00105095,-0.00000011,-0.001
 30471,0.00069274,-0.00000011,-0.00005243,-0.00144163,0.00000010,0.0045
 5179,0.00575045,0.00000014,0.00097828,0.00069501,0.00000017,0.00209276
 ,0.00002797,-0.00000020,-0.00031810,0.00029097,0.00000007,-0.00060431,
 -0.00086452,0.00000001,0.13678287,-0.45982516,-0.00001243,-0.00031571,
 -0.00010286,0.,0.00030008,0.00016708,0.,-0.00129913,0.00014160,-0.0000
 0009,-0.00014802,-0.00001004,-0.00000006,0.00005801,-0.00002791,0.0000
 0002,-0.14683243,0.48841605,0.00000091,-0.00000075,-0.00312657,-0.0000
 0031,0.00000012,0.00264228,0.,-0.00000003,0.00131995,0.00000001,-0.000
 00003,0.00015777,0.00000005,0.00000006,-0.00091187,0.,0.00000003,-0.00
 083548,-0.00000001,0.,-0.00002787,0.00000025,0.00000013,-0.00030160,-0
 .00000009,0.00000009,-0.00033441,0.00000034,-0.00000030,0.00027895,0.0
 0000238,-0.00001262,-0.00412074,-0.00000002,0.00000002,0.00000815,0.00
 000001,0.,-0.00000136,-0.00000011,0.00000003,0.00073162,0.,0.,0.000018
 79,0.00000003,0.,-0.00000008,-0.00000342,0.00001325,0.00450248\\0.0000
 5839,-0.00002206,-0.00000059,-0.00002214,-0.00006115,-0.00000765,0.000
 00326,0.00005520,-0.00000045,0.00004415,-0.00001232,0.00000122,0.00001
 664,0.00001338,-0.00000059,-0.00010098,-0.00006110,0.00000052,0.000016
 77,0.00002942,-0.00000185,-0.00010493,0.00002712,0.00002669,0.00003321
 ,0.00003552,-0.00000782,0.00007488,-0.00003188,-0.00001024,0.00002951,
 0.00001409,-0.00000037,-0.00000849,-0.00000508,-0.00000004,-0.00000293
 ,0.00000020,-0.00000011,-0.00000727,0.00000256,0.00000007,-0.00003932,
 0.00000446,0.00000133,-0.00000039,-0.00002048,-0.00000019,0.00000964,0
 .00003212,0.00000007\\\@


 THE PROGRESS OF RIVERS TO THE SEA IS NOT AS RAPID
 AS THAT OF MAN TO ERROR.
                                              -- VOLTAIRE
 Job cpu time:       0 days  0 hours 25 minutes 48.4 seconds.
 File lengths (MBytes):  RWF=    107 Int=      0 D2E=      0 Chk=      5 Scr=      1
 Normal termination of Gaussian 09 at Mon May 20 13:10:36 2024.
