 Entering Gaussian System, Link 0=g09
 Input=2APFDDHB21.gjf
 Output=2APFDDHB21.log
 Initial command:
 /home/phzd/g09E/g09/l1.exe "/home/phzd/g09E/scratch/Gau-544143.inp" -scrdir="/home/phzd/g09E/scratch/"
 Default is to use a total of  18 processors:
                               18 via shared-memory
                                1 via Linda
 Entering Link 1 = /home/phzd/g09E/g09/l1.exe PID=    544145.
  
 Copyright (c) 1988,1990,1992,1993,1995,1998,2003,2009,2015,
            Gaussian, Inc.  All Rights Reserved.
  
 This is part of the Gaussian(R) 09 program.  It is based on
 the Gaussian(R) 03 system (copyright 2003, Gaussian, Inc.),
 the Gaussian(R) 98 system (copyright 1998, Gaussian, Inc.),
 the Gaussian(R) 94 system (copyright 1995, Gaussian, Inc.),
 the Gaussian 92(TM) system (copyright 1992, Gaussian, Inc.),
 the Gaussian 90(TM) system (copyright 1990, Gaussian, Inc.),
 the Gaussian 88(TM) system (copyright 1988, Gaussian, Inc.),
 the Gaussian 86(TM) system (copyright 1986, Carnegie Mellon
 University), and the Gaussian 82(TM) system (copyright 1983,
 Carnegie Mellon University). Gaussian is a federally registered
 trademark of Gaussian, Inc.
  
 This software contains proprietary and confidential information,
 including trade secrets, belonging to Gaussian, Inc.
  
 This software is provided under written license and may be
 used, copied, transmitted, or stored only in accord with that
 written license.
  
 The following legend is applicable only to US Government
 contracts under FAR:
  
                    RESTRICTED RIGHTS LEGEND
  
 Use, reproduction and disclosure by the US Government is
 subject to restrictions as set forth in subparagraphs (a)
 and (c) of the Commercial Computer Software - Restricted
 Rights clause in FAR 52.227-19.
  
 Gaussian, Inc.
 340 Quinnipiac St., Bldg. 40, Wallingford CT 06492
  
  
 ---------------------------------------------------------------
 Warning -- This program may not be used in any manner that
 competes with the business of Gaussian, Inc. or will provide
 assistance to any competitor of Gaussian, Inc.  The licensee
 of this program is prohibited from giving any competitor of
 Gaussian, Inc. access to this program.  By using this program,
 the user acknowledges that Gaussian, Inc. is engaged in the
 business of creating and licensing software in the field of
 computational chemistry and represents and warrants to the
 licensee that it is not a competitor of Gaussian, Inc. and that
 it will not use this program in any manner prohibited above.
 ---------------------------------------------------------------
  

 Cite this work as:
 Gaussian 09, Revision E.01,
 M. J. Frisch, G. W. Trucks, H. B. Schlegel, G. E. Scuseria, 
 M. A. Robb, J. R. Cheeseman, G. Scalmani, V. Barone, B. Mennucci, 
 G. A. Petersson, H. Nakatsuji, M. Caricato, X. Li, H. P. Hratchian, 
 A. F. Izmaylov, J. Bloino, G. Zheng, J. L. Sonnenberg, M. Hada, 
 M. Ehara, K. Toyota, R. Fukuda, J. Hasegawa, M. Ishida, T. Nakajima, 
 Y. Honda, O. Kitao, H. Nakai, T. Vreven, J. A. Montgomery, Jr., 
 J. E. Peralta, F. Ogliaro, M. Bearpark, J. J. Heyd, E. Brothers, 
 K. N. Kudin, V. N. Staroverov, T. Keith, R. Kobayashi, J. Normand, 
 K. Raghavachari, A. Rendell, J. C. Burant, S. S. Iyengar, J. Tomasi, 
 M. Cossi, N. Rega, J. M. Millam, M. Klene, J. E. Knox, J. B. Cross, 
 V. Bakken, C. Adamo, J. Jaramillo, R. Gomperts, R. E. Stratmann, 
 O. Yazyev, A. J. Austin, R. Cammi, C. Pomelli, J. W. Ochterski, 
 R. L. Martin, K. Morokuma, V. G. Zakrzewski, G. A. Voth, 
 P. Salvador, J. J. Dannenberg, S. Dapprich, A. D. Daniels, 
 O. Farkas, J. B. Foresman, J. V. Ortiz, J. Cioslowski, 
 and D. J. Fox, Gaussian, Inc., Wallingford CT, 2013.
 
 ******************************************
 Gaussian 09:  ES64L-G09RevE.01 30-Nov-2015
                20-May-2024 
 ******************************************
 %chk=2APFDDHB21.chk
 ---------------------------
 # opt freq apfd/6-31+g(d,p)
 ---------------------------
 1/14=-1,18=20,19=15,26=3,38=1/1,3;
 2/9=110,12=2,17=6,18=5,40=1/2;
 3/5=1,6=6,7=111,11=2,16=1,25=1,30=1,71=1,74=-44/1,2,3;
 4//1;
 5/5=2,38=5/2;
 6/7=2,8=2,9=2,10=2,28=1/1;
 7//1,2,3,16;
 1/14=-1,18=20,19=15,26=3/3(2);
 2/9=110/2;
 99//99;
 2/9=110/2;
 3/5=1,6=6,7=111,11=2,16=1,25=1,30=1,71=1,74=-44/1,2,3;
 4/5=5,16=3,69=1/1;
 5/5=2,38=5/2;
 7//1,2,3,16;
 1/14=-1,18=20,19=15,26=3/3(-5);
 2/9=110/2;
 6/7=2,8=2,9=2,10=2,19=2,28=1/1;
 99/9=1/99;
 ----------
 [No Title]
 ----------
 Symbolic Z-matrix:
 Charge =  1 Multiplicity = 1
 C                     0.21852   1.26844  0. 
 C                     0.42184  -0.13647  0. 
 C                    -0.69451  -1.01156   0.00001 
 C                    -1.97506  -0.51302   0.00001 
 C                    -2.16451   0.88094   0.00001 
 C                    -1.09213   1.74959   0.00001 
 O                    -2.99465  -1.39891  -0.00002 
 C                     1.71744  -0.71434  -0.00001 
 O                     1.80384  -2.01682   0.00008 
 O                     2.7786    0.03169  -0.00011 
 O                     1.27713   2.08563  0. 
 H                    -0.54928  -2.08394   0.00001 
 H                    -3.17195   1.28772  0. 
 H                    -1.26638   2.82088   0.00001 
 H                    -3.8585   -0.96817   0.00022 
 H                     2.69877  -2.39207  -0.00002 
 H                     3.63127  -0.43339  -0.00002 
 H                     1.00728   3.01476   0. 
 

 GradGradGradGradGradGradGradGradGradGradGradGradGradGradGradGradGradGrad
 Berny optimization.
 Initialization pass.
                           ----------------------------
                           !    Initial Parameters    !
                           ! (Angstroms and Degrees)  !
 --------------------------                            --------------------------
 ! Name  Definition              Value          Derivative Info.                !
 --------------------------------------------------------------------------------
 ! R1    R(1,2)                  1.4195         estimate D2E/DX2                !
 ! R2    R(1,6)                  1.3962         estimate D2E/DX2                !
 ! R3    R(1,11)                 1.3373         estimate D2E/DX2                !
 ! R4    R(2,3)                  1.4185         estimate D2E/DX2                !
 ! R5    R(2,8)                  1.4186         estimate D2E/DX2                !
 ! R6    R(3,4)                  1.3742         estimate D2E/DX2                !
 ! R7    R(3,12)                 1.0822         estimate D2E/DX2                !
 ! R8    R(4,5)                  1.4068         estimate D2E/DX2                !
 ! R9    R(4,7)                  1.3507         estimate D2E/DX2                !
 ! R10   R(5,6)                  1.3801         estimate D2E/DX2                !
 ! R11   R(5,13)                 1.0865         estimate D2E/DX2                !
 ! R12   R(6,14)                 1.0854         estimate D2E/DX2                !
 ! R13   R(7,15)                 0.9653         estimate D2E/DX2                !
 ! R14   R(8,9)                  1.3053         estimate D2E/DX2                !
 ! R15   R(8,10)                 1.2972         estimate D2E/DX2                !
 ! R16   R(9,16)                 0.9704         estimate D2E/DX2                !
 ! R17   R(10,17)                0.9713         estimate D2E/DX2                !
 ! R18   R(11,18)                0.9675         estimate D2E/DX2                !
 ! A1    A(2,1,6)              118.3932         estimate D2E/DX2                !
 ! A2    A(2,1,11)             119.4315         estimate D2E/DX2                !
 ! A3    A(6,1,11)             122.1752         estimate D2E/DX2                !
 ! A4    A(1,2,3)              119.8577         estimate D2E/DX2                !
 ! A5    A(1,2,8)              122.2728         estimate D2E/DX2                !
 ! A6    A(3,2,8)              117.8695         estimate D2E/DX2                !
 ! A7    A(2,3,4)              120.6356         estimate D2E/DX2                !
 ! A8    A(2,3,12)             120.3796         estimate D2E/DX2                !
 ! A9    A(4,3,12)             118.9848         estimate D2E/DX2                !
 ! A10   A(3,4,5)              119.0116         estimate D2E/DX2                !
 ! A11   A(3,4,7)              117.7416         estimate D2E/DX2                !
 ! A12   A(5,4,7)              123.2468         estimate D2E/DX2                !
 ! A13   A(4,5,6)              121.2684         estimate D2E/DX2                !
 ! A14   A(4,5,13)             119.7274         estimate D2E/DX2                !
 ! A15   A(6,5,13)             119.0042         estimate D2E/DX2                !
 ! A16   A(1,6,5)              120.8334         estimate D2E/DX2                !
 ! A17   A(1,6,14)             119.397          estimate D2E/DX2                !
 ! A18   A(5,6,14)             119.7697         estimate D2E/DX2                !
 ! A19   A(4,7,15)             112.5114         estimate D2E/DX2                !
 ! A20   A(2,8,9)              117.8332         estimate D2E/DX2                !
 ! A21   A(2,8,10)             120.8535         estimate D2E/DX2                !
 ! A22   A(9,8,10)             121.3133         estimate D2E/DX2                !
 ! A23   A(8,9,16)             116.5438         estimate D2E/DX2                !
 ! A24   A(8,10,17)            116.2819         estimate D2E/DX2                !
 ! A25   A(1,11,18)            111.4713         estimate D2E/DX2                !
 ! D1    D(6,1,2,3)             -0.0004         estimate D2E/DX2                !
 ! D2    D(6,1,2,8)           -179.9998         estimate D2E/DX2                !
 ! D3    D(11,1,2,3)           179.9993         estimate D2E/DX2                !
 ! D4    D(11,1,2,8)            -0.0001         estimate D2E/DX2                !
 ! D5    D(2,1,6,5)             -0.0005         estimate D2E/DX2                !
 ! D6    D(2,1,6,14)          -179.9999         estimate D2E/DX2                !
 ! D7    D(11,1,6,5)           179.9999         estimate D2E/DX2                !
 ! D8    D(11,1,6,14)            0.0005         estimate D2E/DX2                !
 ! D9    D(2,1,11,18)          180.0            estimate D2E/DX2                !
 ! D10   D(6,1,11,18)           -0.0004         estimate D2E/DX2                !
 ! D11   D(1,2,3,4)              0.0007         estimate D2E/DX2                !
 ! D12   D(1,2,3,12)          -179.9997         estimate D2E/DX2                !
 ! D13   D(8,2,3,4)           -179.9998         estimate D2E/DX2                !
 ! D14   D(8,2,3,12)            -0.0003         estimate D2E/DX2                !
 ! D15   D(1,2,8,9)            179.9953         estimate D2E/DX2                !
 ! D16   D(1,2,8,10)            -0.0049         estimate D2E/DX2                !
 ! D17   D(3,2,8,9)             -0.0041         estimate D2E/DX2                !
 ! D18   D(3,2,8,10)           179.9957         estimate D2E/DX2                !
 ! D19   D(2,3,4,5)             -0.0003         estimate D2E/DX2                !
 ! D20   D(2,3,4,7)            179.9977         estimate D2E/DX2                !
 ! D21   D(12,3,4,5)          -179.9999         estimate D2E/DX2                !
 ! D22   D(12,3,4,7)            -0.0019         estimate D2E/DX2                !
 ! D23   D(3,4,5,6)             -0.0006         estimate D2E/DX2                !
 ! D24   D(3,4,5,13)           179.9994         estimate D2E/DX2                !
 ! D25   D(7,4,5,6)           -179.9984         estimate D2E/DX2                !
 ! D26   D(7,4,5,13)             0.0015         estimate D2E/DX2                !
 ! D27   D(3,4,7,15)           179.9849         estimate D2E/DX2                !
 ! D28   D(5,4,7,15)            -0.0172         estimate D2E/DX2                !
 ! D29   D(4,5,6,1)              0.001          estimate D2E/DX2                !
 ! D30   D(4,5,6,14)          -179.9997         estimate D2E/DX2                !
 ! D31   D(13,5,6,1)          -179.999          estimate D2E/DX2                !
 ! D32   D(13,5,6,14)            0.0004         estimate D2E/DX2                !
 ! D33   D(2,8,9,16)           179.9937         estimate D2E/DX2                !
 ! D34   D(10,8,9,16)           -0.0061         estimate D2E/DX2                !
 ! D35   D(2,8,10,17)          179.9945         estimate D2E/DX2                !
 ! D36   D(9,8,10,17)           -0.0057         estimate D2E/DX2                !
 --------------------------------------------------------------------------------
 Trust Radius=3.00D-01 FncErr=1.00D-07 GrdErr=1.00D-06
 Number of steps in this run=     89 maximum allowed number of steps=    108.
 GradGradGradGradGradGradGradGradGradGradGradGradGradGradGradGradGradGrad

                          Input orientation:                          
 ---------------------------------------------------------------------
 Center     Atomic      Atomic             Coordinates (Angstroms)
 Number     Number       Type             X           Y           Z
 ---------------------------------------------------------------------
      1          6           0        0.218520    1.268441   -0.000001
      2          6           0        0.421840   -0.136467   -0.000004
      3          6           0       -0.694512   -1.011562    0.000011
      4          6           0       -1.975059   -0.513021    0.000013
      5          6           0       -2.164514    0.880938    0.000006
      6          6           0       -1.092132    1.749589    0.000009
      7          8           0       -2.994648   -1.398914   -0.000021
      8          6           0        1.717439   -0.714336   -0.000009
      9          8           0        1.803839   -2.016818    0.000084
     10          8           0        2.778597    0.031693   -0.000107
     11          8           0        1.277125    2.085629   -0.000001
     12          1           0       -0.549276   -2.083938    0.000014
     13          1           0       -3.171953    1.287717   -0.000003
     14          1           0       -1.266382    2.820881    0.000009
     15          1           0       -3.858502   -0.968172    0.000218
     16          1           0        2.698772   -2.392069   -0.000016
     17          1           0        3.631270   -0.433385   -0.000020
     18          1           0        1.007276    3.014760    0.000001
 ---------------------------------------------------------------------
                    Distance matrix (angstroms):
                    1          2          3          4          5
     1  C    0.000000
     2  C    1.419544   0.000000
     3  C    2.456021   1.418462   0.000000
     4  C    2.825844   2.426297   1.374170   0.000000
     5  C    2.414334   2.779270   2.396343   1.406775   0.000000
     6  C    1.396178   2.418536   2.789634   2.428778   1.380057
     7  O    4.176031   3.642274   2.332524   1.350692   2.426283
     8  C    2.485591   1.418629   2.430196   3.697982   4.196958
     9  O    3.647761   2.333590   2.693009   4.067121   4.913737
    10  O    2.843157   2.362749   3.626412   4.784763   5.015532
    11  O    1.337326   2.381013   3.671504   4.162894   3.646390
    12  H    3.439180   2.176169   1.082166   2.121471   3.376312
    13  H    3.390528   3.865702   3.380000   2.162224   1.086463
    14  H    2.148256   3.405290   3.874875   3.408390   2.137760
    15  H    4.650220   4.360397   3.164288   1.937658   2.507749
    16  H    4.421649   3.205021   3.663356   5.037412   5.862092
    17  H    3.813538   3.223135   4.364250   5.606895   5.942942
    18  H    1.916185   3.205147   4.371196   4.619476   3.822754
                    6          7          8          9         10
     6  C    0.000000
     7  O    3.678673   0.000000
     8  C    3.736926   4.761556   0.000000
     9  O    4.751049   4.838107   1.305345   0.000000
    10  O    4.234821   5.947856   1.297157   2.268601   0.000000
    11  O    2.392969   5.512720   2.834375   4.136121   2.544223
    12  H    3.871772   2.539508   2.648359   2.354072   3.943429
    13  H    2.130488   2.692475   5.283405   5.973145   6.081664
    14  H    1.085371   4.559997   4.626116   5.729711   4.913392
    15  H    3.878019   0.965289   5.581716   5.758625   6.711990
    16  H    5.614649   5.779393   1.943657   0.970422   2.425076
    17  H    5.203451   6.695897   1.934343   2.418008   0.971261
    18  H    2.451157   5.957845   3.796115   5.094241   3.469332
                   11         12         13         14         15
    11  O    0.000000
    12  H    4.552036   0.000000
    13  H    4.520062   4.271591   0.000000
    14  H    2.647645   4.956964   2.445770   0.000000
    15  H    5.974978   3.492264   2.358047   4.590861   0.000000
    16  H    4.697963   3.262631   6.928653   6.549603   6.710091
    17  H    3.447815   4.494585   7.017552   5.880242   7.508840
    18  H    0.967524   5.331001   4.522016   2.281909   6.288048
                   16         17         18
    16  H    0.000000
    17  H    2.169331   0.000000
    18  H    5.665241   4.333018   0.000000
 Stoichiometry    C7H7O4(1+)
 Framework group  C1[X(C7H7O4)]
 Deg. of freedom    48
 Full point group                 C1      NOp   1
 Largest Abelian subgroup         C1      NOp   1
 Largest concise Abelian subgroup C1      NOp   1
                         Standard orientation:                         
 ---------------------------------------------------------------------
 Center     Atomic      Atomic             Coordinates (Angstroms)
 Number     Number       Type             X           Y           Z
 ---------------------------------------------------------------------
      1          6           0        0.218520    1.268441   -0.000001
      2          6           0        0.421840   -0.136467   -0.000004
      3          6           0       -0.694512   -1.011562    0.000011
      4          6           0       -1.975059   -0.513021    0.000013
      5          6           0       -2.164514    0.880938    0.000006
      6          6           0       -1.092132    1.749589    0.000009
      7          8           0       -2.994648   -1.398914   -0.000021
      8          6           0        1.717439   -0.714336   -0.000009
      9          8           0        1.803839   -2.016818    0.000084
     10          8           0        2.778597    0.031693   -0.000107
     11          8           0        1.277125    2.085629   -0.000001
     12          1           0       -0.549276   -2.083938    0.000014
     13          1           0       -3.171953    1.287717   -0.000003
     14          1           0       -1.266382    2.820881    0.000009
     15          1           0       -3.858502   -0.968172    0.000218
     16          1           0        2.698772   -2.392069   -0.000016
     17          1           0        3.631270   -0.433385   -0.000020
     18          1           0        1.007276    3.014760    0.000001
 ---------------------------------------------------------------------
 Rotational constants (GHZ):      1.7858526      0.9102282      0.6029246
 Standard basis: 6-31+G(d,p) (6D, 7F)
 There are   244 symmetry adapted cartesian basis functions of A   symmetry.
 There are   244 symmetry adapted basis functions of A   symmetry.
   244 basis functions,   401 primitive gaussians,   244 cartesian basis functions
    40 alpha electrons       40 beta electrons
       nuclear repulsion energy       608.3935479087 Hartrees.
 NAtoms=   18 NActive=   18 NUniq=   18 SFac= 1.00D+00 NAtFMM=   60 NAOKFM=F Big=F
 Integral buffers will be    131072 words long.
 Raffenetti 2 integral format.
 Two-electron integral symmetry is turned on.
 R6APFD:  NTU= -4 IXU= 1 FactS= 1.050
 Nuclear repulsion after empirical dispersion term =      608.3817077937 Hartrees.
 One-electron integrals computed using PRISM.
 NBasis=   244 RedAO= T EigKep=  3.15D-06  NBF=   244
 NBsUse=   244 1.00D-06 EigRej= -1.00D+00 NBFU=   244
 ExpMin= 4.38D-02 ExpMax= 5.48D+03 ExpMxC= 8.25D+02 IAcc=2 IRadAn=         4 AccDes= 0.00D+00
 Harris functional with IExCor= 3731 and IRadAn=       4 diagonalized for initial guess.
 HarFok:  IExCor= 3731 AccDes= 0.00D+00 IRadAn=         4 IDoV= 1 UseB2=F ITyADJ=14
 ICtDFT=  3500011 ScaDFX=  1.000000  1.000000  1.000000  1.000000
 FoFCou: FMM=F IPFlag=           0 FMFlag=      100000 FMFlg1=           0
         NFxFlg=           0 DoJE=T BraDBF=F KetDBF=T FulRan=T
         wScrn=  0.000000 ICntrl=     500 IOpCl=  0 I1Cent=   200000004 NGrid=           0
         NMat0=    1 NMatS0=      1 NMatT0=    0 NMatD0=    1 NMtDS0=    0 NMtDT0=    0
 Petite list used in FoFCou.
 Keep R1 ints in memory in canonical form, NReq=454277305.
 Requested convergence on RMS density matrix=1.00D-08 within 128 cycles.
 Requested convergence on MAX density matrix=1.00D-06.
 Requested convergence on             energy=1.00D-06.
 No special actions if energy rises.
 SCF Done:  E(RAPFD) =  -571.180571985     A.U. after   16 cycles
            NFock= 16  Conv=0.42D-08     -V/T= 2.0085

 **********************************************************************

            Population analysis using the SCF density.

 **********************************************************************

 Orbital symmetries:
       Occupied  (A) (A) (A) (A) (A) (A) (A) (A) (A) (A) (A) (A)
                 (A) (A) (A) (A) (A) (A) (A) (A) (A) (A) (A) (A)
                 (A) (A) (A) (A) (A) (A) (A) (A) (A) (A) (A) (A)
                 (A) (A) (A) (A)
       Virtual   (A) (A) (A) (A) (A) (A) (A) (A) (A) (A) (A) (A)
                 (A) (A) (A) (A) (A) (A) (A) (A) (A) (A) (A) (A)
                 (A) (A) (A) (A) (A) (A) (A) (A) (A) (A) (A) (A)
                 (A) (A) (A) (A) (A) (A) (A) (A) (A) (A) (A) (A)
                 (A) (A) (A) (A) (A) (A) (A) (A) (A) (A) (A) (A)
                 (A) (A) (A) (A) (A) (A) (A) (A) (A) (A) (A) (A)
                 (A) (A) (A) (A) (A) (A) (A) (A) (A) (A) (A) (A)
                 (A) (A) (A) (A) (A) (A) (A) (A) (A) (A) (A) (A)
                 (A) (A) (A) (A) (A) (A) (A) (A) (A) (A) (A) (A)
                 (A) (A) (A) (A) (A) (A) (A) (A) (A) (A) (A) (A)
                 (A) (A) (A) (A) (A) (A) (A) (A) (A) (A) (A) (A)
                 (A) (A) (A) (A) (A) (A) (A) (A) (A) (A) (A) (A)
                 (A) (A) (A) (A) (A) (A) (A) (A) (A) (A) (A) (A)
                 (A) (A) (A) (A) (A) (A) (A) (A) (A) (A) (A) (A)
                 (A) (A) (A) (A) (A) (A) (A) (A) (A) (A) (A) (A)
                 (A) (A) (A) (A) (A) (A) (A) (A) (A) (A) (A) (A)
                 (A) (A) (A) (A) (A) (A) (A) (A) (A) (A) (A) (A)
 The electronic state is 1-A.
 Alpha  occ. eigenvalues --  -19.46534 -19.46525 -19.39819 -19.36583 -10.58039
 Alpha  occ. eigenvalues --  -10.46375 -10.43244 -10.41236 -10.39387 -10.38362
 Alpha  occ. eigenvalues --  -10.38348  -1.37684  -1.29511  -1.26282  -1.22834
 Alpha  occ. eigenvalues --   -1.05153  -0.98489  -0.92598  -0.89551  -0.85374
 Alpha  occ. eigenvalues --   -0.81173  -0.79835  -0.74660  -0.72501  -0.68986
 Alpha  occ. eigenvalues --   -0.68971  -0.67477  -0.64004  -0.60785  -0.59781
 Alpha  occ. eigenvalues --   -0.59540  -0.58805  -0.57441  -0.57434  -0.56092
 Alpha  occ. eigenvalues --   -0.52776  -0.50985  -0.48412  -0.44434  -0.37791
 Alpha virt. eigenvalues --   -0.25325  -0.17102  -0.15337  -0.12156  -0.11539
 Alpha virt. eigenvalues --   -0.10815  -0.09783  -0.08709  -0.07416  -0.06888
 Alpha virt. eigenvalues --   -0.05306  -0.04059  -0.03163  -0.02707  -0.02259
 Alpha virt. eigenvalues --   -0.01618   0.00987   0.01094   0.02062   0.02114
 Alpha virt. eigenvalues --    0.02479   0.02783   0.02951   0.04538   0.04582
 Alpha virt. eigenvalues --    0.05047   0.05314   0.06407   0.06865   0.07530
 Alpha virt. eigenvalues --    0.07752   0.08955   0.09160   0.09975   0.10395
 Alpha virt. eigenvalues --    0.10703   0.10907   0.12392   0.13087   0.13849
 Alpha virt. eigenvalues --    0.14165   0.14359   0.15063   0.15643   0.16067
 Alpha virt. eigenvalues --    0.16755   0.18225   0.18919   0.19290   0.19899
 Alpha virt. eigenvalues --    0.20028   0.20807   0.21500   0.23686   0.24550
 Alpha virt. eigenvalues --    0.24795   0.27489   0.28096   0.28931   0.29935
 Alpha virt. eigenvalues --    0.31459   0.33688   0.34910   0.37459   0.46223
 Alpha virt. eigenvalues --    0.47557   0.51324   0.52381   0.54129   0.56301
 Alpha virt. eigenvalues --    0.57746   0.58963   0.59641   0.60612   0.61832
 Alpha virt. eigenvalues --    0.63483   0.65096   0.69764   0.69769   0.72749
 Alpha virt. eigenvalues --    0.74142   0.79820   0.80487   0.84093   0.85159
 Alpha virt. eigenvalues --    0.87005   0.89647   0.91266   0.93190   0.94481
 Alpha virt. eigenvalues --    0.96019   0.96802   0.99317   1.01525   1.01993
 Alpha virt. eigenvalues --    1.03399   1.04518   1.05993   1.06053   1.08308
 Alpha virt. eigenvalues --    1.08322   1.10592   1.10981   1.11762   1.12297
 Alpha virt. eigenvalues --    1.13617   1.13748   1.17532   1.17560   1.18132
 Alpha virt. eigenvalues --    1.21592   1.22348   1.23519   1.24812   1.25572
 Alpha virt. eigenvalues --    1.28193   1.32152   1.35664   1.36459   1.41272
 Alpha virt. eigenvalues --    1.42652   1.43703   1.45398   1.46771   1.49637
 Alpha virt. eigenvalues --    1.54529   1.56979   1.60759   1.61470   1.62483
 Alpha virt. eigenvalues --    1.71481   1.73215   1.75261   1.76096   1.77535
 Alpha virt. eigenvalues --    1.79115   1.80102   1.80282   1.83341   1.87271
 Alpha virt. eigenvalues --    1.88296   1.89112   1.91967   1.99337   2.05780
 Alpha virt. eigenvalues --    2.06618   2.09147   2.11079   2.13621   2.16420
 Alpha virt. eigenvalues --    2.18981   2.21311   2.22307   2.24296   2.26078
 Alpha virt. eigenvalues --    2.27109   2.30767   2.32436   2.34429   2.35081
 Alpha virt. eigenvalues --    2.36998   2.39283   2.41985   2.43352   2.45480
 Alpha virt. eigenvalues --    2.46229   2.47771   2.49249   2.51435   2.53740
 Alpha virt. eigenvalues --    2.57796   2.58495   2.60415   2.60858   2.64342
 Alpha virt. eigenvalues --    2.66810   2.73925   2.79938   2.82520   2.89629
 Alpha virt. eigenvalues --    2.92262   2.96591   3.02530   3.06232   3.10886
 Alpha virt. eigenvalues --    3.18639   3.25093   3.34029   3.34857   3.39591
 Alpha virt. eigenvalues --    3.42051   3.44167   3.67266   4.08831   4.12481
 Alpha virt. eigenvalues --    4.16923   4.20563   4.20923   4.32898   4.37380
 Alpha virt. eigenvalues --    4.44513   4.48717   4.69678   4.84046
          Condensed to atoms (all electrons):
               1          2          3          4          5          6
     1  C   17.994723  -4.106797  -3.205255   0.418905   0.845938  -4.242310
     2  C   -4.106797  11.056593  -2.062852   1.309523  -0.809320   0.584507
     3  C   -3.205255  -2.062852  14.627451  -4.212240   0.105131  -0.039530
     4  C    0.418905   1.309523  -4.212240   9.569605  -0.701547   0.815104
     5  C    0.845938  -0.809320   0.105131  -0.701547   6.583930  -0.707876
     6  C   -4.242310   0.584507  -0.039530   0.815104  -0.707876   9.357959
     7  O   -0.027719   0.038660   0.063698  -0.028154  -0.096779   0.043246
     8  C   -0.903966  -0.489017   0.623469  -0.876525   0.130034  -0.362391
     9  O   -0.048178   0.117639  -0.067476   0.041684  -0.007490   0.036809
    10  O   -0.129574   0.102859  -0.059677   0.022227   0.005696   0.078227
    11  O    0.201094  -0.229764   0.076349  -0.010265   0.040215   0.090416
    12  H    0.004672   0.059926   0.081271   0.142219   0.011466   0.006995
    13  H    0.001612   0.017505  -0.039781   0.067432   0.188651   0.094059
    14  H    0.068587  -0.030046  -0.003165  -0.011048   0.147224   0.151414
    15  H    0.002284  -0.006938   0.076162  -0.039721  -0.028633  -0.002213
    16  H   -0.007859  -0.030239   0.022573  -0.003520   0.000342   0.004650
    17  H   -0.005387  -0.004853   0.004890   0.005789  -0.000486  -0.011716
    18  H    0.004147   0.106714  -0.008824   0.003306  -0.002300  -0.120974
               7          8          9         10         11         12
     1  C   -0.027719  -0.903966  -0.048178  -0.129574   0.201094   0.004672
     2  C    0.038660  -0.489017   0.117639   0.102859  -0.229764   0.059926
     3  C    0.063698   0.623469  -0.067476  -0.059677   0.076349   0.081271
     4  C   -0.028154  -0.876525   0.041684   0.022227  -0.010265   0.142219
     5  C   -0.096779   0.130034  -0.007490   0.005696   0.040215   0.011466
     6  C    0.043246  -0.362391   0.036809   0.078227   0.090416   0.006995
     7  O    8.297994  -0.005356   0.000032   0.000136   0.000345  -0.006946
     8  C   -0.005356   6.804924   0.054893   0.120565  -0.193535   0.017966
     9  O    0.000032   0.054893   8.164770  -0.106642   0.001237   0.000429
    10  O    0.000136   0.120565  -0.106642   8.182245  -0.013293   0.000564
    11  O    0.000345  -0.193535   0.001237  -0.013293   8.312873  -0.000218
    12  H   -0.006946   0.017966   0.000429   0.000564  -0.000218   0.468212
    13  H   -0.012343   0.001588   0.000001   0.000018  -0.000509  -0.000122
    14  H   -0.000469   0.011784   0.000005  -0.000002  -0.015336   0.000008
    15  H    0.223166   0.002697   0.000009   0.000002  -0.000009  -0.000056
    16  H    0.000007   0.042257   0.211074  -0.014363   0.000132   0.000296
    17  H    0.000001   0.039531  -0.015447   0.195100   0.004525   0.000009
    18  H   -0.000008   0.022391  -0.000033   0.000744   0.208583   0.000003
              13         14         15         16         17         18
     1  C    0.001612   0.068587   0.002284  -0.007859  -0.005387   0.004147
     2  C    0.017505  -0.030046  -0.006938  -0.030239  -0.004853   0.106714
     3  C   -0.039781  -0.003165   0.076162   0.022573   0.004890  -0.008824
     4  C    0.067432  -0.011048  -0.039721  -0.003520   0.005789   0.003306
     5  C    0.188651   0.147224  -0.028633   0.000342  -0.000486  -0.002300
     6  C    0.094059   0.151414  -0.002213   0.004650  -0.011716  -0.120974
     7  O   -0.012343  -0.000469   0.223166   0.000007   0.000001  -0.000008
     8  C    0.001588   0.011784   0.002697   0.042257   0.039531   0.022391
     9  O    0.000001   0.000005   0.000009   0.211074  -0.015447  -0.000033
    10  O    0.000018  -0.000002   0.000002  -0.014363   0.195100   0.000744
    11  O   -0.000509  -0.015336  -0.000009   0.000132   0.004525   0.208583
    12  H   -0.000122   0.000008  -0.000056   0.000296   0.000009   0.000003
    13  H    0.491112  -0.004269   0.004900  -0.000000   0.000000  -0.000017
    14  H   -0.004269   0.492561  -0.000006  -0.000000  -0.000000   0.006993
    15  H    0.004900  -0.000006   0.383556   0.000000   0.000000  -0.000000
    16  H   -0.000000  -0.000000   0.000000   0.355310   0.007409  -0.000000
    17  H    0.000000  -0.000000   0.000000   0.007409   0.351180   0.000004
    18  H   -0.000017   0.006993  -0.000000  -0.000000   0.000004   0.358316
 Mulliken charges:
               1
     1  C   -0.864918
     2  C    0.375898
     3  C    0.017805
     4  C   -0.512775
     5  C    0.295803
     6  C    0.223624
     7  O   -0.489512
     8  C    0.958691
     9  O   -0.383314
    10  O   -0.384830
    11  O   -0.472840
    12  H    0.213305
    13  H    0.190160
    14  H    0.185764
    15  H    0.384801
    16  H    0.411933
    17  H    0.429450
    18  H    0.420955
 Sum of Mulliken charges =   1.00000
 Mulliken charges with hydrogens summed into heavy atoms:
               1
     1  C   -0.864918
     2  C    0.375898
     3  C    0.231111
     4  C   -0.512775
     5  C    0.485963
     6  C    0.409388
     7  O   -0.104711
     8  C    0.958691
     9  O    0.028619
    10  O    0.044620
    11  O   -0.051885
 Electronic spatial extent (au):  <R**2>=           1722.3819
 Charge=              1.0000 electrons
 Dipole moment (field-independent basis, Debye):
    X=              3.9772    Y=              0.3377    Z=              0.0004  Tot=              3.9915
 Quadrupole moment (field-independent basis, Debye-Ang):
   XX=            -13.4046   YY=            -39.9200   ZZ=            -63.4223
   XY=            -16.8326   XZ=             -0.0019   YZ=              0.0000
 Traceless Quadrupole moment (field-independent basis, Debye-Ang):
   XX=             25.5110   YY=             -1.0044   ZZ=            -24.5066
   XY=            -16.8326   XZ=             -0.0019   YZ=              0.0000
 Octapole moment (field-independent basis, Debye-Ang**2):
  XXX=             43.2669  YYY=             30.3022  ZZZ=             -0.0001  XYY=             34.4577
  XXY=            -39.2822  XXZ=              0.0077  XZZ=              8.7882  YZZ=             -3.1452
  YYZ=             -0.0006  XYZ=              0.0029
 Hexadecapole moment (field-independent basis, Debye-Ang**3):
 XXXX=           -558.3204 YYYY=           -487.9840 ZZZZ=            -61.5314 XXXY=           -141.1431
 XXXZ=             -0.0255 YYYX=            -50.1012 YYYZ=              0.0043 ZZZX=              0.0038
 ZZZY=              0.0025 XXYY=           -255.7709 XXZZ=           -234.3590 YYZZ=           -135.4080
 XXYZ=             -0.0046 YYXZ=             -0.0025 ZZXY=              1.1196
 N-N= 6.083817077937D+02 E-N=-2.538529308407D+03  KE= 5.663749342252D+02
 R6APFD:  NTU= -4 IXU= 1 FactS= 1.050
 Calling FoFJK, ICntrl=      2127 FMM=F ISym2X=0 I1Cent= 0 IOpClX= 0 NMat=1 NMatS=1 NMatT=0.
 ***** Axes restored to original set *****
 -------------------------------------------------------------------
 Center     Atomic                   Forces (Hartrees/Bohr)
 Number     Number              X              Y              Z
 -------------------------------------------------------------------
      1        6           0.003165024    0.005329568    0.000000106
      2        6           0.000933623   -0.002793965    0.000000033
      3        6           0.003081268   -0.001848366   -0.000000385
      4        6          -0.007272334   -0.002839590   -0.000000675
      5        6          -0.001853541    0.002236211    0.000000741
      6        6          -0.000360740    0.001464800   -0.000000164
      7        8           0.001355487   -0.000298327    0.000002164
      8        6           0.001743944   -0.001762859   -0.000000198
      9        8          -0.000792303   -0.004530577    0.000000346
     10        8           0.003027139    0.004044202   -0.000000095
     11        8           0.000560390   -0.000078440   -0.000000135
     12        1           0.000230591   -0.001149232   -0.000000104
     13        1          -0.001063584    0.000577556   -0.000000037
     14        1          -0.000416321    0.001206121    0.000000029
     15        1           0.001690970    0.000307958   -0.000001671
     16        1          -0.001526599    0.001476346    0.000000175
     17        1          -0.002112705    0.000300935   -0.000000221
     18        1          -0.000390310   -0.001642340    0.000000092
 -------------------------------------------------------------------
 Cartesian Forces:  Max     0.007272334 RMS     0.001953514

 GradGradGradGradGradGradGradGradGradGradGradGradGradGradGradGradGradGrad
 Berny optimization.
 FormGI is forming the generalized inverse of G from B-inverse, IUseBI=4.
 Internal  Forces:  Max     0.004785068 RMS     0.001474132
 Search for a local minimum.
 Step number   1 out of a maximum of   89
 All quantities printed in internal units (Hartrees-Bohrs-Radians)
 Mixed Optimization -- RFO/linear search
 Second derivative matrix not updated -- first step.
 ITU=  0
     Eigenvalues ---    0.01838   0.01842   0.01905   0.02057   0.02106
     Eigenvalues ---    0.02141   0.02186   0.02219   0.02253   0.02293
     Eigenvalues ---    0.02344   0.02432   0.02521   0.02944   0.03052
     Eigenvalues ---    0.16000   0.16000   0.16000   0.16000   0.16000
     Eigenvalues ---    0.16000   0.16000   0.22358   0.23489   0.24600
     Eigenvalues ---    0.25000   0.25000   0.25000   0.25000   0.25000
     Eigenvalues ---    0.35225   0.35353   0.35734   0.40043   0.41318
     Eigenvalues ---    0.42667   0.43734   0.44929   0.47965   0.49405
     Eigenvalues ---    0.53120   0.53291   0.53886   0.54351   0.54874
     Eigenvalues ---    0.57808   0.65730   0.67989
 RFO step:  Lambda=-4.49414078D-04 EMin= 1.83808510D-02
 Linear search not attempted -- first point.
 Iteration  1 RMS(Cart)=  0.00593108 RMS(Int)=  0.00001616
 Iteration  2 RMS(Cart)=  0.00002150 RMS(Int)=  0.00000039
 Iteration  3 RMS(Cart)=  0.00000000 RMS(Int)=  0.00000039
 Variable       Old X    -DE/DX   Delta X   Delta X   Delta X     New X
                                 (Linear)    (Quad)   (Total)
    R1        2.68255   0.00427   0.00000   0.00984   0.00984   2.69239
    R2        2.63839   0.00368   0.00000   0.00792   0.00792   2.64632
    R3        2.52718  -0.00092   0.00000  -0.00158  -0.00158   2.52560
    R4        2.68050   0.00134   0.00000   0.00298   0.00298   2.68349
    R5        2.68082   0.00050   0.00000   0.00118   0.00118   2.68200
    R6        2.59681   0.00467   0.00000   0.00934   0.00934   2.60615
    R7        2.04500   0.00117   0.00000   0.00327   0.00327   2.04827
    R8        2.65842   0.00479   0.00000   0.01093   0.01093   2.66935
    R9        2.55244  -0.00231   0.00000  -0.00420  -0.00420   2.54824
   R10        2.60793   0.00352   0.00000   0.00731   0.00731   2.61524
   R11        2.05312   0.00120   0.00000   0.00341   0.00341   2.05653
   R12        2.05105   0.00126   0.00000   0.00355   0.00355   2.05461
   R13        1.82413  -0.00137   0.00000  -0.00253  -0.00253   1.82161
   R14        2.46674   0.00290   0.00000   0.00440   0.00440   2.47115
   R15        2.45127   0.00324   0.00000   0.00477   0.00477   2.45604
   R16        1.83383  -0.00198   0.00000  -0.00371  -0.00371   1.83012
   R17        1.83542  -0.00200   0.00000  -0.00376  -0.00376   1.83166
   R18        1.82836  -0.00147   0.00000  -0.00272  -0.00272   1.82563
    A1        2.06635  -0.00038   0.00000  -0.00194  -0.00194   2.06441
    A2        2.08447  -0.00091   0.00000  -0.00341  -0.00341   2.08106
    A3        2.13236   0.00129   0.00000   0.00535   0.00535   2.13771
    A4        2.09191   0.00070   0.00000   0.00216   0.00216   2.09407
    A5        2.13406  -0.00056   0.00000  -0.00193  -0.00193   2.13214
    A6        2.05721  -0.00014   0.00000  -0.00024  -0.00023   2.05698
    A7        2.10549   0.00014   0.00000   0.00037   0.00037   2.10586
    A8        2.10102  -0.00014   0.00000  -0.00065  -0.00065   2.10037
    A9        2.07668   0.00001   0.00000   0.00028   0.00028   2.07696
   A10        2.07714  -0.00040   0.00000  -0.00122  -0.00122   2.07592
   A11        2.05498  -0.00139   0.00000  -0.00575  -0.00575   2.04923
   A12        2.15106   0.00180   0.00000   0.00698   0.00698   2.15804
   A13        2.11653  -0.00023   0.00000  -0.00039  -0.00039   2.11614
   A14        2.08964   0.00026   0.00000   0.00109   0.00109   2.09073
   A15        2.07701  -0.00003   0.00000  -0.00070  -0.00070   2.07632
   A16        2.10894   0.00018   0.00000   0.00102   0.00102   2.10996
   A17        2.08387   0.00013   0.00000   0.00087   0.00087   2.08474
   A18        2.09038  -0.00031   0.00000  -0.00189  -0.00189   2.08849
   A19        1.96369  -0.00188   0.00000  -0.01173  -0.01173   1.95196
   A20        2.05658  -0.00119   0.00000  -0.00475  -0.00475   2.05183
   A21        2.10929  -0.00242   0.00000  -0.00968  -0.00968   2.09961
   A22        2.11732   0.00361   0.00000   0.01443   0.01443   2.13175
   A23        2.03407  -0.00141   0.00000  -0.00879  -0.00879   2.02529
   A24        2.02950  -0.00138   0.00000  -0.00858  -0.00858   2.02092
   A25        1.94554  -0.00152   0.00000  -0.00947  -0.00947   1.93607
    D1       -0.00001  -0.00000   0.00000  -0.00000  -0.00000  -0.00001
    D2       -3.14159  -0.00000   0.00000   0.00000   0.00000  -3.14159
    D3        3.14158   0.00000   0.00000   0.00000   0.00000   3.14158
    D4       -0.00000   0.00000   0.00000   0.00000   0.00000  -0.00000
    D5       -0.00001   0.00000   0.00000   0.00000   0.00000  -0.00001
    D6       -3.14159  -0.00000   0.00000  -0.00000  -0.00000  -3.14159
    D7        3.14159   0.00000   0.00000   0.00000   0.00000   3.14159
    D8        0.00001  -0.00000   0.00000  -0.00000  -0.00000   0.00001
    D9        3.14159   0.00000   0.00000   0.00000   0.00000  -3.14159
   D10       -0.00001   0.00000   0.00000   0.00000   0.00000  -0.00000
   D11        0.00001   0.00000   0.00000  -0.00000  -0.00000   0.00001
   D12       -3.14159  -0.00000   0.00000  -0.00000  -0.00000  -3.14159
   D13       -3.14159  -0.00000   0.00000  -0.00000  -0.00000  -3.14159
   D14       -0.00000  -0.00000   0.00000  -0.00000  -0.00000  -0.00001
   D15        3.14151  -0.00000   0.00000  -0.00000  -0.00000   3.14151
   D16       -0.00009   0.00000   0.00000   0.00000   0.00000  -0.00009
   D17       -0.00007  -0.00000   0.00000  -0.00000  -0.00000  -0.00008
   D18        3.14152   0.00000   0.00000   0.00000   0.00000   3.14152
   D19       -0.00000  -0.00000   0.00000  -0.00000  -0.00000  -0.00001
   D20        3.14155   0.00000   0.00000   0.00000   0.00000   3.14156
   D21       -3.14159   0.00000   0.00000   0.00000   0.00000  -3.14159
   D22       -0.00003   0.00000   0.00000   0.00000   0.00000  -0.00003
   D23       -0.00001   0.00000   0.00000   0.00000   0.00000  -0.00001
   D24        3.14158   0.00000   0.00000   0.00000   0.00000   3.14158
   D25       -3.14156  -0.00000   0.00000  -0.00000  -0.00000  -3.14157
   D26        0.00003  -0.00000   0.00000  -0.00000  -0.00000   0.00002
   D27        3.14133   0.00000   0.00000   0.00005   0.00005   3.14138
   D28       -0.00030   0.00000   0.00000   0.00005   0.00005  -0.00025
   D29        0.00002  -0.00000   0.00000  -0.00000  -0.00000   0.00001
   D30       -3.14159  -0.00000   0.00000  -0.00000  -0.00000  -3.14159
   D31       -3.14157  -0.00000   0.00000  -0.00000  -0.00000  -3.14158
   D32        0.00001   0.00000   0.00000   0.00000   0.00000   0.00001
   D33        3.14148   0.00000   0.00000   0.00000   0.00000   3.14149
   D34       -0.00011   0.00000   0.00000  -0.00000  -0.00000  -0.00011
   D35        3.14150   0.00000   0.00000   0.00000   0.00000   3.14150
   D36       -0.00010   0.00000   0.00000   0.00001   0.00001  -0.00009
         Item               Value     Threshold  Converged?
 Maximum Force            0.004785     0.000450     NO 
 RMS     Force            0.001474     0.000300     NO 
 Maximum Displacement     0.019226     0.001800     NO 
 RMS     Displacement     0.005932     0.001200     NO 
 Predicted change in Energy=-2.250245D-04
 GradGradGradGradGradGradGradGradGradGradGradGradGradGradGradGradGradGrad

                          Input orientation:                          
 ---------------------------------------------------------------------
 Center     Atomic      Atomic             Coordinates (Angstroms)
 Number     Number       Type             X           Y           Z
 ---------------------------------------------------------------------
      1          6           0        0.222391    1.271503   -0.000002
      2          6           0        0.423452   -0.138989   -0.000004
      3          6           0       -0.694116   -1.015092    0.000014
      4          6           0       -1.979469   -0.515273    0.000018
      5          6           0       -2.168551    0.884573    0.000012
      6          6           0       -1.092103    1.754351    0.000010
      7          8           0       -2.991919   -1.405954   -0.000009
      8          6           0        1.719501   -0.717375   -0.000011
      9          8           0        1.799589   -2.022596    0.000087
     10          8           0        2.775591    0.040148   -0.000111
     11          8           0        1.284843    2.082304   -0.000005
     12          1           0       -0.547917   -2.089083    0.000016
     13          1           0       -3.176882    1.293956    0.000005
     14          1           0       -1.267376    2.827382    0.000010
     15          1           0       -3.852163   -0.971000    0.000188
     16          1           0        2.694139   -2.393662   -0.000011
     17          1           0        3.626936   -0.423211   -0.000026
     18          1           0        1.011753    3.008984   -0.000000
 ---------------------------------------------------------------------
                    Distance matrix (angstroms):
                    1          2          3          4          5
     1  C    0.000000
     2  C    1.424750   0.000000
     3  C    2.463433   1.420040   0.000000
     4  C    2.835623   2.432204   1.379113   0.000000
     5  C    2.422048   2.786782   2.404722   1.412558   0.000000
     6  C    1.400370   2.425210   2.797894   2.436927   1.383927
     7  O    4.183368   3.642795   2.330810   1.348468   2.434019
     8  C    2.489373   1.419252   2.431909   3.704487   4.205138
     9  O    3.652211   2.332752   2.689540   4.068575   4.919122
    10  O    2.834619   2.358951   3.626623   4.787389   5.015734
    11  O    1.336489   2.382464   3.675614   4.171707   3.655200
    12  H    3.447740   2.178629   1.083896   2.127491   3.386603
    13  H    3.399347   3.875014   3.390551   2.169587   1.088267
    14  H    2.154103   3.414418   3.885001   3.417663   2.141640
    15  H    4.650893   4.355814   3.158355   1.927347   2.505534
    16  H    4.420744   3.199934   3.657968   5.036960   5.864519
    17  H    3.803023   3.216068   4.361400   5.607161   5.941209
    18  H    1.908385   3.202473   4.370718   4.622532   3.824585
                    6          7          8          9         10
     6  C    0.000000
     7  O    3.687387   0.000000
     8  C    3.743601   4.761473   0.000000
     9  O    4.756807   4.831025   1.307675   0.000000
    10  O    4.230550   5.946040   1.299680   2.281993   0.000000
    11  O    2.399464   5.518934   2.833219   4.137048   2.528385
    12  H    3.881768   2.537679   2.650050   2.348447   3.947066
    13  H    2.135009   2.706238   5.293394   5.980366   6.083089
    14  H    1.087251   4.571124   4.635378   5.738341   4.910626
    15  H    3.878848   0.963952   5.577433   5.748752   6.704442
    16  H    5.616195   5.771207   1.939035   0.968458   2.435173
    17  H    5.197221   6.691414   1.929984   2.428421   0.969273
    18  H    2.449554   5.959955   3.792975   5.092885   3.453275
                   11         12         13         14         15
    11  O    0.000000
    12  H    4.556257   0.000000
    13  H    4.530836   4.284438   0.000000
    14  H    2.658752   4.968827   2.449001   0.000000
    15  H    5.975909   3.488287   2.363479   4.594434   0.000000
    16  H    4.692589   3.256332   6.933067   6.553846   6.699107
    17  H    3.429723   4.494944   7.017164   5.875427   7.499132
    18  H    0.966082   5.331309   4.526144   2.286352   6.284739
                   16         17         18
    16  H    0.000000
    17  H    2.180089   0.000000
    18  H    5.658534   4.314991   0.000000
 Stoichiometry    C7H7O4(1+)
 Framework group  C1[X(C7H7O4)]
 Deg. of freedom    48
 Full point group                 C1      NOp   1
 Largest Abelian subgroup         C1      NOp   1
 Largest concise Abelian subgroup C1      NOp   1
                         Standard orientation:                         
 ---------------------------------------------------------------------
 Center     Atomic      Atomic             Coordinates (Angstroms)
 Number     Number       Type             X           Y           Z
 ---------------------------------------------------------------------
      1          6           0        0.225352    1.271596   -0.000003
      2          6           0        0.422855   -0.139398   -0.000005
      3          6           0       -0.696918   -1.012681    0.000013
      4          6           0       -1.981007   -0.509622    0.000017
      5          6           0       -2.166558    0.890696    0.000010
      6          6           0       -1.087921    1.757757    0.000009
      7          8           0       -2.995700   -1.397747   -0.000010
      8          6           0        1.717442   -0.721051   -0.000012
      9          8           0        1.794238   -2.026470    0.000086
     10          8           0        2.775439    0.033807   -0.000112
     11          8           0        1.289845    2.079715   -0.000006
     12          1           0       -0.553428   -2.087037    0.000015
     13          1           0       -3.173853    1.302621    0.000004
     14          1           0       -1.260486    2.831226    0.000009
     15          1           0       -3.854844   -0.960625    0.000187
     16          1           0        2.687850   -2.399791   -0.000013
     17          1           0        3.625612   -0.431698   -0.000027
     18          1           0        1.019093    3.007081   -0.000002
 ---------------------------------------------------------------------
 Rotational constants (GHZ):      1.7794309      0.9101391      0.6021519
 Standard basis: 6-31+G(d,p) (6D, 7F)
 There are   244 symmetry adapted cartesian basis functions of A   symmetry.
 There are   244 symmetry adapted basis functions of A   symmetry.
   244 basis functions,   401 primitive gaussians,   244 cartesian basis functions
    40 alpha electrons       40 beta electrons
       nuclear repulsion energy       607.7668849575 Hartrees.
 NAtoms=   18 NActive=   18 NUniq=   18 SFac= 1.00D+00 NAtFMM=   60 NAOKFM=F Big=F
 Integral buffers will be    131072 words long.
 Raffenetti 2 integral format.
 Two-electron integral symmetry is turned on.
 R6APFD:  NTU= -4 IXU= 1 FactS= 1.050
 Nuclear repulsion after empirical dispersion term =      607.7549288585 Hartrees.
 One-electron integrals computed using PRISM.
 NBasis=   244 RedAO= T EigKep=  3.24D-06  NBF=   244
 NBsUse=   244 1.00D-06 EigRej= -1.00D+00 NBFU=   244
 Initial guess from the checkpoint file:  "2APFDDHB21.chk"
 B after Tr=    -0.000000   -0.000000   -0.000000
         Rot=    0.999999    0.000001   -0.000001    0.001264 Ang=   0.14 deg.
 Keep R1 ints in memory in canonical form, NReq=454277305.
 Requested convergence on RMS density matrix=1.00D-08 within 128 cycles.
 Requested convergence on MAX density matrix=1.00D-06.
 Requested convergence on             energy=1.00D-06.
 No special actions if energy rises.
 SCF Done:  E(RAPFD) =  -571.180768156     A.U. after   11 cycles
            NFock= 11  Conv=0.62D-08     -V/T= 2.0086
 R6APFD:  NTU= -4 IXU= 1 FactS= 1.050
 Calling FoFJK, ICntrl=      2127 FMM=F ISym2X=0 I1Cent= 0 IOpClX= 0 NMat=1 NMatS=1 NMatT=0.
 ***** Axes restored to original set *****
 -------------------------------------------------------------------
 Center     Atomic                   Forces (Hartrees/Bohr)
 Number     Number              X              Y              Z
 -------------------------------------------------------------------
      1        6          -0.000024650    0.000744184    0.000000029
      2        6          -0.000575567   -0.000894611    0.000000037
      3        6           0.000696936    0.000713736   -0.000000391
      4        6          -0.000724784   -0.000231581   -0.000000939
      5        6           0.000298028   -0.000506412    0.000000553
      6        6           0.000061234   -0.000576106   -0.000000069
      7        8           0.000559770    0.000760783    0.000001900
      8        6          -0.001461684    0.000373295    0.000000361
      9        8           0.000629881   -0.000004288   -0.000000111
     10        8           0.000734495   -0.000506774   -0.000000003
     11        8          -0.000273087    0.000139931   -0.000000092
     12        1          -0.000157736    0.000115734   -0.000000107
     13        1           0.000088412    0.000017978    0.000000029
     14        1          -0.000101904   -0.000053598    0.000000001
     15        1          -0.000403072   -0.000118979   -0.000001183
     16        1           0.000264686   -0.000183075    0.000000022
     17        1           0.000348275   -0.000090862   -0.000000110
     18        1           0.000040770    0.000300646    0.000000074
 -------------------------------------------------------------------
 Cartesian Forces:  Max     0.001461684 RMS     0.000407288

 GradGradGradGradGradGradGradGradGradGradGradGradGradGradGradGradGradGrad
 Berny optimization.
 Using GEDIIS/GDIIS optimizer.
 FormGI is forming the generalized inverse of G from B-inverse, IUseBI=4.
 Internal  Forces:  Max     0.001546135 RMS     0.000351505
 Search for a local minimum.
 Step number   2 out of a maximum of   89
 All quantities printed in internal units (Hartrees-Bohrs-Radians)
 Mixed Optimization -- En-DIIS/RFO-DIIS
 Update second derivatives using D2CorX and points    1    2
 DE= -1.96D-04 DEPred=-2.25D-04 R= 8.72D-01
 TightC=F SS=  1.41D+00  RLast= 3.76D-02 DXNew= 5.0454D-01 1.1286D-01
 Trust test= 8.72D-01 RLast= 3.76D-02 DXMaxT set to 3.00D-01
 ITU=  1  0
 Use linear search instead of GDIIS.
     Eigenvalues ---    0.01838   0.01842   0.01905   0.02058   0.02107
     Eigenvalues ---    0.02142   0.02186   0.02219   0.02253   0.02293
     Eigenvalues ---    0.02344   0.02440   0.02521   0.02944   0.03052
     Eigenvalues ---    0.15843   0.16000   0.16000   0.16000   0.16000
     Eigenvalues ---    0.16000   0.16324   0.22226   0.23327   0.24438
     Eigenvalues ---    0.24854   0.25000   0.25000   0.25000   0.28942
     Eigenvalues ---    0.35223   0.35323   0.35772   0.38848   0.40812
     Eigenvalues ---    0.42394   0.43890   0.46744   0.47991   0.48928
     Eigenvalues ---    0.53196   0.53541   0.54027   0.54381   0.55258
     Eigenvalues ---    0.57855   0.65236   0.67431
 RFO step:  Lambda=-2.14729058D-05 EMin= 1.83808817D-02
 Quartic linear search produced a step of -0.11017.
 Iteration  1 RMS(Cart)=  0.00361614 RMS(Int)=  0.00000423
 Iteration  2 RMS(Cart)=  0.00000617 RMS(Int)=  0.00000003
 Iteration  3 RMS(Cart)=  0.00000000 RMS(Int)=  0.00000003
 Variable       Old X    -DE/DX   Delta X   Delta X   Delta X     New X
                                 (Linear)    (Quad)   (Total)
    R1        2.69239   0.00092  -0.00108   0.00355   0.00247   2.69486
    R2        2.64632  -0.00022  -0.00087   0.00084  -0.00003   2.64629
    R3        2.52560   0.00008   0.00017  -0.00012   0.00005   2.52565
    R4        2.68349  -0.00039  -0.00033  -0.00029  -0.00062   2.68287
    R5        2.68200   0.00064  -0.00013   0.00152   0.00139   2.68338
    R6        2.60615   0.00018  -0.00103   0.00176   0.00073   2.60688
    R7        2.04827  -0.00014  -0.00036   0.00017  -0.00019   2.04808
    R8        2.66935  -0.00086  -0.00120  -0.00009  -0.00129   2.66805
    R9        2.54824  -0.00054   0.00046  -0.00154  -0.00108   2.54716
   R10        2.61524  -0.00036  -0.00081   0.00045  -0.00036   2.61488
   R11        2.05653  -0.00008  -0.00038   0.00035  -0.00003   2.05650
   R12        2.05461  -0.00004  -0.00039   0.00047   0.00008   2.05468
   R13        1.82161   0.00031   0.00028   0.00011   0.00038   1.82199
   R14        2.47115   0.00024  -0.00049   0.00102   0.00054   2.47169
   R15        2.45604   0.00053  -0.00053   0.00144   0.00092   2.45696
   R16        1.83012   0.00031   0.00041  -0.00006   0.00035   1.83047
   R17        1.83166   0.00035   0.00041  -0.00000   0.00041   1.83207
   R18        1.82563   0.00028   0.00030   0.00003   0.00033   1.82596
    A1        2.06441  -0.00039   0.00021  -0.00154  -0.00133   2.06308
    A2        2.08106   0.00070   0.00038   0.00187   0.00225   2.08331
    A3        2.13771  -0.00031  -0.00059  -0.00033  -0.00092   2.13679
    A4        2.09407  -0.00037  -0.00024  -0.00076  -0.00100   2.09307
    A5        2.13214   0.00069   0.00021   0.00206   0.00227   2.13441
    A6        2.05698  -0.00033   0.00003  -0.00130  -0.00127   2.05571
    A7        2.10586   0.00044  -0.00004   0.00183   0.00179   2.10764
    A8        2.10037  -0.00007   0.00007  -0.00018  -0.00011   2.10027
    A9        2.07696  -0.00036  -0.00003  -0.00165  -0.00168   2.07528
   A10        2.07592  -0.00022   0.00013  -0.00126  -0.00113   2.07480
   A11        2.04923   0.00034   0.00063   0.00044   0.00107   2.05030
   A12        2.15804  -0.00011  -0.00077   0.00082   0.00005   2.15809
   A13        2.11614   0.00014   0.00004   0.00013   0.00018   2.11632
   A14        2.09073  -0.00002  -0.00012   0.00037   0.00025   2.09097
   A15        2.07632  -0.00012   0.00008  -0.00050  -0.00042   2.07589
   A16        2.10996   0.00040  -0.00011   0.00160   0.00149   2.11145
   A17        2.08474  -0.00009  -0.00010   0.00003  -0.00007   2.08467
   A18        2.08849  -0.00031   0.00021  -0.00163  -0.00142   2.08706
   A19        1.95196   0.00052   0.00129   0.00108   0.00237   1.95433
   A20        2.05183   0.00050   0.00052   0.00103   0.00155   2.05338
   A21        2.09961   0.00105   0.00107   0.00222   0.00328   2.10289
   A22        2.13175  -0.00155  -0.00159  -0.00324  -0.00484   2.12691
   A23        2.02529   0.00013   0.00097  -0.00066   0.00031   2.02560
   A24        2.02092   0.00016   0.00095  -0.00047   0.00047   2.02140
   A25        1.93607   0.00023   0.00104  -0.00020   0.00084   1.93691
    D1       -0.00001   0.00000   0.00000   0.00000   0.00000  -0.00001
    D2       -3.14159   0.00000  -0.00000   0.00000   0.00000  -3.14159
    D3        3.14158   0.00000  -0.00000   0.00000   0.00000   3.14158
    D4       -0.00000   0.00000  -0.00000   0.00000   0.00000  -0.00000
    D5       -0.00001   0.00000  -0.00000   0.00000   0.00000  -0.00001
    D6       -3.14159  -0.00000   0.00000  -0.00000  -0.00000  -3.14159
    D7        3.14159   0.00000  -0.00000   0.00000   0.00000  -3.14159
    D8        0.00001  -0.00000   0.00000  -0.00000  -0.00000   0.00001
    D9       -3.14159   0.00000  -0.00000   0.00000   0.00000  -3.14159
   D10       -0.00000   0.00000  -0.00000   0.00000   0.00000  -0.00000
   D11        0.00001  -0.00000   0.00000  -0.00000  -0.00000   0.00001
   D12       -3.14159  -0.00000   0.00000  -0.00000  -0.00000  -3.14159
   D13       -3.14159  -0.00000   0.00000  -0.00000  -0.00000  -3.14159
   D14       -0.00001  -0.00000   0.00000  -0.00000  -0.00000  -0.00001
   D15        3.14151   0.00000   0.00000   0.00000   0.00000   3.14151
   D16       -0.00009  -0.00000  -0.00000  -0.00000  -0.00000  -0.00009
   D17       -0.00008   0.00000   0.00000   0.00000   0.00000  -0.00007
   D18        3.14152  -0.00000  -0.00000  -0.00000  -0.00000   3.14151
   D19       -0.00001   0.00000   0.00000   0.00000   0.00000  -0.00000
   D20        3.14156   0.00000  -0.00000   0.00001   0.00001   3.14156
   D21       -3.14159  -0.00000  -0.00000  -0.00000  -0.00000  -3.14159
   D22       -0.00003   0.00000  -0.00000   0.00001   0.00001  -0.00002
   D23       -0.00001   0.00000  -0.00000   0.00000   0.00000  -0.00001
   D24        3.14158   0.00000  -0.00000   0.00000   0.00000   3.14158
   D25       -3.14157  -0.00000   0.00000  -0.00001  -0.00000  -3.14157
   D26        0.00002  -0.00000   0.00000  -0.00000  -0.00000   0.00002
   D27        3.14138   0.00000  -0.00001   0.00004   0.00004   3.14142
   D28       -0.00025   0.00000  -0.00001   0.00005   0.00004  -0.00020
   D29        0.00001  -0.00000   0.00000  -0.00000  -0.00000   0.00001
   D30       -3.14159  -0.00000   0.00000  -0.00000  -0.00000  -3.14159
   D31       -3.14158  -0.00000   0.00000  -0.00000  -0.00000  -3.14158
   D32        0.00001  -0.00000  -0.00000  -0.00000  -0.00000   0.00001
   D33        3.14149  -0.00000  -0.00000  -0.00000  -0.00000   3.14149
   D34       -0.00011   0.00000   0.00000   0.00000   0.00000  -0.00010
   D35        3.14150   0.00000  -0.00000   0.00001   0.00001   3.14150
   D36       -0.00009   0.00000  -0.00000   0.00000   0.00000  -0.00009
         Item               Value     Threshold  Converged?
 Maximum Force            0.001546     0.000450     NO 
 RMS     Force            0.000352     0.000300     NO 
 Maximum Displacement     0.017935     0.001800     NO 
 RMS     Displacement     0.003617     0.001200     NO 
 Predicted change in Energy=-1.373218D-05
 GradGradGradGradGradGradGradGradGradGradGradGradGradGradGradGradGradGrad

                          Input orientation:                          
 ---------------------------------------------------------------------
 Center     Atomic      Atomic             Coordinates (Angstroms)
 Number     Number       Type             X           Y           Z
 ---------------------------------------------------------------------
      1          6           0        0.222247    1.274268   -0.000002
      2          6           0        0.424443   -0.137382   -0.000003
      3          6           0       -0.693152   -1.012920    0.000016
      4          6           0       -1.979594   -0.514839    0.000021
      5          6           0       -2.169053    0.884265    0.000015
      6          6           0       -1.093198    1.754475    0.000011
      7          8           0       -2.991270   -1.405535    0.000002
      8          6           0        1.720238   -0.718136   -0.000009
      9          8           0        1.800286   -2.023644    0.000089
     10          8           0        2.780407    0.034507   -0.000113
     11          8           0        1.282347    2.088189   -0.000006
     12          1           0       -0.547202   -2.086844    0.000018
     13          1           0       -3.177404    1.293555    0.000011
     14          1           0       -1.270553    2.827204    0.000011
     15          1           0       -3.852891   -0.972864    0.000166
     16          1           0        2.694876   -2.395098   -0.000010
     17          1           0        3.629892   -0.432702   -0.000032
     18          1           0        1.007280    3.014466   -0.000000
 ---------------------------------------------------------------------
                    Distance matrix (angstroms):
                    1          2          3          4          5
     1  C    0.000000
     2  C    1.426057   0.000000
     3  C    2.463571   1.419713   0.000000
     4  C    2.837077   2.433489   1.379499   0.000000
     5  C    2.422894   2.787469   2.403663   1.411873   0.000000
     6  C    1.400355   2.425357   2.796160   2.436285   1.383737
     7  O    4.184260   3.643530   2.331415   1.347898   2.432946
     8  C    2.492720   1.419986   2.431326   3.705413   4.206456
     9  O    3.656014   2.334723   2.690501   4.069888   4.920527
    10  O    2.842744   2.362226   3.628046   4.791596   5.021876
    11  O    1.336518   2.385197   3.676883   4.173250   3.655351
    12  H    3.448062   2.178187   1.083797   2.126723   3.384951
    13  H    3.399706   3.875678   3.389887   2.169110   1.088251
    14  H    2.154080   3.414935   3.883290   3.416429   2.140634
    15  H    4.653639   4.358167   3.159994   1.928479   2.506839
    16  H    4.424720   3.201898   3.659118   5.038456   5.866176
    17  H    3.811272   3.219024   4.361807   5.610088   5.946610
    18  H    1.909074   3.205283   4.371647   4.623571   3.824506
                    6          7          8          9         10
     6  C    0.000000
     7  O    3.686237   0.000000
     8  C    3.745561   4.761389   0.000000
     9  O    4.758828   4.831260   1.307960   0.000000
    10  O    4.238291   5.948612   1.300166   2.279611   0.000000
    11  O    2.398870   5.519955   2.840283   4.144326   2.542006
    12  H    3.879929   2.537253   2.648517   2.348339   3.946279
    13  H    2.134564   2.705500   5.294695   5.981740   6.089394
    14  H    1.087291   4.569129   4.638347   5.741148   4.920308
    15  H    3.879985   0.964155   5.578947   5.750005   6.709355
    16  H    5.618582   5.771611   1.939619   0.968643   2.431111
    17  H    5.204933   6.692249   1.930868   2.424573   0.969489
    18  H    2.449405   5.960269   3.800082   5.100138   3.467583
                   11         12         13         14         15
    11  O    0.000000
    12  H    4.558306   0.000000
    13  H    4.529991   4.283114   0.000000
    14  H    2.657713   4.967002   2.447072   0.000000
    15  H    5.978354   3.488343   2.364939   4.594451   0.000000
    16  H    4.700543   3.256699   6.934683   6.557215   6.700448
    17  H    3.444687   4.492694   7.022767   5.885691   7.502255
    18  H    0.966255   5.332896   4.524723   2.285518   6.286499
                   16         17         18
    16  H    0.000000
    17  H    2.173765   0.000000
    18  H    5.666689   4.331404   0.000000
 Stoichiometry    C7H7O4(1+)
 Framework group  C1[X(C7H7O4)]
 Deg. of freedom    48
 Full point group                 C1      NOp   1
 Largest Abelian subgroup         C1      NOp   1
 Largest concise Abelian subgroup C1      NOp   1
                         Standard orientation:                         
 ---------------------------------------------------------------------
 Center     Atomic      Atomic             Coordinates (Angstroms)
 Number     Number       Type             X           Y           Z
 ---------------------------------------------------------------------
      1          6           0        0.222757    1.274390   -0.000005
      2          6           0        0.423708   -0.137438   -0.000006
      3          6           0       -0.694659   -1.011989    0.000013
      4          6           0       -1.980661   -0.512774    0.000018
      5          6           0       -2.168885    0.886497    0.000012
      6          6           0       -1.092264    1.755758    0.000008
      7          8           0       -2.993123   -1.402577   -0.000001
      8          6           0        1.718990   -0.719335   -0.000012
      9          8           0        1.797886   -2.024914    0.000086
     10          8           0        2.779823    0.032373   -0.000116
     11          8           0        1.283575    2.087376   -0.000009
     12          1           0       -0.549657   -2.086042    0.000015
     13          1           0       -3.176876    1.296676    0.000008
     14          1           0       -1.268672    2.828642    0.000008
     15          1           0       -3.854362   -0.969146    0.000163
     16          1           0        2.692148   -2.397157   -0.000013
     17          1           0        3.628895   -0.435586   -0.000035
     18          1           0        1.009326    3.013894   -0.000003
 ---------------------------------------------------------------------
 Rotational constants (GHZ):      1.7760874      0.9094936      0.6014863
 Standard basis: 6-31+G(d,p) (6D, 7F)
 There are   244 symmetry adapted cartesian basis functions of A   symmetry.
 There are   244 symmetry adapted basis functions of A   symmetry.
   244 basis functions,   401 primitive gaussians,   244 cartesian basis functions
    40 alpha electrons       40 beta electrons
       nuclear repulsion energy       607.5099992297 Hartrees.
 NAtoms=   18 NActive=   18 NUniq=   18 SFac= 1.00D+00 NAtFMM=   60 NAOKFM=F Big=F
 Integral buffers will be    131072 words long.
 Raffenetti 2 integral format.
 Two-electron integral symmetry is turned on.
 R6APFD:  NTU= -4 IXU= 1 FactS= 1.050
 Nuclear repulsion after empirical dispersion term =      607.4980733281 Hartrees.
 One-electron integrals computed using PRISM.
 NBasis=   244 RedAO= T EigKep=  3.24D-06  NBF=   244
 NBsUse=   244 1.00D-06 EigRej= -1.00D+00 NBFU=   244
 Initial guess from the checkpoint file:  "2APFDDHB21.chk"
 B after Tr=    -0.000000   -0.000000    0.000000
         Rot=    1.000000    0.000001   -0.000001   -0.000802 Ang=   0.09 deg.
 Keep R1 ints in memory in canonical form, NReq=454277305.
 Requested convergence on RMS density matrix=1.00D-08 within 128 cycles.
 Requested convergence on MAX density matrix=1.00D-06.
 Requested convergence on             energy=1.00D-06.
 No special actions if energy rises.
 SCF Done:  E(RAPFD) =  -571.180778577     A.U. after   10 cycles
            NFock= 10  Conv=0.47D-08     -V/T= 2.0086
 R6APFD:  NTU= -4 IXU= 1 FactS= 1.050
 Calling FoFJK, ICntrl=      2127 FMM=F ISym2X=0 I1Cent= 0 IOpClX= 0 NMat=1 NMatS=1 NMatT=0.
 ***** Axes restored to original set *****
 -------------------------------------------------------------------
 Center     Atomic                   Forces (Hartrees/Bohr)
 Number     Number              X              Y              Z
 -------------------------------------------------------------------
      1        6          -0.000056000    0.000216366    0.000000098
      2        6           0.000019790   -0.000271295    0.000000173
      3        6           0.000187920    0.000286450   -0.000000294
      4        6          -0.000235596   -0.000077686   -0.000000694
      5        6           0.000105833   -0.000206857    0.000000475
      6        6           0.000225175   -0.000283735   -0.000000090
      7        8           0.000257985    0.000215705    0.000001531
      8        6          -0.000445069    0.000128061   -0.000000322
      9        8          -0.000055733   -0.000027009    0.000000086
     10        8          -0.000139484    0.000378146    0.000000162
     11        8           0.000092649   -0.000371509   -0.000000083
     12        1          -0.000051299    0.000021469   -0.000000083
     13        1           0.000066183    0.000012761    0.000000017
     14        1          -0.000003486   -0.000046153   -0.000000015
     15        1          -0.000074308   -0.000031535   -0.000001007
     16        1           0.000076697    0.000042706    0.000000049
     17        1           0.000002250   -0.000059222   -0.000000048
     18        1           0.000026492    0.000073335    0.000000047
 -------------------------------------------------------------------
 Cartesian Forces:  Max     0.000445069 RMS     0.000146699

 GradGradGradGradGradGradGradGradGradGradGradGradGradGradGradGradGradGrad
 Berny optimization.
 Using GEDIIS/GDIIS optimizer.
 FormGI is forming the generalized inverse of G from B-inverse, IUseBI=4.
 Internal  Forces:  Max     0.000811954 RMS     0.000197130
 Search for a local minimum.
 Step number   3 out of a maximum of   89
 All quantities printed in internal units (Hartrees-Bohrs-Radians)
 Mixed Optimization -- En-DIIS/RFO-DIIS
 Swapping is turned off.
 Update second derivatives using D2CorX and points    1    2    3
 DE= -1.04D-05 DEPred=-1.37D-05 R= 7.59D-01
 TightC=F SS=  1.41D+00  RLast= 9.23D-03 DXNew= 5.0454D-01 2.7700D-02
 Trust test= 7.59D-01 RLast= 9.23D-03 DXMaxT set to 3.00D-01
 ITU=  1  1  0
     Eigenvalues ---    0.01838   0.01842   0.01905   0.02057   0.02107
     Eigenvalues ---    0.02142   0.02186   0.02219   0.02253   0.02293
     Eigenvalues ---    0.02344   0.02437   0.02521   0.02944   0.03052
     Eigenvalues ---    0.14998   0.16000   0.16000   0.16000   0.16000
     Eigenvalues ---    0.16023   0.16210   0.20454   0.22681   0.23984
     Eigenvalues ---    0.24816   0.25000   0.25000   0.25161   0.34097
     Eigenvalues ---    0.35241   0.35362   0.35767   0.40450   0.40851
     Eigenvalues ---    0.43666   0.45215   0.47841   0.48794   0.52887
     Eigenvalues ---    0.53215   0.53421   0.53919   0.54341   0.57317
     Eigenvalues ---    0.60702   0.65180   0.67110
 En-DIIS/RFO-DIIS IScMMF=        0 using points:     3    2
 RFO step:  Lambda=-4.39629271D-06.
 DidBck=T Rises=F RFO-DIIS coefs:    0.79609    0.20391
 Iteration  1 RMS(Cart)=  0.00222558 RMS(Int)=  0.00000156
 Iteration  2 RMS(Cart)=  0.00000235 RMS(Int)=  0.00000000
 Iteration  3 RMS(Cart)=  0.00000000 RMS(Int)=  0.00000000
 Variable       Old X    -DE/DX   Delta X   Delta X   Delta X     New X
                                 (Linear)    (Quad)   (Total)
    R1        2.69486  -0.00046  -0.00050   0.00020  -0.00030   2.69456
    R2        2.64629  -0.00037   0.00001  -0.00062  -0.00062   2.64567
    R3        2.52565  -0.00009  -0.00001  -0.00010  -0.00011   2.52554
    R4        2.68287  -0.00031   0.00013  -0.00081  -0.00068   2.68219
    R5        2.68338  -0.00070  -0.00028  -0.00068  -0.00097   2.68242
    R6        2.60688  -0.00009  -0.00015   0.00021   0.00006   2.60694
    R7        2.04808  -0.00003   0.00004  -0.00013  -0.00009   2.04799
    R8        2.66805  -0.00020   0.00026  -0.00083  -0.00056   2.66749
    R9        2.54716  -0.00026   0.00022  -0.00083  -0.00061   2.54655
   R10        2.61488  -0.00004   0.00007  -0.00018  -0.00010   2.61478
   R11        2.05650  -0.00006   0.00001  -0.00012  -0.00012   2.05638
   R12        2.05468  -0.00004  -0.00002  -0.00005  -0.00007   2.05461
   R13        1.82199   0.00005  -0.00008   0.00023   0.00015   1.82214
   R14        2.47169  -0.00001  -0.00011   0.00023   0.00012   2.47180
   R15        2.45696   0.00007  -0.00019   0.00048   0.00029   2.45725
   R16        1.83047   0.00005  -0.00007   0.00021   0.00014   1.83061
   R17        1.83207   0.00003  -0.00008   0.00020   0.00012   1.83219
   R18        1.82596   0.00006  -0.00007   0.00022   0.00015   1.82611
    A1        2.06308  -0.00009   0.00027  -0.00092  -0.00065   2.06244
    A2        2.08331  -0.00039  -0.00046  -0.00025  -0.00071   2.08261
    A3        2.13679   0.00049   0.00019   0.00117   0.00135   2.13814
    A4        2.09307   0.00024   0.00020   0.00029   0.00049   2.09356
    A5        2.13441  -0.00081  -0.00046  -0.00154  -0.00200   2.13240
    A6        2.05571   0.00057   0.00026   0.00125   0.00151   2.05722
    A7        2.10764  -0.00007  -0.00036   0.00051   0.00014   2.10779
    A8        2.10027   0.00009   0.00002   0.00032   0.00034   2.10060
    A9        2.07528  -0.00001   0.00034  -0.00082  -0.00048   2.07479
   A10        2.07480  -0.00013   0.00023  -0.00081  -0.00058   2.07421
   A11        2.05030   0.00004  -0.00022   0.00051   0.00030   2.05060
   A12        2.15809   0.00009  -0.00001   0.00030   0.00029   2.15838
   A13        2.11632   0.00005  -0.00004   0.00031   0.00027   2.11659
   A14        2.09097   0.00002  -0.00005   0.00018   0.00013   2.09111
   A15        2.07589  -0.00007   0.00009  -0.00049  -0.00040   2.07549
   A16        2.11145   0.00001  -0.00030   0.00063   0.00033   2.11178
   A17        2.08467   0.00001   0.00001   0.00001   0.00003   2.08470
   A18        2.08706  -0.00001   0.00029  -0.00065  -0.00036   2.08671
   A19        1.95433   0.00011  -0.00048   0.00147   0.00098   1.95531
   A20        2.05338   0.00035  -0.00032   0.00172   0.00140   2.05478
   A21        2.10289  -0.00054  -0.00067  -0.00033  -0.00100   2.10189
   A22        2.12691   0.00019   0.00099  -0.00139  -0.00041   2.12651
   A23        2.02560  -0.00012  -0.00006  -0.00049  -0.00055   2.02504
   A24        2.02140  -0.00010  -0.00010  -0.00031  -0.00040   2.02100
   A25        1.93691   0.00009  -0.00017   0.00074   0.00057   1.93748
    D1       -0.00001   0.00000  -0.00000   0.00000   0.00000  -0.00000
    D2       -3.14159  -0.00000  -0.00000   0.00000   0.00000  -3.14159
    D3        3.14158   0.00000  -0.00000   0.00000   0.00000   3.14158
    D4       -0.00000   0.00000  -0.00000   0.00000   0.00000  -0.00000
    D5       -0.00001   0.00000  -0.00000   0.00000   0.00000  -0.00001
    D6       -3.14159   0.00000   0.00000  -0.00000  -0.00000  -3.14159
    D7       -3.14159   0.00000  -0.00000   0.00000   0.00000  -3.14159
    D8        0.00001  -0.00000   0.00000  -0.00000  -0.00000   0.00001
    D9       -3.14159   0.00000  -0.00000   0.00000   0.00000  -3.14159
   D10       -0.00000   0.00000  -0.00000   0.00000   0.00000   0.00000
   D11        0.00001  -0.00000   0.00000  -0.00000  -0.00000   0.00001
   D12       -3.14159  -0.00000   0.00000  -0.00000  -0.00000  -3.14159
   D13       -3.14159  -0.00000   0.00000  -0.00000  -0.00000   3.14159
   D14       -0.00001  -0.00000   0.00000  -0.00000  -0.00000  -0.00001
   D15        3.14151  -0.00000  -0.00000  -0.00000  -0.00000   3.14151
   D16       -0.00009   0.00000   0.00000   0.00000   0.00000  -0.00009
   D17       -0.00007  -0.00000  -0.00000  -0.00000  -0.00000  -0.00008
   D18        3.14151   0.00000   0.00000   0.00000   0.00000   3.14152
   D19       -0.00000   0.00000  -0.00000   0.00000   0.00000  -0.00000
   D20        3.14156   0.00000  -0.00000   0.00001   0.00001   3.14157
   D21       -3.14159   0.00000   0.00000   0.00000   0.00000  -3.14159
   D22       -0.00002   0.00000  -0.00000   0.00001   0.00000  -0.00002
   D23       -0.00001   0.00000  -0.00000   0.00000   0.00000  -0.00001
   D24        3.14158   0.00000  -0.00000   0.00000   0.00000   3.14159
   D25       -3.14157  -0.00000   0.00000  -0.00000  -0.00000  -3.14158
   D26        0.00002  -0.00000   0.00000  -0.00000  -0.00000   0.00002
   D27        3.14142   0.00000  -0.00001   0.00004   0.00003   3.14145
   D28       -0.00020   0.00000  -0.00001   0.00005   0.00004  -0.00016
   D29        0.00001  -0.00000   0.00000  -0.00000  -0.00000   0.00001
   D30       -3.14159  -0.00000   0.00000  -0.00000  -0.00000  -3.14159
   D31       -3.14158  -0.00000   0.00000  -0.00000  -0.00000  -3.14158
   D32        0.00001  -0.00000   0.00000  -0.00000  -0.00000   0.00001
   D33        3.14149   0.00000   0.00000   0.00000   0.00000   3.14149
   D34       -0.00010  -0.00000  -0.00000   0.00000  -0.00000  -0.00010
   D35        3.14150  -0.00000  -0.00000   0.00000   0.00000   3.14150
   D36       -0.00009   0.00000  -0.00000   0.00000   0.00000  -0.00009
         Item               Value     Threshold  Converged?
 Maximum Force            0.000812     0.000450     NO 
 RMS     Force            0.000197     0.000300     YES
 Maximum Displacement     0.007132     0.001800     NO 
 RMS     Displacement     0.002226     0.001200     NO 
 Predicted change in Energy=-3.303918D-06
 GradGradGradGradGradGradGradGradGradGradGradGradGradGradGradGradGradGrad

                          Input orientation:                          
 ---------------------------------------------------------------------
 Center     Atomic      Atomic             Coordinates (Angstroms)
 Number     Number       Type             X           Y           Z
 ---------------------------------------------------------------------
      1          6           0        0.222523    1.272966   -0.000003
      2          6           0        0.423318   -0.138723   -0.000003
      3          6           0       -0.694419   -1.013495    0.000016
      4          6           0       -1.980720   -0.514959    0.000024
      5          6           0       -2.168842    0.884025    0.000018
      6          6           0       -1.092457    1.753493    0.000011
      7          8           0       -2.992724   -1.404793    0.000012
      8          6           0        1.719240   -0.717941   -0.000010
      9          8           0        1.802463   -2.023313    0.000090
     10          8           0        2.778009    0.036935   -0.000114
     11          8           0        1.283946    2.085067   -0.000009
     12          1           0       -0.549362   -2.087493    0.000018
     13          1           0       -3.176700    1.294361    0.000018
     14          1           0       -1.269485    2.826239    0.000011
     15          1           0       -3.854565   -0.972382    0.000146
     16          1           0        2.698224   -2.392128   -0.000007
     17          1           0        3.628307   -0.428928   -0.000034
     18          1           0        1.010944    3.012035   -0.000002
 ---------------------------------------------------------------------
                    Distance matrix (angstroms):
                    1          2          3          4          5
     1  C    0.000000
     2  C    1.425898   0.000000
     3  C    2.463471   1.419353   0.000000
     4  C    2.837421   2.433301   1.379532   0.000000
     5  C    2.422788   2.786630   2.403020   1.411575   0.000000
     6  C    1.400028   2.424470   2.795471   2.436162   1.383683
     7  O    4.184281   3.643113   2.331377   1.347574   2.432585
     8  C    2.490757   1.419474   2.431686   3.705523   4.205172
[...]
 9,0.000023211\H,-1.2697257818,2.8263224139,0.0000111344\H,-3.853765608
 1,-0.9731009705,0.0001293934\H,2.6965212246,-2.3923672848,-0.000006450
 9\H,3.6279604256,-0.4303291351,-0.0000362971\H,1.0103755659,3.01268161
 72,-0.0000031558\\Version=ES64L-G09RevE.01\State=1-A\HF=-571.1807816\R
 MSD=6.254e-09\RMSF=1.901e-05\ZeroPoint=0.1360022\Thermal=0.1461272\Dip
 ole=1.5433372,0.1342466,0.0000531\DipoleDeriv=0.9812642,1.0591644,-0.0
 000083,-0.036646,0.8303195,0.0000034,-0.0000003,-0.0000067,0.1528386,-
 1.1948056,0.8523728,0.0000105,0.4820255,-0.4423852,-0.0000012,0.000020
 5,-0.0000176,-0.0547735,0.2176876,-0.7319995,-0.0000039,0.2547713,-0.0
 487621,-0.000002,-0.0000027,0.0000173,-0.1185021,0.9541517,1.1702653,-
 0.0000007,1.2065692,-0.010965,-0.0000136,0.0000008,-0.000001,0.1313086
 ,0.1201052,0.1777748,0.000001,-0.3774273,0.4480703,-0.0000003,-0.00000
 66,-0.0000044,-0.0556964,-0.4424723,-0.6622631,0.000003,0.0137208,0.06
 08311,-0.0000005,0.0000056,0.0000055,-0.1374487,-1.2283221,-0.629083,-
 0.0000041,-0.820808,-0.5137644,0.0000293,-0.0000341,0.0000046,-0.36106
 92,2.7164316,-0.7369124,-0.0000607,-0.5564004,1.9117092,-0.0000907,-0.
 0000718,-0.0000931,0.3755878,-0.5701439,0.3505137,-0.0000308,0.7845347
 ,-1.5117699,0.0000492,-0.0000935,0.0001067,-0.2855405,-1.6829529,0.021
 5796,0.0000728,-0.5298238,-0.261061,0.0000134,0.0001642,-0.0000137,-0.
 2678297,-0.7004707,-0.9176229,0.0000021,-0.4657605,-1.0526275,0.000005
 7,-0.000013,-0.000002,-0.3145861,0.0999573,0.0147077,0.0000002,-0.0123
 575,0.0975681,-0.0000002,0.0000049,-0.0000016,0.1540535,0.0061926,0.00
 53711,0.0000018,-0.0070899,0.1058192,0.000001,0.0000025,0.,0.1411259,0
 .080512,-0.0396746,0.0000008,-0.0192381,-0.0031936,0.0000002,0.0000016
 ,-0.0000007,0.160564,0.4491034,0.079569,0.0000021,0.1118258,0.2103987,
 -0.0000195,0.0000198,-0.0000072,0.3601674,0.3489007,-0.147958,0.000019
 2,-0.1771985,0.4816863,0.0000099,0.000049,-0.0000187,0.3830706,0.57347
 1,0.0063649,-0.0000067,0.0474793,0.2482574,0.0000179,-0.0000511,0.0000
 304,0.3806913,0.2713902,0.1278304,0.0000016,0.1018234,0.449869,-0.0000
 019,0.0000041,0.0000022,0.3560385\Polar=136.5731882,-8.7307031,112.442
 4189,-0.0012103,-0.0006,46.1959026\PG=C01 [X(C7H7O4)]\NImag=0\\0.71698
 020,0.02948360,0.71001478,-0.00000556,0.00000025,0.16097080,-0.1362473
 0,0.03398508,0.00000168,0.68339437,0.01482293,-0.27546183,-0.00000063,
 -0.00966209,0.67572454,0.00000139,0.00000011,-0.06335240,-0.00000676,-
 0.00000622,0.13239797,0.05329937,-0.04293311,-0.00000056,-0.21543274,-
 0.08939365,0.00000265,0.73183888,-0.01974677,-0.03377101,0.00000045,-0
 .11189868,-0.19922180,0.00000284,-0.03154901,0.74319148,-0.00000072,0.
 00000081,0.00087594,0.00000138,0.00000248,-0.04774158,-0.00000582,-0.0
 0000241,0.12032685,-0.03828099,0.02681987,0.00000031,-0.05155596,-0.02
 059984,0.00000065,-0.33177694,0.12199723,0.00000244,0.76934808,0.04133
 314,-0.03346612,-0.00000044,0.01197768,0.03592078,-0.00000081,0.063308
 64,-0.16306902,-0.00000013,0.00590179,0.69200243,-0.00000004,-0.000000
 34,0.00060136,0.00000035,0.00000046,-0.00274546,0.00000260,-0.00000154
 ,-0.06053892,-0.00000800,0.00000247,0.14015148,-0.05603185,-0.00536594
 ,0.00000044,-0.01084971,-0.00994767,0.00000030,0.01790272,0.03310558,-
 0.00000057,-0.13914786,0.07035266,0.00000028,0.76021810,-0.05257955,0.
 05377251,0.00000046,-0.01682945,-0.03133162,0.00000057,0.06669134,-0.0
 1315525,-0.00000085,-0.00425082,-0.29398471,0.00000067,0.01416180,0.69
 255799,0.00000051,0.00000008,-0.00332445,0.00000047,0.00000012,0.00087
 863,-0.00000071,-0.00000003,0.00113142,0.00000100,0.00000055,-0.059650
 10,-0.00000313,-0.00000202,0.12926888,-0.27143283,0.04714692,0.0000024
 4,0.00715106,0.05051319,-0.00000057,-0.05419593,-0.00671546,0.00000109
 ,0.05522695,-0.06192332,0.00000013,-0.28102469,-0.09404519,0.00000170,
 0.65979780,0.11148250,-0.16529605,-0.00000132,0.02377585,-0.00665838,-
 0.00000017,-0.00043562,-0.00253250,-0.00000017,-0.02298254,-0.03335591
 ,0.00000011,-0.15761206,-0.23099262,0.00000176,0.01726308,0.75928293,0
 .00000239,-0.00000082,-0.06647365,-0.00000005,0.,0.00589033,0.00000046
 ,0.00000003,0.00292150,-0.00000028,0.00000086,-0.00150146,0.00000213,0
 .00000109,-0.04989017,-0.00000517,-0.00000083,0.11652694,0.00511923,0.
 00126421,0.00000013,0.00025040,0.00599436,0.00000014,-0.06126210,-0.03
 359541,0.00000002,-0.24661269,-0.14841506,0.00000136,-0.00077752,-0.01
 087820,-0.00000040,-0.00412915,0.00191965,0.00000014,0.72965490,-0.002
 85765,0.00463824,0.00000006,-0.00019046,-0.00369657,0.00000051,0.00354
 172,0.01781929,-0.00000002,-0.09588279,-0.21059151,-0.00000581,-0.0491
 7048,-0.05163562,-0.00000038,0.00949645,-0.00293383,-0.00000025,-0.038
 47520,0.39967028,0.00000036,-0.00000012,-0.00142123,0.00000098,-0.0000
 0007,0.00502211,0.00000015,0.00000112,0.00753591,0.00000676,-0.0000020
 3,-0.03830846,0.00000033,0.00000046,0.00685900,-0.00000050,0.00000019,
 0.00619514,-0.00005705,0.00003226,0.02233257,0.01758168,0.04753899,-0.
 00000120,-0.24262965,0.06623938,0.00000080,-0.05769241,-0.00321338,0.0
 0000121,0.00562621,-0.02281380,0.00000042,0.00459516,0.00678005,-0.000
 00023,-0.00003330,0.00315209,0.00000018,0.00333005,0.00611394,-0.00000
 008,0.81183248,0.03321300,-0.01937976,0.00000009,0.06755833,-0.1357948
 7,0.00000015,-0.00306478,0.02212158,-0.00000075,-0.00739735,0.00709681
 ,-0.00000003,-0.00279779,-0.00653342,0.00000011,0.00077675,-0.00890810
 ,-0.00000006,-0.00456151,-0.00355864,0.00000019,0.00810000,0.78099936,
 -0.00000166,-0.00000056,-0.00220877,0.00000106,0.00000068,-0.07537244,
 0.00000087,-0.00000052,-0.00311388,-0.00000020,0.00000092,0.00657169,-
 0.00000025,-0.00000064,-0.00112432,0.00000066,0.,0.00583950,-0.0000000
 5,-0.00000007,0.00034013,-0.00002468,-0.00004188,0.19980835,-0.0081948
 2,-0.00797768,-0.00000004,-0.00697973,0.04818024,-0.00000351,-0.004044
 20,0.00471445,-0.00000032,0.00190074,0.00199831,0.00000024,-0.00021024
 ,0.00093901,0.00000008,-0.00127229,0.00200737,0.00000015,-0.00113986,-
 0.00084338,0.,-0.13597806,0.05847737,0.00000286,0.59980460,0.00236867,
 0.01791117,-0.00000030,0.03801712,-0.04774692,0.00000199,-0.00984644,-
 0.00647063,0.00000086,0.00124770,-0.00833859,0.00000003,0.00041961,0.0
 0210906,-0.00000013,0.00249084,0.00145050,0.00000006,0.00286115,0.0034
 3642,-0.00000004,-0.00851436,-0.40176611,0.00002854,-0.18784697,0.6015
 0600,0.00000073,-0.00000192,0.00326175,-0.00000302,0.00000186,0.011180
 14,0.00000064,0.00000064,0.00073944,0.00000022,0.00000036,-0.00122839,
 0.00000007,0.00000031,-0.00004023,-0.00000073,-0.00000033,-0.00096358,
 -0.00000018,-0.00000017,0.00020145,0.00000787,0.00002026,-0.05812827,-
 0.00005591,-0.00001979,0.02646002,-0.01234988,-0.01961245,0.00000060,-
 0.06526163,-0.01453858,0.00000430,0.00739090,0.00925734,-0.00000035,-0
 .00458337,0.01108179,-0.00000032,-0.00252631,-0.00732047,0.00000008,0.
 00416046,-0.00195104,-0.00000013,-0.00354004,-0.00348141,0.00000011,-0
 .33749858,-0.17131495,0.00002349,0.00366818,-0.02377952,0.00000348,0.7
 8609608,-0.00444826,-0.00896572,0.00000002,-0.00773818,0.02333930,-0.0
 0000091,0.00748920,-0.00174360,-0.00000026,-0.00199774,0.00624245,0.00
 000002,-0.00099255,-0.00327687,0.00000004,0.00215400,-0.00065019,-0.00
 000019,-0.00026759,-0.00141767,0.,-0.10289217,-0.22302045,0.00002075,-
 0.05477458,-0.06006221,0.00000933,-0.02621311,0.42528430,0.00000141,0.
 00000155,0.00017254,0.00000321,-0.00000160,0.00839208,-0.00000147,-0.0
 0000027,0.00316569,0.00000034,-0.00000142,-0.00002009,0.00000021,0.000
 00074,0.00026703,-0.00000020,0.00000026,-0.00026092,0.00000025,0.00000
 036,-0.00015746,0.00001471,0.00002014,-0.05790644,0.00000503,0.0000086
 6,0.02694715,0.00000721,-0.00005215,0.02844042,-0.27053285,-0.09596783
 ,0.00000206,0.03053134,-0.00514791,-0.00000045,-0.01826125,0.00180769,
 0.00000054,0.01480450,-0.01056442,0.00000024,0.00355488,0.01755161,-0.
 00000009,-0.02994279,-0.03244791,0.00000030,-0.00631267,-0.00241844,-0
 .00000040,-0.02377338,0.00457165,0.00000083,0.00290738,-0.00455635,0.0
 0000027,0.00894888,0.01286983,-0.00000070,0.37415076,-0.14682738,-0.20
 823325,0.00000107,-0.01707074,-0.02113211,-0.00000015,-0.00350768,-0.0
 0418577,0.00000033,0.00830816,-0.00245010,0.00000024,0.00544420,0.0021
 6961,-0.00000020,-0.00395625,0.01125206,0.00000012,-0.00618994,-0.0026
 9003,-0.00000032,-0.02106720,0.00543059,0.00000021,0.00225711,-0.00709
 878,0.00000068,0.01752815,-0.00407615,-0.00000088,-0.00171013,0.700127
 65,0.00000168,0.00000032,-0.04399741,-0.00000015,0.,0.00449949,0.00000
 027,0.00000009,0.00275758,-0.00000006,0.00000017,-0.00094422,0.0000000
 4,-0.00000023,0.00725341,0.00000038,0.00000034,0.01407886,-0.00000006,
 0.00000003,-0.00027576,0.00000007,0.,-0.00314936,-0.00000002,-0.000000
 34,0.00031187,0.00000019,-0.00000006,0.00110260,-0.00000382,0.00000353
 ,0.02932820,-0.00443241,-0.00119356,0.00000020,0.00644480,-0.02382931,
 0.00000003,-0.06353162,0.04157385,0.00000043,0.00222107,0.03040014,-0.
 00000015,-0.00601058,0.00120044,0.00000013,-0.00046778,-0.00066352,-0.
 00000006,0.00179370,-0.00058524,-0.00000008,0.00188918,-0.00386689,0.0
 0000011,-0.00501363,0.00173716,-0.00000050,0.00036863,0.00052250,-0.00
 000004,0.00045271,-0.00165898,0.,0.06614583,-0.00346342,0.00179560,0.,
 0.00252604,-0.01194195,0.00000003,0.04148283,-0.35009151,0.00000037,-0
 .00087443,-0.00533815,0.00000011,0.00131363,-0.00069916,0.00000002,0.0
 0125027,0.00065499,-0.00000002,-0.00112961,-0.00002070,-0.00000003,0.0
 0057144,-0.00202428,0.00000003,0.00264224,0.00055873,0.,-0.00016640,0.
 00000905,0.00000002,0.00076341,-0.00047987,0.00000002,-0.04502844,0.36
 729365,0.00000007,0.00000011,0.00383259,0.00000017,0.00000030,0.001219
 21,0.00000046,0.00000033,-0.03557052,-0.00000035,-0.00000039,0.0088795
 4,0.00000013,-0.00000008,0.00626867,0.00000008,-0.00000003,-0.00054443
 ,-0.00000002,0.00000006,-0.00376142,-0.00000006,0.00000014,-0.00279340
 ,-0.00000056,-0.00000008,0.00075947,0.00000012,-0.00000001,-0.00008923
 ,0.,0.00000003,0.00073593,-0.00000021,-0.00000053,0.02307149,-0.001068
 43,-0.00356985,0.,0.00061696,-0.00033418,0.,0.00105070,0.00039302,0.00
 000001,-0.00148117,-0.00235853,0.00000003,-0.30242647,0.10005003,0.000
 00063,-0.01717146,0.01031961,0.00000007,0.00246943,-0.00000113,-0.0000
 0011,-0.00016182,0.00002503,0.,-0.00002253,0.00002091,0.,0.00004569,0.
 00002381,-0.00000001,-0.00128799,0.00032346,0.00000003,0.00001546,-0.0
 0007882,0.,0.31851911,-0.00376596,-0.00252565,0.00000006,-0.00156324,-
 0.00042471,0.00000007,0.00056685,-0.00642254,0.00000002,0.02909768,-0.
 00447537,-0.00000012,0.10150209,-0.10257306,-0.00000005,-0.01945741,0.
 01122598,0.00000006,0.00035985,0.00261055,-0.00000009,0.00055693,-0.00
 058354,-0.00000003,0.00004404,0.00035978,-0.00000002,-0.00027210,-0.00
 010250,0.00000002,-0.00107058,0.00052120,0.00000004,0.00148469,-0.0001
 9876,-0.00000004,-0.10604289,0.10351633,0.00000007,0.00000013,0.008539
 16,0.,-0.00000009,-0.00036023,0.00000008,0.00000005,0.00497069,0.,0.00
 000031,0.00684815,0.00000039,-0.00000030,-0.04055541,0.00000032,-0.000
 00006,0.00560574,-0.00000029,0.00000006,-0.00270268,-0.00000003,0.0000
 0002,-0.00082582,-0.00000008,0.,0.00032457,0.00000002,0.00000002,-0.00
 009942,0.00000003,-0.00000002,-0.00102771,0.,-0.00000004,-0.00133844,-
 0.00000072,-0.00000016,0.02433364,-0.00183196,0.02965026,0.00000004,-0
 .00471760,0.00042720,0.00000011,-0.00112851,-0.00059201,0.,-0.00379436
 ,-0.00231716,0.00000006,0.00767033,-0.02609257,0.00000008,-0.06663158,
 0.04873188,0.00000018,0.00004048,-0.00157759,0.00000005,0.00036429,0.0
 0139842,0.00000001,-0.00058860,0.00025478,0.00000003,0.00007832,0.0000
 2008,-0.00000003,0.00276848,0.00079476,-0.00000007,0.00008966,0.000052
 25,0.,0.00067038,-0.00025525,-0.00000003,0.06848525,-0.00291156,-0.007
 83191,0.00000005,0.00174640,0.00073910,0.,-0.00000989,0.00057236,-0.00
 000002,-0.00321973,0.00103835,0.,0.00421182,-0.01489486,0.00000003,0.0
 4843121,-0.33694468,0.00000012,0.00008362,-0.00103604,0.00000004,-0.00
 067651,-0.00025260,0.00000002,0.00021221,-0.00013447,0.,0.00026116,0.0
 0014184,-0.00000003,-0.00046122,0.00294711,0.,0.00002853,-0.00005141,0
 .,-0.00000075,0.00071960,0.,-0.04968661,0.35479163,0.00000024,-0.00000
 042,0.00414237,0.00000009,0.,0.00446534,-0.00000003,0.00000002,-0.0011
 5089,0.00000017,0.,0.00743247,-0.00000002,0.00000037,0.00319151,0.,0.0
 0000019,-0.03381724,-0.00000005,0.00000007,0.00000833,0.,0.,0.00064001
 ,0.,0.,-0.00015261,0.00000001,0.,-0.00001638,-0.00000008,0.,-0.0039007
 2,0.,0.,-0.00028008,0.,-0.00000002,-0.00443171,-0.00000035,-0.00000017
 ,0.02320824,-0.00019334,-0.00037707,-0.00000003,0.00016431,0.00071359,
 -0.00000010,-0.00137772,-0.00482427,0.00000037,-0.03265197,0.01550052,
 0.00000282,0.00477528,0.00277022,-0.00000006,-0.00060866,0.00052354,-0
 .00000025,-0.41954033,0.17498732,0.00004954,-0.00163346,0.00058333,0.0
 0000004,0.00027962,-0.00076476,0.00000006,0.00083579,0.00034482,-0.000
 00010,0.00078720,0.00066941,0.00000004,0.00025362,-0.00003735,0.000000
 04,0.00013661,-0.00135781,0.00000018,0.00026893,0.00020812,0.,0.448906
 87,0.00005819,0.00060536,0.00000009,0.00049360,0.00056915,-0.00000026,
 -0.00495452,-0.00333765,0.,-0.03354616,0.00922937,0.00000384,-0.003746
 74,0.00210849,0.00000008,0.00039273,-0.00037542,-0.00000003,0.23053870
 ,-0.15040824,-0.00003161,-0.00101960,0.00018974,-0.00000006,0.00015864
 ,-0.00041882,0.00000003,0.00025507,0.00015401,-0.00000002,-0.00016218,
 -0.00044878,-0.00000002,-0.00032825,0.00009090,0.00000006,0.00099199,-
 0.00181528,0.00000005,0.00004307,0.00005121,-0.00000003,-0.18890333,0.
 14373425,-0.00000010,0.00000004,0.00021398,-0.00000056,-0.00000004,0.0
 0209418,-0.00000002,-0.00000042,0.00177281,-0.00000286,-0.00000072,-0.
 00525820,-0.00000031,-0.00000027,-0.00007380,0.00000015,-0.00000015,-0
 .00067618,0.00005607,-0.00002658,-0.00157625,0.00000007,-0.00000010,0.
 00033646,-0.00000003,0.00000004,-0.00003299,-0.00000004,0.00000002,-0.
 00017405,0.00000013,0.00000014,-0.00009894,0.00000003,0.00000001,-0.00
 085219,0.00000008,0.00000025,0.00043652,-0.00000005,-0.00000004,0.0000
 0119,-0.00005258,0.00002785,0.00384423,0.00026144,0.00185406,0.,0.0049
 2409,-0.00304865,0.00000081,-0.00130380,-0.00057452,0.00000002,0.00028
 310,-0.00108406,-0.00000009,0.00014112,0.00045916,0.,0.00010667,0.0003
 8211,-0.00000005,0.00034870,0.00039352,0.,-0.00247828,-0.00117817,-0.0
 0000085,-0.45178724,0.18169444,0.00004730,0.00026951,-0.00509563,0.000
 00038,-0.00078452,-0.00096700,-0.00000007,0.00018083,0.00038361,0.0000
 0012,-0.00000065,0.00005232,0.00000001,-0.00001617,-0.00002431,0.,-0.0
 0012094,-0.00005085,0.,0.44774895,0.00136492,-0.00081644,0.00000028,-0
 .00519411,-0.00382752,0.00000093,-0.00048395,0.00045159,-0.00000032,0.
 00027522,0.00156317,-0.00000002,-0.00035373,-0.00050931,0.,-0.00004973
 ,-0.00060945,-0.00000008,-0.00065623,-0.00059636,0.,0.05073089,-0.0249
 2474,-0.00000451,0.13065687,-0.09637286,-0.00001142,-0.00134152,0.0049
 8987,0.00000023,0.00028530,0.00088473,0.,0.00051162,0.00055144,0.00000
 010,-0.00001037,0.00001373,0.00000001,0.00011037,-0.00000784,-0.000000
 01,0.00014818,0.00005627,0.,-0.17453668,0.11718446,-0.00000031,0.00000
 080,0.00226358,0.00000139,0.00000077,0.00445141,-0.00000031,-0.0000002
 3,-0.00112277,-0.00000004,-0.00000018,0.00031043,0.00000001,-0.0000000
 8,0.00010854,0.00000023,0.00000024,-0.00065609,0.00000003,0.00000006,-
 0.00007661,-0.00000577,0.00000375,-0.00454631,0.00005228,-0.00001965,-
 0.00435421,0.00000011,0.00000002,-0.00426310,-0.00000024,-0.00000033,0
 .00014520,0.00000017,0.00000002,-0.00020838,0.,0.00000001,-0.00002914,
 -0.00000004,0.,-0.00007470,-0.00000002,-0.00000001,0.00005738,-0.00004
 737,0.00001521,0.00558539,0.00104972,0.00254283,-0.00000019,0.00448174
 ,-0.00725696,0.00000011,-0.00207224,0.00058488,0.00000025,0.00021089,-
 0.00235955,0.00000006,0.00035649,0.00086092,-0.00000003,-0.00019918,0.
 00024858,0.00000002,0.00047246,0.00074569,0.,-0.04184263,0.02026979,-0
 .00000230,0.00650562,0.00408852,-0.00000025,-0.38523049,0.17963026,-0.
 00003033,-0.00135489,-0.00101153,0.00000008,-0.00011706,-0.00006140,-0
 .00000002,-0.00000024,0.00004668,0.,0.00001292,-0.00001423,0.,-0.00019
 888,-0.00008909,-0.00000002,0.00221889,-0.00134480,-0.00000012,0.41550
 016,-0.00130977,-0.00102821,0.00000002,-0.00351182,-0.00162766,0.00000
 117,-0.00014146,0.00061493,0.00000013,-0.00032125,0.00036829,-0.000000
 07,-0.00009525,-0.00028434,-0.00000002,0.00023821,-0.00011260,0.,-0.00
 007305,-0.00010506,0.,-0.03285109,0.01209656,-0.00000280,-0.00038328,-
 0.00044139,0.00000032,0.23287137,-0.15573570,0.00002427,0.00097240,-0.
 00155584,-0.00000015,-0.00004851,-0.00000458,0.00000005,0.00000841,-0.
 00001264,0.,0.00000414,0.00001799,0.,0.00000866,0.00000827,0.,0.001101
 42,0.00217702,-0.00000046,-0.19710619,0.14560043,-0.00000046,-0.000000
 39,-0.00147470,-0.00000011,0.00000183,0.00581229,0.00000073,-0.0000001
 0,0.00185683,-0.00000010,0.00000056,-0.00044202,-0.00000007,-0.0000002
 0,0.00003039,0.,-0.00000013,-0.00017206,-0.00000003,-0.00000017,-0.000
 16139,0.00000658,-0.00000203,-0.00419379,-0.00000012,-0.00000003,-0.00
 488787,-0.00003911,0.00002351,-0.00579580,0.00000016,0.00000004,0.0002
 1161,-0.00000004,0.,0.00024403,0.,-0.00000001,0.00007661,0.00000001,0.
 ,0.00001759,0.00000004,0.00000003,-0.00004008,-0.00000027,-0.00000040,
 0.00250323,0.00003278,-0.00002245,0.00632250,0.00630502,-0.04328834,-0
 .00000031,-0.00428474,-0.00313205,0.00000011,0.00059690,-0.00072451,0.
 00000003,0.00026375,-0.00001875,0.,-0.00020885,0.00053165,-0.00000002,
 0.00066669,-0.00371356,-0.00000003,-0.00016499,0.00020514,-0.00000002,
 -0.00149747,-0.00079222,0.00000004,0.00016510,0.00010752,-0.00000008,-
 0.00087216,0.00136530,0.00000016,-0.08665582,0.16864159,0.00000147,-0.
 00028242,-0.00014585,0.00000002,0.00009641,0.00007410,0.00000001,-0.00
 174026,0.00182174,0.,-0.00008290,-0.00013127,0.00000002,0.00000828,-0.
 00011224,0.,0.00020675,0.00063705,0.,0.08748071,0.00378335,-0.03196169
 ,-0.00000020,-0.00642134,0.00257307,0.00000014,0.00323954,-0.00076997,
 -0.00000009,-0.00257498,0.00160782,-0.00000002,-0.00042920,-0.00284682
 ,0.00000003,0.00599371,0.00550327,-0.00000007,0.00122026,0.00051549,0.
 00000006,0.00326442,-0.00118813,-0.00000008,-0.00046197,0.00151911,-0.
 00000012,-0.00126332,-0.00110978,0.00000014,0.11568507,-0.47098228,-0.
 00000374,-0.00025622,-0.00010400,0.,0.00024025,0.00016687,0.,-0.000966
 01,0.00013461,0.,-0.00019312,0.00000715,-0.00000002,0.00023924,-0.0002
 0774,0.00000006,0.00022561,0.00002453,-0.00000007,-0.12132530,0.497118
 49,0.00000001,0.00000036,-0.00262146,-0.00000013,0.00000016,0.00326893
 ,0.,-0.00000004,0.00118390,0.,-0.00000005,-0.00015777,0.,0.00000001,-0
 .00059901,0.,0.00000006,-0.00210225,0.,0.,-0.00005336,0.00000015,0.,-0
 .00017333,-0.00000004,0.00000018,-0.00039772,0.00000022,-0.00000014,0.
 00029539,0.00000120,-0.00000450,-0.00703064,-0.00000001,0.00000001,0.0
 0042718,0.,0.,0.00023548,0.00000001,-0.00000002,0.00071729,0.,0.,0.000
 02595,0.00000004,-0.00000002,-0.00009385,-0.00000004,-0.00000002,0.000
 09265,-0.00000140,0.00000398,0.00698262\\0.00002720,-0.00000561,-0.000
 00002,-0.00002472,-0.00004508,-0.00000008,0.00003426,0.00004220,0.0000
 0020,0.00000993,-0.00002136,0.00000044,0.00002992,0.00001519,-0.000000
 31,-0.00004143,-0.00005484,0.00000004,0.00002941,0.00002988,-0.0000010
 0,-0.00003277,-0.00000243,0.00000005,-0.00004516,0.00002712,0.00000003
 ,-0.00000647,-0.00000261,-0.00000006,0.00001159,0.00001235,0.00000003,
 -0.00000074,-0.00000352,0.00000006,0.00000762,-0.00000408,-0.00000001,
 0.00000797,-0.00000201,0.00000001,-0.00001956,0.00000096,0.00000066,0.
 00000412,-0.00000025,-0.00000005,0.00000681,0.00000041,0.00000004,0.00
 000202,0.00001368,-0.00000002\\\@


 COMMON SENSE IS NOT SO COMMON.   -- VOLTAIRE
 Job cpu time:       0 days  0 hours 24 minutes 54.1 seconds.
 File lengths (MBytes):  RWF=    115 Int=      0 D2E=      0 Chk=      6 Scr=      1
 Normal termination of Gaussian 09 at Mon May 20 13:45:48 2024.
