 Entering Gaussian System, Link 0=g09
 Input=B2PLYP631DHB.gjf
 Output=B2PLYP631DHB.log
 Initial command:
 /home/phzd/g09E/g09/l1.exe "/home/phzd/g09E/scratch/Gau-1263604.inp" -scrdir="/home/phzd/g09E/scratch/"
 Default is to use a total of  18 processors:
                               18 via shared-memory
                                1 via Linda
 Entering Link 1 = /home/phzd/g09E/g09/l1.exe PID=   1263606.
  
 Copyright (c) 1988,1990,1992,1993,1995,1998,2003,2009,2015,
            Gaussian, Inc.  All Rights Reserved.
  
 This is part of the Gaussian(R) 09 program.  It is based on
 the Gaussian(R) 03 system (copyright 2003, Gaussian, Inc.),
 the Gaussian(R) 98 system (copyright 1998, Gaussian, Inc.),
 the Gaussian(R) 94 system (copyright 1995, Gaussian, Inc.),
 the Gaussian 92(TM) system (copyright 1992, Gaussian, Inc.),
 the Gaussian 90(TM) system (copyright 1990, Gaussian, Inc.),
 the Gaussian 88(TM) system (copyright 1988, Gaussian, Inc.),
 the Gaussian 86(TM) system (copyright 1986, Carnegie Mellon
 University), and the Gaussian 82(TM) system (copyright 1983,
 Carnegie Mellon University). Gaussian is a federally registered
 trademark of Gaussian, Inc.
  
 This software contains proprietary and confidential information,
 including trade secrets, belonging to Gaussian, Inc.
  
 This software is provided under written license and may be
 used, copied, transmitted, or stored only in accord with that
 written license.
  
 The following legend is applicable only to US Government
 contracts under FAR:
  
                    RESTRICTED RIGHTS LEGEND
  
 Use, reproduction and disclosure by the US Government is
 subject to restrictions as set forth in subparagraphs (a)
 and (c) of the Commercial Computer Software - Restricted
 Rights clause in FAR 52.227-19.
  
 Gaussian, Inc.
 340 Quinnipiac St., Bldg. 40, Wallingford CT 06492
  
  
 ---------------------------------------------------------------
 Warning -- This program may not be used in any manner that
 competes with the business of Gaussian, Inc. or will provide
 assistance to any competitor of Gaussian, Inc.  The licensee
 of this program is prohibited from giving any competitor of
 Gaussian, Inc. access to this program.  By using this program,
 the user acknowledges that Gaussian, Inc. is engaged in the
 business of creating and licensing software in the field of
 computational chemistry and represents and warrants to the
 licensee that it is not a competitor of Gaussian, Inc. and that
 it will not use this program in any manner prohibited above.
 ---------------------------------------------------------------
  

 Cite this work as:
 Gaussian 09, Revision E.01,
 M. J. Frisch, G. W. Trucks, H. B. Schlegel, G. E. Scuseria, 
 M. A. Robb, J. R. Cheeseman, G. Scalmani, V. Barone, B. Mennucci, 
 G. A. Petersson, H. Nakatsuji, M. Caricato, X. Li, H. P. Hratchian, 
 A. F. Izmaylov, J. Bloino, G. Zheng, J. L. Sonnenberg, M. Hada, 
 M. Ehara, K. Toyota, R. Fukuda, J. Hasegawa, M. Ishida, T. Nakajima, 
 Y. Honda, O. Kitao, H. Nakai, T. Vreven, J. A. Montgomery, Jr., 
 J. E. Peralta, F. Ogliaro, M. Bearpark, J. J. Heyd, E. Brothers, 
 K. N. Kudin, V. N. Staroverov, T. Keith, R. Kobayashi, J. Normand, 
 K. Raghavachari, A. Rendell, J. C. Burant, S. S. Iyengar, J. Tomasi, 
 M. Cossi, N. Rega, J. M. Millam, M. Klene, J. E. Knox, J. B. Cross, 
 V. Bakken, C. Adamo, J. Jaramillo, R. Gomperts, R. E. Stratmann, 
 O. Yazyev, A. J. Austin, R. Cammi, C. Pomelli, J. W. Ochterski, 
 R. L. Martin, K. Morokuma, V. G. Zakrzewski, G. A. Voth, 
 P. Salvador, J. J. Dannenberg, S. Dapprich, A. D. Daniels, 
 O. Farkas, J. B. Foresman, J. V. Ortiz, J. Cioslowski, 
 and D. J. Fox, Gaussian, Inc., Wallingford CT, 2013.
 
 ******************************************
 Gaussian 09:  ES64L-G09RevE.01 30-Nov-2015
                14-Dec-2024 
 ******************************************
 %chk=pbe0631DHB.chk
 -----------------------------
 # opt freq B2PLYP/6-31+g(d,p)
 -----------------------------
 1/18=20,19=15,38=1/1,3;
 2/9=110,12=2,17=6,18=5,40=1/2;
 3/5=1,6=6,7=111,11=9,16=1,25=1,30=1,71=1,74=-47/1,2,3;
 4//1;
 5/5=2,38=5/2;
 8/6=4,10=2/1;
 9/15=2,16=-3/6;
 10/5=1/2;
 6/7=2,8=2,9=2,10=2/1;
 7/12=2/1,2,3,16;
 1/18=20,19=15/3(2);
 2/9=110/2;
 99//99;
 2/9=110/2;
 3/5=1,6=6,7=111,11=9,16=1,25=1,30=1,71=1,74=-47/1,2,3;
 4/5=5,16=3,69=1/1;
 5/5=2,38=5/2;
 8/6=4,10=2/1;
 9/15=2,16=-3/6;
 10/5=1/2;
 7/12=2/1,2,3,16;
 1/18=20,19=15/3(-8);
 2/9=110/2;
 6/7=2,8=2,9=2,10=2/1;
 99//99;
 ----------
 [No Title]
 ----------
 Symbolic Z-matrix:
 Charge =  0 Multiplicity = 1
 C                     0.23444   1.26941   0.00003 
 C                     0.46156  -0.11932   0.00005 
 C                    -0.62837  -0.99592   0.00004 
 C                    -1.93228  -0.51849  0. 
 C                    -2.15728   0.85676  -0.00003 
 C                    -1.08131   1.73649  -0.00001 
 O                    -2.9413   -1.43978  -0.00004 
 C                     1.84422  -0.67279   0.00007 
 O                     1.84896  -2.02817   0.00009 
 O                     2.87021  -0.03946  -0.00024 
 O                     1.2855    2.12443   0.00006 
 H                    -0.45913  -2.06587   0.00007 
 H                    -3.17181   1.24783  -0.00008 
 H                    -1.26479   2.80797  -0.00002 
 H                    -3.79736  -0.99828   0.00018 
 H                     2.77953  -2.29688  -0.00007 
 H                     0.96078   3.03208   0.00007 
 

 GradGradGradGradGradGradGradGradGradGradGradGradGradGradGradGradGradGrad
 Berny optimization.
 Initialization pass.
                           ----------------------------
                           !    Initial Parameters    !
                           ! (Angstroms and Degrees)  !
 --------------------------                            --------------------------
 ! Name  Definition              Value          Derivative Info.                !
 --------------------------------------------------------------------------------
 ! R1    R(1,2)                  1.4072         estimate D2E/DX2                !
 ! R2    R(1,6)                  1.3962         estimate D2E/DX2                !
 ! R3    R(1,11)                 1.3549         estimate D2E/DX2                !
 ! R4    R(2,3)                  1.3987         estimate D2E/DX2                !
 ! R5    R(2,8)                  1.4893         estimate D2E/DX2                !
 ! R6    R(3,4)                  1.3886         estimate D2E/DX2                !
 ! R7    R(3,12)                 1.0832         estimate D2E/DX2                !
 ! R8    R(4,5)                  1.3935         estimate D2E/DX2                !
 ! R9    R(4,7)                  1.3663         estimate D2E/DX2                !
 ! R10   R(5,6)                  1.3898         estimate D2E/DX2                !
 ! R11   R(5,13)                 1.0873         estimate D2E/DX2                !
 ! R12   R(6,14)                 1.0871         estimate D2E/DX2                !
 ! R13   R(7,15)                 0.9632         estimate D2E/DX2                !
 ! R14   R(8,9)                  1.3554         estimate D2E/DX2                !
 ! R15   R(8,10)                 1.2057         estimate D2E/DX2                !
 ! R16   R(9,16)                 0.9686         estimate D2E/DX2                !
 ! R17   R(11,17)                0.964          estimate D2E/DX2                !
 ! A1    A(2,1,6)              118.8326         estimate D2E/DX2                !
 ! A2    A(2,1,11)             119.8398         estimate D2E/DX2                !
 ! A3    A(6,1,11)             121.3276         estimate D2E/DX2                !
 ! A4    A(1,2,3)              119.5207         estimate D2E/DX2                !
 ! A5    A(1,2,8)              121.1041         estimate D2E/DX2                !
 ! A6    A(3,2,8)              119.3752         estimate D2E/DX2                !
 ! A7    A(2,3,4)              121.081          estimate D2E/DX2                !
 ! A8    A(2,3,12)             119.8206         estimate D2E/DX2                !
 ! A9    A(4,3,12)             119.0985         estimate D2E/DX2                !
 ! A10   A(3,4,5)              119.402          estimate D2E/DX2                !
 ! A11   A(3,4,7)              117.4919         estimate D2E/DX2                !
 ! A12   A(5,4,7)              123.106          estimate D2E/DX2                !
 ! A13   A(4,5,6)              119.978          estimate D2E/DX2                !
 ! A14   A(4,5,13)             120.372          estimate D2E/DX2                !
 ! A15   A(6,5,13)             119.65           estimate D2E/DX2                !
 ! A16   A(1,6,5)              121.1857         estimate D2E/DX2                !
 ! A17   A(1,6,14)             119.2615         estimate D2E/DX2                !
 ! A18   A(5,6,14)             119.5528         estimate D2E/DX2                !
 ! A19   A(4,7,15)             110.3204         estimate D2E/DX2                !
 ! A20   A(2,8,9)              112.0164         estimate D2E/DX2                !
 ! A21   A(2,8,10)             126.4977         estimate D2E/DX2                !
 ! A22   A(9,8,10)             121.4859         estimate D2E/DX2                !
 ! A23   A(8,9,16)             106.3071         estimate D2E/DX2                !
 ! A24   A(1,11,17)            109.4431         estimate D2E/DX2                !
 ! D1    D(6,1,2,3)             -0.0004         estimate D2E/DX2                !
 ! D2    D(6,1,2,8)            179.9995         estimate D2E/DX2                !
 ! D3    D(11,1,2,3)           179.9989         estimate D2E/DX2                !
 ! D4    D(11,1,2,8)            -0.0012         estimate D2E/DX2                !
 ! D5    D(2,1,6,5)             -0.0006         estimate D2E/DX2                !
 ! D6    D(2,1,6,14)           179.9999         estimate D2E/DX2                !
 ! D7    D(11,1,6,5)          -179.9998         estimate D2E/DX2                !
 ! D8    D(11,1,6,14)            0.0006         estimate D2E/DX2                !
 ! D9    D(2,1,11,17)         -179.998          estimate D2E/DX2                !
 ! D10   D(6,1,11,17)            0.0012         estimate D2E/DX2                !
 ! D11   D(1,2,3,4)              0.0008         estimate D2E/DX2                !
 ! D12   D(1,2,3,12)          -179.9993         estimate D2E/DX2                !
 ! D13   D(8,2,3,4)           -179.999          estimate D2E/DX2                !
 ! D14   D(8,2,3,12)             0.0009         estimate D2E/DX2                !
 ! D15   D(1,2,8,9)           -179.9999         estimate D2E/DX2                !
 ! D16   D(1,2,8,10)            -0.0184         estimate D2E/DX2                !
 ! D17   D(3,2,8,9)              0.0            estimate D2E/DX2                !
 ! D18   D(3,2,8,10)           179.9814         estimate D2E/DX2                !
 ! D19   D(2,3,4,5)             -0.0004         estimate D2E/DX2                !
 ! D20   D(2,3,4,7)            179.9982         estimate D2E/DX2                !
 ! D21   D(12,3,4,5)           179.9997         estimate D2E/DX2                !
 ! D22   D(12,3,4,7)            -0.0017         estimate D2E/DX2                !
 ! D23   D(3,4,5,6)             -0.0005         estimate D2E/DX2                !
 ! D24   D(3,4,5,13)           179.9993         estimate D2E/DX2                !
 ! D25   D(7,4,5,6)           -179.999          estimate D2E/DX2                !
 ! D26   D(7,4,5,13)             0.0008         estimate D2E/DX2                !
 ! D27   D(3,4,7,15)           179.9844         estimate D2E/DX2                !
 ! D28   D(5,4,7,15)            -0.017          estimate D2E/DX2                !
 ! D29   D(4,5,6,1)              0.001          estimate D2E/DX2                !
 ! D30   D(4,5,6,14)          -179.9995         estimate D2E/DX2                !
 ! D31   D(13,5,6,1)          -179.9988         estimate D2E/DX2                !
 ! D32   D(13,5,6,14)            0.0007         estimate D2E/DX2                !
 ! D33   D(2,8,9,16)           179.9896         estimate D2E/DX2                !
 ! D34   D(10,8,9,16)            0.0071         estimate D2E/DX2                !
 --------------------------------------------------------------------------------
 Trust Radius=3.00D-01 FncErr=1.00D-07 GrdErr=1.00D-07
 Number of steps in this run=     85 maximum allowed number of steps=    102.
 GradGradGradGradGradGradGradGradGradGradGradGradGradGradGradGradGradGrad

                          Input orientation:                          
 ---------------------------------------------------------------------
 Center     Atomic      Atomic             Coordinates (Angstroms)
 Number     Number       Type             X           Y           Z
 ---------------------------------------------------------------------
      1          6           0        0.234443    1.269412    0.000028
      2          6           0        0.461560   -0.119315    0.000048
      3          6           0       -0.628372   -0.995919    0.000042
      4          6           0       -1.932280   -0.518493   -0.000001
      5          6           0       -2.157285    0.856763   -0.000030
      6          6           0       -1.081307    1.736494   -0.000005
      7          8           0       -2.941296   -1.439782   -0.000042
      8          6           0        1.844217   -0.672785    0.000072
      9          8           0        1.848959   -2.028166    0.000086
     10          8           0        2.870206   -0.039458   -0.000235
     11          8           0        1.285497    2.124431    0.000056
     12          1           0       -0.459134   -2.065866    0.000069
     13          1           0       -3.171809    1.247833   -0.000075
     14          1           0       -1.264786    2.807972   -0.000019
     15          1           0       -3.797356   -0.998281    0.000176
     16          1           0        2.779534   -2.296880   -0.000067
     17          1           0        0.960784    3.032078    0.000068
 ---------------------------------------------------------------------
                    Distance matrix (angstroms):
                    1          2          3          4          5
     1  C    0.000000
     2  C    1.407176   0.000000
     3  C    2.424082   1.398709   0.000000
     4  C    2.809145   2.426894   1.388565   0.000000
     5  C    2.427064   2.794830   2.402084   1.393541   0.000000
     6  C    1.396196   2.413393   2.769699   2.410212   1.389840
     7  O    4.174332   3.650077   2.355129   1.366341   2.426683
     8  C    2.522598   1.489318   2.493614   3.779648   4.283869
     9  O    3.671605   2.359786   2.683785   4.071472   4.936882
    10  O    2.942854   2.409969   3.626964   4.826318   5.106748
    11  O    1.354907   2.390244   3.660530   4.164029   3.668750
    12  H    3.406630   2.153309   1.083249   2.136474   3.380159
    13  H    3.406320   3.882070   3.391680   2.157855   1.087288
    14  H    2.148221   3.398423   3.856762   3.392774   2.145640
    15  H    4.625779   4.348672   3.168985   1.925800   2.476090
    16  H    4.381316   3.180376   3.647783   5.036254   5.858126
    17  H    1.906453   3.190690   4.330147   4.579997   3.801888
                    6          7          8          9         10
     6  C    0.000000
     7  O    3.680800   0.000000
     8  C    3.789897   4.846588   0.000000
     9  O    4.770652   4.826255   1.355389   0.000000
    10  O    4.332258   5.977831   1.205718   2.235599   0.000000
    11  O    2.398386   5.528960   2.852470   4.190650   2.682111
    12  H    3.852926   2.559904   2.691858   2.308401   3.897542
    13  H    2.146855   2.697482   5.371154   5.995021   6.177626
    14  H    1.087074   4.566629   4.667073   5.751838   5.020559
    15  H    3.854337   0.963204   5.650955   5.739472   6.736151
    16  H    5.583386   5.784679   1.874167   0.968595   2.259242
    17  H    2.418403   5.934961   3.808735   5.137599   3.616659
                   11         12         13         14         15
    11  O    0.000000
    12  H    4.538979   0.000000
    13  H    4.542687   4.282430   0.000000
    14  H    2.640298   4.939977   2.463893   0.000000
    15  H    5.965461   3.504777   2.331595   4.571813   0.000000
    16  H    4.666919   3.246897   6.927010   6.512760   6.703868
    17  H    0.963982   5.291994   4.501317   2.236825   6.235679
                   16         17
    16  H    0.000000
    17  H    5.630777   0.000000
 Stoichiometry    C7H6O4
 Framework group  C1[X(C7H6O4)]
 Deg. of freedom    45
 Full point group                 C1      NOp   1
 Largest Abelian subgroup         C1      NOp   1
 Largest concise Abelian subgroup C1      NOp   1
                         Standard orientation:                         
 ---------------------------------------------------------------------
 Center     Atomic      Atomic             Coordinates (Angstroms)
 Number     Number       Type             X           Y           Z
 ---------------------------------------------------------------------
      1          6           0        0.234443    1.269412    0.000028
      2          6           0        0.461560   -0.119315    0.000048
      3          6           0       -0.628372   -0.995919    0.000042
      4          6           0       -1.932280   -0.518493   -0.000001
      5          6           0       -2.157285    0.856763   -0.000030
      6          6           0       -1.081307    1.736494   -0.000005
      7          8           0       -2.941296   -1.439781   -0.000042
      8          6           0        1.844217   -0.672785    0.000072
      9          8           0        1.848958   -2.028166    0.000086
     10          8           0        2.870206   -0.039458   -0.000235
     11          8           0        1.285497    2.124431    0.000056
     12          1           0       -0.459135   -2.065866    0.000069
     13          1           0       -3.171809    1.247834   -0.000075
     14          1           0       -1.264786    2.807972   -0.000019
     15          1           0       -3.797356   -0.998280    0.000176
     16          1           0        2.779533   -2.296880   -0.000067
     17          1           0        0.960784    3.032078    0.000068
 ---------------------------------------------------------------------
 Rotational constants (GHZ):      1.7703797      0.9190223      0.6049741
 Standard basis: 6-31+G(d,p) (6D, 7F)
 There are   239 symmetry adapted cartesian basis functions of A   symmetry.
 There are   239 symmetry adapted basis functions of A   symmetry.
   239 basis functions,   394 primitive gaussians,   239 cartesian basis functions
    40 alpha electrons       40 beta electrons
       nuclear repulsion energy       591.5529591454 Hartrees.
 NAtoms=   17 NActive=   17 NUniq=   17 SFac= 1.00D+00 NAtFMM=   60 NAOKFM=F Big=F
 Integral buffers will be    131072 words long.
 Regular integral format.
 Two-electron integral symmetry is turned on.
 One-electron integrals computed using PRISM.
 NBasis=   239 RedAO= T EigKep=  3.17D-06  NBF=   239
 NBsUse=   239 1.00D-06 EigRej= -1.00D+00 NBFU=   239
 ExpMin= 4.38D-02 ExpMax= 5.48D+03 ExpMxC= 8.25D+02 IAcc=2 IRadAn=         4 AccDes= 0.00D+00
 Harris functional with IExCor=  419 and IRadAn=       4 diagonalized for initial guess.
 HarFok:  IExCor=  419 AccDes= 0.00D+00 IRadAn=         4 IDoV= 1 UseB2=F ITyADJ=14
 ICtDFT=  3500011 ScaDFX=  1.000000  1.000000  1.000000  1.000000
 FoFCou: FMM=F IPFlag=           0 FMFlag=      100000 FMFlg1=           0
         NFxFlg=           0 DoJE=T BraDBF=F KetDBF=T FulRan=T
         wScrn=  0.000000 ICntrl=     500 IOpCl=  0 I1Cent=   200000004 NGrid=           0
         NMat0=    1 NMatS0=      1 NMatT0=    0 NMatD0=    1 NMtDS0=    0 NMtDT0=    0
 Petite list used in FoFCou.
 Keep R1 ints in memory in canonical form, NReq=418393415.
 Requested convergence on RMS density matrix=1.00D-08 within 128 cycles.
 Requested convergence on MAX density matrix=1.00D-06.
 Requested convergence on             energy=1.00D-06.
 No special actions if energy rises.
 SCF Done:  E(RB2PLYP) =  -570.212612702     A.U. after   16 cycles
            NFock= 16  Conv=0.22D-08     -V/T= 2.0065
 DoSCS=T DFT=T ScalE2(SS,OS)=  0.270000  0.270000
 ExpMin= 4.38D-02 ExpMax= 5.48D+03 ExpMxC= 8.25D+02 IAcc=3 IRadAn=         5 AccDes= 0.00D+00
 HarFok:  IExCor=  205 AccDes= 0.00D+00 IRadAn=         5 IDoV=-2 UseB2=F ITyADJ=14
 ICtDFT= 12500011 ScaDFX=  1.000000  1.000000  1.000000  1.000000
 Range of M.O.s used for correlation:    12   239
 NBasis=   239 NAE=    40 NBE=    40 NFC=    11 NFV=     0
 NROrb=    228 NOA=    29 NOB=    29 NVA=   199 NVB=   199

 **** Warning!!: The largest alpha MO coefficient is  0.16651395D+03

 DoSCS=T DFT=T ScalE2(SS,OS)=  0.270000  0.270000
 Fully direct method using O(ONN) memory.
 JobTyp=1 Pass  1:  I=  12 to  17 NPSUse= 18 ParTrn=T ParDer=T DoDerP=T.
 JobTyp=1 Pass  2:  I=  18 to  23 NPSUse= 18 ParTrn=T ParDer=T DoDerP=T.
 JobTyp=1 Pass  3:  I=  24 to  29 NPSUse= 18 ParTrn=T ParDer=T DoDerP=T.
 JobTyp=1 Pass  4:  I=  30 to  35 NPSUse= 18 ParTrn=T ParDer=T DoDerP=T.
 JobTyp=1 Pass  5:  I=  36 to  40 NPSUse= 18 ParTrn=T ParDer=T DoDerP=T.
 Spin components of T(2) and E(2):
     alpha-alpha T2 =       0.1198157562D+00 E2=     -0.7572996538D-01
     alpha-beta  T2 =       0.6041119468D+00 E2=     -0.3964939267D+00
     beta-beta   T2 =       0.1198157562D+00 E2=     -0.7572996538D-01
 E2(B2PLYP) =    -0.5479538575D+00 E(B2PLYP) =    -0.57076056655948D+03
          IDoAtm=11111111111111111
          Differentiating once with respect to electric field.
                with respect to dipole field.
          Differentiating once with respect to nuclear coordinates.
 Keep R1 ints in memory in canonical form, NReq=418199641.
          There are     1 degrees of freedom in the 1st order CPHF.  IDoFFX=0 NUNeed=     1.
 LinEq1:  Iter=  0 NonCon=     1 RMS=1.96D-03 Max=4.38D-02 NDo=     1
 AX will form     1 AO Fock derivatives at one time.
 LinEq1:  Iter=  1 NonCon=     1 RMS=8.75D-04 Max=1.47D-02 NDo=     1
 LinEq1:  Iter=  2 NonCon=     1 RMS=2.99D-04 Max=4.71D-03 NDo=     1
 LinEq1:  Iter=  3 NonCon=     1 RMS=2.34D-04 Max=6.71D-03 NDo=     1
 LinEq1:  Iter=  4 NonCon=     1 RMS=9.46D-05 Max=2.52D-03 NDo=     1
 LinEq1:  Iter=  5 NonCon=     1 RMS=4.41D-05 Max=1.18D-03 NDo=     1
 LinEq1:  Iter=  6 NonCon=     1 RMS=2.23D-05 Max=8.64D-04 NDo=     1
 LinEq1:  Iter=  7 NonCon=     1 RMS=1.06D-05 Max=4.01D-04 NDo=     1
 LinEq1:  Iter=  8 NonCon=     1 RMS=3.91D-06 Max=1.17D-04 NDo=     1
 LinEq1:  Iter=  9 NonCon=     1 RMS=2.13D-06 Max=4.84D-05 NDo=     1
 LinEq1:  Iter= 10 NonCon=     1 RMS=6.59D-07 Max=1.33D-05 NDo=     1
 LinEq1:  Iter= 11 NonCon=     1 RMS=2.73D-07 Max=6.92D-06 NDo=     1
 LinEq1:  Iter= 12 NonCon=     1 RMS=1.30D-07 Max=1.91D-06 NDo=     1
 LinEq1:  Iter= 13 NonCon=     1 RMS=5.08D-08 Max=1.56D-06 NDo=     1
 LinEq1:  Iter= 14 NonCon=     1 RMS=3.22D-08 Max=9.07D-07 NDo=     1
 LinEq1:  Iter= 15 NonCon=     1 RMS=9.72D-09 Max=2.54D-07 NDo=     1
 LinEq1:  Iter= 16 NonCon=     1 RMS=4.66D-09 Max=1.05D-07 NDo=     1
 LinEq1:  Iter= 17 NonCon=     1 RMS=1.61D-09 Max=4.15D-08 NDo=     1
 LinEq1:  Iter= 18 NonCon=     1 RMS=5.08D-10 Max=7.78D-09 NDo=     1
 LinEq1:  Iter= 19 NonCon=     1 RMS=2.63D-10 Max=3.67D-09 NDo=     1
 LinEq1:  Iter= 20 NonCon=     1 RMS=9.12D-11 Max=1.55D-09 NDo=     1
 LinEq1:  Iter= 21 NonCon=     0 RMS=3.84D-11 Max=3.73D-10 NDo=     1
 Linear equations converged to 1.000D-10 1.000D-09 after    21 iterations.
 End of Minotr F.D. properties file   721 does not exist.
 End of Minotr F.D. properties file   722 does not exist.
 End of Minotr F.D. properties file   788 does not exist.

 **********************************************************************

            Population analysis using the SCF density.

 **********************************************************************

 Orbital symmetries:
       Occupied  (A) (A) (A) (A) (A) (A) (A) (A) (A) (A) (A) (A)
                 (A) (A) (A) (A) (A) (A) (A) (A) (A) (A) (A) (A)
                 (A) (A) (A) (A) (A) (A) (A) (A) (A) (A) (A) (A)
                 (A) (A) (A) (A)
       Virtual   (A) (A) (A) (A) (A) (A) (A) (A) (A) (A) (A) (A)
                 (A) (A) (A) (A) (A) (A) (A) (A) (A) (A) (A) (A)
                 (A) (A) (A) (A) (A) (A) (A) (A) (A) (A) (A) (A)
                 (A) (A) (A) (A) (A) (A) (A) (A) (A) (A) (A) (A)
                 (A) (A) (A) (A) (A) (A) (A) (A) (A) (A) (A) (A)
                 (A) (A) (A) (A) (A) (A) (A) (A) (A) (A) (A) (A)
                 (A) (A) (A) (A) (A) (A) (A) (A) (A) (A) (A) (A)
                 (A) (A) (A) (A) (A) (A) (A) (A) (A) (A) (A) (A)
                 (A) (A) (A) (A) (A) (A) (A) (A) (A) (A) (A) (A)
                 (A) (A) (A) (A) (A) (A) (A) (A) (A) (A) (A) (A)
                 (A) (A) (A) (A) (A) (A) (A) (A) (A) (A) (A) (A)
                 (A) (A) (A) (A) (A) (A) (A) (A) (A) (A) (A) (A)
                 (A) (A) (A) (A) (A) (A) (A) (A) (A) (A) (A) (A)
                 (A) (A) (A) (A) (A) (A) (A) (A) (A) (A) (A) (A)
                 (A) (A) (A) (A) (A) (A) (A) (A) (A) (A) (A) (A)
                 (A) (A) (A) (A) (A) (A) (A) (A) (A) (A) (A) (A)
                 (A) (A) (A) (A) (A) (A) (A)
 The electronic state is 1-A.
 Alpha  occ. eigenvalues --  -19.79614 -19.78910 -19.78763 -19.73590 -10.77520
 Alpha  occ. eigenvalues --  -10.71498 -10.70454 -10.65923 -10.65848 -10.65314
 Alpha  occ. eigenvalues --  -10.64791  -1.26129  -1.22237  -1.21853  -1.16170
 Alpha  occ. eigenvalues --   -0.99796  -0.90273  -0.86689  -0.77701  -0.74081
 Alpha  occ. eigenvalues --   -0.70204  -0.64715  -0.63567  -0.59182  -0.57471
 Alpha  occ. eigenvalues --   -0.56642  -0.53367  -0.53144  -0.50746  -0.50084
 Alpha  occ. eigenvalues --   -0.49774  -0.48193  -0.47470  -0.45098  -0.43480
 Alpha  occ. eigenvalues --   -0.39277  -0.38802  -0.34796  -0.31702  -0.26248
 Alpha virt. eigenvalues --   -0.00703   0.01783   0.02588   0.03919   0.04614
 Alpha virt. eigenvalues --    0.05033   0.07242   0.07831   0.07859   0.09078
 Alpha virt. eigenvalues --    0.10043   0.10469   0.10722   0.12312   0.12449
 Alpha virt. eigenvalues --    0.13915   0.15211   0.15618   0.16582   0.17038
 Alpha virt. eigenvalues --    0.17816   0.18642   0.19545   0.19606   0.20268
 Alpha virt. eigenvalues --    0.20843   0.23237   0.23613   0.23868   0.24275
 Alpha virt. eigenvalues --    0.24444   0.24924   0.25738   0.26107   0.27997
 Alpha virt. eigenvalues --    0.28388   0.28917   0.29320   0.30368   0.31419
 Alpha virt. eigenvalues --    0.31454   0.32359   0.33035   0.33877   0.34915
 Alpha virt. eigenvalues --    0.35092   0.35321   0.36453   0.36559   0.37766
 Alpha virt. eigenvalues --    0.39293   0.40015   0.41689   0.42181   0.43835
 Alpha virt. eigenvalues --    0.44634   0.47037   0.47981   0.50403   0.52876
 Alpha virt. eigenvalues --    0.53441   0.55732   0.62121   0.68947   0.72541
 Alpha virt. eigenvalues --    0.73455   0.77487   0.78153   0.79453   0.81126
 Alpha virt. eigenvalues --    0.81822   0.83146   0.84240   0.86244   0.86849
 Alpha virt. eigenvalues --    0.89553   0.92761   0.93490   0.94942   0.95990
 Alpha virt. eigenvalues --    1.02611   1.03387   1.08198   1.09203   1.10660
 Alpha virt. eigenvalues --    1.12578   1.15615   1.18188   1.18322   1.22837
 Alpha virt. eigenvalues --    1.25561   1.26554   1.27418   1.29803   1.30153
 Alpha virt. eigenvalues --    1.31135   1.32276   1.32492   1.34823   1.35838
 Alpha virt. eigenvalues --    1.36305   1.38240   1.40791   1.41639   1.41964
 Alpha virt. eigenvalues --    1.44126   1.46611   1.46758   1.47435   1.48789
 Alpha virt. eigenvalues --    1.50156   1.50753   1.52288   1.52549   1.55455
 Alpha virt. eigenvalues --    1.58354   1.61426   1.68729   1.69336   1.69371
 Alpha virt. eigenvalues --    1.71290   1.79815   1.81959   1.85819   1.87734
 Alpha virt. eigenvalues --    1.88947   1.92361   1.97114   1.98274   1.99218
 Alpha virt. eigenvalues --    2.00968   2.01668   2.01884   2.03053   2.06288
 Alpha virt. eigenvalues --    2.06578   2.11506   2.13720   2.15964   2.18966
 Alpha virt. eigenvalues --    2.20223   2.22060   2.27063   2.36239   2.36860
 Alpha virt. eigenvalues --    2.39158   2.44934   2.45518   2.48014   2.50393
 Alpha virt. eigenvalues --    2.52405   2.53526   2.55217   2.59301   2.61958
 Alpha virt. eigenvalues --    2.63420   2.63980   2.66281   2.68130   2.68138
 Alpha virt. eigenvalues --    2.72227   2.73495   2.74054   2.76540   2.78718
 Alpha virt. eigenvalues --    2.81357   2.83026   2.86869   2.89050   2.89905
 Alpha virt. eigenvalues --    2.92275   2.98160   3.02265   3.10456   3.16797
 Alpha virt. eigenvalues --    3.19618   3.24333   3.27983   3.31911   3.36194
 Alpha virt. eigenvalues --    3.41243   3.45580   3.55676   3.62154   3.66422
 Alpha virt. eigenvalues --    3.68306   3.69773   3.96380   4.36621   4.41654
 Alpha virt. eigenvalues --    4.45880   4.50022   4.51640   4.62150   4.66732
 Alpha virt. eigenvalues --    4.72904   4.77208   5.01166   5.11373
          Condensed to atoms (all electrons):
               1          2          3          4          5          6
     1  C   12.974634  -2.894618  -1.535703   0.096830   0.540776  -1.633983
     2  C   -2.894618  11.663443  -1.899258   0.625858  -0.900426  -1.016712
     3  C   -1.535703  -1.899258  12.895503  -3.436246  -0.084194  -0.463677
     4  C    0.096830   0.625858  -3.436246   9.248807  -0.201281   0.411722
     5  C    0.540776  -0.900426  -0.084194  -0.201281   6.423868  -0.255699
     6  C   -1.633983  -1.016712  -0.463677   0.411722  -0.255699   8.765855
     7  O   -0.021673   0.046915  -0.068779   0.031469  -0.083370   0.062464
     8  C   -0.776853   0.188494   0.297109  -0.669408   0.062292  -0.289773
     9  O    0.025844  -0.134273  -0.022364   0.092929   0.001802   0.004230
    10  O   -0.183624  -0.103106   0.046695   0.051268  -0.000074   0.025480
    11  O    0.235264  -0.392865   0.099037  -0.017952   0.066685   0.163347
    12  H   -0.000012   0.056311   0.147281   0.110804   0.013892  -0.001021
    13  H   -0.017478   0.018330  -0.028055   0.046413   0.213236   0.096319
    14  H    0.060967  -0.007372  -0.009238  -0.010970   0.112577   0.175875
    15  H   -0.003817  -0.003886   0.119365  -0.027711  -0.072707  -0.010642
    16  H   -0.004058   0.026854  -0.005134  -0.008530  -0.000405   0.005407
    17  H    0.015653   0.179558  -0.020138   0.006096  -0.015294  -0.184915
               7          8          9         10         11         12
     1  C   -0.021673  -0.776853   0.025844  -0.183624   0.235264  -0.000012
     2  C    0.046915   0.188494  -0.134273  -0.103106  -0.392865   0.056311
     3  C   -0.068779   0.297109  -0.022364   0.046695   0.099037   0.147281
     4  C    0.031469  -0.669408   0.092929   0.051268  -0.017952   0.110804
     5  C   -0.083370   0.062292   0.001802  -0.000074   0.066685   0.013892
     6  C    0.062464  -0.289773   0.004230   0.025480   0.163347  -0.001021
     7  O    8.400965  -0.006606   0.000250   0.000073   0.000217  -0.005172
     8  C   -0.006606   5.838447   0.054409   0.502160  -0.163493   0.007600
     9  O    0.000250   0.054409   8.452718  -0.148812  -0.000729  -0.004189
    10  O    0.000073   0.502160  -0.148812   8.309893  -0.012042  -0.000123
    11  O    0.000217  -0.163493  -0.000729  -0.012042   8.360495  -0.000334
    12  H   -0.005172   0.007600  -0.004189  -0.000123  -0.000334   0.483244
    13  H   -0.010593   0.001564   0.000006   0.000007  -0.000451  -0.000129
    14  H   -0.000496   0.010534   0.000016   0.000004  -0.013688   0.000009
    15  H    0.220438   0.002557   0.000014   0.000001  -0.000005  -0.000052
    16  H    0.000001   0.015218   0.209983   0.005055   0.000128   0.000185
    17  H   -0.000005   0.027860  -0.000037   0.001587   0.187068   0.000003
              13         14         15         16         17
     1  C   -0.017478   0.060967  -0.003817  -0.004058   0.015653
     2  C    0.018330  -0.007372  -0.003886   0.026854   0.179558
     3  C   -0.028055  -0.009238   0.119365  -0.005134  -0.020138
     4  C    0.046413  -0.010970  -0.027711  -0.008530   0.006096
     5  C    0.213236   0.112577  -0.072707  -0.000405  -0.015294
     6  C    0.096319   0.175875  -0.010642   0.005407  -0.184915
     7  O   -0.010593  -0.000496   0.220438   0.000001  -0.000005
     8  C    0.001564   0.010534   0.002557   0.015218   0.027860
     9  O    0.000006   0.000016   0.000014   0.209983  -0.000037
    10  O    0.000007   0.000004   0.000001   0.005055   0.001587
    11  O   -0.000451  -0.013688  -0.000005   0.000128   0.187068
    12  H   -0.000129   0.000009  -0.000052   0.000185   0.000003
    13  H    0.542032  -0.003735   0.005076   0.000000  -0.000014
    14  H   -0.003735   0.544774  -0.000005  -0.000000   0.007338
    15  H    0.005076  -0.000005   0.408016   0.000000   0.000000
    16  H    0.000000  -0.000000   0.000000   0.357750  -0.000000
    17  H   -0.000014   0.007338   0.000000  -0.000000   0.423949
 Mulliken charges:
               1
     1  C   -0.878149
     2  C    0.546753
     3  C   -0.032203
     4  C   -0.350097
     5  C    0.178321
     6  C    0.145722
     7  O   -0.566097
     8  C    0.897890
     9  O   -0.531797
    10  O   -0.494442
    11  O   -0.510682
    12  H    0.191701
    13  H    0.137474
    14  H    0.133410
    15  H    0.363359
    16  H    0.397545
    17  H    0.371292
 Sum of Mulliken charges =  -0.00000
 Mulliken charges with hydrogens summed into heavy atoms:
               1
     1  C   -0.878149
     2  C    0.546753
     3  C    0.159498
     4  C   -0.350097
     5  C    0.315795
     6  C    0.279132
     7  O   -0.202738
     8  C    0.897890
     9  O   -0.134252
    10  O   -0.494442
    11  O   -0.139390
 Electronic spatial extent (au):  <R**2>=           1738.1675
 Charge=             -0.0000 electrons
 Dipole moment (field-independent basis, Debye):
    X=             -3.8248    Y=              1.7634    Z=              0.0007  Tot=              4.2117
 Quadrupole moment (field-independent basis, Debye-Ang):
   XX=            -58.8787   YY=            -53.4613   ZZ=            -65.7288
   XY=            -10.7967   XZ=             -0.0005   YZ=              0.0002
 Traceless Quadrupole moment (field-independent basis, Debye-Ang):
   XX=              0.4775   YY=              5.8950   ZZ=             -6.3725
   XY=            -10.7967   XZ=             -0.0005   YZ=              0.0002
 Octapole moment (field-independent basis, Debye-Ang**2):
  XXX=            -61.8749  YYY=             33.7513  ZZZ=             -0.0006  XYY=             24.3200
  XXY=            -19.9609  XXZ=              0.0088  XZZ=              8.3267  YZZ=             -3.3290
  YYZ=             -0.0012  XYZ=              0.0038
 Hexadecapole moment (field-independent basis, Debye-Ang**3):
 XXXX=          -1142.9394 YYYY=           -596.9669 ZZZZ=            -69.0825 XXXY=            -81.4716
 XXXZ=             -0.0109 YYYX=            -27.4335 YYYZ=              0.0077 ZZZX=              0.0027
 ZZZY=              0.0018 XXYY=           -317.8613 XXZZ=           -245.0968 YYZZ=           -145.1361
 XXYZ=             -0.0038 YYXZ=             -0.0047 ZZXY=              4.0859
 N-N= 5.915529591454D+02 E-N=-2.518524117622D+03  KE= 5.665025255512D+02
 Calling FoFJK, ICntrl=  10002127 FMM=F ISym2X=0 I1Cent= 0 IOpClX= 0 NMat=1 NMatS=1 NMatT=0.
 ***** Axes restored to original set *****
 -------------------------------------------------------------------
 Center     Atomic                   Forces (Hartrees/Bohr)
 Number     Number              X              Y              Z
 -------------------------------------------------------------------
      1        6          -0.003680781   -0.000731530    0.000000834
      2        6           0.005868351   -0.002731596    0.000012175
      3        6          -0.001031158   -0.005232106    0.000000887
      4        6           0.002075861    0.002136656   -0.000000608
      5        6          -0.004916397    0.001835819   -0.000000094
      6        6          -0.000574833    0.004301217   -0.000000534
      7        8          -0.003550037   -0.005702318    0.000000503
      8        6          -0.014953640   -0.000689285   -0.000038504
      9        8          -0.002599401   -0.009943667    0.000013562
     10        8           0.016343037    0.010325463    0.000011403
     11        8           0.006616456    0.003301186    0.000000973
     12        1          -0.000229213    0.001832188    0.000000039
     13        1           0.001017405   -0.000248173    0.000000213
     14        1           0.000015729   -0.000984180   -0.000000135
     15        1          -0.001207086    0.000932624   -0.000000540
     16        1           0.001745307    0.000130025    0.000000015
     17        1          -0.000939599    0.001467679   -0.000000189
 -------------------------------------------------------------------
 Cartesian Forces:  Max     0.016343037 RMS     0.004331362

 GradGradGradGradGradGradGradGradGradGradGradGradGradGradGradGradGradGrad
 Berny optimization.
 FormGI is forming the generalized inverse of G from B-inverse, IUseBI=4.
 Internal  Forces:  Max     0.019327821 RMS     0.003064697
 Search for a local minimum.
 Step number   1 out of a maximum of   85
 All quantities printed in internal units (Hartrees-Bohrs-Radians)
 Mixed Optimization -- RFO/linear search
 Second derivative matrix not updated -- first step.
 ITU=  0
     Eigenvalues ---    0.00907   0.01330   0.01704   0.02051   0.02114
     Eigenvalues ---    0.02137   0.02163   0.02170   0.02178   0.02192
     Eigenvalues ---    0.02200   0.02211   0.02282   0.02288   0.16000
     Eigenvalues ---    0.16000   0.16000   0.16000   0.16000   0.16000
     Eigenvalues ---    0.22369   0.23487   0.24602   0.25000   0.25000
     Eigenvalues ---    0.25000   0.25000   0.25000   0.33524   0.35128
     Eigenvalues ---    0.35153   0.35605   0.41828   0.42391   0.45396
     Eigenvalues ---    0.46294   0.46851   0.47317   0.51686   0.53665
     Eigenvalues ---    0.53891   0.53991   0.54626   0.54790   1.02001
 RFO step:  Lambda=-1.04484111D-03 EMin= 9.07243976D-03
 Linear search not attempted -- first point.
 Iteration  1 RMS(Cart)=  0.00835184 RMS(Int)=  0.00001110
 Iteration  2 RMS(Cart)=  0.00001691 RMS(Int)=  0.00000132
 Iteration  3 RMS(Cart)=  0.00000000 RMS(Int)=  0.00000132
 Variable       Old X    -DE/DX   Delta X   Delta X   Delta X     New X
                                 (Linear)    (Quad)   (Total)
    R1        2.65918   0.00554   0.00000   0.01258   0.01258   2.67176
    R2        2.63843   0.00390   0.00000   0.00844   0.00844   2.64687
    R3        2.56040   0.00742   0.00000   0.01371   0.01371   2.57411
    R4        2.64318   0.00520   0.00000   0.01142   0.01142   2.65460
    R5        2.81440   0.00056   0.00000   0.00167   0.00167   2.81607
    R6        2.62401   0.00359   0.00000   0.00750   0.00750   2.63151
    R7        2.04704  -0.00185   0.00000  -0.00517  -0.00517   2.04187
    R8        2.63341   0.00368   0.00000   0.00773   0.00773   2.64114
    R9        2.58201   0.00673   0.00000   0.01299   0.01299   2.59500
   R10        2.62642   0.00369   0.00000   0.00767   0.00767   2.63408
   R11        2.05468  -0.00104   0.00000  -0.00295  -0.00295   2.05173
   R12        2.05427  -0.00097   0.00000  -0.00276  -0.00276   2.05152
   R13        1.82019   0.00150   0.00000   0.00274   0.00274   1.82293
   R14        2.56131   0.00982   0.00000   0.01818   0.01818   2.57950
   R15        2.27848   0.01933   0.00000   0.01893   0.01893   2.29741
   R16        1.83038   0.00164   0.00000   0.00305   0.00305   1.83343
   R17        1.82166   0.00170   0.00000   0.00310   0.00310   1.82476
    A1        2.07402   0.00013   0.00000   0.00073   0.00073   2.07475
    A2        2.09160   0.00043   0.00000   0.00159   0.00159   2.09319
    A3        2.11757  -0.00056   0.00000  -0.00232  -0.00233   2.11524
    A4        2.08603  -0.00136   0.00000  -0.00505  -0.00504   2.08099
    A5        2.11366   0.00102   0.00000   0.00390   0.00390   2.11756
    A6        2.08349   0.00033   0.00000   0.00115   0.00114   2.08464
    A7        2.11326   0.00074   0.00000   0.00339   0.00339   2.11666
    A8        2.09126  -0.00043   0.00000  -0.00206  -0.00206   2.08921
    A9        2.07866  -0.00031   0.00000  -0.00134  -0.00134   2.07732
   A10        2.08396   0.00013   0.00000   0.00015   0.00015   2.08411
   A11        2.05062  -0.00021   0.00000  -0.00063  -0.00063   2.04999
   A12        2.14861   0.00007   0.00000   0.00048   0.00048   2.14909
   A13        2.09401  -0.00019   0.00000  -0.00144  -0.00144   2.09257
   A14        2.10089   0.00024   0.00000   0.00160   0.00161   2.10250
   A15        2.08829  -0.00005   0.00000  -0.00017  -0.00017   2.08812
   A16        2.11509   0.00055   0.00000   0.00221   0.00221   2.11730
   A17        2.08151  -0.00012   0.00000  -0.00017  -0.00017   2.08134
   A18        2.08659  -0.00042   0.00000  -0.00204  -0.00204   2.08455
   A19        1.92545  -0.00051   0.00000  -0.00316  -0.00316   1.92229
   A20        1.95506  -0.00064   0.00000  -0.00256  -0.00256   1.95250
   A21        2.20780   0.00010   0.00000   0.00038   0.00038   2.20818
   A22        2.12033   0.00055   0.00000   0.00218   0.00218   2.12251
   A23        1.85541  -0.00110   0.00000  -0.00686  -0.00686   1.84855
   A24        1.91014  -0.00070   0.00000  -0.00438  -0.00438   1.90577
    D1       -0.00001  -0.00000   0.00000  -0.00003  -0.00003  -0.00003
    D2        3.14158  -0.00000   0.00000  -0.00003  -0.00003   3.14155
    D3        3.14157  -0.00000   0.00000  -0.00002  -0.00002   3.14155
    D4       -0.00002  -0.00000   0.00000  -0.00003  -0.00003  -0.00005
    D5       -0.00001   0.00000   0.00000   0.00001   0.00001   0.00000
    D6        3.14159   0.00000   0.00000   0.00001   0.00001  -3.14158
    D7       -3.14159   0.00000   0.00000   0.00001   0.00001  -3.14158
    D8        0.00001   0.00000   0.00000   0.00001   0.00001   0.00002
    D9       -3.14156  -0.00000   0.00000  -0.00001  -0.00001  -3.14157
   D10        0.00002  -0.00000   0.00000  -0.00000  -0.00000   0.00002
   D11        0.00001   0.00000   0.00000   0.00003   0.00003   0.00004
   D12       -3.14158   0.00000   0.00000   0.00001   0.00001  -3.14157
   D13       -3.14158   0.00000   0.00000   0.00003   0.00003  -3.14154
   D14        0.00002   0.00000   0.00000   0.00001   0.00001   0.00003
   D15       -3.14159  -0.00001   0.00000  -0.00079  -0.00079   3.14080
   D16       -0.00032   0.00001   0.00000   0.00071   0.00070   0.00038
   D17       -0.00000  -0.00001   0.00000  -0.00079  -0.00079  -0.00079
   D18        3.14127   0.00001   0.00000   0.00070   0.00070  -3.14122
   D19       -0.00001  -0.00000   0.00000  -0.00001  -0.00001  -0.00002
   D20        3.14156  -0.00000   0.00000  -0.00001  -0.00001   3.14155
   D21        3.14159   0.00000   0.00000   0.00001   0.00001  -3.14159
   D22       -0.00003   0.00000   0.00000   0.00001   0.00001  -0.00002
   D23       -0.00001  -0.00000   0.00000  -0.00000  -0.00000  -0.00001
   D24        3.14158   0.00000   0.00000   0.00000   0.00000   3.14158
   D25       -3.14158  -0.00000   0.00000  -0.00000  -0.00000  -3.14158
   D26        0.00001   0.00000   0.00000   0.00000   0.00000   0.00002
   D27        3.14132   0.00000   0.00000   0.00004   0.00004   3.14136
   D28       -0.00030   0.00000   0.00000   0.00003   0.00003  -0.00026
   D29        0.00002   0.00000   0.00000   0.00000   0.00000   0.00002
   D30       -3.14158   0.00000   0.00000   0.00001   0.00001  -3.14158
   D31       -3.14157  -0.00000   0.00000  -0.00000  -0.00000  -3.14158
   D32        0.00001  -0.00000   0.00000  -0.00000  -0.00000   0.00001
   D33        3.14141   0.00001   0.00000   0.00072   0.00072  -3.14106
   D34        0.00012  -0.00001   0.00000  -0.00069  -0.00069  -0.00057
         Item               Value     Threshold  Converged?
 Maximum Force            0.019328     0.000450     NO 
 RMS     Force            0.003065     0.000300     NO 
 Maximum Displacement     0.031343     0.001800     NO 
 RMS     Displacement     0.008351     0.001200     NO 
 Predicted change in Energy=-5.233731D-04
 GradGradGradGradGradGradGradGradGradGradGradGradGradGradGradGradGradGrad

                          Input orientation:                          
 ---------------------------------------------------------------------
 Center     Atomic      Atomic             Coordinates (Angstroms)
 Number     Number       Type             X           Y           Z
 ---------------------------------------------------------------------
      1          6           0        0.237022    1.274428   -0.000086
      2          6           0        0.468428   -0.120339   -0.000255
      3          6           0       -0.628621   -0.997730   -0.000210
      4          6           0       -1.936570   -0.519797   -0.000052
      5          6           0       -2.163349    0.859314    0.000085
      6          6           0       -1.083671    1.740928    0.000080
      7          8           0       -2.949468   -1.447025   -0.000071
      8          6           0        1.851020   -0.676342   -0.000489
      9          8           0        1.850130   -2.041353    0.000373
     10          8           0        2.886792   -0.039797   -0.000185
     11          8           0        1.290346    2.138137   -0.000078
     12          1           0       -0.460538   -2.065089   -0.000318
     13          1           0       -3.176104    1.250633    0.000200
     14          1           0       -1.268404    2.810710    0.000201
     15          1           0       -3.805988   -1.003256    0.000261
     16          1           0        2.782980   -2.307987    0.000647
     17          1           0        0.957570    3.044605    0.000068
 ---------------------------------------------------------------------
                    Distance matrix (angstroms):
                    1          2          3          4          5
     1  C    0.000000
     2  C    1.413833   0.000000
     3  C    2.431468   1.404753   0.000000
     4  C    2.818465   2.437947   1.392534   0.000000
     5  C    2.436001   2.808197   2.409149   1.397632   0.000000
     6  C    1.400661   2.423494   2.776206   2.416261   1.393897
     7  O    4.190468   3.666348   2.363937   1.373213   2.436633
     8  C    2.531895   1.490201   2.500382   3.790824   4.298069
     9  O    3.687346   2.366304   2.689490   4.080959   4.951957
    10  O    2.957781   2.419705   3.643592   4.847187   5.129554
    11  O    1.362161   2.403385   3.676424   4.180622   3.682851
    12  H    3.411592   2.155233   1.080513   2.136961   3.384036
    13  H    3.413209   3.893865   3.397765   2.161219   1.085728
    14  H    2.150923   3.406998   3.861805   3.396870   2.146829
    15  H    4.640450   4.364651   3.177372   1.930921   2.483431
    16  H    4.394952   3.184801   3.654558   5.046958   5.873497
    17  H    1.911208   3.202519   4.342404   4.591406   3.809939
                    6          7          8          9         10
     6  C    0.000000
     7  O    3.693812   0.000000
     8  C    3.802053   4.861959   0.000000
     9  O    4.786735   4.836255   1.365012   0.000000
    10  O    4.351500   6.003517   1.215735   2.254084   0.000000
    11  O    2.407016   5.552423   2.869781   4.216811   2.700377
    12  H    3.856691   2.564523   2.696650   2.310789   3.912342
    13  H    2.149109   2.707162   5.383792   6.008345   6.198703
    14  H    1.085615   4.577585   4.678711   5.767822   5.038953
    15  H    3.865431   0.964654   5.666446   5.750592   6.761772
    16  H    5.598634   5.796742   1.879047   0.970208   2.270565
    17  H    2.422032   5.953124   3.826708   5.163684   3.638053
                   11         12         13         14         15
    11  O    0.000000
    12  H    4.553317   0.000000
    13  H    4.553772   4.285828   0.000000
    14  H    2.645667   4.942274   2.464379   0.000000
    15  H    5.986732   3.509919   2.340250   4.581012   0.000000
    16  H    4.689987   3.252600   6.940783   6.527999   6.716906
    17  H    0.965621   5.302830   4.506174   2.238229   6.251133
                   16         17
    16  H    0.000000
    17  H    5.655295   0.000000
 Stoichiometry    C7H6O4
 Framework group  C1[X(C7H6O4)]
 Deg. of freedom    45
 Full point group                 C1      NOp   1
 Largest Abelian subgroup         C1      NOp   1
 Largest concise Abelian subgroup C1      NOp   1
                         Standard orientation:                         
 ---------------------------------------------------------------------
 Center     Atomic      Atomic             Coordinates (Angstroms)
 Number     Number       Type             X           Y           Z
 ---------------------------------------------------------------------
      1          6           0        0.236480    1.274605   -0.000034
      2          6           0        0.466872   -0.120329   -0.000203
      3          6           0       -0.630814   -0.996922   -0.000157
      4          6           0       -1.938416   -0.518039   -0.000000
      5          6           0       -2.164192    0.861236    0.000137
      6          6           0       -1.083873    1.742066    0.000132
      7          8           0       -2.951987   -1.444530   -0.000018
      8          6           0        1.849060   -0.677337   -0.000436
      9          8           0        1.847177   -2.042348    0.000426
     10          8           0        2.885294   -0.041546   -0.000132
     11          8           0        1.290432    2.137548   -0.000026
     12          1           0       -0.463507   -2.064404   -0.000265
     13          1           0       -3.176662    1.253292    0.000253
     14          1           0       -1.267828    2.811982    0.000254
     15          1           0       -3.808184   -1.000138    0.000313
     16          1           0        2.779833   -2.309660    0.000700
     17          1           0        0.958316    3.044258    0.000121
 ---------------------------------------------------------------------
 Rotational constants (GHZ):      1.7532811      0.9129633      0.6003505
 Standard basis: 6-31+G(d,p) (6D, 7F)
 There are   239 symmetry adapted cartesian basis functions of A   symmetry.
 There are   239 symmetry adapted basis functions of A   symmetry.
   239 basis functions,   394 primitive gaussians,   239 cartesian basis functions
    40 alpha electrons       40 beta electrons
       nuclear repulsion energy       589.2255004970 Hartrees.
 NAtoms=   17 NActive=   17 NUniq=   17 SFac= 1.00D+00 NAtFMM=   60 NAOKFM=F Big=F
 Integral buffers will be    131072 words long.
 Regular integral format.
 Two-electron integral symmetry is turned on.
 One-electron integrals computed using PRISM.
 NBasis=   239 RedAO= T EigKep=  3.25D-06  NBF=   239
 NBsUse=   239 1.00D-06 EigRej= -1.00D+00 NBFU=   239
 Initial guess from the checkpoint file:  "pbe0631DHB.chk"
 B after Tr=    -0.000000   -0.000000    0.000000
         Rot=    1.000000    0.000006   -0.000004    0.000426 Ang=   0.05 deg.
 ExpMin= 4.38D-02 ExpMax= 5.48D+03 ExpMxC= 8.25D+02 IAcc=2 IRadAn=         4 AccDes= 0.00D+00
 Harris functional with IExCor=  419 and IRadAn=       4 diagonalized for initial guess.
 HarFok:  IExCor=  419 AccDes= 0.00D+00 IRadAn=         4 IDoV= 1 UseB2=F ITyADJ=14
 ICtDFT=  3500011 ScaDFX=  1.000000  1.000000  1.000000  1.000000
 FoFCou: FMM=F IPFlag=           0 FMFlag=      100000 FMFlg1=           0
         NFxFlg=           0 DoJE=T BraDBF=F KetDBF=T FulRan=T
         wScrn=  0.000000 ICntrl=     500 IOpCl=  0 I1Cent=   200000004 NGrid=           0
         NMat0=    1 NMatS0=      1 NMatT0=    0 NMatD0=    1 NMtDS0=    0 NMtDT0=    0
 Petite list used in FoFCou.
 Keep R1 ints in memory in canonical form, NReq=418393415.
 Requested convergence on RMS density matrix=1.00D-08 within 128 cycles.
 Requested convergence on MAX density matrix=1.00D-06.
 Requested convergence on             energy=1.00D-06.
 No special actions if energy rises.
 SCF Done:  E(RB2PLYP) =  -570.211537562     A.U. after   12 cycles
            NFock= 12  Conv=0.55D-08     -V/T= 2.0069
 DoSCS=T DFT=T ScalE2(SS,OS)=  0.270000  0.270000
 ExpMin= 4.38D-02 ExpMax= 5.48D+03 ExpMxC= 8.25D+02 IAcc=3 IRadAn=         5 AccDes= 0.00D+00
 HarFok:  IExCor=  205 AccDes= 0.00D+00 IRadAn=         5 IDoV=-2 UseB2=F ITyADJ=14
 ICtDFT= 12500011 ScaDFX=  1.000000  1.000000  1.000000  1.000000
 Range of M.O.s used for correlation:    12   239
 NBasis=   239 NAE=    40 NBE=    40 NFC=    11 NFV=     0
 NROrb=    228 NOA=    29 NOB=    29 NVA=   199 NVB=   199

 **** Warning!!: The largest alpha MO coefficient is  0.16309505D+03

 DoSCS=T DFT=T ScalE2(SS,OS)=  0.270000  0.270000
 Fully direct method using O(ONN) memory.
 JobTyp=1 Pass  1:  I=  12 to  17 NPSUse= 18 ParTrn=T ParDer=T DoDerP=T.
 JobTyp=1 Pass  2:  I=  18 to  23 NPSUse= 18 ParTrn=T ParDer=T DoDerP=T.
 JobTyp=1 Pass  3:  I=  24 to  29 NPSUse= 18 ParTrn=T ParDer=T DoDerP=T.
 JobTyp=1 Pass  4:  I=  30 to  35 NPSUse= 18 ParTrn=T ParDer=T DoDerP=T.
 JobTyp=1 Pass  5:  I=  36 to  40 NPSUse= 18 ParTrn=T ParDer=T DoDerP=T.
 Spin components of T(2) and E(2):
     alpha-alpha T2 =       0.1208132765D+00 E2=     -0.7591604039D-01
     alpha-beta  T2 =       0.6097065738D+00 E2=     -0.3977354175D+00
     beta-beta   T2 =       0.1208132765D+00 E2=     -0.7591604039D-01
 E2(B2PLYP) =    -0.5495674982D+00 E(B2PLYP) =    -0.57076110506036D+03
          IDoAtm=11111111111111111
          Differentiating once with respect to electric field.
                with respect to dipole field.
          Differentiating once with respect to nuclear coordinates.
 Keep R1 ints in memory in canonical form, NReq=418199641.
          There are     1 degrees of freedom in the 1st order CPHF.  IDoFFX=0 NUNeed=     1.
 LinEq1:  Iter=  0 NonCon=     1 RMS=1.99D-03 Max=4.46D-02 NDo=     1
 AX will form     1 AO Fock derivatives at one time.
 LinEq1:  Iter=  1 NonCon=     1 RMS=8.99D-04 Max=1.61D-02 NDo=     1
 LinEq1:  Iter=  2 NonCon=     1 RMS=3.14D-04 Max=5.06D-03 NDo=     1
 LinEq1:  Iter=  3 NonCon=     1 RMS=2.48D-04 Max=7.39D-03 NDo=     1
 LinEq1:  Iter=  4 NonCon=     1 RMS=1.01D-04 Max=2.71D-03 NDo=     1
 LinEq1:  Iter=  5 NonCon=     1 RMS=4.65D-05 Max=1.25D-03 NDo=     1
 LinEq1:  Iter=  6 NonCon=     1 RMS=2.37D-05 Max=9.39D-04 NDo=     1
 LinEq1:  Iter=  7 NonCon=     1 RMS=1.13D-05 Max=4.36D-04 NDo=     1
 LinEq1:  Iter=  8 NonCon=     1 RMS=4.14D-06 Max=1.20D-04 NDo=     1
 LinEq1:  Iter=  9 NonCon=     1 RMS=2.27D-06 Max=4.90D-05 NDo=     1
 LinEq1:  Iter= 10 NonCon=     1 RMS=6.95D-07 Max=1.32D-05 NDo=     1
 LinEq1:  Iter= 11 NonCon=     1 RMS=2.94D-07 Max=7.44D-06 NDo=     1
 LinEq1:  Iter= 12 NonCon=     1 RMS=1.42D-07 Max=2.15D-06 NDo=     1
 LinEq1:  Iter= 13 NonCon=     1 RMS=5.72D-08 Max=1.79D-06 NDo=     1
 LinEq1:  Iter= 14 NonCon=     1 RMS=3.52D-08 Max=9.78D-07 NDo=     1
 LinEq1:  Iter= 15 NonCon=     1 RMS=1.07D-08 Max=2.78D-07 NDo=     1
 LinEq1:  Iter= 16 NonCon=     1 RMS=5.21D-09 Max=1.21D-07 NDo=     1
 LinEq1:  Iter= 17 NonCon=     1 RMS=1.76D-09 Max=4.74D-08 NDo=     1
 LinEq1:  Iter= 18 NonCon=     1 RMS=5.78D-10 Max=9.35D-09 NDo=     1
 LinEq1:  Iter= 19 NonCon=     1 RMS=3.00D-10 Max=4.31D-09 NDo=     1
 LinEq1:  Iter= 20 NonCon=     1 RMS=1.06D-10 Max=1.80D-09 NDo=     1
 LinEq1:  Iter= 21 NonCon=     0 RMS=4.66D-11 Max=4.37D-10 NDo=     1
 Linear equations converged to 1.000D-10 1.000D-09 after    21 iterations.
 End of Minotr F.D. properties file   721 does not exist.
 End of Minotr F.D. properties file   722 does not exist.
 End of Minotr F.D. properties file   788 does not exist.
 Calling FoFJK, ICntrl=  10002127 FMM=F ISym2X=0 I1Cent= 0 IOpClX= 0 NMat=1 NMatS=1 NMatT=0.
 ***** Axes restored to original set *****
 -------------------------------------------------------------------
 Center     Atomic                   Forces (Hartrees/Bohr)
 Number     Number              X              Y              Z
 -------------------------------------------------------------------
      1        6          -0.002194404   -0.001151686   -0.000003889
      2        6           0.001828872   -0.000055134   -0.000042905
      3        6          -0.000945364    0.000053301   -0.000005852
      4        6           0.001837778    0.001662533    0.000002152
      5        6          -0.000303270   -0.000305244    0.000000464
      6        6           0.000670491   -0.000177083    0.000002477
      7        8          -0.000385160   -0.001301739    0.000001265
      8        6          -0.003748911    0.001905799    0.000155837
      9        8           0.000059198   -0.001566299   -0.000044883
     10        8           0.001469844    0.000205672   -0.000059368
     11        8           0.001461569    0.000143022   -0.000002321
     12        1           0.000128981   -0.000090708   -0.000001091
     13        1           0.000144243    0.000075564   -0.000000303
     14        1          -0.000034356   -0.000067904    0.000000341
     15        1           0.000036602    0.000379953   -0.000000614
     16        1           0.000387889    0.000245715   -0.000001491
     17        1          -0.000414002    0.000044239    0.000000181
 -------------------------------------------------------------------
 Cartesian Forces:  Max     0.003748911 RMS     0.000930506

 GradGradGradGradGradGradGradGradGradGradGradGradGradGradGradGradGradGrad
 Berny optimization.
 Using GEDIIS/GDIIS optimizer.
 FormGI is forming the generalized inverse of G from B-inverse, IUseBI=4.
 Internal  Forces:  Max     0.001996529 RMS     0.000475794
 Search for a local minimum.
 Step number   2 out of a maximum of   85
 All quantities printed in internal units (Hartrees-Bohrs-Radians)
 Mixed Optimization -- En-DIIS/RFO-DIIS
 Update second derivatives using D2CorX and points    1    2
 DE= -5.39D-04 DEPred=-5.23D-04 R= 1.03D+00
 TightC=F SS=  1.41D+00  RLast= 4.27D-02 DXNew= 5.0454D-01 1.2818D-01
 Trust test= 1.03D+00 RLast= 4.27D-02 DXMaxT set to 3.00D-01
 ITU=  1  0
 Use linear search instead of GDIIS.
     Eigenvalues ---    0.00907   0.01331   0.01702   0.02051   0.02114
     Eigenvalues ---    0.02137   0.02163   0.02170   0.02178   0.02192
     Eigenvalues ---    0.02200   0.02211   0.02282   0.02288   0.15628
     Eigenvalues ---    0.16000   0.16000   0.16000   0.16000   0.16009
     Eigenvalues ---    0.22367   0.23581   0.24340   0.24968   0.25000
     Eigenvalues ---    0.25000   0.25000   0.25219   0.33144   0.35130
     Eigenvalues ---    0.35162   0.35692   0.42152   0.42409   0.45431
     Eigenvalues ---    0.46594   0.46993   0.48666   0.51565   0.52630
     Eigenvalues ---    0.53687   0.53965   0.54622   0.54789   0.99278
 RFO step:  Lambda=-5.19182156D-05 EMin= 9.07244163D-03
 Quartic linear search produced a step of  0.04217.
 Iteration  1 RMS(Cart)=  0.00287825 RMS(Int)=  0.00000944
 Iteration  2 RMS(Cart)=  0.00001038 RMS(Int)=  0.00000174
 Iteration  3 RMS(Cart)=  0.00000000 RMS(Int)=  0.00000174
 Variable       Old X    -DE/DX   Delta X   Delta X   Delta X     New X
                                 (Linear)    (Quad)   (Total)
    R1        2.67176  -0.00090   0.00053  -0.00205  -0.00152   2.67024
    R2        2.64687  -0.00083   0.00036  -0.00182  -0.00146   2.64541
    R3        2.57411   0.00093   0.00058   0.00192   0.00249   2.57661
    R4        2.65460  -0.00035   0.00048  -0.00073  -0.00025   2.65435
    R5        2.81607  -0.00200   0.00007  -0.00619  -0.00612   2.80995
    R6        2.63151  -0.00092   0.00032  -0.00194  -0.00163   2.62988
    R7        2.04187   0.00011  -0.00022   0.00027   0.00005   2.04193
    R8        2.64114  -0.00041   0.00033  -0.00080  -0.00047   2.64067
    R9        2.59500   0.00088   0.00055   0.00188   0.00243   2.59742
   R10        2.63408  -0.00035   0.00032  -0.00068  -0.00036   2.63373
   R11        2.05173  -0.00011  -0.00012  -0.00035  -0.00047   2.05126
   R12        2.05152  -0.00006  -0.00012  -0.00020  -0.00032   2.05119
   R13        1.82293   0.00015   0.00012   0.00030   0.00042   1.82335
   R14        2.57950   0.00133   0.00077   0.00272   0.00349   2.58299
   R15        2.29741   0.00136   0.00080   0.00154   0.00234   2.29974
   R16        1.83343   0.00030   0.00013   0.00061   0.00074   1.83417
   R17        1.82476   0.00018   0.00013   0.00037   0.00050   1.82526
    A1        2.07475   0.00051   0.00003   0.00212   0.00215   2.07690
    A2        2.09319  -0.00060   0.00007  -0.00246  -0.00240   2.09080
    A3        2.11524   0.00009  -0.00010   0.00034   0.00025   2.11549
    A4        2.08099  -0.00014  -0.00021  -0.00066  -0.00088   2.08011
    A5        2.11756  -0.00017   0.00016  -0.00064  -0.00048   2.11709
    A6        2.08464   0.00030   0.00005   0.00131   0.00135   2.08599
    A7        2.11666  -0.00033   0.00014  -0.00146  -0.00131   2.11534
    A8        2.08921   0.00005  -0.00009  -0.00001  -0.00009   2.08911
    A9        2.07732   0.00028  -0.00006   0.00146   0.00141   2.07873
   A10        2.08411   0.00054   0.00001   0.00245   0.00245   2.08656
   A11        2.04999  -0.00051  -0.00003  -0.00222  -0.00225   2.04774
   A12        2.14909  -0.00003   0.00002  -0.00023  -0.00021   2.14888
   A13        2.09257  -0.00036  -0.00006  -0.00150  -0.00156   2.09101
   A14        2.10250   0.00031   0.00007   0.00161   0.00168   2.10417
   A15        2.08812   0.00005  -0.00001  -0.00011  -0.00012   2.08800
   A16        2.11730  -0.00023   0.00009  -0.00095  -0.00085   2.11644
   A17        2.08134   0.00016  -0.00001   0.00076   0.00075   2.08209
   A18        2.08455   0.00007  -0.00009   0.00019   0.00010   2.08465
   A19        1.92229  -0.00065  -0.00013  -0.00429  -0.00442   1.91788
   A20        1.95250   0.00071  -0.00011   0.00295   0.00283   1.95533
   A21        2.20818   0.00033   0.00002   0.00138   0.00140   2.20958
   A22        2.12251  -0.00104   0.00009  -0.00433  -0.00424   2.11827
   A23        1.84855  -0.00062  -0.00029  -0.00411  -0.00439   1.84415
   A24        1.90577  -0.00068  -0.00018  -0.00444  -0.00463   1.90114
    D1       -0.00003   0.00000  -0.00000   0.00013   0.00013   0.00010
    D2        3.14155   0.00000  -0.00000   0.00013   0.00013  -3.14151
    D3        3.14155   0.00000  -0.00000   0.00010   0.00010  -3.14153
    D4       -0.00005   0.00000  -0.00000   0.00010   0.00010   0.00005
    D5        0.00000  -0.00000   0.00000  -0.00006  -0.00006  -0.00005
    D6       -3.14158  -0.00000   0.00000  -0.00005  -0.00005   3.14156
    D7       -3.14158  -0.00000   0.00000  -0.00003  -0.00003   3.14158
    D8        0.00002  -0.00000   0.00000  -0.00002  -0.00002  -0.00000
    D9       -3.14157   0.00000  -0.00000   0.00002   0.00002  -3.14155
   D10        0.00002  -0.00000  -0.00000  -0.00001  -0.00001   0.00001
   D11        0.00004  -0.00000   0.00000  -0.00014  -0.00014  -0.00010
   D12       -3.14157  -0.00000   0.00000  -0.00006  -0.00006   3.14155
   D13       -3.14154  -0.00000   0.00000  -0.00013  -0.00013   3.14151
   D14        0.00003  -0.00000   0.00000  -0.00006  -0.00005  -0.00003
   D15        3.14080   0.00004  -0.00003   0.00307   0.00304  -3.13934
   D16        0.00038  -0.00004   0.00003  -0.00295  -0.00292  -0.00254
   D17       -0.00079   0.00004  -0.00003   0.00307   0.00304   0.00224
   D18       -3.14122  -0.00004   0.00003  -0.00296  -0.00293   3.13904
   D19       -0.00002   0.00000  -0.00000   0.00006   0.00006   0.00005
   D20        3.14155   0.00000  -0.00000   0.00007   0.00007  -3.14157
   D21       -3.14159  -0.00000   0.00000  -0.00001  -0.00001   3.14158
   D22       -0.00002  -0.00000   0.00000  -0.00001  -0.00001  -0.00003
   D23       -0.00001   0.00000  -0.00000   0.00002   0.00002   0.00000
   D24        3.14158  -0.00000   0.00000  -0.00001  -0.00001   3.14157
   D25       -3.14158   0.00000  -0.00000   0.00001   0.00001  -3.14157
   D26        0.00002  -0.00000   0.00000  -0.00001  -0.00001   0.00000
   D27        3.14136   0.00000   0.00000   0.00003   0.00003   3.14139
   D28       -0.00026   0.00000   0.00000   0.00003   0.00003  -0.00023
   D29        0.00002  -0.00000   0.00000  -0.00002  -0.00002   0.00000
   D30       -3.14158  -0.00000   0.00000  -0.00003  -0.00003   3.14158
   D31       -3.14158   0.00000  -0.00000   0.00001   0.00001  -3.14157
   D32        0.00001  -0.00000  -0.00000  -0.00000  -0.00000   0.00001
   D33       -3.14106  -0.00004   0.00003  -0.00290  -0.00286   3.13927
   D34       -0.00057   0.00004  -0.00003   0.00279   0.00275   0.00218
         Item               Value     Threshold  Converged?
 Maximum Force            0.001997     0.000450     NO 
 RMS     Force            0.000476     0.000300     NO 
 Maximum Displacement     0.012534     0.001800     NO 
 RMS     Displacement     0.002880     0.001200     NO 
 Predicted change in Energy=-2.675995D-05
 GradGradGradGradGradGradGradGradGradGradGradGradGradGradGradGradGradGrad

                          Input orientation:                          
 ---------------------------------------------------------------------
 Center     Atomic      Atomic             Coordinates (Angstroms)
 Number     Number       Type             X           Y           Z
 ---------------------------------------------------------------------
      1          6           0        0.235732    1.272061    0.000373
      2          6           0        0.467602   -0.121814    0.000952
      3          6           0       -0.629740   -0.998630    0.000780
      4          6           0       -1.936036   -0.518687    0.000166
      5          6           0       -2.163724    0.860021   -0.000344
      6          6           0       -1.083427    1.740577   -0.000236
      7          8           0       -2.949432   -1.447273    0.000068
      8          6           0        1.847690   -0.675363    0.001720
      9          8           0        1.851909   -2.042213   -0.000664
     10          8           0        2.884829   -0.038685   -0.000549
     11          8           0        1.291777    2.134530    0.000460
     12          1           0       -0.462032   -2.066077    0.001181
     13          1           0       -3.175862    1.252249   -0.000844
     14          1           0       -1.267092    2.810371   -0.000647
     15          1           0       -3.804394   -1.000034   -0.000186
     16          1           0        2.787276   -2.301355   -0.002115
     17          1           0        0.956499    3.040359    0.000055
 ---------------------------------------------------------------------
                    Distance matrix (angstroms):
                    1          2          3          4          5
     1  C    0.000000
     2  C    1.413029   0.000000
     3  C    2.430037   1.404623   0.000000
     4  C    2.814846   2.436182   1.391673   0.000000
     5  C    2.434578   2.808537   2.409915   1.397382   0.000000
     6  C    1.399889   2.423674   2.776524   2.414792   1.393709
     7  O    4.188084   3.665100   2.362679   1.374497   2.437404
     8  C    2.528017   1.486963   2.498432   3.786969   4.295213
     9  O    3.687336   2.367328   2.692146   4.082850   4.954622
    10  O    2.955633   2.418657   3.643308   4.844703   5.127920
    11  O    1.363482   2.402156   3.675447   4.178317   3.683051
    12  H    3.410284   2.155081   1.080541   2.137078   3.384938
    13  H    3.411652   3.893954   3.398410   2.161801   1.085479
    14  H    2.150554   3.406887   3.861956   3.395602   2.146583
    15  H    4.635196   4.361333   3.174655   1.929367   2.480242
    16  H    4.390863   3.182969   3.656924   5.048523   5.874240
    17  H    1.909550   3.199743   4.339306   4.586237   3.806530
                    6          7          8          9         10
     6  C    0.000000
     7  O    3.693828   0.000000
     8  C    3.798449   4.858829   0.000000
     9  O    4.788079   4.838060   1.366859   0.000000
    10  O    4.348888   6.001893   1.216972   2.254119   0.000000
    11  O    2.407652   5.551320   2.864356   4.214135   2.694565
    12  H    3.857039   2.563216   2.696090   2.314065   3.913029
    13  H    2.148662   2.709001   5.380684   6.010987   6.196651
    14  H    1.085445   4.577969   4.674635   5.768513   5.035431
    15  H    3.861944   0.964875   5.661402   5.751513   6.757951
    16  H    5.596388   5.799937   1.877947   0.970601   2.264772
    17  H    2.418828   5.949381   3.821101   5.160843   3.633038
                   11         12         13         14         15
    11  O    0.000000
    12  H    4.552026   0.000000
    13  H    4.553923   4.286742   0.000000
    14  H    2.646615   4.942456   2.463969   0.000000
    15  H    5.983013   3.508252   2.338340   4.577891   0.000000
    16  H    4.681196   3.257816   6.941693   6.524388   6.718895
    17  H    0.965887   5.299803   4.502637   2.235453   6.244267
                   16         17
    16  H    0.000000
    17  H    5.646738   0.000000
 Stoichiometry    C7H6O4
 Framework group  C1[X(C7H6O4)]
 Deg. of freedom    45
 Full point group                 C1      NOp   1
 Largest Abelian subgroup         C1      NOp   1
 Largest concise Abelian subgroup C1      NOp   1
                         Standard orientation:                         
 ---------------------------------------------------------------------
 Center     Atomic      Atomic             Coordinates (Angstroms)
 Number     Number       Type             X           Y           Z
 ---------------------------------------------------------------------
      1          6           0        0.235126    1.272760    0.000218
      2          6           0        0.466350   -0.121222    0.000797
      3          6           0       -0.631397   -0.997530    0.000625
      4          6           0       -1.937471   -0.516983    0.000010
      5          6           0       -2.164521    0.861830   -0.000500
      6          6           0       -1.083816    1.741887   -0.000392
      7          8           0       -2.951296   -1.445100   -0.000088
      8          6           0        1.846182   -0.675409    0.001565
      9          8           0        1.849769   -2.042262   -0.000819
     10          8           0        2.883616   -0.039211   -0.000704
     11          8           0        1.291569    2.134740    0.000304
     12          1           0       -0.464183   -2.065054    0.001026
     13          1           0       -3.176477    1.254527   -0.000999
     14          1           0       -1.266987    2.811765   -0.000802
     15          1           0       -3.806052   -0.997465   -0.000341
     16          1           0        2.785015   -2.301836   -0.002270
     17          1           0        0.956710    3.040724   -0.000100
 ---------------------------------------------------------------------
 Rotational constants (GHZ):      1.7551832      0.9132482      0.6006968
 Standard basis: 6-31+G(d,p) (6D, 7F)
 There are   239 symmetry adapted cartesian basis functions of A   symmetry.
 There are   239 symmetry adapted basis functions of A   symmetry.
   239 basis functions,   394 primitive gaussians,   239 cartesian basis functions
    40 alpha electrons       40 beta electrons
       nuclear repulsion energy       589.3421278970 Hartrees.
 NAtoms=   17 NActive=   17 NUniq=   17 SFac= 1.00D+00 NAtFMM=   60 NAOKFM=F Big=F
 Integral buffers will be    131072 words long.
 Regular integral format.
 Two-electron integral symmetry is turned on.
 One-electron integrals computed using PRISM.
 NBasis=   239 RedAO= T EigKep=  3.24D-06  NBF=   239
 NBsUse=   239 1.00D-06 EigRej= -1.00D+00 NBFU=   239
 Initial guess from the checkpoint file:  "pbe0631DHB.chk"
 B after Tr=     0.000000   -0.000000   -0.000000
         Rot=    1.000000   -0.000020    0.000010   -0.000098 Ang=  -0.01 deg.
 Keep R1 ints in memory in canonical form, NReq=418393415.
 Requested convergence on RMS density matrix=1.00D-08 within 128 cycles.
 Requested convergence on MAX density matrix=1.00D-06.
 Requested convergence on             energy=1.00D-06.
 No special actions if energy rises.
 SCF Done:  E(RB2PLYP) =  -570.211415233     A.U. after   11 cycles
            NFock= 11  Conv=0.75D-08     -V/T= 2.0069
 DoSCS=T DFT=T ScalE2(SS,OS)=  0.270000  0.270000
 ExpMin= 4.38D-02 ExpMax= 5.48D+03 ExpMxC= 8.25D+02 IAcc=3 IRadAn=         5 AccDes= 0.00D+00
 HarFok:  IExCor=  205 AccDes= 0.00D+00 IRadAn=         5 IDoV=-2 UseB2=F ITyADJ=14
 ICtDFT= 12500011 ScaDFX=  1.000000  1.000000  1.000000  1.000000
 Range of M.O.s used for correlation:    12   239
 NBasis=   239 NAE=    40 NBE=    40 NFC=    11 NFV=     0
 NROrb=    228 NOA=    29 NOB=    29 NVA=   199 NVB=   199

 **** Warning!!: The largest alpha MO coefficient is  0.16284224D+03

 DoSCS=T DFT=T ScalE2(SS,OS)=  0.270000  0.270000
 Fully direct method using O(ONN) memory.
 JobTyp=1 Pass  1:  I=  12 to  17 NPSUse= 18 ParTrn=T ParDer=T DoDerP=T.
 JobTyp=1 Pass  2:  I=  18 to  23 NPSUse= 18 ParTrn=T ParDer=T DoDerP=T.
 JobTyp=1 Pass  3:  I=  24 to  29 NPSUse= 18 ParTrn=T ParDer=T DoDerP=T.
 JobTyp=1 Pass  4:  I=  30 to  35 NPSUse= 18 ParTrn=T ParDer=T DoDerP=T.
 JobTyp=1 Pass  5:  I=  36 to  40 NPSUse= 18 ParTrn=T ParDer=T DoDerP=T.
 Spin components of T(2) and E(2):
     alpha-alpha T2 =       0.1208759656D+00 E2=     -0.7594065299D-01
     alpha-beta  T2 =       0.6099890846D+00 E2=     -0.3978377867D+00
     beta-beta   T2 =       0.1208759656D+00 E2=     -0.7594065299D-01
 E2(B2PLYP) =    -0.5497190927D+00 E(B2PLYP) =    -0.57076113432534D+03
          IDoAtm=11111111111111111
          Differentiating once with respect to electric field.
                with respect to dipole field.
          Differentiating once with respect to nuclear coordinates.
 Keep R1 ints in memory in canonical form, NReq=418199641.
          There are     1 degrees of freedom in the 1st order CPHF.  IDoFFX=0 NUNeed=     1.
 LinEq1:  Iter=  0 NonCon=     1 RMS=1.99D-03 Max=4.46D-02 NDo=     1
 AX will form     1 AO Fock derivatives at one time.
 LinEq1:  Iter=  1 NonCon=     1 RMS=9.02D-04 Max=1.70D-02 NDo=     1
 LinEq1:  Iter=  2 NonCon=     1 RMS=3.15D-04 Max=5.09D-03 NDo=     1
 LinEq1:  Iter=  3 NonCon=     1 RMS=2.50D-04 Max=7.76D-03 NDo=     1
 LinEq1:  Iter=  4 NonCon=     1 RMS=1.02D-04 Max=2.73D-03 NDo=     1
 LinEq1:  Iter=  5 NonCon=     1 RMS=4.67D-05 Max=1.26D-03 NDo=     1
 LinEq1:  Iter=  6 NonCon=     1 RMS=2.38D-05 Max=9.44D-04 NDo=     1
 LinEq1:  Iter=  7 NonCon=     1 RMS=1.14D-05 Max=4.39D-04 NDo=     1
 LinEq1:  Iter=  8 NonCon=     1 RMS=4.15D-06 Max=1.20D-04 NDo=     1
 LinEq1:  Iter=  9 NonCon=     1 RMS=2.28D-06 Max=4.90D-05 NDo=     1
 LinEq1:  Iter= 10 NonCon=     1 RMS=6.96D-07 Max=1.34D-05 NDo=     1
 LinEq1:  Iter= 11 NonCon=     1 RMS=2.92D-07 Max=7.41D-06 NDo=     1
 LinEq1:  Iter= 12 NonCon=     1 RMS=1.41D-07 Max=2.04D-06 NDo=     1
 LinEq1:  Iter= 13 NonCon=     1 RMS=5.60D-08 Max=1.73D-06 NDo=     1
 LinEq1:  Iter= 14 NonCon=     1 RMS=3.49D-08 Max=9.68D-07 NDo=     1
 LinEq1:  Iter= 15 NonCon=     1 RMS=1.08D-08 Max=2.79D-07 NDo=     1
 LinEq1:  Iter= 16 NonCon=     1 RMS=5.26D-09 Max=1.22D-07 NDo=     1
 LinEq1:  Iter= 17 NonCon=     1 RMS=1.77D-09 Max=4.78D-08 NDo=     1
 LinEq1:  Iter= 18 NonCon=     1 RMS=5.89D-10 Max=9.50D-09 NDo=     1
 LinEq1:  Iter= 19 NonCon=     1 RMS=3.06D-10 Max=4.45D-09 NDo=     1
 LinEq1:  Iter= 20 NonCon=     1 RMS=1.08D-10 Max=1.84D-09 NDo=     1
 LinEq1:  Iter= 21 NonCon=     0 RMS=4.78D-11 Max=4.47D-10 NDo=     1
 Linear equations converged to 1.000D-10 1.000D-09 after    21 iterations.
 End of Minotr F.D. properties file   721 does not exist.
 End of Minotr F.D. properties file   722 does not exist.
 End of Minotr F.D. properties file   788 does not exist.
 Calling FoFJK, ICntrl=  10002127 FMM=F ISym2X=0 I1Cent= 0 IOpClX= 0 NMat=1 NMatS=1 NMatT=0.
 ***** Axes restored to original set *****
 -------------------------------------------------------------------
 Center     Atomic                   Forces (Hartrees/Bohr)
 Number     Number              X              Y              Z
 -------------------------------------------------------------------
      1        6          -0.000545273   -0.000332094    0.000015521
      2        6           0.000584927   -0.000045944    0.000173667
      3        6          -0.000220644    0.000058478    0.000021529
      4        6           0.000630087    0.000429663   -0.000009835
      5        6          -0.000023951   -0.000301767   -0.000000958
      6        6           0.000320942   -0.000027528   -0.000009387
      7        8          -0.000274695   -0.000148801   -0.000000913
      8        6          -0.000409440    0.000802808   -0.000635670
      9        8           0.000001291   -0.000379394    0.000186823
     10        8          -0.000123706   -0.000367049    0.000242218
     11        8           0.000088948    0.000231275    0.000009722
     12        1           0.000030000   -0.000090349    0.000003963
     13        1          -0.000021559    0.000006943    0.000001422
     14        1          -0.000015201    0.000039318   -0.000001508
     15        1          -0.000035340   -0.000043981   -0.000000773
     16        1          -0.000008964    0.000120948    0.000005044
     17        1           0.000022579    0.000047474   -0.000000865
 -------------------------------------------------------------------
 Cartesian Forces:  Max     0.000802808 RMS     0.000258462

 GradGradGradGradGradGradGradGradGradGradGradGradGradGradGradGradGradGrad
 Berny optimization.
 Using GEDIIS/GDIIS optimizer.
 FormGI is forming the generalized inverse of G from B-inverse, IUseBI=4.
 Internal  Forces:  Max     0.000569748 RMS     0.000143411
 Search for a local minimum.
 Step number   3 out of a maximum of   85
 All quantities printed in internal units (Hartrees-Bohrs-Radians)
 Mixed Optimization -- En-DIIS/RFO-DIIS
 Swapping is turned off.
 Update second derivatives using D2CorX and points    1    2    3
 DE= -2.93D-05 DEPred=-2.68D-05 R= 1.09D+00
 TightC=F SS=  1.41D+00  RLast= 1.58D-02 DXNew= 5.0454D-01 4.7472D-02
 Trust test= 1.09D+00 RLast= 1.58D-02 DXMaxT set to 3.00D-01
 ITU=  1  1  0
     Eigenvalues ---    0.00907   0.01464   0.01702   0.02052   0.02114
     Eigenvalues ---    0.02137   0.02163   0.02170   0.02178   0.02192
     Eigenvalues ---    0.02200   0.02211   0.02282   0.02288   0.14536
     Eigenvalues ---    0.16000   0.16000   0.16000   0.16001   0.16441
     Eigenvalues ---    0.21357   0.22404   0.23708   0.24772   0.25000
     Eigenvalues ---    0.25000   0.25006   0.27538   0.30512   0.35134
     Eigenvalues ---    0.35178   0.35658   0.42304   0.42506   0.44947
     Eigenvalues ---    0.45510   0.46904   0.47585   0.51541   0.52867
     Eigenvalues ---    0.53735   0.53991   0.54623   0.54792   1.02942
 En-DIIS/RFO-DIIS IScMMF=        0 using points:     3    2
 RFO step:  Lambda=-4.10617016D-06.
 DidBck=F Rises=F RFO-DIIS coefs:    1.09678   -0.09678
 Iteration  1 RMS(Cart)=  0.00425056 RMS(Int)=  0.00002969
 Iteration  2 RMS(Cart)=  0.00003506 RMS(Int)=  0.00001770
 Iteration  3 RMS(Cart)=  0.00000000 RMS(Int)=  0.00001770
 Variable       Old X    -DE/DX   Delta X   Delta X   Delta X     New X
                                 (Linear)    (Quad)   (Total)
    R1        2.67024  -0.00004  -0.00015  -0.00018  -0.00032   2.66992
    R2        2.64541  -0.00030  -0.00014  -0.00086  -0.00100   2.64441
    R3        2.57661   0.00027   0.00024   0.00135   0.00160   2.57820
    R4        2.65435  -0.00002  -0.00002   0.00012   0.00009   2.65444
    R5        2.80995  -0.00057  -0.00059  -0.00319  -0.00378   2.80617
    R6        2.62988  -0.00026  -0.00016  -0.00083  -0.00099   2.62889
    R7        2.04193   0.00009   0.00001   0.00020   0.00021   2.04213
    R8        2.64067  -0.00026  -0.00005  -0.00059  -0.00064   2.64003
[...]
 ! D30   D(4,5,6,14)          -179.9995         -DE/DX =    0.0                 !
 ! D31   D(13,5,6,1)          -179.9991         -DE/DX =    0.0                 !
 ! D32   D(13,5,6,14)            0.0004         -DE/DX =    0.0                 !
 ! D33   D(2,8,9,16)           179.9795         -DE/DX =    0.0                 !
 ! D34   D(10,8,9,16)            0.0159         -DE/DX =    0.0                 !
 --------------------------------------------------------------------------------
 GradGradGradGradGradGradGradGradGradGradGradGradGradGradGradGradGradGrad

 1\1\ WCSS.PL-BEM-C612-X99\Freq\RB2PLYP-FC\6-31+G(d,p)\C7H6O4\PHZD\14-D
 ec-2024\0\\#N Geom=AllCheck Guess=TCheck SCRF=Check GenChk RB2PLYP(FC)
 /6-31+G(d,p) Freq\\[No Title]\\0,1\C,0.2355613548,1.2723671697,0.00005
 55372\C,0.4682775795,-0.1212977588,0.0001137811\C,-0.628930405,-0.9983
 812348,0.000091127\C,-1.9348116246,-0.5184349023,0.0000178433\C,-2.163
 2819754,0.8597901017,-0.0000386787\C,-1.0832144036,1.7407000438,-0.000
 0097498\O,-2.9485984847,-1.4475536051,-0.0000194968\C,1.8466759816,-0.
 6753961129,0.0001769327\O,1.8497711546,-2.0429017478,0.0001166513\O,2.
 8853845581,-0.0412254654,-0.0003905697\O,1.2913316518,2.1359991334,0.0
 000926158\H,-0.4609793757,-2.0659176167,0.0001339052\H,-3.1755556012,1
 .2516707313,-0.0001042579\H,-1.2671465296,2.8104922972,-0.0000464247\H
 ,-3.803758021,-1.0005889482,0.0000803903\H,2.7854429135,-2.3009497065,
 -0.0001700281\H,0.9554062271,3.0416656214,0.0000714217\\Version=ES64L-
 G09RevE.01\State=1-A\HF=-570.2114021\MP2=-570.7611377\RMSD=3.308e-09\R
 MSF=7.139e-05\ZeroPoint=0.1228489\Thermal=0.1319431\Dipole=-1.4636816,
 0.721834,0.0002047\DipoleDeriv=0.6810429,0.8793927,0.0000416,0.5058422
 ,0.6113701,0.0000335,-0.0000421,0.0000768,0.0763461,-0.5928995,0.40643
 81,0.0000122,-0.0406523,-0.1108267,0.0000011,0.0000026,-0.0000111,-0.0
 194167,0.0682021,-0.4705687,0.0000188,0.1861108,-0.0478472,-0.0000029,
 -0.0000745,0.0000367,-0.1218119,0.8438435,0.9391379,0.0000198,0.915736
 9,0.3449506,0.0000135,0.0000356,0.0000444,0.06761,-0.0464587,0.1389709
 ,0.0000168,-0.3850518,0.1313213,-0.0000178,-0.0000069,0.0000072,-0.144
 9623,-0.118595,-0.4732775,-0.0000008,0.1082495,0.0309396,-0.0000037,0.
 0000258,-0.0000561,-0.1709132,-1.1004404,-0.6902037,-0.0000289,-0.7401
 614,-0.6527958,0.0000155,-0.0000767,-0.0000274,-0.3803597,1.8895547,-0
 .2984878,-0.0001129,-0.273975,1.790314,-0.0001779,-0.0001813,-0.000096
 1,0.2955089,-0.5102437,0.2495131,-0.0000315,0.2505679,-1.4028407,0.000
 1391,-0.00004,-0.0000975,-0.3818831,-1.2352056,-0.138197,0.0000765,-0.
 0595984,-0.6511215,0.0000131,0.0002791,0.000174,-0.3453123,-0.7306892,
 -0.7475191,-0.0000322,-0.6260981,-0.8708781,-0.0000289,-0.0000217,-0.0
 000536,-0.3370561,0.1260786,-0.0089074,-0.0000056,-0.0076637,0.0391963
 ,0.0000047,0.0000082,-0.0000005,0.146131,-0.1020602,0.0325161,-0.00001
 18,0.0282494,0.0684136,0.0000048,-0.0000161,0.0000056,0.1482057,0.0562
 932,-0.016501,-0.0000026,0.0036649,-0.1093746,0.000005,0.0000054,0.000
 0099,0.1513951,0.3247073,0.0856703,0.0000072,0.1354406,0.1887948,-0.00
 00214,0.0000395,-0.0000059,0.3414376,0.2184677,-0.050741,0.0000391,-0.
 1031394,0.3532564,0.0000178,0.0000686,-0.000014,0.3422349,0.2284022,0.
 1627639,-0.0000055,0.1024778,0.287128,0.0000046,-0.0000053,0.0000079,0
 .3328462\Polar=128.4393037,-0.3402772,110.8029038,-0.0018043,-0.002041
 2,52.0539247\PG=C01 [X(C7H6O4)]\NImag=1\\0.68589745,0.00447582,0.70134
 245,0.00002656,-0.00001535,0.12071924,-0.14056702,0.06169929,-0.000007
 69,0.65137466,0.01190689,-0.28636873,0.00000975,0.02278154,0.69471017,
 -0.00000729,0.00001247,-0.03847612,0.00001026,-0.00002237,0.09687568,0
 .05463604,-0.05812979,0.00000576,-0.24019653,-0.08019452,-0.00001284,0
 .70617186,-0.01981262,-0.03682838,0.00000054,-0.12518388,-0.21083859,0
 .00000311,-0.01580509,0.75471145,0.00000189,-0.00000264,-0.01471484,-0
 .00001140,0.00000386,-0.02818488,0.00003059,-0.00002228,0.09898007,-0.
 03720022,0.03589846,-0.00000364,-0.05139322,-0.03754496,-0.00000026,-0
 .30299487,0.11540738,-0.00001482,0.71526177,0.03900193,-0.04393848,0.0
 0000320,0.00710263,0.05531716,-0.00000420,0.04453009,-0.16037059,0.000
 00547,-0.01626838,0.69717426,-0.00000384,0.00000470,0.01165415,-0.0000
 0336,-0.00000327,-0.01384966,-0.00001120,0.00000762,-0.04148654,0.0000
 2264,-0.00001115,0.11115730,-0.05256991,0.00110489,-0.00000178,-0.0091
 5980,-0.01512270,-0.00000042,0.01418523,0.03218924,-0.00000057,-0.1409
 7139,0.08146422,-0.00000867,0.74749829,-0.04522789,0.06078087,-0.00000
 442,-0.01866505,-0.04745332,0.00000157,0.07269810,-0.00942386,0.000002
 55,0.00522920,-0.31852098,0.00000802,-0.01007927,0.69169682,-0.0000008
 9,-0.00000236,-0.01483888,0.00000039,0.00000060,0.01253593,-0.00000127
 ,0.00000248,-0.00986761,-0.00000554,0.00001254,-0.03896051,0.00003506,
 -0.00001849,0.09648269,-0.28643637,0.03498264,-0.00001161,0.01235504,0
 .06578515,0.00000027,-0.05906560,-0.00598806,-0.00000257,0.05551444,-0
 .06235897,0.00000722,-0.26522510,-0.08693440,-0.00000999,0.68863070,0.
 10782612,-0.15905602,0.00000726,0.02823229,-0.00599115,0.00000270,-0.0
 0583346,-0.00371704,0.00000016,-0.01761904,-0.04093543,-0.00000091,-0.
 14478327,-0.21766595,-0.00000146,0.01182354,0.74619096,-0.00001057,0.0
 0000273,-0.04115090,-0.00000134,0.00000505,-0.00893082,-0.00000327,-0.
 00000064,0.01256438,0.00000462,-0.00000165,-0.01283852,-0.00000787,0.0
 0000155,-0.03064453,0.00002548,-0.00001678,0.09171101,0.00726659,-0.00
 119718,0.00000053,-0.00041828,0.00696127,-0.00000059,-0.05219764,-0.03
 525592,-0.00000252,-0.20804218,-0.12633393,-0.00000361,0.00116594,-0.0
 0283291,-0.00000083,-0.00723705,0.00055687,-0.00000037,0.67019584,-0.0
 0074161,0.00498015,-0.00000010,0.00038079,-0.00693843,0.00000115,0.005
 87522,0.01589956,0.00000055,-0.07163121,-0.19469958,-0.00000858,-0.044
 65753,-0.03668131,-0.00000178,0.00751504,-0.00259514,0.00000042,-0.067
 65516,0.37719681,0.00000142,-0.00000065,-0.00203134,0.00000080,0.00000
 051,0.00502531,-0.00000299,-0.00000071,0.00477927,0.00000163,-0.000004
 92,-0.03170426,0.00000198,0.00000188,0.00350686,-0.00000229,0.00000054
 ,0.00780994,-0.00004427,0.00003398,0.01934130,0.01539230,0.02887076,0.
 00000005,-0.17842027,0.03755549,-0.00001922,-0.03717953,-0.00068393,0.
 00000025,0.00244277,-0.01209816,0.00000177,0.00336211,0.00409446,-0.00
 000019,-0.00218200,-0.00123413,0.00000175,0.00265027,0.00361023,0.0000
 0007,0.88416961,0.03320592,-0.00793585,0.00000212,0.05163128,-0.121949
 17,0.00000653,-0.01266370,0.02083053,-0.00000371,-0.00531224,0.0010605
 9,-0.00000124,-0.00272862,-0.00438483,0.00000033,0.00190741,-0.0066935
 2,0.00000052,-0.00393103,-0.00212351,0.00000017,0.15322013,0.63953352,
 -0.00000166,-0.00000483,-0.00220585,-0.00000207,-0.00000227,-0.0677991
 3,0.00000112,0.00000249,-0.00425224,-0.00000054,0.00000087,0.00856605,
 0.00000096,-0.00000056,-0.00154968,-0.00000099,0.00000029,0.00675949,-
 0.00000083,-0.00000048,0.00045221,-0.00025035,-0.00011976,0.19661635,-
 0.00901636,-0.00444599,-0.00000023,-0.00559513,0.04262046,-0.00000003,
 -0.00611462,0.00214036,0.00000087,0.00213536,0.00183217,0.00000033,-0.
 00058003,0.00043666,0.,0.00002994,0.00233058,-0.00000031,-0.00103160,-
 0.00076173,-0.00000009,-0.12367235,0.03208842,0.00001880,0.60965174,0.
 00206092,0.00387286,-0.00000032,0.01542487,-0.02967147,-0.00000381,-0.
 00099768,-0.00454900,0.00000139,-0.00027079,-0.00263299,0.00000031,0.0
 0073848,0.00083152,-0.00000017,0.00021365,-0.00049970,0.00000034,0.002
 08691,0.00188931,0.00000003,-0.00589225,-0.23795767,0.00000505,-0.0976
 6234,0.41632629,0.00000115,0.00000033,0.00166908,-0.00000220,-0.000001
 55,0.00985089,0.00000054,-0.00000066,0.00212420,0.00000049,-0.00000048
 ,-0.00154894,0.00000008,0.00000051,0.00029360,-0.00000041,-0.00000032,
 -0.00070472,0.00000031,0.00000020,0.00002473,0.00001181,-0.00001742,-0
 .05981669,-0.00016653,0.00001678,0.03270296,-0.00608457,-0.01093071,-0
 .00000034,-0.05505297,-0.02200098,0.00002722,-0.00032102,0.00878488,0.
 00000047,-0.00214421,0.00316977,-0.00000219,-0.00159922,-0.00301399,0.
 00000031,0.00254456,0.00003277,-0.00000072,-0.00250251,-0.00131154,-0.
 00000008,-0.55070228,-0.25294977,0.00023511,0.00720930,-0.05011461,0.0
 0001544,0.60732686,-0.00650977,-0.00630067,-0.00000067,-0.00774748,0.0
 1854872,0.00000284,0.00417111,-0.00165887,-0.00000007,-0.00114592,0.00
 207197,-0.00000022,-0.00013255,-0.00077832,-0.00000010,0.00118609,0.00
 074053,-0.00000042,0.00087367,0.00029028,0.00000004,-0.25424072,-0.258
 33307,0.00013591,-0.06444692,-0.07442127,0.00003308,0.32437941,0.31527
 411,0.00000095,0.00000451,-0.00078599,0.00001364,0.00001007,0.01838768
 ,0.00000106,-0.00000377,0.00263434,0.00000024,-0.00000012,-0.00128843,
 -0.00000029,0.00000039,0.00006006,0.00000045,-0.00000013,-0.00069198,0
 .00000098,0.00000030,-0.00020712,0.00024930,0.00013748,-0.07314172,0.0
 0001080,0.00002421,0.02830886,-0.00027653,-0.00017157,0.02985853,-0.23
 187201,-0.07435252,-0.00000719,0.01772787,-0.00590974,0.00000040,-0.01
 076666,0.00288073,0.00000053,0.00779545,-0.00331945,0.00000094,0.00063
 886,0.00935357,-0.00000058,-0.05210958,-0.03781976,-0.00000308,-0.0058
 9732,-0.00396742,-0.00000080,-0.01338603,0.00076790,0.00000190,0.00226
 270,0.00022352,-0.00000014,0.00531303,0.00689252,-0.00000194,0.3835460
 6,-0.12909256,-0.18576114,-0.00000334,-0.03297678,-0.04015122,-0.00000
 022,0.00389961,-0.00307401,0.00000092,0.00191427,0.00393964,0.00000016
 ,0.00154588,-0.00464879,0.00000010,-0.00241598,0.00686787,-0.00000028,
 -0.00556294,-0.00391891,-0.00000067,-0.01278766,0.00207250,0.00000095,
 0.00131865,-0.00160733,-0.00000022,0.00923423,-0.00283311,-0.00000285,
 -0.02810657,0.67648339,-0.00000784,-0.00000003,-0.03403122,0.00000243,
 -0.00000079,0.00198658,-0.00000100,0.00000063,0.00479900,0.00000051,-0
 .00000032,-0.00195938,-0.00000044,0.00000059,0.00861824,-0.00000253,-0
 .00000196,0.00625212,-0.00000036,-0.00000019,-0.00038518,-0.00000155,0
 .00000032,-0.00290747,0.00000014,-0.00000083,0.00018683,0.00000132,-0.
 00000063,0.00166893,0.00001646,-0.00000598,0.02224605,-0.00388010,-0.0
 0195816,-0.00000037,0.00801286,-0.02429013,0.00000165,-0.06540943,0.04
 769692,-0.00000303,0.00046942,0.02996489,-0.00000170,-0.00555398,0.001
 53180,-0.00000047,-0.00123571,-0.00078039,-0.00000014,0.00246421,-0.00
 028176,0.00000023,0.00146924,-0.00345473,0.00000016,-0.00430377,0.0019
 9134,-0.00000002,0.00064127,0.00108326,-0.00000054,0.00032483,-0.00166
 704,0.00000005,0.06690646,-0.00309157,0.00095385,-0.00000015,0.0038928
 4,-0.01391830,0.00000064,0.04621895,-0.35035351,0.00001334,-0.00124122
 ,-0.00605624,0.00000018,0.00129315,0.00030199,0.00000033,0.00027565,0.
 00066910,-0.00000009,-0.00052120,0.00063686,-0.00000012,0.00027408,-0.
 00169492,-0.00000024,0.00345187,0.00005070,-0.00000016,0.00015241,0.00
 045316,-0.00000006,0.00046853,-0.00082179,0.00000008,-0.05117107,0.369
 27089,-0.00000026,-0.00000025,0.00675912,0.00000245,-0.00000039,0.0002
 3140,-0.00000459,0.00001183,-0.03346039,-0.00000014,0.00000143,0.00490
 111,-0.00000046,0.00000075,0.00592989,-0.00000049,-0.00000008,-0.00136
 654,0.00000031,0.00000001,-0.00313918,-0.00000124,0.00000043,-0.003844
 79,-0.00000039,-0.00000037,0.00073906,0.00000106,0.00000034,0.00071709
 ,-0.00000014,0.,0.00037624,0.00000373,-0.00001393,0.02389547,-0.000470
 10,-0.00389323,-0.00000042,0.00030324,-0.00046510,0.00000005,0.0017382
 9,0.00101400,-0.00000024,-0.00457200,-0.00308263,-0.00000031,-0.303964
 86,0.09641504,-0.00001731,-0.01795197,0.01141693,-0.00000121,0.0032262
 5,0.00017532,0.00000027,0.00021993,-0.00019144,-0.00000004,-0.00013508
 ,0.00020766,0.00000003,-0.00015596,0.00006881,0.00000006,-0.00164736,0
 .00008707,-0.00000008,-0.00015167,-0.00003453,0.00000002,0.32230235,-0
 .00329511,-0.00225652,-0.00000002,-0.00126177,-0.00104325,0.00000003,0
 .00041914,-0.00649844,0.00000047,0.02985883,-0.00439050,0.00000162,0.0
 9703832,-0.09909506,0.00000713,-0.01999891,0.01126659,-0.00000114,0.00
 084057,0.00293698,-0.00000027,0.00009633,-0.00037307,-0.00000009,0.000
 15664,0.00013566,0.,0.00001565,0.00007804,0.,-0.00122043,0.00028340,0.
 ,0.00152981,-0.00012138,0.00000006,-0.10330425,0.09906904,-0.00000062,
 0.00000062,0.00790219,0.00000026,-0.00000016,-0.00118650,-0.00000069,0
 .00000014,0.00593657,-0.00000067,0.00000008,0.00284126,-0.00001772,0.0
 0000671,-0.03073605,0.00000024,0.00000046,0.00081784,-0.00000018,0.000
 00001,-0.00326709,-0.00000020,-0.00000007,-0.00068641,-0.00000005,0.00
 000004,0.00014134,0.00000003,0.00000011,0.00006762,0.00000009,0.,-0.00
 001785,0.00000006,-0.00000007,-0.00041329,0.00001896,-0.00000798,0.021
 82447,-0.00132813,0.02912228,-0.00000085,-0.00520416,0.00097298,-0.000
 00091,-0.00154569,-0.00059578,0.00000003,-0.00356393,-0.00257714,-0.00
 000046,0.00815170,-0.02571042,0.00000118,-0.06815602,0.04953334,-0.000
 00280,-0.00007151,-0.00170025,0.00000009,0.00076606,0.00130162,0.00000
 003,-0.00060671,0.00034411,0.00000012,-0.00007291,-0.00013623,0.,0.002
 93179,0.00154665,0.00000028,0.00008031,0.00004043,-0.00000002,0.001012
 70,0.00030281,0.00000019,0.06857695,-0.00412947,-0.01011107,0.00000006
 ,0.00260326,0.00091255,0.00000040,-0.00012084,0.00062568,-0.00000006,-
 0.00347259,0.00082204,-0.00000015,0.00590692,-0.01545063,0.00000072,0.
 04948613,-0.33292982,0.00001046,-0.00010024,-0.00136102,0.00000012,-0.
 00128140,-0.00034889,0.00000019,0.00042387,-0.00021211,-0.00000007,0.0
 0047668,0.00021985,-0.00000021,-0.00032178,0.00343385,-0.00000016,0.00
 001596,-0.00005180,0.,-0.00005710,0.00094370,-0.00000007,-0.05147161,0
 .35322639,-0.00000008,0.00000101,0.00196604,-0.00000034,0.00000050,0.0
 0542554,-0.00000016,-0.00000006,-0.00149113,-0.00000038,0.00000008,0.0
 0722820,0.00000029,-0.00000072,0.00021127,-0.00000297,0.00001063,-0.02
 811835,-0.00000013,-0.00000002,0.00038880,-0.00000013,0.,0.00027092,0.
 00000001,0.00000001,-0.00012512,0.00000004,0.,-0.00001708,0.00000042,0
 .00000016,-0.00364808,0.00000003,0.,-0.00016799,0.00000027,-0.00000014
 ,-0.00369097,0.00000327,-0.00001127,0.02116500,-0.00008285,-0.00047068
 ,-0.00000003,-0.00035876,0.00154267,-0.00000051,-0.00225273,-0.0057353
 8,0.00000046,-0.03252213,0.01857924,0.00000243,0.00520604,0.00284573,0
 .00000024,-0.00065336,0.00032888,-0.00000044,-0.40957534,0.17494089,0.
 00004410,-0.00074325,0.00002398,0.00000005,0.00015797,-0.00026689,-0.0
 0000003,0.00015472,0.00001096,0.,0.00075728,0.00061025,0.00000011,0.00
 037055,-0.00012953,0.00000014,0.00011403,-0.00124018,0.00000033,0.0002
 4594,0.00026911,0.00000001,0.43928323,0.00059513,-0.00015350,0.0000003
 0,-0.00004718,0.00112963,-0.00000066,-0.00461554,-0.00366907,0.0000002
 5,-0.03294909,0.00974401,0.00000324,-0.00340438,0.00195640,-0.00000003
 ,-0.00037559,-0.00062472,-0.00000017,0.23150365,-0.15590225,-0.0000300
 2,-0.00056507,0.00002837,0.00000004,0.00010676,-0.00018298,-0.00000004
 ,0.00009312,0.00003005,0.,-0.00009697,-0.00025472,-0.00000003,-0.00030
 826,0.00017735,0.,0.00137969,-0.00114650,0.00000018,0.00002992,0.00005
 782,-0.00000005,-0.19121552,0.14879045,-0.00000028,0.00000019,0.000193
 26,-0.00000075,-0.00000017,0.00192933,-0.00000003,-0.00000057,0.000789
 39,-0.00000406,-0.00000094,-0.00345024,-0.00000017,-0.00000039,0.00010
 078,0.00000043,-0.00000007,-0.00082604,0.00005158,-0.00002548,-0.00049
 737,-0.00000006,-0.00000002,0.00002700,-0.00000002,0.,0.00000244,0.,0.
 00000002,-0.00005461,0.00000018,0.00000022,-0.00010586,0.00000008,-0.0
 0000002,-0.00071794,-0.00000005,0.00000031,0.00050355,-0.00000004,-0.0
 0000005,-0.00004693,-0.00004683,0.00002699,0.00208963,-0.00015976,0.00
 016737,0.00000021,0.00162439,-0.00057598,0.00000271,0.00011992,-0.0002
 9376,-0.00000002,0.00003458,-0.00002981,-0.00000003,0.00005236,-0.0000
 0930,0.00000003,0.00009467,0.00014039,-0.00000014,0.00008943,0.0000542
 0,0.,-0.00233487,0.00833446,-0.00000233,-0.47066999,0.13120755,0.00013
 953,-0.00413388,-0.00667609,0.00000168,-0.00004396,-0.00015708,-0.0000
 0004,0.00007415,0.00031214,0.,0.00001759,0.00001304,0.,0.00000082,-0.0
 0001756,-0.00000001,-0.00002689,-0.00001747,0.,0.47522145,0.00193009,0
 .00017987,0.00000028,-0.00205354,-0.00755834,0.00000008,-0.00155013,-0
 .00002042,-0.00000021,0.00026052,0.00079700,-0.00000019,-0.00033377,-0
 .00017415,0.00000009,0.00001721,-0.00054618,-0.00000005,-0.00032437,-0
 .00027088,-0.00000001,0.05903087,-0.02188188,-0.00001718,0.08070468,-0
 .07162489,-0.00003006,-0.00546250,0.00751848,0.00000156,-0.00014524,0.
 00030801,0.00000002,0.00042278,0.00059581,0.00000016,-0.00003791,0.000
 04942,0.,0.00013804,-0.00004041,0.,0.00004965,0.00003686,0.,-0.1324950
 3,0.09265602,0.00000013,0.00000049,0.00075372,-0.00000097,0.00000092,0
 .00409264,-0.00000073,-0.00000014,-0.00064820,-0.00000015,0.00000020,0
 .00057203,-0.00000006,-0.00000007,-0.00012497,0.00000006,0.,-0.0002092
 9,0.00000003,0.,-0.00005519,0.00000781,-0.00000573,0.00369877,0.000136
 86,-0.00004276,-0.01355769,-0.00000151,0.00000140,-0.00568524,-0.00000
 018,-0.00000014,0.00005467,0.00000030,0.00000025,-0.00043091,0.,0.0000
 0003,-0.00003677,-0.00000002,0.,-0.00005335,0.,0.00000001,0.00003629,-
 0.00014160,0.00004551,0.01158960,0.00647500,-0.04094324,0.00000103,-0.
 00503191,-0.00402234,-0.00000048,0.00119297,-0.00075909,0.00000009,-0.
 00024964,0.00042353,0.00000005,-0.00063623,-0.00013130,-0.00000012,0.0
 0108342,-0.00415165,0.00000040,-0.00008512,0.00015651,-0.00000006,-0.0
 0185171,-0.00124958,0.00000069,0.00027863,0.00070554,-0.00000017,-0.00
 042020,0.00236985,0.00000016,-0.10557494,0.19261001,-0.00000746,-0.000
 27863,-0.00019092,0.00000001,0.00011465,0.00004951,-0.00000001,-0.0012
 1722,0.00179063,-0.00000016,-0.00007445,-0.00011322,0.00000003,0.00003
 998,-0.00015134,0.00000003,0.10623539,0.01089778,-0.03339969,0.0000008
 5,-0.00581311,0.00126374,-0.00000029,0.00209855,-0.00106543,0.00000001
 ,-0.00111321,0.00061810,-0.00000014,-0.00003900,-0.00129041,0.00000008
 ,0.00487941,0.00551963,0.00000015,0.00089194,0.00066108,0.00000011,0.0
 0203096,0.00015088,-0.00000037,-0.00029415,0.00025307,0.00000007,-0.00
 055483,-0.00089987,0.00000020,0.13467310,-0.45031764,0.00000929,-0.000
 32522,-0.00009175,0.,0.00030168,0.00016188,0.,-0.00114074,0.00026387,-
 0.00000011,-0.00014318,-0.00001716,-0.00000002,0.00004293,-0.00002431,
 0.00000002,-0.14639291,0.47821400,0.00000121,-0.00000092,-0.00338165,-
 0.00000011,-0.00000028,0.00208612,-0.00000029,-0.00000001,0.00149859,0
 .00000010,-0.00000011,0.00016641,0.00000008,0.00000013,-0.00101708,-0.
 00000029,-0.00000034,-0.00043309,-0.00000004,0.00000002,-0.00004170,0.
 00000013,0.00000004,-0.00018680,-0.00000016,0.00000010,-0.00029082,0.0
 0000036,-0.00000005,0.00016906,-0.00000688,0.00001118,-0.00313361,-0.0
 0000003,0.00000003,-0.00000835,0.,0.,0.00000011,-0.00000008,0.00000008
 ,0.00070325,0.,0.,0.00002731,0.00000002,0.,0.00000390,0.00000599,-0.00
 000985,0.00383835\\-0.00006440,-0.00004553,-0.00000226,0.00003934,-0.0
 0010948,-0.00002411,0.00003202,0.00004296,-0.00000268,0.00009485,0.000
 06179,0.00000159,-0.00000412,0.00000251,-0.00000003,0.00003130,-0.0000
 1081,0.00000131,-0.00001843,-0.00006806,-0.00000050,-0.00033046,-0.000
 12138,0.00008868,-0.00006809,0.00004143,-0.00002657,0.00023950,0.00007
 369,-0.00003365,0.00006106,0.00006576,-0.00000142,0.00001158,-0.000026
 74,-0.00000054,0.00001383,0.00000903,-0.00000020,0.00000218,0.00000034
 ,0.00000022,-0.00003829,0.00002372,0.00000054,0.00002462,0.00001274,-0
 .00000048,-0.00002648,0.00004803,0.00000010\\\@


 CHARLIE BROWN -- WHICH DO YOU THINK LASTS LONGER IN LIFE, THE GOOD THINGS 
                  OR THE BAD THINGS?
 LINUS --         GOOD THINGS LAST EIGHT SECONDS ..
                  BAD THINGS LAST THREE WEEKS
 CHARLIE BROWN -- WHAT ABOUT IN BETWEEN?
 SNOOPY --        IN BETWEEN YOU SHOULD TAKE A NAP ...
 Job cpu time:       0 days  5 hours 36 minutes  0.3 seconds.
 File lengths (MBytes):  RWF=  17855 Int=      0 D2E=      0 Chk=      7 Scr=      1
 Normal termination of Gaussian 09 at Sat Dec 14 12:47:50 2024.
