 Entering Gaussian System, Link 0=g09
 Input=B2PLYPDHByang.gjf
 Output=B2PLYPDHByang.log
 Initial command:
 /home/phzd/g09E/g09/l1.exe "/home/phzd/g09E/scratch/Gau-1270667.inp" -scrdir="/home/phzd/g09E/scratch/"
 Default is to use a total of  18 processors:
                               18 via shared-memory
                                1 via Linda
 Entering Link 1 = /home/phzd/g09E/g09/l1.exe PID=   1270669.
  
 Copyright (c) 1988,1990,1992,1993,1995,1998,2003,2009,2015,
            Gaussian, Inc.  All Rights Reserved.
  
 This is part of the Gaussian(R) 09 program.  It is based on
 the Gaussian(R) 03 system (copyright 2003, Gaussian, Inc.),
 the Gaussian(R) 98 system (copyright 1998, Gaussian, Inc.),
 the Gaussian(R) 94 system (copyright 1995, Gaussian, Inc.),
 the Gaussian 92(TM) system (copyright 1992, Gaussian, Inc.),
 the Gaussian 90(TM) system (copyright 1990, Gaussian, Inc.),
 the Gaussian 88(TM) system (copyright 1988, Gaussian, Inc.),
 the Gaussian 86(TM) system (copyright 1986, Carnegie Mellon
 University), and the Gaussian 82(TM) system (copyright 1983,
 Carnegie Mellon University). Gaussian is a federally registered
 trademark of Gaussian, Inc.
  
 This software contains proprietary and confidential information,
 including trade secrets, belonging to Gaussian, Inc.
  
 This software is provided under written license and may be
 used, copied, transmitted, or stored only in accord with that
 written license.
  
 The following legend is applicable only to US Government
 contracts under FAR:
  
                    RESTRICTED RIGHTS LEGEND
  
 Use, reproduction and disclosure by the US Government is
 subject to restrictions as set forth in subparagraphs (a)
 and (c) of the Commercial Computer Software - Restricted
 Rights clause in FAR 52.227-19.
  
 Gaussian, Inc.
 340 Quinnipiac St., Bldg. 40, Wallingford CT 06492
  
  
 ---------------------------------------------------------------
 Warning -- This program may not be used in any manner that
 competes with the business of Gaussian, Inc. or will provide
 assistance to any competitor of Gaussian, Inc.  The licensee
 of this program is prohibited from giving any competitor of
 Gaussian, Inc. access to this program.  By using this program,
 the user acknowledges that Gaussian, Inc. is engaged in the
 business of creating and licensing software in the field of
 computational chemistry and represents and warrants to the
 licensee that it is not a competitor of Gaussian, Inc. and that
 it will not use this program in any manner prohibited above.
 ---------------------------------------------------------------
  

 Cite this work as:
 Gaussian 09, Revision E.01,
 M. J. Frisch, G. W. Trucks, H. B. Schlegel, G. E. Scuseria, 
 M. A. Robb, J. R. Cheeseman, G. Scalmani, V. Barone, B. Mennucci, 
 G. A. Petersson, H. Nakatsuji, M. Caricato, X. Li, H. P. Hratchian, 
 A. F. Izmaylov, J. Bloino, G. Zheng, J. L. Sonnenberg, M. Hada, 
 M. Ehara, K. Toyota, R. Fukuda, J. Hasegawa, M. Ishida, T. Nakajima, 
 Y. Honda, O. Kitao, H. Nakai, T. Vreven, J. A. Montgomery, Jr., 
 J. E. Peralta, F. Ogliaro, M. Bearpark, J. J. Heyd, E. Brothers, 
 K. N. Kudin, V. N. Staroverov, T. Keith, R. Kobayashi, J. Normand, 
 K. Raghavachari, A. Rendell, J. C. Burant, S. S. Iyengar, J. Tomasi, 
 M. Cossi, N. Rega, J. M. Millam, M. Klene, J. E. Knox, J. B. Cross, 
 V. Bakken, C. Adamo, J. Jaramillo, R. Gomperts, R. E. Stratmann, 
 O. Yazyev, A. J. Austin, R. Cammi, C. Pomelli, J. W. Ochterski, 
 R. L. Martin, K. Morokuma, V. G. Zakrzewski, G. A. Voth, 
 P. Salvador, J. J. Dannenberg, S. Dapprich, A. D. Daniels, 
 O. Farkas, J. B. Foresman, J. V. Ortiz, J. Cioslowski, 
 and D. J. Fox, Gaussian, Inc., Wallingford CT, 2013.
 
 ******************************************
 Gaussian 09:  ES64L-G09RevE.01 30-Nov-2015
                14-Dec-2024 
 ******************************************
 %chk=B2PLYPDHByang.chk
 -----------------------------
 # opt freq B2PLYP/6-31+g(d,p)
 -----------------------------
 1/18=20,19=15,38=1/1,3;
 2/9=110,12=2,17=6,18=5,40=1/2;
 3/5=1,6=6,7=111,11=9,16=1,25=1,30=1,71=1,74=-47/1,2,3;
 4//1;
 5/5=2,38=5/2;
 8/6=4,10=2/1;
 9/15=2,16=-3/6;
 10/5=1/2;
 6/7=2,8=2,9=2,10=2/1;
 7/12=2/1,2,3,16;
 1/18=20,19=15/3(2);
 2/9=110/2;
 99//99;
 2/9=110/2;
 3/5=1,6=6,7=111,11=9,16=1,25=1,30=1,71=1,74=-47/1,2,3;
 4/5=5,16=3,69=1/1;
 5/5=2,38=5/2;
 8/6=4,10=2/1;
 9/15=2,16=-3/6;
 10/5=1/2;
 7/12=2/1,2,3,16;
 1/18=20,19=15/3(-8);
 2/9=110/2;
 6/7=2,8=2,9=2,10=2/1;
 99//99;
 ----------
 [No Title]
 ----------
 Symbolic Z-matrix:
 Charge =  1 Multiplicity = 1
 C                    -0.21821   1.28147   0.00001 
 C                    -0.42776  -0.14117   0. 
 C                     0.69501  -1.02172  -0.00001 
 C                     1.99148  -0.51899  -0.00002 
 C                     2.18591   0.88747  -0.00001 
 C                     1.10374   1.7632    0. 
 O                     3.01208  -1.41398  -0.00004 
 C                    -1.73072  -0.72073   0.00002 
 O                    -1.81475  -2.04198   0.00006 
 O                    -2.80233   0.04482  -0.00004 
 O                    -1.28621   2.1048    0.00001 
 H                     0.54572  -2.10229  -0.00001 
 H                     3.20161   1.29752  -0.00002 
 H                     1.28116   2.84327   0. 
 H                     3.877    -0.96185   0.00002 
 H                    -2.72735  -2.39852  -0.00003 
 H                    -3.65376  -0.44216   0.00009 
 H                    -0.9914    3.0376    0.00003 
 

 GradGradGradGradGradGradGradGradGradGradGradGradGradGradGradGradGradGrad
 Berny optimization.
 Initialization pass.
                           ----------------------------
                           !    Initial Parameters    !
                           ! (Angstroms and Degrees)  !
 --------------------------                            --------------------------
 ! Name  Definition              Value          Derivative Info.                !
 --------------------------------------------------------------------------------
 ! R1    R(1,2)                  1.438          estimate D2E/DX2                !
 ! R2    R(1,6)                  1.407          estimate D2E/DX2                !
 ! R3    R(1,11)                 1.3485         estimate D2E/DX2                !
 ! R4    R(2,3)                  1.4269         estimate D2E/DX2                !
 ! R5    R(2,8)                  1.426          estimate D2E/DX2                !
 ! R6    R(3,4)                  1.3905         estimate D2E/DX2                !
 ! R7    R(3,12)                 1.0908         estimate D2E/DX2                !
 ! R8    R(4,5)                  1.4198         estimate D2E/DX2                !
 ! R9    R(4,7)                  1.3574         estimate D2E/DX2                !
 ! R10   R(5,6)                  1.3921         estimate D2E/DX2                !
 ! R11   R(5,13)                 1.0953         estimate D2E/DX2                !
 ! R12   R(6,14)                 1.0945         estimate D2E/DX2                !
 ! R13   R(7,15)                 0.976          estimate D2E/DX2                !
 ! R14   R(8,9)                  1.3239         estimate D2E/DX2                !
 ! R15   R(8,10)                 1.317          estimate D2E/DX2                !
 ! R16   R(9,16)                 0.9798         estimate D2E/DX2                !
 ! R17   R(10,17)                0.9809         estimate D2E/DX2                !
 ! R18   R(11,18)                0.9783         estimate D2E/DX2                !
 ! A1    A(2,1,6)              118.4013         estimate D2E/DX2                !
 ! A2    A(2,1,11)             119.25           estimate D2E/DX2                !
 ! A3    A(6,1,11)             122.3487         estimate D2E/DX2                !
 ! A4    A(1,2,3)              119.7266         estimate D2E/DX2                !
 ! A5    A(1,2,8)              122.3585         estimate D2E/DX2                !
 ! A6    A(3,2,8)              117.9149         estimate D2E/DX2                !
 ! A7    A(2,3,4)              120.6992         estimate D2E/DX2                !
 ! A8    A(2,3,12)             120.2393         estimate D2E/DX2                !
 ! A9    A(4,3,12)             119.0615         estimate D2E/DX2                !
 ! A10   A(3,4,5)              119.0659         estimate D2E/DX2                !
 ! A11   A(3,4,7)              117.5567         estimate D2E/DX2                !
 ! A12   A(5,4,7)              123.3774         estimate D2E/DX2                !
 ! A13   A(4,5,6)              121.11           estimate D2E/DX2                !
 ! A14   A(4,5,13)             119.8553         estimate D2E/DX2                !
 ! A15   A(6,5,13)             119.0347         estimate D2E/DX2                !
 ! A16   A(1,6,5)              120.9969         estimate D2E/DX2                !
 ! A17   A(1,6,14)             119.3504         estimate D2E/DX2                !
 ! A18   A(5,6,14)             119.6526         estimate D2E/DX2                !
 ! A19   A(4,7,15)             111.1536         estimate D2E/DX2                !
 ! A20   A(2,8,9)              117.6185         estimate D2E/DX2                !
 ! A21   A(2,8,10)             120.4791         estimate D2E/DX2                !
 ! A22   A(9,8,10)             121.9024         estimate D2E/DX2                !
 ! A23   A(8,9,16)             114.9791         estimate D2E/DX2                !
 ! A24   A(8,10,17)            114.6907         estimate D2E/DX2                !
 ! A25   A(1,11,18)            110.0904         estimate D2E/DX2                !
 ! D1    D(6,1,2,3)             -0.0004         estimate D2E/DX2                !
 ! D2    D(6,1,2,8)            179.9993         estimate D2E/DX2                !
 ! D3    D(11,1,2,3)           179.9997         estimate D2E/DX2                !
 ! D4    D(11,1,2,8)            -0.0007         estimate D2E/DX2                !
 ! D5    D(2,1,6,5)              0.0003         estimate D2E/DX2                !
 ! D6    D(2,1,6,14)           180.0            estimate D2E/DX2                !
 ! D7    D(11,1,6,5)          -179.9998         estimate D2E/DX2                !
 ! D8    D(11,1,6,14)           -0.0001         estimate D2E/DX2                !
 ! D9    D(2,1,11,18)          179.9991         estimate D2E/DX2                !
 ! D10   D(6,1,11,18)           -0.0009         estimate D2E/DX2                !
 ! D11   D(1,2,3,4)              0.0004         estimate D2E/DX2                !
 ! D12   D(1,2,3,12)          -179.9998         estimate D2E/DX2                !
 ! D13   D(8,2,3,4)           -179.9993         estimate D2E/DX2                !
 ! D14   D(8,2,3,12)             0.0005         estimate D2E/DX2                !
 ! D15   D(1,2,8,9)           -179.9983         estimate D2E/DX2                !
 ! D16   D(1,2,8,10)             0.0041         estimate D2E/DX2                !
 ! D17   D(3,2,8,9)              0.0013         estimate D2E/DX2                !
 ! D18   D(3,2,8,10)          -179.9962         estimate D2E/DX2                !
 ! D19   D(2,3,4,5)             -0.0003         estimate D2E/DX2                !
 ! D20   D(2,3,4,7)           -179.9996         estimate D2E/DX2                !
 ! D21   D(12,3,4,5)           179.9999         estimate D2E/DX2                !
 ! D22   D(12,3,4,7)             0.0005         estimate D2E/DX2                !
 ! D23   D(3,4,5,6)              0.0002         estimate D2E/DX2                !
 ! D24   D(3,4,5,13)          -179.9996         estimate D2E/DX2                !
 ! D25   D(7,4,5,6)            179.9995         estimate D2E/DX2                !
 ! D26   D(7,4,5,13)            -0.0003         estimate D2E/DX2                !
 ! D27   D(3,4,7,15)          -179.9965         estimate D2E/DX2                !
 ! D28   D(5,4,7,15)             0.0042         estimate D2E/DX2                !
 ! D29   D(4,5,6,1)             -0.0002         estimate D2E/DX2                !
 ! D30   D(4,5,6,14)          -179.9999         estimate D2E/DX2                !
 ! D31   D(13,5,6,1)           179.9996         estimate D2E/DX2                !
 ! D32   D(13,5,6,14)            0.0            estimate D2E/DX2                !
 ! D33   D(2,8,9,16)          -179.9939         estimate D2E/DX2                !
 ! D34   D(10,8,9,16)            0.0036         estimate D2E/DX2                !
 ! D35   D(2,8,10,17)         -179.9933         estimate D2E/DX2                !
 ! D36   D(9,8,10,17)            0.0093         estimate D2E/DX2                !
 --------------------------------------------------------------------------------
 Trust Radius=3.00D-01 FncErr=1.00D-07 GrdErr=1.00D-07
 Number of steps in this run=     89 maximum allowed number of steps=    108.
 GradGradGradGradGradGradGradGradGradGradGradGradGradGradGradGradGradGrad

                          Input orientation:                          
 ---------------------------------------------------------------------
 Center     Atomic      Atomic             Coordinates (Angstroms)
 Number     Number       Type             X           Y           Z
 ---------------------------------------------------------------------
      1          6           0       -0.218212    1.281467    0.000005
      2          6           0       -0.427760   -0.141174    0.000004
      3          6           0        0.695013   -1.021723   -0.000010
      4          6           0        1.991475   -0.518989   -0.000015
      5          6           0        2.185910    0.887473   -0.000012
      6          6           0        1.103744    1.763198    0.000000
      7          8           0        3.012081   -1.413983   -0.000036
      8          6           0       -1.730720   -0.720727    0.000024
      9          8           0       -1.814752   -2.041977    0.000055
     10          8           0       -2.802329    0.044818   -0.000037
     11          8           0       -1.286209    2.104802    0.000012
     12          1           0        0.545716   -2.102287   -0.000014
     13          1           0        3.201605    1.297518   -0.000022
     14          1           0        1.281161    2.843273    0.000000
     15          1           0        3.876999   -0.961851    0.000018
     16          1           0       -2.727345   -2.398515   -0.000027
     17          1           0       -3.653755   -0.442162    0.000087
     18          1           0       -0.991404    3.037604    0.000027
 ---------------------------------------------------------------------
                    Distance matrix (angstroms):
                    1          2          3          4          5
     1  C    0.000000
     2  C    1.437991   0.000000
     3  C    2.477633   1.426880   0.000000
     4  C    2.850326   2.448559   1.390523   0.000000
     5  C    2.436192   2.808805   2.422355   1.419838   0.000000
     6  C    1.406994   2.443796   2.814755   2.448764   1.392113
     7  O    4.207166   3.667772   2.350037   1.357443   2.445252
     8  C    2.509275   1.426039   2.444336   3.727658   4.233946
     9  O    3.687034   2.353040   2.709214   4.099617   4.958525
    10  O    2.864779   2.381842   3.656352   4.826845   5.058913
    11  O    1.348517   2.404442   3.701405   4.198511   3.679334
    12  H    3.468916   2.189434   1.090829   2.144074   3.410117
    13  H    3.419855   3.904116   3.414950   2.182685   1.095342
    14  H    2.165031   3.439089   3.909190   3.436474   2.154930
    15  H    4.669393   4.382289   3.182549   1.936834   2.505949
    16  H    4.453989   3.222372   3.688915   5.079358   5.910820
    17  H    3.843677   3.240006   4.387217   5.645753   5.989125
    18  H    1.918813   3.228362   4.395695   4.641866   3.836455
                    6          7          8          9         10
     6  C    0.000000
     7  O    3.706242   0.000000
     8  C    3.768829   4.793200   0.000000
     9  O    4.795516   4.867514   1.323920   0.000000
    10  O    4.267345   5.994620   1.316968   2.308684   0.000000
    11  O    2.414243   5.554921   2.860280   4.180327   2.557763
    12  H    3.905556   2.560609   2.662869   2.361238   3.977369
    13  H    2.148925   2.718116   5.329272   6.026281   6.133228
    14  H    1.094550   4.595684   4.666211   5.783627   4.950378
    15  H    3.888037   0.975964   5.612901   5.793333   6.754762
    16  H    5.656598   5.823256   1.951470   0.979768   2.444483
    17  H    5.243797   6.736305   1.943106   2.437486   0.980855
    18  H    2.452296   5.987029   3.830358   5.145877   3.498031
                   11         12         13         14         15
    11  O    0.000000
    12  H    4.588632   0.000000
    13  H    4.559845   4.314211   0.000000
    14  H    2.671466   4.999944   2.465251   0.000000
    15  H    6.005254   3.521085   2.358157   4.606229   0.000000
    16  H    4.728291   3.286439   6.986638   6.598823   6.758799
    17  H    3.477398   4.515703   7.072655   5.928531   7.548664
    18  H    0.978279   5.364813   4.539738   2.280859   6.300555
                   16         17         18
    16  H    0.000000
    17  H    2.164614   0.000000
    18  H    5.706565   4.381425   0.000000
 Stoichiometry    C7H7O4(1+)
 Framework group  C1[X(C7H7O4)]
 Deg. of freedom    48
 Full point group                 C1      NOp   1
 Largest Abelian subgroup         C1      NOp   1
 Largest concise Abelian subgroup C1      NOp   1
                         Standard orientation:                         
 ---------------------------------------------------------------------
 Center     Atomic      Atomic             Coordinates (Angstroms)
 Number     Number       Type             X           Y           Z
 ---------------------------------------------------------------------
      1          6           0       -0.218212    1.281467    0.000005
      2          6           0       -0.427760   -0.141174    0.000004
      3          6           0        0.695013   -1.021723   -0.000010
      4          6           0        1.991475   -0.518989   -0.000015
      5          6           0        2.185910    0.887473   -0.000012
      6          6           0        1.103744    1.763198    0.000000
      7          8           0        3.012081   -1.413983   -0.000036
      8          6           0       -1.730720   -0.720727    0.000024
      9          8           0       -1.814752   -2.041977    0.000055
     10          8           0       -2.802329    0.044818   -0.000037
     11          8           0       -1.286209    2.104802    0.000012
     12          1           0        0.545716   -2.102287   -0.000014
     13          1           0        3.201605    1.297518   -0.000022
     14          1           0        1.281161    2.843273    0.000000
     15          1           0        3.876999   -0.961851    0.000018
     16          1           0       -2.727345   -2.398515   -0.000027
     17          1           0       -3.653755   -0.442162    0.000087
     18          1           0       -0.991404    3.037604    0.000027
 ---------------------------------------------------------------------
 Rotational constants (GHZ):      1.7514869      0.8968365      0.5931290
 Standard basis: 6-31+G(d,p) (6D, 7F)
 There are   244 symmetry adapted cartesian basis functions of A   symmetry.
 There are   244 symmetry adapted basis functions of A   symmetry.
   244 basis functions,   401 primitive gaussians,   244 cartesian basis functions
    40 alpha electrons       40 beta electrons
       nuclear repulsion energy       603.0747558528 Hartrees.
 NAtoms=   18 NActive=   18 NUniq=   18 SFac= 1.00D+00 NAtFMM=   60 NAOKFM=F Big=F
 Integral buffers will be    131072 words long.
 Regular integral format.
 Two-electron integral symmetry is turned on.
 One-electron integrals computed using PRISM.
 NBasis=   244 RedAO= T EigKep=  3.43D-06  NBF=   244
 NBsUse=   244 1.00D-06 EigRej= -1.00D+00 NBFU=   244
 ExpMin= 4.38D-02 ExpMax= 5.48D+03 ExpMxC= 8.25D+02 IAcc=2 IRadAn=         4 AccDes= 0.00D+00
 Harris functional with IExCor=  419 and IRadAn=       4 diagonalized for initial guess.
 HarFok:  IExCor=  419 AccDes= 0.00D+00 IRadAn=         4 IDoV= 1 UseB2=F ITyADJ=14
 ICtDFT=  3500011 ScaDFX=  1.000000  1.000000  1.000000  1.000000
 FoFCou: FMM=F IPFlag=           0 FMFlag=      100000 FMFlg1=           0
         NFxFlg=           0 DoJE=T BraDBF=F KetDBF=T FulRan=T
         wScrn=  0.000000 ICntrl=     500 IOpCl=  0 I1Cent=   200000004 NGrid=           0
         NMat0=    1 NMatS0=      1 NMatT0=    0 NMatD0=    1 NMtDS0=    0 NMtDT0=    0
 Petite list used in FoFCou.
 Keep R1 ints in memory in canonical form, NReq=454277305.
 Requested convergence on RMS density matrix=1.00D-08 within 128 cycles.
 Requested convergence on MAX density matrix=1.00D-06.
 Requested convergence on             energy=1.00D-06.
 No special actions if energy rises.
 SCF Done:  E(RB2PLYP) =  -570.541522182     A.U. after   16 cycles
            NFock= 16  Conv=0.30D-08     -V/T= 2.0073
 DoSCS=T DFT=T ScalE2(SS,OS)=  0.270000  0.270000
 ExpMin= 4.38D-02 ExpMax= 5.48D+03 ExpMxC= 8.25D+02 IAcc=3 IRadAn=         5 AccDes= 0.00D+00
 HarFok:  IExCor=  205 AccDes= 0.00D+00 IRadAn=         5 IDoV=-2 UseB2=F ITyADJ=14
 ICtDFT= 12500011 ScaDFX=  1.000000  1.000000  1.000000  1.000000
 Range of M.O.s used for correlation:    12   244
 NBasis=   244 NAE=    40 NBE=    40 NFC=    11 NFV=     0
 NROrb=    233 NOA=    29 NOB=    29 NVA=   204 NVB=   204

 **** Warning!!: The largest alpha MO coefficient is  0.15614397D+03

 DoSCS=T DFT=T ScalE2(SS,OS)=  0.270000  0.270000
 Fully direct method using O(ONN) memory.
 JobTyp=1 Pass  1:  I=  12 to  17 NPSUse= 18 ParTrn=T ParDer=T DoDerP=T.
 JobTyp=1 Pass  2:  I=  18 to  23 NPSUse= 18 ParTrn=T ParDer=T DoDerP=T.
 JobTyp=1 Pass  3:  I=  24 to  29 NPSUse= 18 ParTrn=T ParDer=T DoDerP=T.
 JobTyp=1 Pass  4:  I=  30 to  35 NPSUse= 18 ParTrn=T ParDer=T DoDerP=T.
 JobTyp=1 Pass  5:  I=  36 to  40 NPSUse= 18 ParTrn=T ParDer=T DoDerP=T.
 Spin components of T(2) and E(2):
     alpha-alpha T2 =       0.1186402266D+00 E2=     -0.7507647133D-01
     alpha-beta  T2 =       0.6102599178D+00 E2=     -0.3974043201D+00
     beta-beta   T2 =       0.1186402266D+00 E2=     -0.7507647133D-01
 E2(B2PLYP) =    -0.5475572627D+00 E(B2PLYP) =    -0.57108907944460D+03
          IDoAtm=111111111111111111
          Differentiating once with respect to electric field.
                with respect to dipole field.
          Differentiating once with respect to nuclear coordinates.
 Keep R1 ints in memory in canonical form, NReq=454076225.
          There are     1 degrees of freedom in the 1st order CPHF.  IDoFFX=0 NUNeed=     1.
 LinEq1:  Iter=  0 NonCon=     1 RMS=2.07D-03 Max=7.08D-02 NDo=     1
 AX will form     1 AO Fock derivatives at one time.
 LinEq1:  Iter=  1 NonCon=     1 RMS=8.35D-04 Max=1.11D-02 NDo=     1
 LinEq1:  Iter=  2 NonCon=     1 RMS=3.03D-04 Max=9.72D-03 NDo=     1
 LinEq1:  Iter=  3 NonCon=     1 RMS=1.64D-04 Max=3.64D-03 NDo=     1
 LinEq1:  Iter=  4 NonCon=     1 RMS=6.30D-05 Max=1.63D-03 NDo=     1
 LinEq1:  Iter=  5 NonCon=     1 RMS=3.60D-05 Max=1.10D-03 NDo=     1
 LinEq1:  Iter=  6 NonCon=     1 RMS=1.70D-05 Max=5.40D-04 NDo=     1
 LinEq1:  Iter=  7 NonCon=     1 RMS=8.66D-06 Max=2.07D-04 NDo=     1
 LinEq1:  Iter=  8 NonCon=     1 RMS=3.57D-06 Max=9.99D-05 NDo=     1
 LinEq1:  Iter=  9 NonCon=     1 RMS=1.45D-06 Max=4.34D-05 NDo=     1
 LinEq1:  Iter= 10 NonCon=     1 RMS=6.59D-07 Max=2.66D-05 NDo=     1
 LinEq1:  Iter= 11 NonCon=     1 RMS=3.06D-07 Max=1.22D-05 NDo=     1
 LinEq1:  Iter= 12 NonCon=     1 RMS=1.71D-07 Max=6.21D-06 NDo=     1
 LinEq1:  Iter= 13 NonCon=     1 RMS=6.01D-08 Max=1.67D-06 NDo=     1
 LinEq1:  Iter= 14 NonCon=     1 RMS=3.63D-08 Max=1.22D-06 NDo=     1
 LinEq1:  Iter= 15 NonCon=     1 RMS=1.31D-08 Max=4.12D-07 NDo=     1
 LinEq1:  Iter= 16 NonCon=     1 RMS=7.13D-09 Max=1.77D-07 NDo=     1
 LinEq1:  Iter= 17 NonCon=     1 RMS=1.65D-09 Max=4.80D-08 NDo=     1
 LinEq1:  Iter= 18 NonCon=     1 RMS=6.12D-10 Max=1.02D-08 NDo=     1
 LinEq1:  Iter= 19 NonCon=     1 RMS=2.90D-10 Max=6.51D-09 NDo=     1
 LinEq1:  Iter= 20 NonCon=     1 RMS=8.37D-11 Max=2.01D-09 NDo=     1
 LinEq1:  Iter= 21 NonCon=     0 RMS=3.82D-11 Max=4.29D-10 NDo=     1
 Linear equations converged to 1.000D-10 1.000D-09 after    21 iterations.
 End of Minotr F.D. properties file   721 does not exist.
 End of Minotr F.D. properties file   722 does not exist.
 End of Minotr F.D. properties file   788 does not exist.

 **********************************************************************

            Population analysis using the SCF density.

 **********************************************************************

 Orbital symmetries:
       Occupied  (A) (A) (A) (A) (A) (A) (A) (A) (A) (A) (A) (A)
                 (A) (A) (A) (A) (A) (A) (A) (A) (A) (A) (A) (A)
                 (A) (A) (A) (A) (A) (A) (A) (A) (A) (A) (A) (A)
                 (A) (A) (A) (A)
       Virtual   (A) (A) (A) (A) (A) (A) (A) (A) (A) (A) (A) (A)
                 (A) (A) (A) (A) (A) (A) (A) (A) (A) (A) (A) (A)
                 (A) (A) (A) (A) (A) (A) (A) (A) (A) (A) (A) (A)
                 (A) (A) (A) (A) (A) (A) (A) (A) (A) (A) (A) (A)
                 (A) (A) (A) (A) (A) (A) (A) (A) (A) (A) (A) (A)
                 (A) (A) (A) (A) (A) (A) (A) (A) (A) (A) (A) (A)
                 (A) (A) (A) (A) (A) (A) (A) (A) (A) (A) (A) (A)
                 (A) (A) (A) (A) (A) (A) (A) (A) (A) (A) (A) (A)
                 (A) (A) (A) (A) (A) (A) (A) (A) (A) (A) (A) (A)
                 (A) (A) (A) (A) (A) (A) (A) (A) (A) (A) (A) (A)
                 (A) (A) (A) (A) (A) (A) (A) (A) (A) (A) (A) (A)
                 (A) (A) (A) (A) (A) (A) (A) (A) (A) (A) (A) (A)
                 (A) (A) (A) (A) (A) (A) (A) (A) (A) (A) (A) (A)
                 (A) (A) (A) (A) (A) (A) (A) (A) (A) (A) (A) (A)
                 (A) (A) (A) (A) (A) (A) (A) (A) (A) (A) (A) (A)
                 (A) (A) (A) (A) (A) (A) (A) (A) (A) (A) (A) (A)
                 (A) (A) (A) (A) (A) (A) (A) (A) (A) (A) (A) (A)
 The electronic state is 1-A.
 Alpha  occ. eigenvalues --  -20.02287 -20.02203 -19.94966 -19.91679 -11.01579
 Alpha  occ. eigenvalues --  -10.88912 -10.85282 -10.83036 -10.81748 -10.80653
 Alpha  occ. eigenvalues --  -10.80209  -1.49649  -1.41510  -1.38010  -1.34640
 Alpha  occ. eigenvalues --   -1.15211  -1.07945  -1.01757  -0.97732  -0.91969
 Alpha  occ. eigenvalues --   -0.88760  -0.86799  -0.81259  -0.78951  -0.76200
 Alpha  occ. eigenvalues --   -0.75207  -0.74261  -0.70527  -0.67492  -0.65845
 Alpha  occ. eigenvalues --   -0.65523  -0.65375  -0.64031  -0.63859  -0.62084
 Alpha  occ. eigenvalues --   -0.59279  -0.57144  -0.53661  -0.47606  -0.40831
 Alpha virt. eigenvalues --   -0.20904  -0.14439  -0.10200  -0.09080  -0.08175
 Alpha virt. eigenvalues --   -0.07127  -0.06679  -0.06462  -0.05333  -0.04837
 Alpha virt. eigenvalues --   -0.03071  -0.02063  -0.01413  -0.00606   0.00071
 Alpha virt. eigenvalues --    0.01084   0.02674   0.03752   0.04551   0.04582
 Alpha virt. eigenvalues --    0.05286   0.05414   0.06051   0.07144   0.07345
 Alpha virt. eigenvalues --    0.07857   0.08675   0.09090   0.10406   0.10615
 Alpha virt. eigenvalues --    0.11041   0.11663   0.12390   0.12531   0.12641
 Alpha virt. eigenvalues --    0.13410   0.14270   0.15378   0.16222   0.16603
 Alpha virt. eigenvalues --    0.17213   0.17544   0.18302   0.18576   0.20059
 Alpha virt. eigenvalues --    0.20674   0.21736   0.21875   0.22624   0.23072
 Alpha virt. eigenvalues --    0.24148   0.24849   0.25986   0.27619   0.28872
 Alpha virt. eigenvalues --    0.29058   0.31795   0.32406   0.33240   0.35115
 Alpha virt. eigenvalues --    0.35483   0.38551   0.40781   0.42078   0.53240
 Alpha virt. eigenvalues --    0.54408   0.58751   0.59638   0.61298   0.63003
 Alpha virt. eigenvalues --    0.65256   0.66364   0.67227   0.68412   0.69079
 Alpha virt. eigenvalues --    0.71168   0.72792   0.77396   0.77412   0.80549
 Alpha virt. eigenvalues --    0.81592   0.87437   0.88522   0.91536   0.92906
 Alpha virt. eigenvalues --    0.94220   0.97453   0.99329   1.00672   1.02133
 Alpha virt. eigenvalues --    1.04513   1.05610   1.07144   1.09659   1.11656
 Alpha virt. eigenvalues --    1.12094   1.13778   1.14840   1.16238   1.17188
 Alpha virt. eigenvalues --    1.18601   1.18898   1.19765   1.21108   1.21924
 Alpha virt. eigenvalues --    1.22735   1.24166   1.26388   1.27442   1.28287
 Alpha virt. eigenvalues --    1.31260   1.32352   1.33558   1.34113   1.36227
 Alpha virt. eigenvalues --    1.36622   1.41364   1.45076   1.46620   1.50758
 Alpha virt. eigenvalues --    1.53206   1.54520   1.54758   1.57838   1.58096
 Alpha virt. eigenvalues --    1.64320   1.66761   1.70712   1.71488   1.72549
 Alpha virt. eigenvalues --    1.81087   1.83078   1.86316   1.86530   1.87257
 Alpha virt. eigenvalues --    1.89355   1.90972   1.91022   1.92993   1.97439
 Alpha virt. eigenvalues --    1.98716   1.98943   2.01262   2.09611   2.17153
 Alpha virt. eigenvalues --    2.17200   2.20444   2.22484   2.24395   2.27878
 Alpha virt. eigenvalues --    2.31184   2.33041   2.33543   2.36220   2.36767
 Alpha virt. eigenvalues --    2.38014   2.41417   2.42967   2.44606   2.46627
 Alpha virt. eigenvalues --    2.47385   2.50749   2.53474   2.53920   2.55115
 Alpha virt. eigenvalues --    2.57546   2.58380   2.60555   2.62371   2.64423
 Alpha virt. eigenvalues --    2.68800   2.69178   2.71049   2.71088   2.75560
 Alpha virt. eigenvalues --    2.77252   2.84429   2.90845   2.93436   3.01982
 Alpha virt. eigenvalues --    3.04292   3.07528   3.13308   3.17395   3.22282
 Alpha virt. eigenvalues --    3.29516   3.36532   3.43587   3.46044   3.50615
 Alpha virt. eigenvalues --    3.53829   3.55286   3.77466   4.22289   4.26942
 Alpha virt. eigenvalues --    4.30846   4.32489   4.34602   4.46411   4.50496
 Alpha virt. eigenvalues --    4.56745   4.61777   4.81058   4.96162
          Condensed to atoms (all electrons):
               1          2          3          4          5          6
     1  C   14.862358  -2.616231  -2.275485   0.272520   0.495541  -3.533906
     2  C   -2.616231   9.593694  -1.673107   0.967348  -0.658851   0.277496
     3  C   -2.275485  -1.673107  12.605212  -3.391919   0.181292  -0.001232
     4  C    0.272520   0.967348  -3.391919   8.743596  -0.427701   0.644926
     5  C    0.495541  -0.658851   0.181292  -0.427701   6.192080  -0.400973
     6  C   -3.533906   0.277496  -0.001232   0.644926  -0.400973   8.812297
     7  O   -0.020165   0.038137   0.026126   0.017748  -0.101609   0.045971
     8  C   -0.714419  -0.232346   0.374776  -0.618810   0.092855  -0.308394
     9  O    0.010937   0.110703  -0.104042   0.037046  -0.005441   0.031545
    10  O   -0.183421   0.129194   0.003528   0.020159   0.001620   0.069637
    11  O    0.250350  -0.249280   0.075926  -0.010700   0.046867   0.062364
    12  H    0.002557   0.042174   0.127439   0.125719   0.009941   0.005328
    13  H    0.000991   0.017839  -0.036361   0.046912   0.221238   0.084135
    14  H    0.037945  -0.021199  -0.003892  -0.007730   0.127081   0.197553
    15  H    0.002622  -0.003802   0.066710  -0.033475  -0.024471  -0.009339
    16  H   -0.007467  -0.039217   0.021920  -0.003119   0.000278   0.004468
    17  H   -0.007823  -0.014657   0.004148   0.005746  -0.000511  -0.011775
    18  H    0.028017   0.088859  -0.013693   0.003991  -0.008315  -0.119374
               7          8          9         10         11         12
     1  C   -0.020165  -0.714419   0.010937  -0.183421   0.250350   0.002557
     2  C    0.038137  -0.232346   0.110703   0.129194  -0.249280   0.042174
     3  C    0.026126   0.374776  -0.104042   0.003528   0.075926   0.127439
     4  C    0.017748  -0.618810   0.037046   0.020159  -0.010700   0.125719
     5  C   -0.101609   0.092855  -0.005441   0.001620   0.046867   0.009941
     6  C    0.045971  -0.308394   0.031545   0.069637   0.062364   0.005328
     7  O    8.311296  -0.005595   0.000002   0.000102   0.000212  -0.005070
     8  C   -0.005595   6.201122   0.069745   0.132433  -0.163841   0.021110
     9  O    0.000002   0.069745   8.158216  -0.084137   0.001015  -0.002168
    10  O    0.000102   0.132433  -0.084137   8.161520  -0.017372   0.000492
    11  O    0.000212  -0.163841   0.001015  -0.017372   8.311943  -0.000208
    12  H   -0.005070   0.021110  -0.002168   0.000492  -0.000208   0.461176
    13  H   -0.008656   0.001836   0.000001   0.000013  -0.000393  -0.000097
    14  H   -0.000377   0.010275   0.000003   0.000004  -0.011439   0.000006
    15  H    0.231771   0.002517   0.000006   0.000002  -0.000006  -0.000031
    16  H    0.000007   0.046530   0.220370  -0.012001   0.000103   0.000306
    17  H    0.000002   0.048160  -0.012908   0.203347   0.004706   0.000011
    18  H   -0.000005   0.022574  -0.000063   0.001487   0.217228   0.000002
              13         14         15         16         17         18
     1  C    0.000991   0.037945   0.002622  -0.007467  -0.007823   0.028017
     2  C    0.017839  -0.021199  -0.003802  -0.039217  -0.014657   0.088859
     3  C   -0.036361  -0.003892   0.066710   0.021920   0.004148  -0.013693
     4  C    0.046912  -0.007730  -0.033475  -0.003119   0.005746   0.003991
     5  C    0.221238   0.127081  -0.024471   0.000278  -0.000511  -0.008315
     6  C    0.084135   0.197553  -0.009339   0.004468  -0.011775  -0.119374
     7  O   -0.008656  -0.000377   0.231771   0.000007   0.000002  -0.000005
     8  C    0.001836   0.010275   0.002517   0.046530   0.048160   0.022574
     9  O    0.000001   0.000003   0.000006   0.220370  -0.012908  -0.000063
    10  O    0.000013   0.000004   0.000002  -0.012001   0.203347   0.001487
    11  O   -0.000393  -0.011439  -0.000006   0.000103   0.004706   0.217228
    12  H   -0.000097   0.000006  -0.000031   0.000306   0.000011   0.000002
    13  H    0.486271  -0.003105   0.004077  -0.000000   0.000000  -0.000011
    14  H   -0.003105   0.490656  -0.000002  -0.000000  -0.000000   0.006034
    15  H    0.004077  -0.000002   0.380263   0.000000   0.000000   0.000000
    16  H   -0.000000  -0.000000   0.000000   0.348535   0.006359  -0.000000
    17  H    0.000000  -0.000000   0.000000   0.006359   0.346650   0.000013
    18  H   -0.000011   0.006034   0.000000  -0.000000   0.000013   0.354427
 Mulliken charges:
               1
     1  C   -0.604921
     2  C    0.243245
     3  C    0.012652
     4  C   -0.392256
     5  C    0.259080
     6  C    0.149272
     7  O   -0.529898
     8  C    1.019473
     9  O   -0.430828
    10  O   -0.426607
    11  O   -0.517475
    12  H    0.211314
    13  H    0.185309
    14  H    0.178187
    15  H    0.383160
    16  H    0.412928
    17  H    0.428534
    18  H    0.418830
 Sum of Mulliken charges =   1.00000
 Mulliken charges with hydrogens summed into heavy atoms:
               1
     1  C   -0.604921
     2  C    0.243245
     3  C    0.223967
     4  C   -0.392256
     5  C    0.444389
     6  C    0.327460
     7  O   -0.146739
     8  C    1.019473
     9  O   -0.017900
    10  O    0.001927
    11  O   -0.098645
 Electronic spatial extent (au):  <R**2>=           1751.0747
 Charge=              1.0000 electrons
 Dipole moment (field-independent basis, Debye):
    X=             -3.9079    Y=              0.3697    Z=              0.0002  Tot=              3.9254
 Quadrupole moment (field-independent basis, Debye-Ang):
   XX=            -14.2499   YY=            -41.1208   ZZ=            -64.2208
   XY=             18.2185   XZ=             -0.0003   YZ=              0.0002
 Traceless Quadrupole moment (field-independent basis, Debye-Ang):
   XX=             25.6139   YY=             -1.2569   ZZ=            -24.3569
   XY=             18.2185   XZ=             -0.0003   YZ=              0.0002
 Octapole moment (field-independent basis, Debye-Ang**2):
  XXX=            -45.1999  YYY=             31.4537  ZZZ=              0.0001  XYY=            -34.4781
  XXY=            -39.0700  XXZ=              0.0039  XZZ=             -9.1424  YZZ=             -3.3701
  YYZ=             -0.0004  XYZ=             -0.0011
 Hexadecapole moment (field-independent basis, Debye-Ang**3):
 XXXX=           -577.8721 YYYY=           -506.1386 ZZZZ=            -63.9277 XXXY=            157.1359
 XXXZ=             -0.0017 YYYX=             53.4817 YYYZ=              0.0039 ZZZX=              0.0041
 ZZZY=              0.0005 XXYY=           -267.3797 XXZZ=           -240.6045 YYZZ=           -139.7595
 XXYZ=             -0.0011 YYXZ=              0.0035 ZZXY=             -1.1878
 N-N= 6.030747558528D+02 E-N=-2.527629233560D+03  KE= 5.663956819575D+02
 Calling FoFJK, ICntrl=  10002127 FMM=F ISym2X=0 I1Cent= 0 IOpClX= 0 NMat=1 NMatS=1 NMatT=0.
 ***** Axes restored to original set *****
 -------------------------------------------------------------------
 Center     Atomic                   Forces (Hartrees/Bohr)
 Number     Number              X              Y              Z
 -------------------------------------------------------------------
      1        6           0.001513461   -0.003979185    0.000000472
      2        6           0.000790266    0.003808723    0.000000707
      3        6           0.002830750   -0.002469268    0.000000200
      4        6          -0.005551334    0.002913318   -0.000000160
      5        6           0.001483678   -0.001260035   -0.000000051
      6        6          -0.000893008    0.001552417   -0.000000206
      7        8           0.006371930    0.006581307    0.000000983
      8        6          -0.002693014   -0.000178825   -0.000005757
      9        8          -0.008352906    0.007581325    0.000001380
     10        8           0.001443400   -0.011769203    0.000003503
     11        8           0.006177222    0.006498847    0.000000729
     12        1           0.001246669    0.006681610   -0.000000033
     13        1          -0.006394895   -0.002616903    0.000000136
     14        1          -0.001126105   -0.006904125    0.000000014
     15        1          -0.007578176   -0.005023163   -0.000000840
     16        1           0.007548917    0.002457017    0.000000693
     17        1           0.006714620    0.004354188   -0.000001428
     18        1          -0.003531473   -0.008228046   -0.000000341
 -------------------------------------------------------------------
 Cartesian Forces:  Max     0.011769203 RMS     0.004229267

 GradGradGradGradGradGradGradGradGradGradGradGradGradGradGradGradGradGrad
 Berny optimization.
 FormGI is forming the generalized inverse of G from B-inverse, IUseBI=4.
 Internal  Forces:  Max     0.010955134 RMS     0.003502452
 Search for a local minimum.
 Step number   1 out of a maximum of   89
 All quantities printed in internal units (Hartrees-Bohrs-Radians)
 Mixed Optimization -- RFO/linear search
 Second derivative matrix not updated -- first step.
 ITU=  0
     Eigenvalues ---    0.01667   0.01737   0.01744   0.01887   0.01938
     Eigenvalues ---    0.01974   0.02021   0.02048   0.02091   0.02120
     Eigenvalues ---    0.02255   0.02259   0.02373   0.02698   0.02790
     Eigenvalues ---    0.16000   0.16000   0.16000   0.16000   0.16000
     Eigenvalues ---    0.16000   0.16000   0.22358   0.23488   0.24597
     Eigenvalues ---    0.25000   0.25000   0.25000   0.25000   0.25000
     Eigenvalues ---    0.34203   0.34292   0.34717   0.38181   0.39839
     Eigenvalues ---    0.41564   0.41631   0.43211   0.45871   0.46704
     Eigenvalues ---    0.51219   0.51430   0.51721   0.52177   0.53468
     Eigenvalues ---    0.55338   0.60965   0.62693
 RFO step:  Lambda=-2.09070515D-03 EMin= 1.66749459D-02
 Linear search not attempted -- first point.
 Iteration  1 RMS(Cart)=  0.01452886 RMS(Int)=  0.00003238
 Iteration  2 RMS(Cart)=  0.00004752 RMS(Int)=  0.00000068
 Iteration  3 RMS(Cart)=  0.00000000 RMS(Int)=  0.00000068
 Variable       Old X    -DE/DX   Delta X   Delta X   Delta X     New X
                                 (Linear)    (Quad)   (Total)
    R1        2.71741  -0.00831   0.00000  -0.02063  -0.02063   2.69678
    R2        2.65883  -0.00644   0.00000  -0.01437  -0.01438   2.64446
    R3        2.54833  -0.00315   0.00000  -0.00567  -0.00567   2.54266
    R4        2.69641  -0.00403   0.00000  -0.00962  -0.00962   2.68679
    R5        2.69482  -0.00525   0.00000  -0.01257  -0.01257   2.68225
    R6        2.62771  -0.00803   0.00000  -0.01697  -0.01697   2.61074
    R7        2.06137  -0.00679   0.00000  -0.01944  -0.01944   2.04193
    R8        2.68311  -0.00687   0.00000  -0.01619  -0.01619   2.66692
    R9        2.56520  -0.00194   0.00000  -0.00361  -0.00361   2.56158
   R10        2.63071  -0.00492   0.00000  -0.01047  -0.01047   2.62024
   R11        2.06990  -0.00691   0.00000  -0.02008  -0.02008   2.04982
   R12        2.06840  -0.00699   0.00000  -0.02027  -0.02027   2.04813
   R13        1.84431  -0.00904   0.00000  -0.01725  -0.01725   1.82705
   R14        2.50185  -0.00996   0.00000  -0.01628  -0.01628   2.48556
   R15        2.48871  -0.01096   0.00000  -0.01742  -0.01742   2.47129
   R16        1.85149  -0.00793   0.00000  -0.01535  -0.01535   1.83614
   R17        1.85355  -0.00799   0.00000  -0.01553  -0.01553   1.83801
   R18        1.84868  -0.00891   0.00000  -0.01716  -0.01716   1.83152
    A1        2.06649  -0.00030   0.00000  -0.00087  -0.00087   2.06562
    A2        2.08131  -0.00037   0.00000  -0.00163  -0.00163   2.07968
    A3        2.13539   0.00067   0.00000   0.00250   0.00250   2.13789
    A4        2.08962   0.00079   0.00000   0.00346   0.00346   2.09309
    A5        2.13556  -0.00097   0.00000  -0.00403  -0.00403   2.13153
    A6        2.05800   0.00019   0.00000   0.00057   0.00057   2.05857
    A7        2.10660  -0.00072   0.00000  -0.00317  -0.00317   2.10343
    A8        2.09857   0.00070   0.00000   0.00364   0.00364   2.10221
    A9        2.07802   0.00003   0.00000  -0.00047  -0.00047   2.07754
   A10        2.07809   0.00036   0.00000   0.00124   0.00124   2.07933
   A11        2.05175  -0.00055   0.00000  -0.00208  -0.00208   2.04967
   A12        2.15334   0.00019   0.00000   0.00084   0.00084   2.15418
   A13        2.11377   0.00013   0.00000   0.00039   0.00039   2.11416
   A14        2.09187  -0.00009   0.00000  -0.00037  -0.00037   2.09150
   A15        2.07755  -0.00004   0.00000  -0.00002  -0.00002   2.07753
   A16        2.11179  -0.00025   0.00000  -0.00105  -0.00105   2.11074
   A17        2.08306   0.00013   0.00000   0.00055   0.00055   2.08361
   A18        2.08833   0.00012   0.00000   0.00050   0.00050   2.08884
   A19        1.94000   0.00173   0.00000   0.01066   0.01066   1.95065
   A20        2.05283   0.00101   0.00000   0.00401   0.00401   2.05684
   A21        2.10276   0.00070   0.00000   0.00279   0.00279   2.10555
   A22        2.12760  -0.00171   0.00000  -0.00680  -0.00680   2.12080
   A23        2.00676   0.00086   0.00000   0.00530   0.00530   2.01206
   A24        2.00173   0.00082   0.00000   0.00504   0.00504   2.00677
   A25        1.92144   0.00165   0.00000   0.01017   0.01017   1.93161
    D1       -0.00001   0.00000   0.00000   0.00001   0.00001   0.00001
    D2        3.14158   0.00000   0.00000   0.00001   0.00001   3.14159
    D3        3.14159   0.00000   0.00000   0.00002   0.00002  -3.14158
    D4       -0.00001   0.00000   0.00000   0.00001   0.00001  -0.00000
    D5        0.00001  -0.00000   0.00000  -0.00001  -0.00001  -0.00000
    D6        3.14159  -0.00000   0.00000  -0.00000  -0.00000   3.14159
    D7       -3.14159  -0.00000   0.00000  -0.00001  -0.00001   3.14159
    D8       -0.00000  -0.00000   0.00000  -0.00000  -0.00000  -0.00001
    D9        3.14158   0.00000   0.00000   0.00001   0.00001   3.14158
   D10       -0.00002   0.00000   0.00000   0.00001   0.00001  -0.00001
   D11        0.00001  -0.00000   0.00000  -0.00001  -0.00001  -0.00001
   D12       -3.14159  -0.00000   0.00000  -0.00000  -0.00000   3.14159
   D13       -3.14158  -0.00000   0.00000  -0.00001  -0.00001  -3.14159
   D14        0.00001   0.00000   0.00000   0.00000   0.00000   0.00001
   D15       -3.14156   0.00000   0.00000   0.00007   0.00007  -3.14150
   D16        0.00007  -0.00000   0.00000  -0.00001  -0.00001   0.00006
   D17        0.00002   0.00000   0.00000   0.00006   0.00006   0.00008
   D18       -3.14153  -0.00000   0.00000  -0.00002  -0.00002  -3.14154
   D19       -0.00000   0.00000   0.00000   0.00000   0.00000  -0.00000
   D20       -3.14159   0.00000   0.00000   0.00000   0.00000  -3.14158
   D21        3.14159  -0.00000   0.00000  -0.00000  -0.00000   3.14159
   D22        0.00001  -0.00000   0.00000  -0.00000  -0.00000   0.00001
   D23        0.00000   0.00000   0.00000   0.00000   0.00000   0.00001
   D24       -3.14159  -0.00000   0.00000  -0.00000  -0.00000  -3.14159
   D25        3.14158   0.00000   0.00000   0.00000   0.00000   3.14159
   D26       -0.00001  -0.00000   0.00000  -0.00000  -0.00000  -0.00001
   D27       -3.14153  -0.00000   0.00000  -0.00001  -0.00001  -3.14154
   D28        0.00007  -0.00000   0.00000  -0.00001  -0.00001   0.00006
   D29       -0.00000  -0.00000   0.00000  -0.00000  -0.00000  -0.00001
   D30       -3.14159  -0.00000   0.00000  -0.00001  -0.00001   3.14159
   D31        3.14159   0.00000   0.00000   0.00000   0.00000   3.14159
   D32       -0.00000  -0.00000   0.00000  -0.00000  -0.00000  -0.00000
   D33       -3.14149  -0.00000   0.00000  -0.00004  -0.00004  -3.14153
   D34        0.00006   0.00000   0.00000   0.00004   0.00004   0.00010
   D35       -3.14148   0.00000   0.00000   0.00003   0.00003  -3.14145
   D36        0.00016  -0.00000   0.00000  -0.00005  -0.00005   0.00011
         Item               Value     Threshold  Converged?
 Maximum Force            0.010955     0.000450     NO 
 RMS     Force            0.003502     0.000300     NO 
 Maximum Displacement     0.044949     0.001800     NO 
 RMS     Displacement     0.014538     0.001200     NO 
 Predicted change in Energy=-1.050399D-03
 GradGradGradGradGradGradGradGradGradGradGradGradGradGradGradGradGradGrad

                          Input orientation:                          
 ---------------------------------------------------------------------
 Center     Atomic      Atomic             Coordinates (Angstroms)
 Number     Number       Type             X           Y           Z
 ---------------------------------------------------------------------
      1          6           0       -0.216403    1.273965    0.000001
      2          6           0       -0.420996   -0.138367   -0.000015
      3          6           0        0.696823   -1.016980   -0.000020
      4          6           0        1.983866   -0.514804   -0.000017
      5          6           0        2.175938    0.883336   -0.000009
      6          6           0        1.097679    1.755080    0.000003
      7          8           0        3.003044   -1.408528   -0.000035
      8          6           0       -1.718826   -0.713077   -0.000011
      9          8           0       -1.809734   -2.025235    0.000084
     10          8           0       -2.783803    0.045896   -0.000061
     11          8           0       -1.285314    2.091186    0.000018
     12          1           0        0.551678   -2.087728   -0.000032
     13          1           0        3.181586    1.289886   -0.000010
     14          1           0        1.272326    2.824738    0.000013
     15          1           0        3.864590   -0.969773    0.000014
     16          1           0       -2.714886   -2.378495    0.000024
     17          1           0       -3.629969   -0.433711    0.000075
     18          1           0       -1.006381    3.019377    0.000037
 ---------------------------------------------------------------------
                    Distance matrix (angstroms):
                    1          2          3          4          5
     1  C    0.000000
     2  C    1.427074   0.000000
     3  C    2.466255   1.421788   0.000000
     4  C    2.835644   2.434146   1.381542   0.000000
     5  C    2.424023   2.790689   2.408108   1.411272   0.000000
     6  C    1.399387   2.427244   2.800893   2.436740   1.386571
     7  O    4.190538   3.652035   2.339223   1.355532   2.436544
     8  C    2.491106   1.419385   2.434691   3.707997   4.209243
     9  O    3.663799   2.342832   2.701741   4.083234   4.934103
    10  O    2.845997   2.369981   3.639294   4.800526   5.029944
    11  O    1.345519   2.391224   3.686403   4.180756   3.665947
    12  H    3.448323   2.178555   1.080541   2.127263   3.386066
    13  H    3.398026   3.875371   3.390527   2.165973   1.084716
    14  H    2.149700   3.412818   3.884585   3.414503   2.141391
    15  H    4.657131   4.365488   3.168119   1.934973   2.507102
    16  H    4.425255   3.206260   3.673347   5.054860   5.878750
    17  H    3.816882   3.222535   4.365929   5.614420   5.953417
    18  H    1.915862   3.211545   4.380991   4.629472   3.832731
                    6          7          8          9         10
     6  C    0.000000
     7  O    3.693079   0.000000
     8  C    3.744930   4.772810   0.000000
     9  O    4.769049   4.852129   1.315304   0.000000
    10  O    4.241134   5.966821   1.307752   2.288754   0.000000
    11  O    2.406579   5.535162   2.837574   4.149692   2.535485
    12  H    3.881403   2.543719   2.654215   2.362239   3.959518
    13  H    2.135199   2.704314   5.293949   5.991936   6.093716
    14  H    1.083822   4.573394   4.632831   5.746419   4.916721
    15  H    3.883378   0.966834   5.589314   5.771651   6.725527
    16  H    5.623352   5.799617   1.940555   0.971644   2.425370
    17  H    5.209747   6.704262   1.931453   2.417893   0.972635
    18  H    2.454693   5.973428   3.799841   5.108179   3.464220
                   11         12         13         14         15
    11  O    0.000000
    12  H    4.564851   0.000000
    13  H    4.538202   4.280734   0.000000
    14  H    2.660755   4.965043   2.449703   0.000000
    15  H    5.990908   3.496456   2.360626   4.595449   0.000000
    16  H    4.692731   3.279480   6.944451   6.555264   6.728596
    17  H    3.445651   4.496882   7.026241   5.886423   7.513706
    18  H    0.969197   5.339482   4.531027   2.287004   6.296005
                   16         17         18
    16  H    0.000000
    17  H    2.149316   0.000000
    18  H    5.661803   4.336707   0.000000
 Stoichiometry    C7H7O4(1+)
 Framework group  C1[X(C7H7O4)]
 Deg. of freedom    48
 Full point group                 C1      NOp   1
 Largest Abelian subgroup         C1      NOp   1
 Largest concise Abelian subgroup C1      NOp   1
                         Standard orientation:                         
 ---------------------------------------------------------------------
 Center     Atomic      Atomic             Coordinates (Angstroms)
 Number     Number       Type             X           Y           Z
 ---------------------------------------------------------------------
      1          6           0       -0.221926    1.272415    0.000004
      2          6           0       -0.421773   -0.140597   -0.000012
      3          6           0        0.698993   -1.015449   -0.000017
      4          6           0        1.984340   -0.508951   -0.000014
      5          6           0        2.171714    0.889827   -0.000006
      6          6           0        1.090532    1.757942    0.000006
      7          8           0        3.006516   -1.399246   -0.000032
      8          6           0       -1.717664   -0.719664   -0.000008
      9          8           0       -1.804163   -2.032120    0.000087
     10          8           0       -2.785185    0.035726   -0.000058
     11          8           0       -1.293577    2.086040    0.000021
     12          1           0        0.557446   -2.086678   -0.000029
     13          1           0        3.175990    1.299753   -0.000007
     14          1           0        1.261583    2.828181    0.000016
     15          1           0        3.866583   -0.957599    0.000017
     16          1           0       -2.708123   -2.388420    0.000027
     17          1           0       -3.629735   -0.446721    0.000078
     18          1           0       -1.017765    3.015163    0.000040
 ---------------------------------------------------------------------
 Rotational constants (GHZ):      1.7739031      0.9046136      0.5990991
 Standard basis: 6-31+G(d,p) (6D, 7F)
 There are   244 symmetry adapted cartesian basis functions of A   symmetry.
 There are   244 symmetry adapted basis functions of A   symmetry.
   244 basis functions,   401 primitive gaussians,   244 cartesian basis functions
    40 alpha electrons       40 beta electrons
       nuclear repulsion energy       606.3127341189 Hartrees.
 NAtoms=   18 NActive=   18 NUniq=   18 SFac= 1.00D+00 NAtFMM=   60 NAOKFM=F Big=F
 Integral buffers will be    131072 words long.
 Regular integral format.
 Two-electron integral symmetry is turned on.
 One-electron integrals computed using PRISM.
 NBasis=   244 RedAO= T EigKep=  3.26D-06  NBF=   244
 NBsUse=   244 1.00D-06 EigRej= -1.00D+00 NBFU=   244
 Initial guess from the checkpoint file:  "B2PLYPDHByang.chk"
 B after Tr=     0.000000   -0.000000    0.000000
         Rot=    0.999999    0.000000    0.000001   -0.001674 Ang=   0.19 deg.
 ExpMin= 4.38D-02 ExpMax= 5.48D+03 ExpMxC= 8.25D+02 IAcc=2 IRadAn=         4 AccDes= 0.00D+00
 Harris functional with IExCor=  419 and IRadAn=       4 diagonalized for initial guess.
 HarFok:  IExCor=  419 AccDes= 0.00D+00 IRadAn=         4 IDoV= 1 UseB2=F ITyADJ=14
 ICtDFT=  3500011 ScaDFX=  1.000000  1.000000  1.000000  1.000000
 FoFCou: FMM=F IPFlag=           0 FMFlag=      100000 FMFlg1=           0
         NFxFlg=           0 DoJE=T BraDBF=F KetDBF=T FulRan=T
         wScrn=  0.000000 ICntrl=     500 IOpCl=  0 I1Cent=   200000004 NGrid=           0
         NMat0=    1 NMatS0=      1 NMatT0=    0 NMatD0=    1 NMtDS0=    0 NMtDT0=    0
 Petite list used in FoFCou.
 Keep R1 ints in memory in canonical form, NReq=454277305.
 Requested convergence on RMS density matrix=1.00D-08 within 128 cycles.
 Requested convergence on MAX density matrix=1.00D-06.
 Requested convergence on             energy=1.00D-06.
 No special actions if energy rises.
 SCF Done:  E(RB2PLYP) =  -570.544892975     A.U. after   12 cycles
            NFock= 12  Conv=0.64D-08     -V/T= 2.0068
 DoSCS=T DFT=T ScalE2(SS,OS)=  0.270000  0.270000
 ExpMin= 4.38D-02 ExpMax= 5.48D+03 ExpMxC= 8.25D+02 IAcc=3 IRadAn=         5 AccDes= 0.00D+00
 HarFok:  IExCor=  205 AccDes= 0.00D+00 IRadAn=         5 IDoV=-2 UseB2=F ITyADJ=14
 ICtDFT= 12500011 ScaDFX=  1.000000  1.000000  1.000000  1.000000
 Range of M.O.s used for correlation:    12   244
 NBasis=   244 NAE=    40 NBE=    40 NFC=    11 NFV=     0
 NROrb=    233 NOA=    29 NOB=    29 NVA=   204 NVB=   204

 **** Warning!!: The largest alpha MO coefficient is  0.15814968D+03

 DoSCS=T DFT=T ScalE2(SS,OS)=  0.270000  0.270000
 Fully direct method using O(ONN) memory.
 JobTyp=1 Pass  1:  I=  12 to  17 NPSUse= 18 ParTrn=T ParDer=T DoDerP=T.
 JobTyp=1 Pass  2:  I=  18 to  23 NPSUse= 18 ParTrn=T ParDer=T DoDerP=T.
 JobTyp=1 Pass  3:  I=  24 to  29 NPSUse= 18 ParTrn=T ParDer=T DoDerP=T.
 JobTyp=1 Pass  4:  I=  30 to  35 NPSUse= 18 ParTrn=T ParDer=T DoDerP=T.
 JobTyp=1 Pass  5:  I=  36 to  40 NPSUse= 18 ParTrn=T ParDer=T DoDerP=T.
 Spin components of T(2) and E(2):
     alpha-alpha T2 =       0.1172390773D+00 E2=     -0.7481835497D-01
     alpha-beta  T2 =       0.6015743795D+00 E2=     -0.3955832752D+00
     beta-beta   T2 =       0.1172390773D+00 E2=     -0.7481835497D-01
 E2(B2PLYP) =    -0.5452199851D+00 E(B2PLYP) =    -0.57109011296050D+03
          IDoAtm=111111111111111111
          Differentiating once with respect to electric field.
                with respect to dipole field.
          Differentiating once with respect to nuclear coordinates.
 Keep R1 ints in memory in canonical form, NReq=454076225.
          There are     1 degrees of freedom in the 1st order CPHF.  IDoFFX=0 NUNeed=     1.
 LinEq1:  Iter=  0 NonCon=     1 RMS=2.03D-03 Max=6.90D-02 NDo=     1
 AX will form     1 AO Fock derivatives at one time.
 LinEq1:  Iter=  1 NonCon=     1 RMS=8.14D-04 Max=1.04D-02 NDo=     1
 LinEq1:  Iter=  2 NonCon=     1 RMS=2.91D-04 Max=9.34D-03 NDo=     1
 LinEq1:  Iter=  3 NonCon=     1 RMS=1.57D-04 Max=3.35D-03 NDo=     1
 LinEq1:  Iter=  4 NonCon=     1 RMS=5.96D-05 Max=1.50D-03 NDo=     1
 LinEq1:  Iter=  5 NonCon=     1 RMS=3.35D-05 Max=1.02D-03 NDo=     1
 LinEq1:  Iter=  6 NonCon=     1 RMS=1.57D-05 Max=4.95D-04 NDo=     1
 LinEq1:  Iter=  7 NonCon=     1 RMS=7.97D-06 Max=1.89D-04 NDo=     1
 LinEq1:  Iter=  8 NonCon=     1 RMS=3.30D-06 Max=9.04D-05 NDo=     1
 LinEq1:  Iter=  9 NonCon=     1 RMS=1.31D-06 Max=4.02D-05 NDo=     1
 LinEq1:  Iter= 10 NonCon=     1 RMS=5.97D-07 Max=2.41D-05 NDo=     1
 LinEq1:  Iter= 11 NonCon=     1 RMS=2.73D-07 Max=1.11D-05 NDo=     1
 LinEq1:  Iter= 12 NonCon=     1 RMS=1.52D-07 Max=5.65D-06 NDo=     1
 LinEq1:  Iter= 13 NonCon=     1 RMS=5.19D-08 Max=1.41D-06 NDo=     1
 LinEq1:  Iter= 14 NonCon=     1 RMS=3.16D-08 Max=1.09D-06 NDo=     1
 LinEq1:  Iter= 15 NonCon=     1 RMS=1.15D-08 Max=3.68D-07 NDo=     1
 LinEq1:  Iter= 16 NonCon=     1 RMS=6.16D-09 Max=1.40D-07 NDo=     1
 LinEq1:  Iter= 17 NonCon=     1 RMS=1.44D-09 Max=4.24D-08 NDo=     1
 LinEq1:  Iter= 18 NonCon=     1 RMS=5.46D-10 Max=8.62D-09 NDo=     1
 LinEq1:  Iter= 19 NonCon=     1 RMS=2.48D-10 Max=5.57D-09 NDo=     1
 LinEq1:  Iter= 20 NonCon=     1 RMS=7.16D-11 Max=1.69D-09 NDo=     1
 LinEq1:  Iter= 21 NonCon=     0 RMS=3.32D-11 Max=3.76D-10 NDo=     1
 Linear equations converged to 1.000D-10 1.000D-09 after    21 iterations.
 End of Minotr F.D. properties file   721 does not exist.
 End of Minotr F.D. properties file   722 does not exist.
 End of Minotr F.D. properties file   788 does not exist.
 Calling FoFJK, ICntrl=  10002127 FMM=F ISym2X=0 I1Cent= 0 IOpClX= 0 NMat=1 NMatS=1 NMatT=0.
 ***** Axes restored to original set *****
 -------------------------------------------------------------------
 Center     Atomic                   Forces (Hartrees/Bohr)
 Number     Number              X              Y              Z
 -------------------------------------------------------------------
      1        6          -0.000615695   -0.000531238   -0.000000339
      2        6           0.000732832    0.000849324   -0.000001576
      3        6          -0.000298596   -0.000689568   -0.000000560
      4        6           0.000070916    0.000138828   -0.000000248
      5        6           0.000673182   -0.000235929    0.000000303
      6        6          -0.000034723    0.000846315    0.000000129
      7        8           0.000711508    0.000415212    0.000000484
      8        6          -0.002056660   -0.000732114    0.000005212
      9        8          -0.000895672    0.001340831   -0.000000840
     10        8           0.000291861   -0.002239579   -0.000001073
     11        8           0.000882720    0.001210488    0.000000282
     12        1          -0.000094278   -0.000343592   -0.000000132
     13        1           0.000260205    0.000159620   -0.000000082
     14        1           0.000157174    0.000271024    0.000000024
     15        1          -0.000286066   -0.000442703   -0.000000263
     16        1           0.000709198   -0.000379971   -0.000000493
     17        1           0.000150853    0.000783751   -0.000000676
     18        1          -0.000358763   -0.000420701   -0.000000153
 -------------------------------------------------------------------
 Cartesian Forces:  Max     0.002239579 RMS     0.000628211

 GradGradGradGradGradGradGradGradGradGradGradGradGradGradGradGradGradGrad
 Berny optimization.
 Using GEDIIS/GDIIS optimizer.
 FormGI is forming the generalized inverse of G from B-inverse, IUseBI=4.
 Internal  Forces:  Max     0.002143027 RMS     0.000543826
 Search for a local minimum.
 Step number   2 out of a maximum of   89
 All quantities printed in internal units (Hartrees-Bohrs-Radians)
 Mixed Optimization -- En-DIIS/RFO-DIIS
 Update second derivatives using D2CorX and points    1    2
 DE= -1.03D-03 DEPred=-1.05D-03 R= 9.84D-01
 TightC=F SS=  1.41D+00  RLast= 6.95D-02 DXNew= 5.0454D-01 2.0846D-01
 Trust test= 9.84D-01 RLast= 6.95D-02 DXMaxT set to 3.00D-01
 ITU=  1  0
 Use linear search instead of GDIIS.
     Eigenvalues ---    0.01668   0.01736   0.01744   0.01887   0.01938
     Eigenvalues ---    0.01974   0.02021   0.02048   0.02091   0.02120
     Eigenvalues ---    0.02255   0.02256   0.02373   0.02698   0.02790
     Eigenvalues ---    0.15558   0.16000   0.16000   0.16000   0.16000
     Eigenvalues ---    0.16000   0.16048   0.22367   0.23474   0.24611
     Eigenvalues ---    0.24646   0.25000   0.25000   0.25000   0.25205
     Eigenvalues ---    0.34237   0.34414   0.34908   0.38486   0.39821
     Eigenvalues ---    0.41231   0.42475   0.44245   0.45876   0.48572
     Eigenvalues ---    0.50695   0.51323   0.51627   0.52088   0.53641
     Eigenvalues ---    0.55397   0.59900   0.62084
 RFO step:  Lambda=-7.39178625D-05 EMin= 1.66754754D-02
 Quartic linear search produced a step of -0.01885.
 Iteration  1 RMS(Cart)=  0.00725526 RMS(Int)=  0.00002221
 Iteration  2 RMS(Cart)=  0.00002786 RMS(Int)=  0.00000006
 Iteration  3 RMS(Cart)=  0.00000000 RMS(Int)=  0.00000006
 Variable       Old X    -DE/DX   Delta X   Delta X   Delta X     New X
                                 (Linear)    (Quad)   (Total)
    R1        2.69678   0.00112   0.00039   0.00165   0.00204   2.69882
    R2        2.64446   0.00095   0.00027   0.00132   0.00159   2.64605
    R3        2.54266   0.00007   0.00011  -0.00019  -0.00008   2.54258
    R4        2.68679   0.00074   0.00018   0.00123   0.00141   2.68820
    R5        2.68225   0.00214   0.00024   0.00437   0.00461   2.68686
    R6        2.61074   0.00091   0.00032   0.00094   0.00126   2.61200
    R7        2.04193   0.00035   0.00037  -0.00007   0.00029   2.04222
    R8        2.66692   0.00031   0.00031  -0.00020   0.00011   2.66702
    R9        2.56158   0.00033   0.00007   0.00042   0.00048   2.56207
   R10        2.62024   0.00068   0.00020   0.00085   0.00105   2.62129
   R11        2.04982   0.00030   0.00038  -0.00024   0.00014   2.04996
   R12        2.04813   0.00029   0.00038  -0.00027   0.00011   2.04824
   R13        1.82705  -0.00045   0.00033  -0.00179  -0.00147   1.82558
   R14        2.48556  -0.00094   0.00031  -0.00240  -0.00209   2.48347
   R15        2.47129  -0.00121   0.00033  -0.00285  -0.00252   2.46878
   R16        1.83614  -0.00052   0.00029  -0.00184  -0.00155   1.83459
   R17        1.83801  -0.00052   0.00029  -0.00184  -0.00154   1.83647
   R18        1.83152  -0.00051   0.00032  -0.00190  -0.00158   1.82994
    A1        2.06562   0.00015   0.00002   0.00065   0.00067   2.06629
    A2        2.07968   0.00091   0.00003   0.00343   0.00346   2.08313
    A3        2.13789  -0.00106  -0.00005  -0.00408  -0.00413   2.13376
    A4        2.09309  -0.00040  -0.00007  -0.00130  -0.00136   2.09172
    A5        2.13153   0.00162   0.00008   0.00609   0.00616   2.13769
    A6        2.05857  -0.00122  -0.00001  -0.00479  -0.00480   2.05378
    A7        2.10343   0.00010   0.00006   0.00025   0.00031   2.10374
    A8        2.10221  -0.00010  -0.00007  -0.00029  -0.00035   2.10186
    A9        2.07754  -0.00001   0.00001   0.00004   0.00005   2.07759
   A10        2.07933   0.00026  -0.00002   0.00098   0.00096   2.08029
   A11        2.04967  -0.00002   0.00004  -0.00015  -0.00011   2.04956
   A12        2.15418  -0.00023  -0.00002  -0.00083  -0.00084   2.15334
   A13        2.11416  -0.00014  -0.00001  -0.00068  -0.00069   2.11347
   A14        2.09150   0.00013   0.00001   0.00068   0.00069   2.09218
   A15        2.07753   0.00001   0.00000   0.00001   0.00001   2.07753
   A16        2.11074   0.00003   0.00002   0.00010   0.00012   2.11086
   A17        2.08361   0.00010  -0.00001   0.00062   0.00061   2.08422
   A18        2.08884  -0.00012  -0.00001  -0.00073  -0.00074   2.08810
   A19        1.95065   0.00048  -0.00020   0.00351   0.00331   1.95396
   A20        2.05684  -0.00075  -0.00008  -0.00272  -0.00280   2.05404
   A21        2.10555   0.00098  -0.00005   0.00399   0.00394   2.10948
   A22        2.12080  -0.00023   0.00013  -0.00127  -0.00114   2.11966
   A23        2.01206   0.00113  -0.00010   0.00724   0.00714   2.01920
   A24        2.00677   0.00111  -0.00009   0.00707   0.00697   2.01374
   A25        1.93161   0.00041  -0.00019   0.00310   0.00291   1.93452
    D1        0.00001  -0.00000  -0.00000  -0.00001  -0.00001  -0.00000
    D2        3.14159  -0.00000  -0.00000  -0.00000  -0.00000   3.14158
    D3       -3.14158  -0.00000  -0.00000  -0.00000  -0.00000  -3.14159
    D4       -0.00000   0.00000  -0.00000   0.00000   0.00000   0.00000
    D5       -0.00000   0.00000   0.00000   0.00000   0.00000   0.00000
    D6        3.14159   0.00000   0.00000   0.00000   0.00000  -3.14159
    D7        3.14159  -0.00000   0.00000  -0.00000  -0.00000   3.14159
    D8       -0.00001  -0.00000   0.00000  -0.00000  -0.00000  -0.00001
    D9        3.14158   0.00000  -0.00000   0.00000   0.00000   3.14158
   D10       -0.00001   0.00000  -0.00000   0.00001   0.00001   0.00000
   D11       -0.00001   0.00000   0.00000   0.00001   0.00001   0.00000
   D12        3.14159   0.00000   0.00000   0.00001   0.00001  -3.14159
   D13       -3.14159   0.00000   0.00000   0.00000   0.00000  -3.14158
   D14        0.00001   0.00000  -0.00000   0.00000   0.00000   0.00001
   D15       -3.14150  -0.00000  -0.00000  -0.00003  -0.00003  -3.14152
   D16        0.00006   0.00000   0.00000   0.00006   0.00006   0.00012
   D17        0.00008  -0.00000  -0.00000  -0.00002  -0.00002   0.00006
   D18       -3.14154   0.00000   0.00000   0.00006   0.00007  -3.14148
   D19       -0.00000  -0.00000  -0.00000  -0.00000  -0.00000  -0.00000
   D20       -3.14158  -0.00000  -0.00000  -0.00001  -0.00001  -3.14159
   D21        3.14159  -0.00000   0.00000  -0.00000  -0.00000   3.14159
   D22        0.00001  -0.00000   0.00000  -0.00000  -0.00000   0.00000
   D23        0.00001  -0.00000  -0.00000  -0.00000  -0.00000   0.00000
   D24       -3.14159   0.00000   0.00000   0.00000   0.00000  -3.14159
   D25        3.14159   0.00000  -0.00000   0.00000   0.00000   3.14159
   D26       -0.00001   0.00000   0.00000   0.00000   0.00000  -0.00000
   D27       -3.14154  -0.00000   0.00000  -0.00001  -0.00001  -3.14155
   D28        0.00006  -0.00000   0.00000  -0.00001  -0.00001   0.00005
   D29       -0.00001   0.00000   0.00000   0.00000   0.00000  -0.00000
   D30        3.14159   0.00000   0.00000   0.00000   0.00000   3.14159
   D31        3.14159  -0.00000  -0.00000  -0.00000  -0.00000   3.14159
   D32       -0.00000  -0.00000   0.00000  -0.00000  -0.00000  -0.00000
   D33       -3.14153   0.00000   0.00000   0.00006   0.00006  -3.14146
   D34        0.00010  -0.00000  -0.00000  -0.00003  -0.00003   0.00008
   D35       -3.14145  -0.00000  -0.00000  -0.00006  -0.00006  -3.14151
   D36        0.00011   0.00000   0.00000   0.00003   0.00003   0.00014
         Item               Value     Threshold  Converged?
 Maximum Force            0.002143     0.000450     NO 
 RMS     Force            0.000544     0.000300     NO 
 Maximum Displacement     0.023462     0.001800     NO 
 RMS     Displacement     0.007252     0.001200     NO 
 Predicted change in Energy=-3.733048D-05
 GradGradGradGradGradGradGradGradGradGradGradGradGradGradGradGradGradGrad

                          Input orientation:                          
 ---------------------------------------------------------------------
 Center     Atomic      Atomic             Coordinates (Angstroms)
 Number     Number       Type             X           Y           Z
 ---------------------------------------------------------------------
      1          6           0       -0.215870    1.278948    0.000013
      2          6           0       -0.424328   -0.133908    0.000010
      3          6           0        0.692968   -1.014393   -0.000007
      4          6           0        1.981420   -0.513993   -0.000017
      5          6           0        2.177031    0.883713   -0.000015
      6          6           0        1.099943    1.757782    0.000001
      7          8           0        2.999287   -1.409600   -0.000040
      8          6           0       -1.722343   -0.714198    0.000030
      9          8           0       -1.804871   -2.025800    0.000105
     10          8           0       -2.791871    0.036031   -0.000081
     11          8           0       -1.279753    2.102631    0.000038
     12          1           0        0.546071   -2.085059   -0.000015
     13          1           0        3.183494    1.288438   -0.000028
     14          1           0        1.277347    2.827045    0.000005
     15          1           0        3.862319   -0.975501   -0.000007
     16          1           0       -2.704423   -2.390910    0.000004
     17          1           0       -3.637087   -0.443595    0.000018
     18          1           0       -0.998119    3.029133    0.000045
 ---------------------------------------------------------------------
                    Distance matrix (angstroms):
                    1          2          3          4          5
     1  C    0.000000
     2  C    1.428151   0.000000
     3  C    2.466860   1.422534   0.000000
     4  C    2.835970   2.435588   1.382211   0.000000
     5  C    2.425322   2.793317   2.409408   1.411328   0.000000
     6  C    1.400231   2.429381   2.801889   2.436794   1.387125
     7  O    4.191125   3.653564   2.339935   1.355789   2.436265
     8  C    2.498418   1.421823   2.433895   3.709171   4.214076
     9  O    3.666917   2.342041   2.694837   4.076955   4.931613
    10  O    2.860179   2.373634   3.639711   4.804876   5.040690
    11  O    1.345474   2.394548   3.688830   4.181145   3.665395
    12  H    3.449217   2.179143   1.080697   2.128021   3.387276
    13  H    3.399378   3.878073   3.392013   2.166505   1.084791
    14  H    2.150884   3.415105   3.885633   3.414419   2.141488
    15  H    4.659847   4.368481   3.169590   1.936690   2.509357
    16  H    4.434045   3.208254   3.665661   5.047766   5.878074
    17  H    3.830389   3.227650   4.367515   5.618948   5.963700
    18  H    1.917044   3.214663   4.382907   4.629406   3.832023
                    6          7          8          9         10
     6  C    0.000000
     7  O    3.693212   0.000000
     8  C    3.751797   4.772565   0.000000
     9  O    4.770056   4.843515   1.314196   0.000000
    10  O    4.255660   5.968866   1.306420   2.285895   0.000000
    11  O    2.404553   5.535878   2.851388   4.161694   2.560730
    12  H    3.882551   2.544506   2.650465   2.351689   3.954855
    13  H    2.135760   2.704319   5.298848   5.988987   6.105204
    14  H    1.083880   4.573209   4.640964   5.748928   4.934399
    15  H    3.886072   0.966057   5.590772   5.763694   6.730635
    16  H    5.628929   5.787511   1.943153   0.970824   2.428516
    17  H    5.223553   6.706312   1.933771   2.420824   0.971818
    18  H    2.453201   5.973407   3.812745   5.118905   3.489442
                   11         12         13         14         15
    11  O    0.000000
    12  H    4.568412   0.000000
    13  H    4.536903   4.282112   0.000000
    14  H    2.657731   4.966239   2.449634   0.000000
    15  H    5.992980   3.496944   2.363519   4.597982   0.000000
    16  H    4.713979   3.264852   6.942995   6.563654   6.717551
    17  H    3.469912   4.493686   7.037064   5.903282   7.518245
    18  H    0.968361   5.342235   4.529449   2.284422   6.297694
                   16         17         18
    16  H    0.000000
    17  H    2.159143   0.000000
    18  H    5.682283   4.361650   0.000000
 Stoichiometry    C7H7O4(1+)
 Framework group  C1[X(C7H7O4)]
 Deg. of freedom    48
 Full point group                 C1      NOp   1
 Largest Abelian subgroup         C1      NOp   1
 Largest concise Abelian subgroup C1      NOp   1
                         Standard orientation:                         
 ---------------------------------------------------------------------
 Center     Atomic      Atomic             Coordinates (Angstroms)
 Number     Number       Type             X           Y           Z
 ---------------------------------------------------------------------
      1          6           0       -0.217834    1.276988    0.000010
      2          6           0       -0.424732   -0.136097    0.000006
      3          6           0        0.693536   -1.015348   -0.000011
      4          6           0        1.981435   -0.513527   -0.000021
      5          6           0        2.175502    0.884395   -0.000019
      6          6           0        1.097450    1.757274   -0.000002
      7          8           0        3.000289   -1.408009   -0.000043
      8          6           0       -1.722106   -0.717820    0.000027
      9          8           0       -1.803185   -2.029512    0.000101
     10          8           0       -2.792461    0.031228   -0.000085
     11          8           0       -1.282625    2.099496    0.000034
     12          1           0        0.547821   -2.086176   -0.000018
     13          1           0        3.181518    1.290231   -0.000032
     14          1           0        1.273673    2.826732    0.000001
     15          1           0        3.862842   -0.972958   -0.000010
     16          1           0       -2.702334   -2.395615    0.000001
     17          1           0       -3.637147   -0.449331    0.000015
     18          1           0       -1.002014    3.026308    0.000042
 ---------------------------------------------------------------------
 Rotational constants (GHZ):      1.7663370      0.9047687      0.5983015
 Standard basis: 6-31+G(d,p) (6D, 7F)
 There are   244 symmetry adapted cartesian basis functions of A   symmetry.
 There are   244 symmetry adapted basis functions of A   symmetry.
   244 basis functions,   401 primitive gaussians,   244 cartesian basis functions
    40 alpha electrons       40 beta electrons
       nuclear repulsion energy       605.9320186599 Hartrees.
 NAtoms=   18 NActive=   18 NUniq=   18 SFac= 1.00D+00 NAtFMM=   60 NAOKFM=F Big=F
 Integral buffers will be    131072 words long.
 Regular integral format.
 Two-electron integral symmetry is turned on.
 One-electron integrals computed using PRISM.
 NBasis=   244 RedAO= T EigKep=  3.28D-06  NBF=   244
 NBsUse=   244 1.00D-06 EigRej= -1.00D+00 NBFU=   244
 Initial guess from the checkpoint file:  "B2PLYPDHByang.chk"
 B after Tr=    -0.000000    0.000000   -0.000000
         Rot=    0.999999    0.000001   -0.000001    0.001140 Ang=   0.13 deg.
 ExpMin= 4.38D-02 ExpMax= 5.48D+03 ExpMxC= 8.25D+02 IAcc=2 IRadAn=         4 AccDes= 0.00D+00
 Harris functional with IExCor=  419 and IRadAn=       4 diagonalized for initial guess.
 HarFok:  IExCor=  419 AccDes= 0.00D+00 IRadAn=         4 IDoV= 1 UseB2=F ITyADJ=14
 ICtDFT=  3500011 ScaDFX=  1.000000  1.000000  1.000000  1.000000
 FoFCou: FMM=F IPFlag=           0 FMFlag=      100000 FMFlg1=           0
         NFxFlg=           0 DoJE=T BraDBF=F KetDBF=T FulRan=T
         wScrn=  0.000000 ICntrl=     500 IOpCl=  0 I1Cent=   200000004 NGrid=           0
         NMat0=    1 NMatS0=      1 NMatT0=    0 NMatD0=    1 NMtDS0=    0 NMtDT0=    0
 Petite list used in FoFCou.
 Keep R1 ints in memory in canonical form, NReq=454277305.
 Requested convergence on RMS density matrix=1.00D-08 within 128 cycles.
 Requested convergence on MAX density matrix=1.00D-06.
 Requested convergence on             energy=1.00D-06.
 No special actions if energy rises.
 SCF Done:  E(RB2PLYP) =  -570.545051481     A.U. after   11 cycles
            NFock= 11  Conv=0.51D-08     -V/T= 2.0068
 DoSCS=T DFT=T ScalE2(SS,OS)=  0.270000  0.270000
 ExpMin= 4.38D-02 ExpMax= 5.48D+03 ExpMxC= 8.25D+02 IAcc=3 IRadAn=         5 AccDes= 0.00D+00
 HarFok:  IExCor=  205 AccDes= 0.00D+00 IRadAn=         5 IDoV=-2 UseB2=F ITyADJ=14
 ICtDFT= 12500011 ScaDFX=  1.000000  1.000000  1.000000  1.000000
 Range of M.O.s used for correlation:    12   244
 NBasis=   244 NAE=    40 NBE=    40 NFC=    11 NFV=     0
 NROrb=    233 NOA=    29 NOB=    29 NVA=   204 NVB=   204

 **** Warning!!: The largest alpha MO coefficient is  0.15805929D+03

 DoSCS=T DFT=T ScalE2(SS,OS)=  0.270000  0.270000
 Fully direct method using O(ONN) memory.
 JobTyp=1 Pass  1:  I=  12 to  17 NPSUse= 18 ParTrn=T ParDer=T DoDerP=T.
 JobTyp=1 Pass  2:  I=  18 to  23 NPSUse= 18 ParTrn=T ParDer=T DoDerP=T.
 JobTyp=1 Pass  3:  I=  24 to  29 NPSUse= 18 ParTrn=T ParDer=T DoDerP=T.
 JobTyp=1 Pass  4:  I=  30 to  35 NPSUse= 18 ParTrn=T ParDer=T DoDerP=T.
 JobTyp=1 Pass  5:  I=  36 to  40 NPSUse= 18 ParTrn=T ParDer=T DoDerP=T.
 Spin components of T(2) and E(2):
     alpha-alpha T2 =       0.1172093077D+00 E2=     -0.7479211476D-01
     alpha-beta  T2 =       0.6014951797D+00 E2=     -0.3954998820D+00
     beta-beta   T2 =       0.1172093077D+00 E2=     -0.7479211476D-01
 E2(B2PLYP) =    -0.5450841115D+00 E(B2PLYP) =    -0.57109013559264D+03
          IDoAtm=111111111111111111
          Differentiating once with respect to electric field.
                with respect to dipole field.
          Differentiating once with respect to nuclear coordinates.
 Keep R1 ints in memory in canonical form, NReq=454076225.
          There are     1 degrees of freedom in the 1st order CPHF.  IDoFFX=0 NUNeed=     1.
 LinEq1:  Iter=  0 NonCon=     1 RMS=2.03D-03 Max=6.90D-02 NDo=     1
 AX will form     1 AO Fock derivatives at one time.
 LinEq1:  Iter=  1 NonCon=     1 RMS=8.12D-04 Max=1.04D-02 NDo=     1
 LinEq1:  Iter=  2 NonCon=     1 RMS=2.91D-04 Max=9.26D-03 NDo=     1
 LinEq1:  Iter=  3 NonCon=     1 RMS=1.57D-04 Max=3.37D-03 NDo=     1
 LinEq1:  Iter=  4 NonCon=     1 RMS=5.95D-05 Max=1.53D-03 NDo=     1
 LinEq1:  Iter=  5 NonCon=     1 RMS=3.34D-05 Max=1.04D-03 NDo=     1
 LinEq1:  Iter=  6 NonCon=     1 RMS=1.57D-05 Max=5.00D-04 NDo=     1
 LinEq1:  Iter=  7 NonCon=     1 RMS=7.96D-06 Max=1.90D-04 NDo=     1
 LinEq1:  Iter=  8 NonCon=     1 RMS=3.30D-06 Max=9.03D-05 NDo=     1
 LinEq1:  Iter=  9 NonCon=     1 RMS=1.31D-06 Max=4.03D-05 NDo=     1
 LinEq1:  Iter= 10 NonCon=     1 RMS=5.93D-07 Max=2.35D-05 NDo=     1
 LinEq1:  Iter= 11 NonCon=     1 RMS=2.71D-07 Max=1.09D-05 NDo=     1
 LinEq1:  Iter= 12 NonCon=     1 RMS=1.51D-07 Max=5.52D-06 NDo=     1
 LinEq1:  Iter= 13 NonCon=     1 RMS=5.14D-08 Max=1.38D-06 NDo=     1
 LinEq1:  Iter= 14 NonCon=     1 RMS=3.12D-08 Max=1.09D-06 NDo=     1
 LinEq1:  Iter= 15 NonCon=     1 RMS=1.14D-08 Max=3.66D-07 NDo=     1
 LinEq1:  Iter= 16 NonCon=     1 RMS=6.13D-09 Max=1.40D-07 NDo=     1
 LinEq1:  Iter= 17 NonCon=     1 RMS=1.43D-09 Max=4.15D-08 NDo=     1
 LinEq1:  Iter= 18 NonCon=     1 RMS=5.42D-10 Max=8.62D-09 NDo=     1
 LinEq1:  Iter= 19 NonCon=     1 RMS=2.48D-10 Max=5.60D-09 NDo=     1
 LinEq1:  Iter= 20 NonCon=     1 RMS=7.08D-11 Max=1.67D-09 NDo=     1
 LinEq1:  Iter= 21 NonCon=     0 RMS=3.25D-11 Max=3.86D-10 NDo=     1
 Linear equations converged to 1.000D-10 1.000D-09 after    21 iterations.
 End of Minotr F.D. properties file   721 does not exist.
 End of Minotr F.D. properties file   722 does not exist.
 End of Minotr F.D. properties file   788 does not exist.
 Calling FoFJK, ICntrl=  10002127 FMM=F ISym2X=0 I1Cent= 0 IOpClX= 0 NMat=1 NMatS=1 NMatT=0.
 ***** Axes restored to original set *****
 -------------------------------------------------------------------
 Center     Atomic                   Forces (Hartrees/Bohr)
 Number     Number              X              Y              Z
 -------------------------------------------------------------------
      1        6          -0.000180374   -0.000269605    0.000000550
[...]
 3.0242928033,0.0000537506\\Version=ES64L-G09RevE.01\State=1-A\HF=-570.
 5450314\MP2=-571.0901452\RMSD=2.644e-09\RMSF=2.291e-05\ZeroPoint=0.135
 0739\Thermal=0.144519\Dipole=-1.5524883,0.129697,0.0000319\DipoleDeriv
 =0.9581154,-1.0746237,-0.0000277,0.0668339,0.8334784,0.0000163,-0.0000
 287,0.0000315,0.1504403,-1.2465508,-0.8732834,-0.0000002,-0.5053473,-0
 .4420708,0.0000043,-0.0000023,-0.0000071,-0.0548473,0.2136253,0.731967
 9,0.0000044,-0.2628348,-0.0506215,0.0000033,0.0000037,0.0000013,-0.111
 569,0.9708608,-1.1682346,-0.0000181,-1.1900077,-0.0109165,0.0000076,-0
 .0000119,0.0000177,0.1339718,0.118316,-0.1618911,-0.0000052,0.3767237,
 0.4331728,0.0000006,0.0000026,0.0000056,-0.05332,-0.4280689,0.6609002,
 0.0000131,-0.0017431,0.0790694,0.0000012,-0.0000005,-0.0000041,-0.1264
 318,-1.2248377,0.6316759,0.000016,0.8064298,-0.5017563,-0.000002,0.000
 0266,-0.0000095,-0.3700846,2.7929384,0.7820543,0.0000465,0.5889312,1.9
 24233,-0.0001234,0.0000745,-0.0001179,0.3828902,-0.5839879,-0.365026,0
 .0000432,-0.802914,-1.5148956,0.0000743,0.0001165,0.0001309,-0.2882224
 ,-1.7042614,-0.0340839,-0.000074,0.5172853,-0.2496432,0.000008,-0.0002
 086,-0.0000202,-0.2689864,-0.6735777,0.9137642,0.0000198,0.4511447,-1.
 0648253,-0.0000167,0.0000399,-0.0000451,-0.322703,0.0943689,-0.0134003
 ,0.,0.0093434,0.0956621,-0.0000016,-0.0000076,-0.0000021,0.1521214,0.0
 035566,-0.0078918,0.0000012,0.0075659,0.1034148,-0.0000001,-0.0000003,
 0.0000007,0.139436,0.0764787,0.0398747,0.0000014,0.0160715,-0.0065466,
 -0.000002,0.0000024,-0.0000046,0.1573009,0.4414531,-0.0820986,-0.00000
 25,-0.1119933,0.2011808,-0.0000054,-0.0000082,-0.0000031,0.3603357,0.3
 486164,0.1543919,-0.0000241,0.1778492,0.4804297,0.0000089,-0.0000642,-
 0.0000266,0.3832505,0.5776595,-0.0088016,0.0000064,-0.0427287,0.244493
 6,0.000025,0.0000711,0.0000418,0.3807327,0.2652952,-0.1252941,-0.00000
 03,-0.1006096,0.4461412,0.0000018,-0.0000052,0.0000107,0.3556849\Polar
 =139.1112554,9.3226469,114.0965433,-0.0003723,-0.0002808,47.1206781\PG
 =C01 [X(C7H7O4)]\NImag=1\\0.70273033,-0.02011156,0.69893528,-0.0000080
 4,0.00000842,0.13256272,-0.13681488,-0.03430359,-0.00000083,0.67868955
 ,-0.01560619,-0.27244736,-0.00000277,0.00226086,0.69029925,0.00000009,
 -0.00000212,-0.04140586,-0.00000351,-0.00000120,0.09907351,0.05060076,
 0.04052160,-0.00000045,-0.21278398,0.08611950,0.00000225,0.71904575,0.
 01938143,-0.03372821,-0.00000041,0.10663817,-0.19760195,-0.00000108,0.
 03368049,0.74511881,-0.00000033,-0.00000011,-0.01062110,0.00000358,-0.
 00000101,-0.02727722,-0.00000466,0.00000636,0.09534825,-0.03632838,-0.
 02540959,0.00000043,-0.04927799,0.01923132,0.00000032,-0.32523950,-0.1
 1835933,0.00000086,0.75257379,-0.03826128,-0.03066296,-0.00000015,-0.0
 1032347,0.03359901,-0.00000016,-0.06438082,-0.16350244,-0.00000055,0.0
 0324073,0.68531669,0.00000024,-0.00000058,0.00949729,0.00000019,0.0000
 0070,-0.01329152,0.00000173,-0.00000075,-0.04141848,-0.00000452,0.0000
 0546,0.11475475,-0.05465272,0.00616497,0.00000048,-0.00980959,0.008957
 83,0.00000002,0.01598004,-0.03323135,-0.00000026,-0.13972628,-0.069569
 06,0.00000068,0.75901867,0.04873435,0.05091672,0.00000027,0.01592621,-
 0.02833377,0.,-0.06177411,-0.01300372,0.,0.00033527,-0.29542386,-0.000
 00129,-0.00277986,0.67856718,0.00000099,0.00000066,-0.01418266,0.00000
 017,-0.00000023,0.00988317,-0.00000087,0.00000033,-0.01038171,0.000001
 15,-0.00000020,-0.04219258,-0.00000755,0.00000321,0.10976584,-0.272470
 65,-0.04806004,0.00000234,0.00667789,-0.04734335,-0.00000008,-0.049709
 77,0.00643257,0.00000011,0.05256868,0.05773958,-0.00000039,-0.27604862
 ,0.09147303,0.00000318,0.68642452,-0.10943491,-0.16462477,-0.00000045,
 -0.02433536,-0.00739946,0.00000036,-0.00003401,-0.00236164,-0.00000009
 ,0.02351100,-0.03321126,-0.00000044,0.15104767,-0.22869130,-0.00000305
 ,-0.01703230,0.76290612,0.00000105,-0.00000108,-0.04775299,-0.00000026
 ,0.00000073,-0.00587364,0.00000071,-0.00000022,0.01182423,-0.00000056,
 -0.00000055,-0.01206185,0.00000379,-0.00000260,-0.03429874,-0.00000676
 ,0.00000657,0.09668296,0.00530920,-0.00035272,-0.00000027,-0.00081250,
 -0.00659339,-0.00000001,-0.05952878,0.03336608,0.00000092,-0.23620373,
 0.14041216,0.00000323,0.00063063,0.00565520,0.00000021,-0.00460974,-0.
 00155383,0.00000012,0.70882770,0.00274879,0.00385372,0.00000028,0.0009
 9881,-0.00328339,0.00000010,-0.00432165,0.01759533,0.,0.08655202,-0.20
 161239,-0.00000408,0.04445882,-0.03831428,-0.00000103,-0.00922069,-0.0
 0328760,-0.00000011,0.04946068,0.37742763,-0.00000018,0.00000006,-0.00
 180610,-0.00000021,-0.00000021,0.00518159,0.00000069,0.00000018,0.0059
 7287,0.00000106,-0.00000380,-0.03335718,0.00000027,-0.00000018,0.00423
 654,0.00000027,0.00000004,0.00694077,0.00000801,0.00001133,0.01955967,
 0.01765989,-0.04647223,0.00000067,-0.23866339,-0.06338497,0.00000147,-
 0.05618489,0.00297504,-0.00000013,0.00446372,0.02298870,-0.00000033,0.
 00446206,-0.00717846,-0.00000002,-0.00083799,-0.00294610,-0.00000010,0
 .00381284,-0.00661692,-0.00000006,0.79570013,-0.03356371,-0.01914953,0
 .00000041,-0.06519588,-0.13490748,0.00000166,0.00449677,0.02250796,-0.
 00000122,0.00677787,0.00669351,-0.00000004,0.00261932,-0.00644393,-0.0
 0000010,-0.00066682,-0.00889912,-0.00000020,0.00468669,-0.00365624,0.0
 0000004,-0.00376621,0.75606771,0.00000172,0.00000024,-0.00645061,0.000
 00163,0.00000156,-0.06386364,-0.00000018,-0.00000034,-0.00680067,0.000
 00045,0.00000102,0.00671572,0.00000032,-0.00000103,-0.00153474,-0.0000
 0098,-0.00000024,0.00672685,0.00000012,-0.00000025,0.00052258,0.000021
 35,-0.00005039,0.18812849,-0.00830945,0.00811128,0.00000032,-0.0068928
 6,-0.04815111,0.00000474,-0.00269239,-0.00383799,0.00000037,0.00204786
 ,-0.00198217,-0.00000041,-0.00026249,-0.00101414,-0.00000010,-0.001236
 75,-0.00203562,-0.00000019,-0.00118854,0.00085038,0.00000005,-0.135396
 71,-0.05906926,-0.00000248,0.59161031,-0.00257181,0.01754223,-0.000000
 08,-0.03682692,-0.04646557,0.00000258,0.00983385,-0.00626507,0.0000010
 7,-0.00090308,-0.00835779,-0.00000008,-0.00045924,0.00226111,-0.000000
 12,-0.00217408,0.00134910,0.00000017,-0.00297059,0.00352042,0.00000003
 ,0.01050959,-0.38563897,0.00003407,0.18367867,0.57576626,-0.00000072,-
 0.00000243,0.00342756,0.00000360,0.00000282,0.00924162,-0.00000044,0.0
 0000088,0.00234888,-0.00000052,0.00000035,-0.00200841,-0.00000010,0.00
 000053,0.00022308,0.00000098,-0.00000031,-0.00100372,0.00000029,-0.000
 00013,0.00009334,-0.00000822,0.00002415,-0.05462502,0.00005730,-0.0000
 2684,0.02384137,-0.01147190,0.01941798,-0.00000032,-0.06449272,0.01521
 073,-0.00000418,0.00697338,-0.00948755,0.00000008,-0.00428225,-0.01093
 822,0.00000044,-0.00248238,0.00730739,0.00000006,0.00421493,0.00191503
 ,0.00000013,-0.00358570,0.00354007,0.00000002,-0.32673816,0.16499218,-
 0.00002573,0.00406730,0.02026669,-0.00000388,0.76324314,0.00448351,-0.
 00831315,-0.00000007,0.00703177,0.02297605,-0.00000169,-0.00719894,-0.
 00185376,-0.00000009,0.00186599,0.00618228,0.00000004,0.00090956,-0.00
 325687,-0.00000005,-0.00224403,-0.00064841,-0.00000016,0.00027705,-0.0
 0146319,0.,0.09373025,-0.21663206,0.00002486,0.05213213,-0.05453405,0.
 00001040,0.03350069,0.41281689,-0.00000184,0.00000162,0.00051708,-0.00
 000291,-0.00000232,0.00697786,0.00000189,-0.00000040,0.00314010,-0.000
 00033,-0.00000176,0.00011020,-0.00000014,0.00000088,0.00029466,0.00000
 004,0.00000033,-0.00057305,-0.00000031,0.00000053,-0.00021384,-0.00001
 375,0.00002284,-0.05463404,-0.00000556,0.00000970,0.02625584,-0.000020
 14,-0.00006601,0.02527177,-0.25598901,0.08672208,0.00000505,0.02652280
 ,0.01186216,-0.00000003,-0.01760352,-0.00143728,-0.00000012,0.01400055
 ,0.01002357,-0.00000020,0.00309704,-0.01683044,-0.00000008,-0.05983912
 ,0.03703083,0.00000186,-0.00598797,0.00210885,0.00000024,-0.02297847,-
 0.00447139,-0.00000074,0.00288603,0.00437337,-0.00000024,0.00934746,-0
 .01113116,0.00000028,0.39365067,0.13901657,-0.20106334,-0.00000487,0.0
 2582771,-0.04230526,-0.00000141,0.00312275,-0.00439178,0.00000012,-0.0
 0790274,-0.00250337,0.00000028,-0.00508778,0.00186570,-0.00000010,0.00
 750569,0.00987338,-0.00000002,0.00585918,-0.00236653,-0.00000022,0.020
 94233,0.00630617,-0.00000005,-0.00226647,-0.00721278,0.00000086,-0.016
 31684,-0.00254257,-0.00000109,-0.00355847,0.70482746,0.00000606,-0.000
 00392,-0.03756373,-0.00000034,-0.00000089,0.00240752,0.00000033,0.0000
 0017,0.00308989,-0.00000046,-0.00000006,-0.00141998,-0.00000015,0.0000
 0018,0.00810557,0.00000122,-0.00000053,0.01084192,0.00000029,-0.000000
 14,-0.00024314,0.00000074,0.00000031,-0.00302585,-0.00000006,-0.000000
 80,0.00015198,-0.00000096,-0.00000015,0.00280268,-0.00000616,0.0000108
 0,0.02450784,-0.00446292,0.00128030,0.00000003,0.00653273,0.02441025,0
 .00000001,-0.06456238,-0.04233933,-0.00000043,0.00194657,-0.03089964,-
 0.00000022,-0.00607136,-0.00123733,0.00000011,-0.00060056,0.00066499,0
 .00000004,0.00220976,0.00057434,-0.00000003,0.00206289,0.00353978,-0.0
 0000016,-0.00443039,-0.00174495,0.00000085,0.00031370,-0.00043574,0.00
 000002,0.00045623,0.00168126,0.00000002,0.06644109,0.00344443,0.001700
 20,-0.00000015,-0.00276303,-0.01174013,0.00000002,-0.04205990,-0.35366
 395,-0.00000395,0.00105756,-0.00529112,-0.00000002,-0.00115807,-0.0007
 0927,-0.00000005,-0.00125679,0.00059403,0.00000002,0.00111685,0.000128
 03,0.,-0.00057828,-0.00189584,0.00000006,-0.00288712,0.00043255,0.0000
 0005,0.00009624,0.00007008,0.,-0.00077818,-0.00047178,0.00000003,0.045
 87850,0.37043145,0.00000013,0.00000004,0.00445163,-0.00000046,-0.00000
 035,-0.00081316,-0.00000055,-0.00000390,-0.03207193,0.00000047,0.00000
 014,0.00675765,0.00000011,-0.00000013,0.00696663,-0.00000007,-0.000000
 06,-0.00107545,-0.00000012,0.00000004,-0.00340165,-0.00000007,0.000000
 14,-0.00243891,0.00000097,-0.00000008,0.00093247,-0.00000018,-0.000000
 02,-0.00007624,-0.00000002,-0.00000001,0.00077179,0.,0.00000393,0.0220
 2443,-0.00125683,0.00345120,0.00000022,0.00053854,0.00041595,-0.000000
 04,0.00113328,-0.00026064,0.00000003,-0.00145748,0.00260697,0.00000009
 ,-0.30710196,-0.10040222,0.00000263,-0.01701124,-0.01047054,0.00000015
 ,0.00258636,-0.00003107,-0.00000004,-0.00016431,-0.00001566,0.,-0.0000
 2339,-0.00000396,0.,0.00004849,-0.00003372,0.00000002,-0.00122382,-0.0
 0032870,-0.00000003,0.00002938,0.00008682,-0.00000001,0.32262220,0.003
 85950,-0.00262297,-0.00000015,0.00156371,-0.00050547,0.00000007,-0.000
 55147,-0.00642497,-0.00000010,-0.02945694,-0.00466410,0.00000029,-0.10
 170925,-0.10333607,0.00000088,0.02011058,0.01147302,-0.00000018,-0.000
 41710,0.00279240,0.,-0.00056882,-0.00059185,-0.00000006,-0.00005291,0.
 00035712,0.,0.00028974,-0.00011397,0.00000003,0.00107780,0.00054796,0.
 00000003,-0.00152219,-0.00018696,0.,0.10644562,0.10352805,0.00000016,-
 0.00000004,0.00922220,-0.00000007,-0.00000011,-0.00085551,0.00000008,0
 .,0.00571941,-0.00000010,-0.00000012,0.00483999,0.00000269,0.00000078,
 -0.03760460,0.00000028,0.00000014,0.00365116,-0.00000002,0.00000009,-0
 .00241982,0.00000004,0.00000005,-0.00077664,0.00000010,0.,0.00031910,-
 0.00000003,0.00000003,-0.00009598,-0.00000004,0.,-0.00102126,-0.000000
 04,-0.00000002,-0.00130315,-0.00000294,-0.00000089,0.02372427,-0.00203
 415,-0.03011669,-0.00000029,-0.00472596,-0.00042098,0.00000009,-0.0012
 4439,0.00059906,0.,-0.00390332,0.00239230,0.00000015,0.00787442,0.0266
 1139,0.00000016,-0.06762824,-0.04867469,-0.00000003,0.00004717,0.00159
 454,-0.00000002,0.00031991,-0.00144268,-0.00000004,-0.00059717,-0.0002
 4178,-0.00000003,0.00008981,-0.00004367,0.00000005,0.00299190,-0.00073
 927,-0.00000009,0.00011080,-0.00005652,0.,0.00098172,-0.00004350,-0.00
 000005,0.06879866,0.00312120,-0.00771968,-0.00000017,-0.00167091,0.000
 73036,-0.00000001,0.00006821,0.00055863,0.00000003,0.00312367,0.000854
 87,-0.00000013,-0.00456320,-0.01458178,-0.00000009,-0.04853739,-0.3413
 3238,-0.00000248,-0.00006237,-0.00099872,0.,0.00068417,-0.00024920,0.0
 0000001,-0.00021610,-0.00011895,0.,-0.00026197,0.00012471,-0.00000004,
 0.00047076,0.00295668,0.00000007,-0.00002270,-0.00004122,0.,-0.0002025
 2,0.00092096,0.00000005,0.04990388,0.35864624,-0.00000017,0.00000009,0
 .00195689,0.00000010,-0.00000006,0.00536134,0.00000008,0.00000002,-0.0
 0166769,0.00000004,-0.00000017,0.00811544,-0.00000023,-0.00000023,0.00
 130920,0.00000027,-0.00000247,-0.03088674,0.00000002,0.,-0.00004523,0.
 00000001,0.00000003,0.00066364,0.,0.,-0.00017801,-0.00000001,0.,-0.000
 03525,-0.00000006,0.00000006,-0.00351258,0.,0.,-0.00021451,-0.00000008
 ,0.00000003,-0.00408005,0.00000002,0.00000271,0.02259476,-0.00026300,0
 .00018673,-0.00000003,0.00014459,-0.00058668,0.00000011,-0.00135384,0.
 00491694,0.00000012,-0.03188317,-0.01642852,-0.00000071,0.00475870,-0.
 00305224,-0.00000010,-0.00049958,-0.00048751,0.00000010,-0.41215670,-0
 .17138221,-0.00001008,-0.00166531,-0.00056914,-0.00000006,0.00027423,0
 .00076299,-0.00000008,0.00081078,-0.00033327,0.00000013,0.00077806,-0.
 00063048,-0.00000005,0.00027656,0.00008007,-0.00000001,0.00022169,0.00
 115459,-0.00000003,0.00026496,-0.00020921,0.,0.44067810,-0.00015874,0.
 00047765,0.00000001,-0.00041311,0.00066630,-0.00000009,0.00503324,-0.0
 0336311,0.,0.03383923,0.00907343,0.00000074,0.00349879,0.00203568,0.,-
 0.00022475,-0.00037672,0.,-0.22844333,-0.15012742,-0.00000730,0.000991
 15,0.00016229,-0.00000002,-0.00015259,-0.00040241,0.00000002,-0.000256
 82,0.00016027,-0.00000005,0.00020188,-0.00044459,-0.00000001,0.0003336
 9,0.00013952,0.00000003,-0.00102117,-0.00133143,0.00000002,-0.00004130
 ,0.00002692,0.,0.18654285,0.14322619,0.,0.00000003,0.00015692,0.000000
 16,0.00000003,0.00230809,0.,-0.00000026,0.00115025,0.00000150,0.000000
 09,-0.00515714,0.00000001,0.,0.00009142,0.00000002,-0.00000007,-0.0006
 9469,-0.00001242,-0.00000654,-0.00072548,0.00000006,-0.00000003,0.0003
 2062,0.,-0.00000001,-0.00000363,-0.00000003,0.00000003,-0.00016189,-0.
 00000001,0.00000002,-0.00010231,-0.00000001,0.00000002,-0.00084286,-0.
 00000002,0.00000004,0.00041973,0.00000001,0.,0.00000887,0.00001073,0.0
 0000665,0.00318335,0.00027774,-0.00192677,0.00000002,0.00506502,0.0030
 6404,-0.00000108,-0.00133938,0.00069206,0.00000003,0.00022187,0.000987
 72,0.00000012,0.00014679,-0.00037882,-0.00000001,0.00015789,-0.0003842
 0,0.00000004,0.00033842,-0.00037825,0.,-0.00263263,0.00213719,0.000001
 10,-0.44699394,-0.17680827,-0.00004909,0.00015991,0.00531696,-0.000000
 69,-0.00078998,0.00098350,0.00000015,0.00015413,-0.00044422,-0.0000001
 8,0.00000072,-0.00005488,-0.00000002,-0.00001229,0.00002892,-0.0000000
 1,-0.00011247,0.00005416,0.,0.44430782,-0.00135964,-0.00080793,0.00000
 028,0.00506872,-0.00406727,0.00000129,0.00053620,0.00043238,-0.0000005
 1,-0.00031451,0.00148525,0.,0.00035779,-0.00047672,0.,0.00004473,-0.00
 060982,-0.00000009,0.00063953,-0.00056975,0.,-0.05127600,-0.02450193,-
 0.00000501,-0.12378101,-0.09345232,-0.00001057,0.00122401,0.00562195,0
 .00000023,-0.00027577,0.00088474,0.00000004,-0.00045980,0.00060808,0.0
 0000015,0.00001181,0.00001562,0.00000001,-0.00010699,-0.00000535,-0.00
 000001,-0.00014201,0.00005871,0.,0.16584107,0.11877048,0.00000039,0.00
 000101,0.00230013,-0.00000175,0.00000084,0.00448179,0.00000034,-0.0000
 0033,-0.00160175,0.00000008,-0.00000025,0.00066624,-0.00000001,-0.0000
 0011,-0.00000394,-0.00000032,0.00000032,-0.00057842,-0.00000007,0.0000
 0006,-0.00006019,0.00000703,0.00000454,-0.00468837,-0.00005507,-0.0000
 1998,-0.00364808,-0.00000026,-0.00000007,-0.00429949,0.00000032,-0.000
 00045,0.00012252,-0.00000028,0.00000006,-0.00030606,0.,0.00000001,-0.0
 0003589,0.00000005,0.,-0.00008355,0.00000003,0.,0.00004993,0.00004936,
 0.00001470,0.00523082,0.00122707,-0.00251739,0.00000023,0.00440452,0.0
 0720556,-0.00000032,-0.00208238,-0.00052099,-0.00000019,0.00019904,0.0
 0233668,-0.00000008,0.00039661,-0.00087789,0.00000005,-0.00029041,-0.0
 0025001,-0.00000007,0.00045996,-0.00073337,0.,-0.04152564,-0.02125696,
 0.00000382,0.00694053,-0.00464323,0.00000018,-0.37534659,-0.17634322,0
 .00004337,-0.00147121,0.00097988,0.00000002,-0.00011612,0.00006889,0.0
 0000002,0.00000055,-0.00004696,0.,0.00001491,0.00002173,0.,-0.00018921
 ,0.00009234,0.00000002,0.00104057,0.00387606,0.00000015,0.40612620,0.0
 0142593,-0.00110279,-0.00000004,0.00375890,-0.00166071,0.00000160,0.00
 009441,0.00066946,0.00000011,0.00035418,0.00042593,-0.00000008,0.00013
 927,-0.00033606,-0.00000003,-0.00031433,-0.00010827,0.00000003,0.00007
 669,-0.00011014,-0.00000001,0.03351855,0.01195367,-0.00000437,0.000184
 66,-0.00035130,0.00000039,-0.23177710,-0.15733093,0.00003522,-0.001130
 87,-0.00161677,-0.00000016,0.00003443,-0.00000771,0.00000009,-0.000008
 31,-0.00001292,0.,-0.00000485,0.00002366,0.,-0.00000924,0.00001054,0.,
 0.00150620,-0.00318933,-0.00000045,0.19280592,0.15271614,0.00000064,-0
 .00000050,-0.00142218,0.00000032,0.00000244,0.00574114,-0.00000097,-0.
 00000014,0.00185885,0.00000015,0.00000074,-0.00037687,0.00000004,-0.00
 000025,-0.00004841,0.00000010,-0.00000016,-0.00002592,0.00000003,-0.00
 000021,-0.00017078,-0.00000846,-0.00000218,-0.00425532,-0.00000003,0.0
 0000005,-0.00502087,0.00005519,0.00003300,-0.00487063,-0.00000003,0.00
 000006,-0.00047395,0.00000006,0.,0.00023101,0.,-0.00000001,0.00007830,
 -0.00000002,0.00000001,0.00001937,-0.00000005,0.00000004,-0.00003044,0
 .00000032,-0.00000048,0.00253595,-0.00004724,-0.00003224,0.00588864,0.
 00624888,0.04341443,0.00000044,-0.00430178,0.00334847,0.00000016,0.000
 59200,0.00079265,0.00000001,0.00028002,0.00005478,-0.00000001,-0.00020
 956,-0.00051732,0.,0.00073875,0.00346957,-0.00000002,-0.00014838,-0.00
 020315,0.00000001,-0.00169395,0.00076790,-0.00000014,0.00019780,-0.000
 07726,0.00000013,-0.00086920,-0.00148417,-0.00000011,-0.08784765,-0.16
 908815,-0.00000052,-0.00029012,0.00015273,0.,0.00007609,-0.00007752,-0
 .00000001,-0.00134875,-0.00167616,0.00000003,-0.00008440,0.00012449,0.
 ,0.00000981,0.00011583,0.,0.00021162,-0.00065444,-0.00000005,0.0884388
 2,-0.00514786,-0.03118311,-0.00000038,0.00675740,0.00244686,0.00000010
 ,-0.00318614,-0.00072196,-0.00000008,0.00245734,0.00159832,0.,0.000403
 78,-0.00273875,-0.00000004,-0.00623161,0.00535511,0.00000017,-0.001156
 77,0.00047211,0.00000004,-0.00355180,-0.00112516,-0.00000009,0.0004893
 9,0.00157043,-0.00000016,0.00127775,-0.00126326,0.00000030,-0.11425775
 ,-0.46234332,-0.00000497,0.00026414,-0.00009595,-0.00000002,-0.0002398
 4,0.00015556,0.,0.00083175,0.00020426,0.,0.00018634,0.00000818,0.,-0.0
 0023639,-0.00019679,0.00000009,-0.00019705,0.00002754,-0.00000015,0.12
 153733,0.48782993,-0.00000017,-0.00000140,-0.00288718,0.00000059,0.000
 00004,0.00272293,0.00000002,-0.00000010,0.00138782,-0.00000003,-0.0000
 0003,-0.00017327,0.00000005,-0.00000004,-0.00062873,-0.00000020,0.0000
 0011,-0.00184267,-0.00000002,0.00000003,-0.00006395,-0.00000024,-0.000
 00002,0.00001590,0.00000005,0.00000031,-0.00034751,-0.00000020,-0.0000
 0005,-0.00040980,0.,-0.00000400,-0.00543888,0.00000004,0.,0.00040831,0
 .,0.,0.00021875,0.00000004,0.00000002,0.00067409,0.,0.,0.00002926,-0.0
 0000006,-0.00000003,-0.00008162,0.00000003,-0.00000005,0.00034211,0.00
 000008,0.00000521,0.00607444\\-0.00003700,0.00005291,-0.00000018,-0.00
 009260,-0.00003287,-0.00000012,0.00003897,-0.00001014,0.00000009,0.000
 01709,-0.00003479,0.00000006,0.00001005,0.00000473,-0.00000006,-0.0000
 1536,0.00001616,0.00000002,-0.00001702,0.00003284,-0.00000022,0.000042
 39,0.00001297,0.00000115,-0.00000046,-0.00001717,-0.00000091,-0.000025
 81,0.00000255,0.00000003,0.00005007,-0.00003099,-0.00000017,-0.0000083
 8,-0.00001589,0.00000003,0.00000696,0.00001099,0.,0.00000045,0.0000102
 1,0.,-0.00001391,-0.00000016,0.00000017,0.00002940,0.00001044,0.000000
 29,0.00002915,0.00000169,-0.00000023,-0.00001398,-0.00001348,0.0000000
 5\\\@


 THERE ARE PEOPLE SO ADDICTED TO EXAGERATING THEY
 CAN'T TELL THE TRUTH WITHOUT LYING. -- FORTUNE COOKIE
 Job cpu time:       0 days  5 hours 56 minutes 21.6 seconds.
 File lengths (MBytes):  RWF=  19011 Int=      0 D2E=      0 Chk=      7 Scr=      1
 Normal termination of Gaussian 09 at Sat Dec 14 16:24:23 2024.
