 Entering Gaussian System, Link 0=g09
 Input=b3lypDHBgd3.gjf
 Output=b3lypDHBgd3.log
 Initial command:
 /home/phzd/g09E/g09/l1.exe "/home/phzd/g09E/scratch/Gau-55441.inp" -scrdir="/home/phzd/g09E/scratch/"
 Default is to use a total of  18 processors:
                               18 via shared-memory
                                1 via Linda
 Entering Link 1 = /home/phzd/g09E/g09/l1.exe PID=     55443.
  
 Copyright (c) 1988,1990,1992,1993,1995,1998,2003,2009,2015,
            Gaussian, Inc.  All Rights Reserved.
  
 This is part of the Gaussian(R) 09 program.  It is based on
 the Gaussian(R) 03 system (copyright 2003, Gaussian, Inc.),
 the Gaussian(R) 98 system (copyright 1998, Gaussian, Inc.),
 the Gaussian(R) 94 system (copyright 1995, Gaussian, Inc.),
 the Gaussian 92(TM) system (copyright 1992, Gaussian, Inc.),
 the Gaussian 90(TM) system (copyright 1990, Gaussian, Inc.),
 the Gaussian 88(TM) system (copyright 1988, Gaussian, Inc.),
 the Gaussian 86(TM) system (copyright 1986, Carnegie Mellon
 University), and the Gaussian 82(TM) system (copyright 1983,
 Carnegie Mellon University). Gaussian is a federally registered
 trademark of Gaussian, Inc.
  
 This software contains proprietary and confidential information,
 including trade secrets, belonging to Gaussian, Inc.
  
 This software is provided under written license and may be
 used, copied, transmitted, or stored only in accord with that
 written license.
  
 The following legend is applicable only to US Government
 contracts under FAR:
  
                    RESTRICTED RIGHTS LEGEND
  
 Use, reproduction and disclosure by the US Government is
 subject to restrictions as set forth in subparagraphs (a)
 and (c) of the Commercial Computer Software - Restricted
 Rights clause in FAR 52.227-19.
  
 Gaussian, Inc.
 340 Quinnipiac St., Bldg. 40, Wallingford CT 06492
  
  
 ---------------------------------------------------------------
 Warning -- This program may not be used in any manner that
 competes with the business of Gaussian, Inc. or will provide
 assistance to any competitor of Gaussian, Inc.  The licensee
 of this program is prohibited from giving any competitor of
 Gaussian, Inc. access to this program.  By using this program,
 the user acknowledges that Gaussian, Inc. is engaged in the
 business of creating and licensing software in the field of
 computational chemistry and represents and warrants to the
 licensee that it is not a competitor of Gaussian, Inc. and that
 it will not use this program in any manner prohibited above.
 ---------------------------------------------------------------
  

 Cite this work as:
 Gaussian 09, Revision E.01,
 M. J. Frisch, G. W. Trucks, H. B. Schlegel, G. E. Scuseria, 
 M. A. Robb, J. R. Cheeseman, G. Scalmani, V. Barone, B. Mennucci, 
 G. A. Petersson, H. Nakatsuji, M. Caricato, X. Li, H. P. Hratchian, 
 A. F. Izmaylov, J. Bloino, G. Zheng, J. L. Sonnenberg, M. Hada, 
 M. Ehara, K. Toyota, R. Fukuda, J. Hasegawa, M. Ishida, T. Nakajima, 
 Y. Honda, O. Kitao, H. Nakai, T. Vreven, J. A. Montgomery, Jr., 
 J. E. Peralta, F. Ogliaro, M. Bearpark, J. J. Heyd, E. Brothers, 
 K. N. Kudin, V. N. Staroverov, T. Keith, R. Kobayashi, J. Normand, 
 K. Raghavachari, A. Rendell, J. C. Burant, S. S. Iyengar, J. Tomasi, 
 M. Cossi, N. Rega, J. M. Millam, M. Klene, J. E. Knox, J. B. Cross, 
 V. Bakken, C. Adamo, J. Jaramillo, R. Gomperts, R. E. Stratmann, 
 O. Yazyev, A. J. Austin, R. Cammi, C. Pomelli, J. W. Ochterski, 
 R. L. Martin, K. Morokuma, V. G. Zakrzewski, G. A. Voth, 
 P. Salvador, J. J. Dannenberg, S. Dapprich, A. D. Daniels, 
 O. Farkas, J. B. Foresman, J. V. Ortiz, J. Cioslowski, 
 and D. J. Fox, Gaussian, Inc., Wallingford CT, 2013.
 
 ******************************************
 Gaussian 09:  ES64L-G09RevE.01 30-Nov-2015
                19-Jun-2024 
 ******************************************
 %chk=b3lypDHBgd3.chk
 ----------------------------
 # opt freq b3lyp/6-31+g(d,p)
 ----------------------------
 1/14=-1,18=20,19=15,26=3,38=1/1,3;
 2/9=110,12=2,17=6,18=5,40=1/2;
 3/5=1,6=6,7=111,11=2,16=1,25=1,30=1,71=1,74=-5/1,2,3;
 4//1;
 5/5=2,38=5/2;
 6/7=2,8=2,9=2,10=2,28=1/1;
 7//1,2,3,16;
 1/14=-1,18=20,19=15,26=3/3(2);
 2/9=110/2;
 99//99;
 2/9=110/2;
 3/5=1,6=6,7=111,11=2,16=1,25=1,30=1,71=1,74=-5/1,2,3;
 4/5=5,16=3,69=1/1;
 5/5=2,38=5/2;
 7//1,2,3,16;
 1/14=-1,18=20,19=15,26=3/3(-5);
 2/9=110/2;
 6/7=2,8=2,9=2,10=2,19=2,28=1/1;
 99/9=1/99;
 ----------
 [No Title]
 ----------
 Symbolic Z-matrix:
 Charge =  0 Multiplicity = 1
 C                     0.69665  -0.99803  -0.0004 
 C                     0.70583   0.35438  -0.00073 
 C                    -0.46893   1.01599  -0.00035 
 C                    -1.65888   0.39204   0.00045 
 C                    -1.65305  -0.94864   0.00065 
 C                    -0.49529  -1.62149   0.00024 
 O                    -2.82982   1.08475   0.00081 
 C                     1.86061   1.08724  -0.00144 
 O                     1.85198   2.44556  -0.00203 
 O                     2.97569   0.61116  -0.00153 
 O                     1.81845  -1.77114  -0.00083 
 H                    -0.50817   2.11821  -0.00061 
 H                    -2.60874  -1.49886   0.00116 
 H                    -0.52455  -2.7247    0.00043 
 H                    -3.57161   0.45838   0.00011 
 H                     2.77265   2.75298  -0.00229 
 H                     1.56123  -2.70724  -0.00063 
 

 GradGradGradGradGradGradGradGradGradGradGradGradGradGradGradGradGradGrad
 Berny optimization.
 Initialization pass.
                           ----------------------------
                           !    Initial Parameters    !
                           ! (Angstroms and Degrees)  !
 --------------------------                            --------------------------
 ! Name  Definition              Value          Derivative Info.                !
 --------------------------------------------------------------------------------
 ! R1    R(1,2)                  1.3524         estimate D2E/DX2                !
 ! R2    R(1,6)                  1.3452         estimate D2E/DX2                !
 ! R3    R(1,11)                 1.3624         estimate D2E/DX2                !
 ! R4    R(2,3)                  1.3482         estimate D2E/DX2                !
 ! R5    R(2,8)                  1.3677         estimate D2E/DX2                !
 ! R6    R(3,4)                  1.3436         estimate D2E/DX2                !
 ! R7    R(3,12)                 1.1029         estimate D2E/DX2                !
 ! R8    R(4,5)                  1.3407         estimate D2E/DX2                !
 ! R9    R(4,7)                  1.3605         estimate D2E/DX2                !
 ! R10   R(5,6)                  1.3391         estimate D2E/DX2                !
 ! R11   R(5,13)                 1.1028         estimate D2E/DX2                !
 ! R12   R(6,14)                 1.1036         estimate D2E/DX2                !
 ! R13   R(7,15)                 0.9709         estimate D2E/DX2                !
 ! R14   R(8,9)                  1.3583         estimate D2E/DX2                !
 ! R15   R(8,10)                 1.2125         estimate D2E/DX2                !
 ! R16   R(9,16)                 0.9706         estimate D2E/DX2                !
 ! R17   R(11,17)                0.9708         estimate D2E/DX2                !
 ! A1    A(2,1,6)              118.0009         estimate D2E/DX2                !
 ! A2    A(2,1,11)             124.185          estimate D2E/DX2                !
 ! A3    A(6,1,11)             117.8141         estimate D2E/DX2                !
 ! A4    A(1,2,3)              118.9994         estimate D2E/DX2                !
 ! A5    A(1,2,8)              122.7891         estimate D2E/DX2                !
 ! A6    A(3,2,8)              118.2115         estimate D2E/DX2                !
 ! A7    A(2,3,4)              122.942          estimate D2E/DX2                !
 ! A8    A(2,3,12)             121.427          estimate D2E/DX2                !
 ! A9    A(4,3,12)             115.631          estimate D2E/DX2                !
 ! A10   A(3,4,5)              117.4211         estimate D2E/DX2                !
 ! A11   A(3,4,7)              121.7222         estimate D2E/DX2                !
 ! A12   A(5,4,7)              120.8567         estimate D2E/DX2                !
 ! A13   A(4,5,6)              120.4126         estimate D2E/DX2                !
 ! A14   A(4,5,13)             119.6819         estimate D2E/DX2                !
 ! A15   A(6,5,13)             119.9055         estimate D2E/DX2                !
 ! A16   A(1,6,5)              122.224          estimate D2E/DX2                !
 ! A17   A(1,6,14)             119.1316         estimate D2E/DX2                !
 ! A18   A(5,6,14)             118.6444         estimate D2E/DX2                !
 ! A19   A(4,7,15)             109.2144         estimate D2E/DX2                !
 ! A20   A(2,8,9)              122.0366         estimate D2E/DX2                !
 ! A21   A(2,8,10)             124.4796         estimate D2E/DX2                !
 ! A22   A(9,8,10)             113.4838         estimate D2E/DX2                !
 ! A23   A(8,9,16)             108.1008         estimate D2E/DX2                !
 ! A24   A(1,11,17)            109.2094         estimate D2E/DX2                !
 ! D1    D(6,1,2,3)              0.0023         estimate D2E/DX2                !
 ! D2    D(6,1,2,8)           -179.9972         estimate D2E/DX2                !
 ! D3    D(11,1,2,3)           179.9948         estimate D2E/DX2                !
 ! D4    D(11,1,2,8)            -0.0046         estimate D2E/DX2                !
 ! D5    D(2,1,6,5)             -0.004          estimate D2E/DX2                !
 ! D6    D(2,1,6,14)           179.9949         estimate D2E/DX2                !
 ! D7    D(11,1,6,5)          -179.997          estimate D2E/DX2                !
 ! D8    D(11,1,6,14)            0.0019         estimate D2E/DX2                !
 ! D9    D(2,1,11,17)         -179.99           estimate D2E/DX2                !
 ! D10   D(6,1,11,17)            0.0026         estimate D2E/DX2                !
 ! D11   D(1,2,3,4)              0.0053         estimate D2E/DX2                !
 ! D12   D(1,2,3,12)          -179.9985         estimate D2E/DX2                !
 ! D13   D(8,2,3,4)           -179.9952         estimate D2E/DX2                !
 ! D14   D(8,2,3,12)             0.0009         estimate D2E/DX2                !
 ! D15   D(1,2,8,9)            179.9861         estimate D2E/DX2                !
 ! D16   D(1,2,8,10)            -0.0179         estimate D2E/DX2                !
 ! D17   D(3,2,8,9)             -0.0133         estimate D2E/DX2                !
 ! D18   D(3,2,8,10)           179.9826         estimate D2E/DX2                !
 ! D19   D(2,3,4,5)             -0.011          estimate D2E/DX2                !
 ! D20   D(2,3,4,7)           -179.9995         estimate D2E/DX2                !
 ! D21   D(12,3,4,5)           179.9927         estimate D2E/DX2                !
 ! D22   D(12,3,4,7)             0.0041         estimate D2E/DX2                !
 ! D23   D(3,4,5,6)              0.0091         estimate D2E/DX2                !
 ! D24   D(3,4,5,13)          -179.9923         estimate D2E/DX2                !
 ! D25   D(7,4,5,6)            179.9978         estimate D2E/DX2                !
 ! D26   D(7,4,5,13)            -0.0036         estimate D2E/DX2                !
 ! D27   D(3,4,7,15)           179.9207         estimate D2E/DX2                !
 ! D28   D(5,4,7,15)            -0.0674         estimate D2E/DX2                !
 ! D29   D(4,5,6,1)             -0.0019         estimate D2E/DX2                !
 ! D30   D(4,5,6,14)           179.9992         estimate D2E/DX2                !
 ! D31   D(13,5,6,1)           179.9995         estimate D2E/DX2                !
 ! D32   D(13,5,6,14)            0.0006         estimate D2E/DX2                !
 ! D33   D(2,8,9,16)           179.9883         estimate D2E/DX2                !
 ! D34   D(10,8,9,16)           -0.0081         estimate D2E/DX2                !
 --------------------------------------------------------------------------------
 Trust Radius=3.00D-01 FncErr=1.00D-07 GrdErr=1.00D-06
 Number of steps in this run=     85 maximum allowed number of steps=    102.
 GradGradGradGradGradGradGradGradGradGradGradGradGradGradGradGradGradGrad

                          Input orientation:                          
 ---------------------------------------------------------------------
 Center     Atomic      Atomic             Coordinates (Angstroms)
 Number     Number       Type             X           Y           Z
 ---------------------------------------------------------------------
      1          6           0        0.696654   -0.998027   -0.000402
      2          6           0        0.705826    0.354377   -0.000726
      3          6           0       -0.468927    1.015991   -0.000346
      4          6           0       -1.658880    0.392044    0.000450
      5          6           0       -1.653054   -0.948635    0.000645
      6          6           0       -0.495290   -1.621487    0.000243
      7          8           0       -2.829818    1.084749    0.000809
      8          6           0        1.860608    1.087240   -0.001438
      9          8           0        1.851980    2.445555   -0.002034
     10          8           0        2.975688    0.611162   -0.001533
     11          8           0        1.818451   -1.771139   -0.000833
     12          1           0       -0.508170    2.118207   -0.000613
     13          1           0       -2.608735   -1.498861    0.001163
     14          1           0       -0.524550   -2.724704    0.000431
     15          1           0       -3.571608    0.458381    0.000114
     16          1           0        2.772654    2.752979   -0.002291
     17          1           0        1.561234   -2.707244   -0.000631
 ---------------------------------------------------------------------
                    Distance matrix (angstroms):
                    1          2          3          4          5
     1  C    0.000000
     2  C    1.352435   0.000000
     3  C    2.326983   1.348250   0.000000
     4  C    2.735112   2.365006   1.343614   0.000000
     5  C    2.350227   2.694839   2.293886   1.340692   0.000000
     6  C    1.345152   2.312297   2.637610   2.325564   1.339085
     7  O    4.095603   3.610294   2.361892   1.360491   2.349345
     8  C    2.388122   1.367703   2.330625   3.587492   4.060863
     9  O    3.632222   2.384679   2.725851   4.067315   4.879118
    10  O    2.789890   2.284341   3.468322   4.639745   4.884488
    11  O    1.362399   2.399115   3.605578   4.095265   3.567613
    12  H    3.341035   2.141234   1.102914   2.074554   3.273573
    13  H    3.343117   3.797474   3.302009   2.116069   1.102758
    14  H    2.114888   3.315806   3.741109   3.316749   2.104268
    15  H    4.509899   4.278698   3.152389   1.913878   2.379190
    16  H    4.287170   3.166239   3.677632   5.021207   5.769649
    17  H    1.915443   3.178875   4.240758   4.469309   3.663926
                    6          7          8          9         10
     6  C    0.000000
     7  O    3.574036   0.000000
     8  C    3.589911   4.690427   0.000000
     9  O    4.695797   4.875555   1.358343   0.000000
    10  O    4.127034   5.824791   1.212458   2.151213   0.000000
    11  O    2.318576   5.455502   2.858690   4.216827   2.648501
    12  H    3.739716   2.541277   2.583409   2.382744   3.795847
    13  H    2.117000   2.593052   5.163618   5.954528   5.969756
    14  H    1.103605   4.452661   4.496654   5.690297   4.835253
    15  H    3.713433   0.970871   5.468495   5.776173   6.549079
    16  H    5.460350   5.845570   1.899083   0.970644   2.151419
    17  H    2.325545   5.801771   3.806276   5.160995   3.607284
                   11         12         13         14         15
    11  O    0.000000
    12  H    4.532127   0.000000
    13  H    4.435551   4.182769   0.000000
    14  H    2.529613   4.842939   2.417958   0.000000
    15  H    5.832966   3.484204   2.181266   4.406426   0.000000
    16  H    4.623651   3.341668   6.858389   6.393479   6.746469
    17  H    0.970800   5.250468   4.341524   2.085857   6.030526
                   16         17
    16  H    0.000000
    17  H    5.592994   0.000000
 Stoichiometry    C7H6O4
 Framework group  C1[X(C7H6O4)]
 Deg. of freedom    45
 Full point group                 C1      NOp   1
 Largest Abelian subgroup         C1      NOp   1
 Largest concise Abelian subgroup C1      NOp   1
                         Standard orientation:                         
 ---------------------------------------------------------------------
 Center     Atomic      Atomic             Coordinates (Angstroms)
 Number     Number       Type             X           Y           Z
 ---------------------------------------------------------------------
      1          6           0        0.237791    1.214110   -0.000009
      2          6           0        0.460941   -0.119788   -0.000016
      3          6           0       -0.594262   -0.959029   -0.000029
      4          6           0       -1.867984   -0.531326   -0.000140
      5          6           0       -2.074468    0.793369   -0.000014
      6          6           0       -1.037820    1.641017    0.000032
      7          8           0       -2.914498   -1.400662   -0.000142
      8          6           0        1.717178   -0.660602    0.000001
      9          8           0        1.923688   -2.003154    0.000273
     10          8           0        2.742831   -0.014003   -0.000289
     11          8           0        1.223055    2.155060    0.000106
     12          1           0       -0.458523   -2.053559   -0.000011
     13          1           0       -3.105202    1.185368    0.000030
     14          1           0       -1.241356    2.725691    0.000123
     15          1           0       -3.746091   -0.899622    0.001037
     16          1           0        2.881419   -2.160954    0.000042
     17          1           0        0.820891    3.038642    0.000246
 ---------------------------------------------------------------------
 Rotational constants (GHZ):      1.8375354      0.9657642      0.6330490
 Standard basis: 6-31+G(d,p) (6D, 7F)
 There are   239 symmetry adapted cartesian basis functions of A   symmetry.
 There are   239 symmetry adapted basis functions of A   symmetry.
   239 basis functions,   394 primitive gaussians,   239 cartesian basis functions
    40 alpha electrons       40 beta electrons
       nuclear repulsion energy       605.4168659377 Hartrees.
 NAtoms=   17 NActive=   17 NUniq=   17 SFac= 1.00D+00 NAtFMM=   60 NAOKFM=F Big=F
 Integral buffers will be    131072 words long.
 Raffenetti 2 integral format.
 Two-electron integral symmetry is turned on.
 One-electron integrals computed using PRISM.
 NBasis=   239 RedAO= T EigKep=  2.08D-06  NBF=   239
 NBsUse=   239 1.00D-06 EigRej= -1.00D+00 NBFU=   239
 ExpMin= 4.38D-02 ExpMax= 5.48D+03 ExpMxC= 8.25D+02 IAcc=2 IRadAn=         4 AccDes= 0.00D+00
 Harris functional with IExCor=  402 and IRadAn=       4 diagonalized for initial guess.
 HarFok:  IExCor=  402 AccDes= 0.00D+00 IRadAn=         4 IDoV= 1 UseB2=F ITyADJ=14
 ICtDFT=  3500011 ScaDFX=  1.000000  1.000000  1.000000  1.000000
 FoFCou: FMM=F IPFlag=           0 FMFlag=      100000 FMFlg1=           0
         NFxFlg=           0 DoJE=T BraDBF=F KetDBF=T FulRan=T
         wScrn=  0.000000 ICntrl=     500 IOpCl=  0 I1Cent=   200000004 NGrid=           0
         NMat0=    1 NMatS0=      1 NMatT0=    0 NMatD0=    1 NMtDS0=    0 NMtDT0=    0
 Petite list used in FoFCou.
 Keep R1 ints in memory in canonical form, NReq=418393415.
 Requested convergence on RMS density matrix=1.00D-08 within 128 cycles.
 Requested convergence on MAX density matrix=1.00D-06.
 Requested convergence on             energy=1.00D-06.
 No special actions if energy rises.
 SCF Done:  E(RB3LYP) =  -571.257329638     A.U. after   15 cycles
            NFock= 15  Conv=0.77D-08     -V/T= 2.0069

 **********************************************************************

            Population analysis using the SCF density.

 **********************************************************************

 Orbital symmetries:
       Occupied  (A) (A) (A) (A) (A) (A) (A) (A) (A) (A) (A) (A)
                 (A) (A) (A) (A) (A) (A) (A) (A) (A) (A) (A) (A)
                 (A) (A) (A) (A) (A) (A) (A) (A) (A) (A) (A) (A)
                 (A) (A) (A) (A)
       Virtual   (A) (A) (A) (A) (A) (A) (A) (A) (A) (A) (A) (A)
                 (A) (A) (A) (A) (A) (A) (A) (A) (A) (A) (A) (A)
                 (A) (A) (A) (A) (A) (A) (A) (A) (A) (A) (A) (A)
                 (A) (A) (A) (A) (A) (A) (A) (A) (A) (A) (A) (A)
                 (A) (A) (A) (A) (A) (A) (A) (A) (A) (A) (A) (A)
                 (A) (A) (A) (A) (A) (A) (A) (A) (A) (A) (A) (A)
                 (A) (A) (A) (A) (A) (A) (A) (A) (A) (A) (A) (A)
                 (A) (A) (A) (A) (A) (A) (A) (A) (A) (A) (A) (A)
                 (A) (A) (A) (A) (A) (A) (A) (A) (A) (A) (A) (A)
                 (A) (A) (A) (A) (A) (A) (A) (A) (A) (A) (A) (A)
                 (A) (A) (A) (A) (A) (A) (A) (A) (A) (A) (A) (A)
                 (A) (A) (A) (A) (A) (A) (A) (A) (A) (A) (A) (A)
                 (A) (A) (A) (A) (A) (A) (A) (A) (A) (A) (A) (A)
                 (A) (A) (A) (A) (A) (A) (A) (A) (A) (A) (A) (A)
                 (A) (A) (A) (A) (A) (A) (A) (A) (A) (A) (A) (A)
                 (A) (A) (A) (A) (A) (A) (A) (A) (A) (A) (A) (A)
                 (A) (A) (A) (A) (A) (A) (A)
 The electronic state is 1-A.
 Alpha  occ. eigenvalues --  -19.20043 -19.19621 -19.19040 -19.12835 -10.31329
 Alpha  occ. eigenvalues --  -10.26794 -10.25690 -10.21425 -10.21007 -10.20930
 Alpha  occ. eigenvalues --  -10.20442  -1.11117  -1.08376  -1.07995  -1.00271
 Alpha  occ. eigenvalues --   -0.90927  -0.81574  -0.77411  -0.69663  -0.65894
 Alpha  occ. eigenvalues --   -0.62135  -0.57702  -0.56568  -0.52732  -0.50892
 Alpha  occ. eigenvalues --   -0.47469  -0.47231  -0.45801  -0.44978  -0.43523
 Alpha  occ. eigenvalues --   -0.41997  -0.41157  -0.39305  -0.37720  -0.37021
 Alpha  occ. eigenvalues --   -0.33711  -0.31621  -0.28936  -0.26474  -0.23507
 Alpha virt. eigenvalues --   -0.06263  -0.01893  -0.00844  -0.00619   0.01054
 Alpha virt. eigenvalues --    0.01776   0.04000   0.04472   0.04825   0.05929
 Alpha virt. eigenvalues --    0.06322   0.07645   0.08183   0.08821   0.09323
 Alpha virt. eigenvalues --    0.10707   0.12243   0.12299   0.13400   0.13558
 Alpha virt. eigenvalues --    0.14905   0.15121   0.15305   0.16765   0.16829
 Alpha virt. eigenvalues --    0.17226   0.18697   0.18924   0.19172   0.20116
 Alpha virt. eigenvalues --    0.20616   0.20631   0.21508   0.22707   0.23844
 Alpha virt. eigenvalues --    0.24931   0.25097   0.25126   0.26555   0.26600
 Alpha virt. eigenvalues --    0.26783   0.27835   0.29087   0.29560   0.30511
 Alpha virt. eigenvalues --    0.31000   0.31027   0.31965   0.32363   0.33857
 Alpha virt. eigenvalues --    0.34756   0.35510   0.36065   0.37625   0.38902
 Alpha virt. eigenvalues --    0.39801   0.40552   0.42775   0.45051   0.47657
 Alpha virt. eigenvalues --    0.50927   0.51294   0.54257   0.61948   0.63602
 Alpha virt. eigenvalues --    0.67239   0.69328   0.69943   0.70634   0.70997
 Alpha virt. eigenvalues --    0.72363   0.73512   0.75917   0.78014   0.78466
 Alpha virt. eigenvalues --    0.80148   0.83895   0.85169   0.86389   0.87669
 Alpha virt. eigenvalues --    0.91257   0.92297   0.98557   0.99878   1.01746
 Alpha virt. eigenvalues --    1.04245   1.06638   1.10103   1.10457   1.14674
 Alpha virt. eigenvalues --    1.15613   1.16235   1.17623   1.19092   1.20263
 Alpha virt. eigenvalues --    1.20599   1.20951   1.24023   1.24073   1.25101
 Alpha virt. eigenvalues --    1.25497   1.29101   1.30254   1.30475   1.31514
 Alpha virt. eigenvalues --    1.33122   1.36005   1.36976   1.38279   1.39750
 Alpha virt. eigenvalues --    1.39917   1.41325   1.43060   1.43364   1.44463
 Alpha virt. eigenvalues --    1.47572   1.51033   1.57440   1.59282   1.60160
 Alpha virt. eigenvalues --    1.60944   1.71886   1.73734   1.77033   1.78664
 Alpha virt. eigenvalues --    1.79989   1.85718   1.86027   1.87101   1.90587
 Alpha virt. eigenvalues --    1.91345   1.91693   1.92682   1.94827   1.96253
 Alpha virt. eigenvalues --    1.97011   2.04801   2.06790   2.07254   2.09391
 Alpha virt. eigenvalues --    2.11972   2.14363   2.20538   2.25487   2.27430
 Alpha virt. eigenvalues --    2.28643   2.32534   2.35037   2.35220   2.37601
 Alpha virt. eigenvalues --    2.41421   2.41865   2.44060   2.46132   2.49704
 Alpha virt. eigenvalues --    2.51147   2.51697   2.54076   2.56063   2.56368
 Alpha virt. eigenvalues --    2.60188   2.60876   2.62697   2.64469   2.66080
 Alpha virt. eigenvalues --    2.69109   2.72146   2.78021   2.78585   2.81555
 Alpha virt. eigenvalues --    2.82529   2.86649   2.91079   2.97417   3.05382
 Alpha virt. eigenvalues --    3.08726   3.14575   3.19179   3.20988   3.24811
 Alpha virt. eigenvalues --    3.28786   3.33260   3.43851   3.50070   3.51749
 Alpha virt. eigenvalues --    3.52202   3.61251   3.91116   4.20268   4.24964
 Alpha virt. eigenvalues --    4.29138   4.35501   4.41170   4.47503   4.54113
 Alpha virt. eigenvalues --    4.59567   4.63822   4.85734   5.05862
          Condensed to atoms (all electrons):
               1          2          3          4          5          6
     1  C   22.155360  -7.611117  -7.364877   0.490173   1.525606  -0.853451
     2  C   -7.611117  18.672846  -1.384665   0.160410  -1.339056  -1.812551
     3  C   -7.364877  -1.384665  20.971678  -5.106422  -1.607243  -0.357955
     4  C    0.490173   0.160410  -5.106422  11.206642  -0.394301   0.325899
     5  C    1.525606  -1.339056  -1.607243  -0.394301   7.678225  -0.513251
     6  C   -0.853451  -1.812551  -0.357955   0.325899  -0.513251   9.355911
     7  O   -0.048754   0.033453  -0.045062  -0.112836   0.006407   0.066936
     8  C   -1.315651  -0.566274   0.467207  -0.531111   0.104970  -0.670246
     9  O   -0.196196  -0.446562   0.250687   0.153931  -0.001071  -0.005127
    10  O    0.043226  -0.344649  -0.126891   0.083721   0.020773   0.062998
    11  O    0.203787  -0.497515   0.082471  -0.018391   0.073085   0.298134
    12  H    0.053136   0.028412   0.066949   0.116447   0.050879  -0.017039
    13  H   -0.004900   0.001978  -0.012879   0.078156   0.143456   0.102840
    14  H    0.092976   0.000158  -0.036669  -0.003999   0.113717   0.134185
    15  H   -0.005299  -0.013097   0.163189  -0.030194  -0.112747   0.006174
    16  H   -0.000832   0.123172  -0.024709  -0.014741  -0.000596   0.006503
    17  H   -0.037644   0.255530  -0.003496   0.007451  -0.002424  -0.240400
               7          8          9         10         11         12
     1  C   -0.048754  -1.315651  -0.196196   0.043226   0.203787   0.053136
     2  C    0.033453  -0.566274  -0.446562  -0.344649  -0.497515   0.028412
     3  C   -0.045062   0.467207   0.250687  -0.126891   0.082471   0.066949
     4  C   -0.112836  -0.531111   0.153931   0.083721  -0.018391   0.116447
     5  C    0.006407   0.104970  -0.001071   0.020773   0.073085   0.050879
     6  C    0.066936  -0.670246  -0.005127   0.062998   0.298134  -0.017039
     7  O    8.489017  -0.004912   0.000464   0.000079   0.000439  -0.007657
     8  C   -0.004912   7.085498   0.229851   0.510718  -0.233400   0.008294
     9  O    0.000464   0.229851   8.569151  -0.232471   0.001255  -0.001334
    10  O    0.000079   0.510718  -0.232471   8.467352  -0.013268   0.001091
    11  O    0.000439  -0.233400   0.001255  -0.013268   8.469844  -0.000485
    12  H   -0.007657   0.008294  -0.001334   0.001091  -0.000485   0.529619
    13  H   -0.020646   0.000590   0.000001   0.000016  -0.000672  -0.000241
    14  H   -0.000858   0.013902   0.000006  -0.000021  -0.024041   0.000018
    15  H    0.194125   0.003244   0.000013  -0.000000  -0.000015  -0.000164
    16  H   -0.000005  -0.053363   0.192418   0.010145   0.000091   0.000060
    17  H   -0.000011   0.040449   0.000064   0.001299   0.149240   0.000005
              13         14         15         16         17
     1  C   -0.004900   0.092976  -0.005299  -0.000832  -0.037644
     2  C    0.001978   0.000158  -0.013097   0.123172   0.255530
     3  C   -0.012879  -0.036669   0.163189  -0.024709  -0.003496
     4  C    0.078156  -0.003999  -0.030194  -0.014741   0.007451
     5  C    0.143456   0.113717  -0.112747  -0.000596  -0.002424
     6  C    0.102840   0.134185   0.006174   0.006503  -0.240400
     7  O   -0.020646  -0.000858   0.194125  -0.000005  -0.000011
     8  C    0.000590   0.013902   0.003244  -0.053363   0.040449
     9  O    0.000001   0.000006   0.000013   0.192418   0.000064
    10  O    0.000016  -0.000021  -0.000000   0.010145   0.001299
    11  O   -0.000672  -0.024041  -0.000015   0.000091   0.149240
    12  H   -0.000241   0.000018  -0.000164   0.000060   0.000005
    13  H    0.600044  -0.007201   0.009434  -0.000000  -0.000039
    14  H   -0.007201   0.596917  -0.000019  -0.000000   0.012172
    15  H    0.009434  -0.000019   0.432023   0.000000   0.000000
    16  H   -0.000000  -0.000000   0.000000   0.372816  -0.000001
    17  H   -0.000039   0.012172   0.000000  -0.000001   0.457159
 Mulliken charges:
               1
     1  C   -1.125542
     2  C    0.739527
     3  C    0.068687
     4  C   -0.410836
     5  C    0.253571
     6  C    0.110441
     7  O   -0.550178
     8  C    0.910233
     9  O   -0.515081
    10  O   -0.484116
    11  O   -0.490559
    12  H    0.172011
    13  H    0.110065
    14  H    0.108757
    15  H    0.353331
    16  H    0.389043
    17  H    0.360646
 Sum of Mulliken charges =  -0.00000
 Mulliken charges with hydrogens summed into heavy atoms:
               1
     1  C   -1.125542
     2  C    0.739527
     3  C    0.240697
     4  C   -0.410836
     5  C    0.363636
     6  C    0.219198
     7  O   -0.196847
     8  C    0.910233
     9  O   -0.126038
    10  O   -0.484116
    11  O   -0.129913
 Electronic spatial extent (au):  <R**2>=           1669.4362
 Charge=             -0.0000 electrons
 Dipole moment (field-independent basis, Debye):
    X=             -4.2491    Y=              2.0723    Z=              0.0022  Tot=              4.7276
 Quadrupole moment (field-independent basis, Debye-Ang):
   XX=            -59.1858   YY=            -55.5705   ZZ=            -64.5015
   XY=            -10.4553   XZ=             -0.0075   YZ=              0.0007
 Traceless Quadrupole moment (field-independent basis, Debye-Ang):
   XX=              0.5668   YY=              4.1822   ZZ=             -4.7489
   XY=            -10.4553   XZ=             -0.0075   YZ=              0.0007
 Octapole moment (field-independent basis, Debye-Ang**2):
  XXX=            -53.0731  YYY=             36.7236  ZZZ=              0.0009  XYY=             18.2318
  XXY=            -17.7791  XXZ=              0.0376  XZZ=              6.7384  YZZ=             -2.3119
  YYZ=              0.0024  XYZ=              0.0108
 Hexadecapole moment (field-independent basis, Debye-Ang**3):
 XXXX=          -1083.0970 YYYY=           -599.7849 ZZZZ=            -66.4151 XXXY=            -89.7149
 XXXZ=             -0.1215 YYYX=            -22.0537 YYYZ=              0.0191 ZZZX=             -0.0041
 ZZZY=             -0.0001 XXYY=           -318.5421 XXZZ=           -233.4207 YYZZ=           -139.9112
 XXYZ=             -0.0269 YYXZ=             -0.0112 ZZXY=              2.9731
 N-N= 6.054168659377D+02 E-N=-2.547157642022D+03  KE= 5.673158579923D+02
 Calling FoFJK, ICntrl=      2127 FMM=F ISym2X=0 I1Cent= 0 IOpClX= 0 NMat=1 NMatS=1 NMatT=0.
 ***** Axes restored to original set *****
 -------------------------------------------------------------------
 Center     Atomic                   Forces (Hartrees/Bohr)
 Number     Number              X              Y              Z
 -------------------------------------------------------------------
      1        6           0.039276558   -0.048380531   -0.000015967
      2        6          -0.020442884    0.005210998    0.000005682
      3        6          -0.027011398    0.075644541    0.000006358
      4        6          -0.033885763    0.017659361   -0.000009459
      5        6          -0.055402437   -0.040086268    0.000039093
      6        6          -0.009421326   -0.066197521    0.000016806
      7        8          -0.010737094    0.010339097   -0.000003993
      8        6           0.102415377    0.048227329   -0.000048579
      9        8          -0.036973046    0.019038844    0.000003304
     10        8           0.023814650   -0.026769902    0.000003824
     11        8           0.009918159    0.002698657   -0.000003037
     12        1           0.006951691   -0.011018847   -0.000002149
     13        1           0.007658778    0.002648458   -0.000002177
     14        1           0.000837184    0.009130147   -0.000001600
     15        1           0.003385434    0.004978432    0.000010934
     16        1          -0.000698087   -0.008249149    0.000000728
     17        1           0.000314203    0.005126352    0.000000232
 -------------------------------------------------------------------
 Cartesian Forces:  Max     0.102415377 RMS     0.027294299

 GradGradGradGradGradGradGradGradGradGradGradGradGradGradGradGradGradGrad
 Berny optimization.
 FormGI is forming the generalized inverse of G from B-inverse, IUseBI=4.
 Internal  Forces:  Max     0.092050210 RMS     0.022642655
 Search for a local minimum.
 Step number   1 out of a maximum of   85
 All quantities printed in internal units (Hartrees-Bohrs-Radians)
 Mixed Optimization -- RFO/linear search
 Second derivative matrix not updated -- first step.
 ITU=  0
     Eigenvalues ---    0.02189   0.02214   0.02243   0.02437   0.02516
     Eigenvalues ---    0.02655   0.02679   0.02730   0.02753   0.02802
     Eigenvalues ---    0.02827   0.02852   0.02868   0.02884   0.16000
     Eigenvalues ---    0.16000   0.16000   0.16000   0.16000   0.16000
     Eigenvalues ---    0.22368   0.23478   0.24600   0.25000   0.25000
     Eigenvalues ---    0.25000   0.25000   0.25000   0.33287   0.33362
     Eigenvalues ---    0.33379   0.49595   0.50111   0.51421   0.52466
     Eigenvalues ---    0.52848   0.53199   0.53214   0.53246   0.53284
     Eigenvalues ---    0.55205   0.56223   0.56286   0.57106   0.98805
 RFO step:  Lambda=-6.92740150D-02 EMin= 2.18917031D-02
 Linear search not attempted -- first point.
 Maximum step size (   0.300) exceeded in Quadratic search.
    -- Step size scaled by   0.812
 Iteration  1 RMS(Cart)=  0.06000020 RMS(Int)=  0.00149516
 Iteration  2 RMS(Cart)=  0.00214516 RMS(Int)=  0.00001059
 Iteration  3 RMS(Cart)=  0.00000224 RMS(Int)=  0.00001052
 Iteration  4 RMS(Cart)=  0.00000000 RMS(Int)=  0.00001052
 Variable       Old X    -DE/DX   Delta X   Delta X   Delta X     New X
                                 (Linear)    (Quad)   (Total)
    R1        2.55573   0.06720   0.00000   0.08899   0.08901   2.64474
    R2        2.54197   0.06339   0.00000   0.08196   0.08197   2.62394
    R3        2.57456   0.00399   0.00000   0.00545   0.00545   2.58001
    R4        2.54782   0.06684   0.00000   0.08698   0.08698   2.63481
    R5        2.58458   0.09205   0.00000   0.12808   0.12808   2.71266
    R6        2.53906   0.05160   0.00000   0.06589   0.06587   2.60493
    R7        2.08421  -0.01126   0.00000  -0.02269  -0.02269   2.06152
    R8        2.53354   0.06792   0.00000   0.08602   0.08600   2.61954
    R9        2.57096   0.01412   0.00000   0.01918   0.01918   2.59014
   R10        2.53050   0.05772   0.00000   0.07291   0.07291   2.60341
   R11        2.08391  -0.00796   0.00000  -0.01603  -0.01603   2.06788
   R12        2.08551  -0.00915   0.00000  -0.01847  -0.01847   2.06704
   R13        1.83468  -0.00579   0.00000  -0.00782  -0.00782   1.82686
   R14        2.56690   0.01104   0.00000   0.01488   0.01488   2.58178
   R15        2.29121   0.03241   0.00000   0.02489   0.02489   2.31610
   R16        1.83425  -0.00328   0.00000  -0.00442  -0.00442   1.82983
   R17        1.83455  -0.00503   0.00000  -0.00679  -0.00679   1.82776
    A1        2.05950   0.00254   0.00000   0.00755   0.00759   2.06709
    A2        2.16744  -0.01608   0.00000  -0.04145  -0.04147   2.12597
    A3        2.05624   0.01355   0.00000   0.03390   0.03388   2.09012
    A4        2.07693  -0.00215   0.00000  -0.00505  -0.00502   2.07191
    A5        2.14307  -0.00122   0.00000  -0.00332  -0.00333   2.13974
    A6        2.06318   0.00337   0.00000   0.00837   0.00835   2.07153
    A7        2.14574  -0.00214   0.00000  -0.00647  -0.00648   2.13926
    A8        2.11930  -0.00576   0.00000  -0.02094  -0.02094   2.09836
    A9        2.01814   0.00790   0.00000   0.02741   0.02741   2.04556
   A10        2.04938   0.00524   0.00000   0.01271   0.01268   2.06206
   A11        2.12445  -0.01623   0.00000  -0.04095  -0.04093   2.08352
   A12        2.10935   0.01098   0.00000   0.02823   0.02825   2.13760
   A13        2.10160  -0.00105   0.00000  -0.00289  -0.00292   2.09868
   A14        2.08884   0.00212   0.00000   0.00710   0.00711   2.09595
   A15        2.09275  -0.00107   0.00000  -0.00420  -0.00419   2.08856
   A16        2.13321  -0.00244   0.00000  -0.00586  -0.00585   2.12736
   A17        2.07924   0.00059   0.00000   0.00071   0.00071   2.07995
   A18        2.07074   0.00184   0.00000   0.00514   0.00514   2.07587
   A19        1.90615   0.00296   0.00000   0.01050   0.01050   1.91665
   A20        2.12994  -0.04341   0.00000  -0.11039  -0.11039   2.01955
   A21        2.17258   0.00422   0.00000   0.01073   0.01073   2.18331
   A22        1.98067   0.03919   0.00000   0.09966   0.09966   2.08033
   A23        1.88672  -0.01394   0.00000  -0.04935  -0.04935   1.83737
   A24        1.90606  -0.00193   0.00000  -0.00683  -0.00683   1.89923
    D1        0.00004  -0.00000   0.00000  -0.00002  -0.00002   0.00002
    D2       -3.14154  -0.00000   0.00000  -0.00002  -0.00002  -3.14156
    D3        3.14150   0.00000   0.00000   0.00002   0.00002   3.14152
    D4       -0.00008   0.00000   0.00000   0.00002   0.00002  -0.00006
    D5       -0.00007   0.00000   0.00000   0.00002   0.00002  -0.00005
    D6        3.14150   0.00000   0.00000   0.00002   0.00003   3.14153
    D7       -3.14154  -0.00000   0.00000  -0.00001  -0.00001  -3.14156
    D8        0.00003  -0.00000   0.00000  -0.00001  -0.00001   0.00003
    D9       -3.14142  -0.00000   0.00000  -0.00003  -0.00002  -3.14144
   D10        0.00004   0.00000   0.00000   0.00001   0.00001   0.00006
   D11        0.00009  -0.00000   0.00000  -0.00001  -0.00001   0.00009
   D12       -3.14157   0.00000   0.00000   0.00000   0.00000  -3.14156
   D13       -3.14151  -0.00000   0.00000  -0.00001  -0.00001  -3.14152
   D14        0.00002   0.00000   0.00000   0.00000   0.00000   0.00002
   D15        3.14135  -0.00000   0.00000  -0.00002  -0.00002   3.14133
   D16       -0.00031   0.00000   0.00000   0.00002   0.00001  -0.00030
   D17       -0.00023  -0.00000   0.00000  -0.00002  -0.00002  -0.00025
   D18        3.14129   0.00000   0.00000   0.00002   0.00002   3.14131
   D19       -0.00019   0.00000   0.00000   0.00004   0.00004  -0.00015
   D20       -3.14158  -0.00001   0.00000  -0.00004  -0.00004   3.14156
   D21        3.14146   0.00000   0.00000   0.00003   0.00003   3.14150
   D22        0.00007  -0.00001   0.00000  -0.00005  -0.00005   0.00002
   D23        0.00016  -0.00000   0.00000  -0.00004  -0.00004   0.00012
   D24       -3.14146  -0.00000   0.00000  -0.00004  -0.00004  -3.14150
   D25        3.14155   0.00000   0.00000   0.00003   0.00003   3.14158
   D26       -0.00006   0.00000   0.00000   0.00003   0.00003  -0.00003
   D27        3.14021   0.00001   0.00000   0.00009   0.00009   3.14029
   D28       -0.00118   0.00000   0.00000   0.00001   0.00001  -0.00117
   D29       -0.00003   0.00000   0.00000   0.00002   0.00002  -0.00002
   D30        3.14158   0.00000   0.00000   0.00001   0.00001   3.14159
   D31        3.14158   0.00000   0.00000   0.00001   0.00001  -3.14159
   D32        0.00001   0.00000   0.00000   0.00001   0.00001   0.00002
   D33        3.14139   0.00000   0.00000   0.00004   0.00004   3.14142
   D34       -0.00014   0.00000   0.00000   0.00001   0.00001  -0.00013
         Item               Value     Threshold  Converged?
 Maximum Force            0.092050     0.000450     NO 
 RMS     Force            0.022643     0.000300     NO 
 Maximum Displacement     0.199339     0.001800     NO 
 RMS     Displacement     0.059464     0.001200     NO 
 Predicted change in Energy=-3.652817D-02
 GradGradGradGradGradGradGradGradGradGradGradGradGradGradGradGradGradGrad

                          Input orientation:                          
 ---------------------------------------------------------------------
 Center     Atomic      Atomic             Coordinates (Angstroms)
 Number     Number       Type             X           Y           Z
 ---------------------------------------------------------------------
      1          6           0        0.710876   -1.049208   -0.000409
      2          6           0        0.733292    0.350150   -0.000736
      3          6           0       -0.478672    1.039468   -0.000358
      4          6           0       -1.698046    0.396575    0.000426
      5          6           0       -1.706461   -0.989597    0.000662
      6          6           0       -0.520563   -1.690744    0.000259
      7          8           0       -2.849858    1.139533    0.000796
      8          6           0        1.954869    1.104038   -0.001458
      9          8           0        1.812802    2.462848   -0.002020
     10          8           0        3.081173    0.620716   -0.001558
     11          8           0        1.859431   -1.787327   -0.000833
     12          1           0       -0.490055    2.130316   -0.000628
     13          1           0       -2.656591   -1.532452    0.001190
     14          1           0       -0.552142   -2.784120    0.000460
     15          1           0       -3.618245    0.552890    0.000159
     16          1           0        2.715316    2.813676   -0.002305
     17          1           0        1.626936   -2.726174   -0.000638
 ---------------------------------------------------------------------
                    Distance matrix (angstroms):
                    1          2          3          4          5
     1  C    0.000000
     2  C    1.399537   0.000000
     3  C    2.403662   1.394279   0.000000
     4  C    2.809483   2.431781   1.378472   0.000000
     5  C    2.418072   2.783400   2.371618   1.386198   0.000000
     6  C    1.388528   2.395287   2.730533   2.396533   1.377665
     7  O    4.179643   3.669072   2.373297   1.370642   2.416724
     8  C    2.486762   1.435479   2.434398   3.720792   4.217660
     9  O    3.680866   2.372517   2.697566   4.073762   4.929969
    10  O    2.899475   2.363420   3.584390   4.784473   5.051194
    11  O    1.365284   2.415987   3.668446   4.174335   3.654034
    12  H    3.398765   2.159993   1.090908   2.113078   3.348657
    13  H    3.401964   3.877563   3.370179   2.154055   1.094275
    14  H    2.145958   3.387622   3.824293   3.380816   2.133720
    15  H    4.616059   4.356257   3.177054   1.926551   2.456458
    16  H    4.351971   3.161864   3.653680   5.031913   5.832410
    17  H    1.910859   3.203493   4.314353   4.561477   3.758621
                    6          7          8          9         10
     6  C    0.000000
     7  O    3.665527   0.000000
     8  C    3.733439   4.804859   0.000000
     9  O    4.764129   4.846810   1.366217   0.000000
    10  O    4.279644   5.953681   1.225627   2.236564   0.000000
    11  O    2.381953   5.544720   2.892939   4.250431   2.700245
    12  H    3.821182   2.559360   2.651585   2.326742   3.877185
    13  H    2.141886   2.678966   5.311934   5.994823   6.128464
    14  H    1.093832   4.546928   4.626324   5.755314   4.979347
    15  H    3.824857   0.966731   5.600300   5.757100   6.699762
    16  H    5.546235   5.811534   1.871135   0.968304   2.223270
    17  H    2.384086   5.914844   3.844225   5.192350   3.649176
                   11         12         13         14         15
    11  O    0.000000
    12  H    4.568152   0.000000
    13  H    4.523209   4.255555   0.000000
    14  H    2.609461   4.914828   2.448546   0.000000
    15  H    5.956639   3.503405   2.296395   4.531734   0.000000
    16  H    4.679932   3.277405   6.909864   6.481636   6.724965
    17  H    0.967207   5.297844   4.446749   2.179849   6.185805
                   16         17
    16  H    0.000000
    17  H    5.645752   0.000000
 Stoichiometry    C7H6O4
 Framework group  C1[X(C7H6O4)]
 Deg. of freedom    45
 Full point group                 C1      NOp   1
 Largest Abelian subgroup         C1      NOp   1
 Largest concise Abelian subgroup C1      NOp   1
                         Standard orientation:                         
 ---------------------------------------------------------------------
 Center     Atomic      Atomic             Coordinates (Angstroms)
 Number     Number       Type             X           Y           Z
 ---------------------------------------------------------------------
      1          6           0        0.250746    1.260955    0.000006
      2          6           0        0.478254   -0.119966   -0.000015
      3          6           0       -0.619443   -0.979661   -0.000025
      4          6           0       -1.919954   -0.522653   -0.000116
      5          6           0       -2.131678    0.847281   -0.000012
      6          6           0       -1.061499    1.714851    0.000038
      7          8           0       -2.950280   -1.426580   -0.000157
      8          6           0        1.797232   -0.686446   -0.000015
      9          8           0        1.856088   -2.051394    0.000281
     10          8           0        2.840424   -0.043087   -0.000295
     11          8           0        1.278561    2.159618    0.000102
     12          1           0       -0.470637   -2.060372   -0.000014
     13          1           0       -3.151180    1.244842    0.000010
     14          1           0       -1.253174    2.791758    0.000116
     15          1           0       -3.796430   -0.959037    0.000961
     16          1           0        2.800312   -2.265994    0.000082
     17          1           0        0.910820    3.054188    0.000237
 ---------------------------------------------------------------------
 Rotational constants (GHZ):      1.7601936      0.9294343      0.6082567
 Standard basis: 6-31+G(d,p) (6D, 7F)
 There are   239 symmetry adapted cartesian basis functions of A   symmetry.
 There are   239 symmetry adapted basis functions of A   symmetry.
   239 basis functions,   394 primitive gaussians,   239 cartesian basis functions
    40 alpha electrons       40 beta electrons
       nuclear repulsion energy       592.9620398780 Hartrees.
 NAtoms=   17 NActive=   17 NUniq=   17 SFac= 1.00D+00 NAtFMM=   60 NAOKFM=F Big=F
 Integral buffers will be    131072 words long.
 Raffenetti 2 integral format.
 Two-electron integral symmetry is turned on.
 One-electron integrals computed using PRISM.
 NBasis=   239 RedAO= T EigKep=  2.85D-06  NBF=   239
 NBsUse=   239 1.00D-06 EigRej= -1.00D+00 NBFU=   239
 Initial guess from the checkpoint file:  "b3lypDHBgd3.chk"
 B after Tr=     0.000000   -0.000000   -0.000000
         Rot=    0.999985   -0.000000    0.000001    0.005528 Ang=  -0.63 deg.
 ExpMin= 4.38D-02 ExpMax= 5.48D+03 ExpMxC= 8.25D+02 IAcc=2 IRadAn=         4 AccDes= 0.00D+00
 Harris functional with IExCor=  402 and IRadAn=       4 diagonalized for initial guess.
 HarFok:  IExCor=  402 AccDes= 0.00D+00 IRadAn=         4 IDoV= 1 UseB2=F ITyADJ=14
 ICtDFT=  3500011 ScaDFX=  1.000000  1.000000  1.000000  1.000000
 FoFCou: FMM=F IPFlag=           0 FMFlag=      100000 FMFlg1=           0
         NFxFlg=           0 DoJE=T BraDBF=F KetDBF=T FulRan=T
         wScrn=  0.000000 ICntrl=     500 IOpCl=  0 I1Cent=   200000004 NGrid=           0
         NMat0=    1 NMatS0=      1 NMatT0=    0 NMatD0=    1 NMtDS0=    0 NMtDT0=    0
 Petite list used in FoFCou.
 Keep R1 ints in memory in canonical form, NReq=418393415.
 Requested convergence on RMS density matrix=1.00D-08 within 128 cycles.
 Requested convergence on MAX density matrix=1.00D-06.
 Requested convergence on             energy=1.00D-06.
 No special actions if energy rises.
 SCF Done:  E(RB3LYP) =  -571.291355750     A.U. after   13 cycles
            NFock= 13  Conv=0.75D-08     -V/T= 2.0087
 Calling FoFJK, ICntrl=      2127 FMM=F ISym2X=0 I1Cent= 0 IOpClX= 0 NMat=1 NMatS=1 NMatT=0.
 ***** Axes restored to original set *****
 -------------------------------------------------------------------
 Center     Atomic                   Forces (Hartrees/Bohr)
 Number     Number              X              Y              Z
 -------------------------------------------------------------------
      1        6           0.008808924   -0.013162217   -0.000007465
      2        6          -0.015938001   -0.001199294    0.000006890
      3        6          -0.008522393    0.022458712    0.000008955
      4        6          -0.005366913   -0.001409735   -0.000016305
      5        6          -0.016351708   -0.007940816    0.000014094
      6        6          -0.001079850   -0.016970994    0.000003296
      7        8          -0.000585702    0.002842051   -0.000002530
      8        6           0.045020245    0.007206600   -0.000014745
      9        8          -0.009157245   -0.001583358    0.000005058
     10        8          -0.007502198    0.002837887    0.000000433
     11        8          -0.000072148    0.004556078    0.000000755
     12        1           0.003170762   -0.004944410   -0.000001188
     13        1           0.003629353    0.001263865   -0.000000617
     14        1           0.000571311    0.003776857   -0.000000678
     15        1           0.000698646    0.001092705    0.000006559
     16        1           0.002357207    0.000544413   -0.000003089
     17        1           0.000319711    0.000631654    0.000000578
 -------------------------------------------------------------------
 Cartesian Forces:  Max     0.045020245 RMS     0.008927013

 GradGradGradGradGradGradGradGradGradGradGradGradGradGradGradGradGradGrad
 Berny optimization.
 Using GEDIIS/GDIIS optimizer.
 FormGI is forming the generalized inverse of G from B-inverse, IUseBI=4.
 Internal  Forces:  Max     0.030868323 RMS     0.005818456
 Search for a local minimum.
 Step number   2 out of a maximum of   85
 All quantities printed in internal units (Hartrees-Bohrs-Radians)
 Mixed Optimization -- RFO/linear search
 Update second derivatives using D2CorX and points    1    2
 DE= -3.40D-02 DEPred=-3.65D-02 R= 9.32D-01
 TightC=F SS=  1.41D+00  RLast= 3.00D-01 DXNew= 5.0454D-01 9.0000D-01
 Trust test= 9.32D-01 RLast= 3.00D-01 DXMaxT set to 5.05D-01
 ITU=  1  0
 Use linear search instead of GDIIS.
     Eigenvalues ---    0.02189   0.02214   0.02243   0.02433   0.02516
     Eigenvalues ---    0.02658   0.02679   0.02733   0.02753   0.02803
     Eigenvalues ---    0.02827   0.02852   0.02868   0.02884   0.15962
     Eigenvalues ---    0.16000   0.16000   0.16000   0.16000   0.16170
     Eigenvalues ---    0.22357   0.23336   0.24476   0.24712   0.25000
     Eigenvalues ---    0.25000   0.25000   0.26445   0.33201   0.33318
     Eigenvalues ---    0.33374   0.48890   0.50016   0.50410   0.52496
     Eigenvalues ---    0.52881   0.53197   0.53214   0.53247   0.53343
     Eigenvalues ---    0.55214   0.56276   0.57082   0.59770   1.01755
 RFO step:  Lambda=-1.91980106D-03 EMin= 2.18917031D-02
 Quartic linear search produced a step of  0.37371.
 Iteration  1 RMS(Cart)=  0.02645871 RMS(Int)=  0.00033247
 Iteration  2 RMS(Cart)=  0.00057866 RMS(Int)=  0.00000191
 Iteration  3 RMS(Cart)=  0.00000008 RMS(Int)=  0.00000191
 Variable       Old X    -DE/DX   Delta X   Delta X   Delta X     New X
                                 (Linear)    (Quad)   (Total)
    R1        2.64474   0.01387   0.03326  -0.00420   0.02906   2.67380
    R2        2.62394   0.01300   0.03063  -0.00408   0.02655   2.65049
    R3        2.58001  -0.00259   0.00204  -0.00915  -0.00711   2.57290
    R4        2.63481   0.01360   0.03251  -0.00457   0.02794   2.66275
    R5        2.71266   0.03087   0.04786   0.02604   0.07391   2.78657
    R6        2.60493   0.01145   0.02462  -0.00108   0.02354   2.62848
    R7        2.06152  -0.00498  -0.00848  -0.01036  -0.01884   2.04268
    R8        2.61954   0.01402   0.03214  -0.00388   0.02825   2.64779
    R9        2.59014   0.00203   0.00717  -0.00313   0.00404   2.59417
   R10        2.60341   0.01328   0.02725  -0.00009   0.02715   2.63056
   R11        2.06788  -0.00378  -0.00599  -0.00838  -0.01437   2.05351
   R12        2.06704  -0.00379  -0.00690  -0.00740  -0.01430   2.05274
   R13        1.82686  -0.00121  -0.00292   0.00031  -0.00262   1.82424
   R14        2.58178  -0.00032   0.00556  -0.00733  -0.00176   2.58001
   R15        2.31610  -0.00802   0.00930  -0.02195  -0.01265   2.30345
   R16        1.82983   0.00239  -0.00165   0.00808   0.00643   1.83626
   R17        1.82776  -0.00069  -0.00254   0.00119  -0.00135   1.82640
    A1        2.06709   0.00225   0.00284   0.00947   0.01230   2.07940
    A2        2.12597  -0.00709  -0.01550  -0.02051  -0.03600   2.08997
    A3        2.09012   0.00484   0.01266   0.01104   0.02370   2.11382
    A4        2.07191  -0.00003  -0.00188   0.00230   0.00042   2.07234
    A5        2.13974  -0.00327  -0.00125  -0.01643  -0.01768   2.12207
    A6        2.07153   0.00329   0.00312   0.01413   0.01725   2.08878
    A7        2.13926  -0.00290  -0.00242  -0.01466  -0.01708   2.12219
    A8        2.09836  -0.00176  -0.00782  -0.00897  -0.01679   2.08157
    A9        2.04556   0.00466   0.01025   0.02363   0.03387   2.07943
   A10        2.06206   0.00390   0.00474   0.01645   0.02119   2.08325
   A11        2.08352  -0.00670  -0.01530  -0.01871  -0.03401   2.04952
   A12        2.13760   0.00279   0.01056   0.00226   0.01282   2.15042
   A13        2.09868  -0.00145  -0.00109  -0.00633  -0.00743   2.09125
   A14        2.09595   0.00146   0.00266   0.00684   0.00949   2.10545
   A15        2.08856  -0.00001  -0.00157  -0.00050  -0.00207   2.08649
   A16        2.12736  -0.00178  -0.00219  -0.00722  -0.00941   2.11795
   A17        2.07995   0.00041   0.00027   0.00051   0.00078   2.08073
   A18        2.07587   0.00137   0.00192   0.00671   0.00863   2.08451
   A19        1.91665   0.00080   0.00392   0.00206   0.00598   1.92263
   A20        2.01955  -0.01116  -0.04125  -0.01176  -0.05301   1.96654
   A21        2.18331   0.00518   0.00401   0.02348   0.02749   2.21080
   A22        2.08033   0.00598   0.03725  -0.01172   0.02552   2.10585
   A23        1.83737  -0.00062  -0.01844   0.01706  -0.00139   1.83598
   A24        1.89923   0.00030  -0.00255   0.00562   0.00307   1.90230
    D1        0.00002  -0.00000  -0.00001  -0.00006  -0.00007  -0.00005
    D2       -3.14156  -0.00000  -0.00001  -0.00006  -0.00007   3.14155
    D3        3.14152   0.00000   0.00001   0.00005   0.00005   3.14157
    D4       -0.00006   0.00000   0.00001   0.00005   0.00005  -0.00001
    D5       -0.00005   0.00000   0.00001   0.00004   0.00005  -0.00000
    D6        3.14153   0.00000   0.00001   0.00008   0.00009  -3.14156
    D7       -3.14156  -0.00000  -0.00001  -0.00006  -0.00007   3.14156
    D8        0.00003  -0.00000  -0.00000  -0.00003  -0.00003  -0.00000
    D9       -3.14144  -0.00000  -0.00001  -0.00009  -0.00010  -3.14154
   D10        0.00006   0.00000   0.00000   0.00002   0.00002   0.00008
   D11        0.00009  -0.00000  -0.00000  -0.00003  -0.00003   0.00006
   D12       -3.14156   0.00000   0.00000   0.00001   0.00001  -3.14156
   D13       -3.14152  -0.00000  -0.00000  -0.00003  -0.00003  -3.14155
   D14        0.00002   0.00000   0.00000   0.00000   0.00001   0.00003
   D15        3.14133  -0.00000  -0.00001  -0.00004  -0.00004   3.14129
   D16       -0.00030   0.00000   0.00001   0.00004   0.00005  -0.00025
   D17       -0.00025  -0.00000  -0.00001  -0.00003  -0.00004  -0.00029
   D18        3.14131   0.00000   0.00001   0.00004   0.00005   3.14135
   D19       -0.00015   0.00000   0.00001   0.00013   0.00014  -0.00001
   D20        3.14156  -0.00000  -0.00001  -0.00012  -0.00013   3.14143
   D21        3.14150   0.00000   0.00001   0.00010   0.00011  -3.14158
   D22        0.00002  -0.00000  -0.00002  -0.00015  -0.00016  -0.00014
   D23        0.00012  -0.00000  -0.00002  -0.00014  -0.00016  -0.00004
   D24       -3.14150  -0.00000  -0.00001  -0.00013  -0.00015   3.14154
   D25        3.14158   0.00000   0.00001   0.00011   0.00012  -3.14148
   D26       -0.00003   0.00000   0.00001   0.00012   0.00013   0.00010
   D27        3.14029   0.00001   0.00003   0.00037   0.00040   3.14070
   D28       -0.00117   0.00000   0.00000   0.00012   0.00012  -0.00105
   D29       -0.00002   0.00000   0.00001   0.00006   0.00007   0.00005
   D30        3.14159   0.00000   0.00000   0.00002   0.00002  -3.14157
   D31       -3.14159   0.00000   0.00001   0.00005   0.00006  -3.14153
   D32        0.00002   0.00000   0.00000   0.00002   0.00002   0.00003
   D33        3.14142   0.00000   0.00001   0.00015   0.00016   3.14159
   D34       -0.00013   0.00000   0.00000   0.00008   0.00008  -0.00005
         Item               Value     Threshold  Converged?
 Maximum Force            0.030868     0.000450     NO 
 RMS     Force            0.005818     0.000300     NO 
 Maximum Displacement     0.084696     0.001800     NO 
 RMS     Displacement     0.026397     0.001200     NO 
 Predicted change in Energy=-2.892341D-03
 GradGradGradGradGradGradGradGradGradGradGradGradGradGradGradGradGradGrad

                          Input orientation:                          
 ---------------------------------------------------------------------
 Center     Atomic      Atomic             Coordinates (Angstroms)
 Number     Number       Type             X           Y           Z
 ---------------------------------------------------------------------
      1          6           0        0.700617   -1.063432   -0.000461
      2          6           0        0.728544    0.351208   -0.000747
      3          6           0       -0.493372    1.052908   -0.000404
      4          6           0       -1.715276    0.388349    0.000276
      5          6           0       -1.735353   -1.012656    0.000616
      6          6           0       -0.537674   -1.722109    0.000218
      7          8           0       -2.852946    1.156609    0.000762
      8          6           0        1.999688    1.098609   -0.001408
      9          8           0        1.814866    2.451325   -0.001974
     10          8           0        3.122751    0.624760   -0.001524
     11          8           0        1.869166   -1.762167   -0.000808
     12          1           0       -0.482017    2.133787   -0.000654
     13          1           0       -2.678213   -1.552903    0.001200
     14          1           0       -0.560561   -2.808133    0.000465
     15          1           0       -3.635798    0.591777    0.000402
     16          1           0        2.709497    2.830598   -0.002365
     17          1           0        1.670142   -2.707945   -0.000587
 ---------------------------------------------------------------------
                    Distance matrix (angstroms):
                    1          2          3          4          5
     1  C    0.000000
     2  C    1.414916   0.000000
     3  C    2.429919   1.409065   0.000000
     4  C    2.818547   2.444103   1.390931   0.000000
     5  C    2.436500   2.816188   2.410202   1.401149   0.000000
     6  C    1.402577   2.429394   2.775371   2.416770   1.392034
     7  O    4.190035   3.670933   2.361852   1.372777   2.440231
     8  C    2.522302   1.474590   2.493479   3.782252   4.290452
     9  O    3.687149   2.364442   2.698803   4.088738   4.960164
    10  O    2.952410   2.409784   3.641381   4.843800   5.126628
    11  O    1.361520   2.401535   3.675083   4.180065   3.681620
    12  H    3.408934   2.154773   1.080938   2.137167   3.386880
    13  H    3.414100   3.902773   3.400556   2.166958   1.086670
    14  H    2.152801   3.412217   3.861626   3.398656   2.145664
    15  H    4.641574   4.370967   3.176079   1.931266   2.487146
    16  H    4.381675   3.173571   3.663135   5.054029   5.875994
    17  H    1.909031   3.200785   4.338757   4.587820   3.804130
                    6          7          8          9         10
     6  C    0.000000
     7  O    3.694253   0.000000
     8  C    3.794030   4.852982   0.000000
     9  O    4.790825   4.844045   1.365284   0.000000
    10  O    4.348162   5.999319   1.218935   2.246531   0.000000
    11  O    2.407174   5.551360   2.863752   4.213841   2.696089
    12  H    3.856298   2.564407   2.688951   2.318730   3.907879
    13  H    2.147216   2.715140   5.377107   6.018439   6.196241
    14  H    1.086265   4.579761   4.670922   5.771010   5.035032
    15  H    3.866838   0.965345   5.658231   5.759137   6.758629
    16  H    5.592073   5.808875   1.871795   0.971706   2.244215
    17  H    2.417918   5.949210   3.820792   5.161299   3.635519
                   11         12         13         14         15
    11  O    0.000000
    12  H    4.550442   0.000000
    13  H    4.552192   4.291266   0.000000
    14  H    2.645301   4.942544   2.461717   0.000000
    15  H    5.987126   3.510573   2.348749   4.584373   0.000000
    16  H    4.669009   3.266697   6.945683   6.518326   6.728677
    17  H    0.966492   5.298505   4.499146   2.232952   6.248293
                   16         17
    16  H    0.000000
    17  H    5.635221   0.000000
 Stoichiometry    C7H6O4
 Framework group  C1[X(C7H6O4)]
 Deg. of freedom    45
 Full point group                 C1      NOp   1
 Largest Abelian subgroup         C1      NOp   1
 Largest concise Abelian subgroup C1      NOp   1
                         Standard orientation:                         
 ---------------------------------------------------------------------
 Center     Atomic      Atomic             Coordinates (Angstroms)
 Number     Number       Type             X           Y           Z
 ---------------------------------------------------------------------
      1          6           0        0.236245    1.272330    0.000055
      2          6           0        0.472615   -0.122703   -0.000004
      3          6           0       -0.632381   -0.997030    0.000002
      4          6           0       -1.938972   -0.520054   -0.000005
      5          6           0       -2.165565    0.862652   -0.000006
      6          6           0       -1.085687    1.741071    0.000054
      7          8           0       -2.950822   -1.447781   -0.000194
      8          6           0        1.840132   -0.674348   -0.000056
      9          8           0        1.856944   -2.039528    0.000268
     10          8           0        2.880977   -0.039965   -0.000302
     11          8           0        1.288895    2.135849    0.000075
     12          1           0       -0.461653   -2.064401   -0.000008
     13          1           0       -3.177824    1.257854   -0.000065
     14          1           0       -1.268579    2.811828    0.000073
     15          1           0       -3.808451   -1.004652    0.000631
     16          1           0        2.797747   -2.282636    0.000193
     17          1           0        0.952488    3.041905    0.000161
 ---------------------------------------------------------------------
 Rotational constants (GHZ):      1.7555177      0.9130578      0.6006535
 Standard basis: 6-31+G(d,p) (6D, 7F)
 There are   239 symmetry adapted cartesian basis functions of A   symmetry.
 There are   239 symmetry adapted basis functions of A   symmetry.
   239 basis functions,   394 primitive gaussians,   239 cartesian basis functions
    40 alpha electrons       40 beta electrons
       nuclear repulsion energy       589.3994201895 Hartrees.
 NAtoms=   17 NActive=   17 NUniq=   17 SFac= 1.00D+00 NAtFMM=   60 NAOKFM=F Big=F
 Integral buffers will be    131072 words long.
 Raffenetti 2 integral format.
 Two-electron integral symmetry is turned on.
 One-electron integrals computed using PRISM.
 NBasis=   239 RedAO= T EigKep=  3.24D-06  NBF=   239
 NBsUse=   239 1.00D-06 EigRej= -1.00D+00 NBFU=   239
 Initial guess from the checkpoint file:  "b3lypDHBgd3.chk"
 B after Tr=    -0.000000    0.000000    0.000000
         Rot=    1.000000   -0.000000    0.000000   -0.000808 Ang=  -0.09 deg.
 ExpMin= 4.38D-02 ExpMax= 5.48D+03 ExpMxC= 8.25D+02 IAcc=2 IRadAn=         4 AccDes= 0.00D+00
 Harris functional with IExCor=  402 and IRadAn=       4 diagonalized for initial guess.
 HarFok:  IExCor=  402 AccDes= 0.00D+00 IRadAn=         4 IDoV= 1 UseB2=F ITyADJ=14
 ICtDFT=  3500011 ScaDFX=  1.000000  1.000000  1.000000  1.000000
 FoFCou: FMM=F IPFlag=           0 FMFlag=      100000 FMFlg1=           0
         NFxFlg=           0 DoJE=T BraDBF=F KetDBF=T FulRan=T
         wScrn=  0.000000 ICntrl=     500 IOpCl=  0 I1Cent=   200000004 NGrid=           0
         NMat0=    1 NMatS0=      1 NMatT0=    0 NMatD0=    1 NMtDS0=    0 NMtDT0=    0
 Petite list used in FoFCou.
 Keep R1 ints in memory in canonical form, NReq=418393415.
 Requested convergence on RMS density matrix=1.00D-08 within 128 cycles.
 Requested convergence on MAX density matrix=1.00D-06.
 Requested convergence on             energy=1.00D-06.
 No special actions if energy rises.
 SCF Done:  E(RB3LYP) =  -571.294852385     A.U. after   12 cycles
            NFock= 12  Conv=0.90D-08     -V/T= 2.0092
 Calling FoFJK, ICntrl=      2127 FMM=F ISym2X=0 I1Cent= 0 IOpClX= 0 NMat=1 NMatS=1 NMatT=0.
 ***** Axes restored to original set *****
 -------------------------------------------------------------------
 Center     Atomic                   Forces (Hartrees/Bohr)
 Number     Number              X              Y              Z
 -------------------------------------------------------------------
      1        6          -0.000096837    0.000192947    0.000005651
      2        6          -0.008247074   -0.003144458    0.000002981
      3        6           0.002044630   -0.001377351    0.000000085
      4        6           0.001484702   -0.001981432    0.000007213
      5        6           0.000403611    0.002683759   -0.000003461
      6        6           0.001739046    0.001286607   -0.000003065
      7        8          -0.000671473    0.000099105   -0.000007280
      8        6           0.010745115   -0.000115435   -0.000011127
      9        8           0.000457181    0.000662528    0.000002227
     10        8          -0.005257793    0.001973730    0.000003557
     11        8          -0.001115835   -0.000576689   -0.000001182
     12        1          -0.000320977    0.001133018    0.000000396
     13        1          -0.000668594   -0.000097804    0.000000267
     14        1           0.000041420   -0.000886084    0.000000153
     15        1          -0.000409383   -0.000077567    0.000003480
     16        1          -0.000634737    0.000679704    0.000000041
     17        1           0.000507000   -0.000454579    0.000000064
 -------------------------------------------------------------------
 Cartesian Forces:  Max     0.010745115 RMS     0.002240586

 GradGradGradGradGradGradGradGradGradGradGradGradGradGradGradGradGradGrad
 Berny optimization.
 Using GEDIIS/GDIIS optimizer.
 FormGI is forming the generalized inverse of G from B-inverse, IUseBI=4.
 Internal  Forces:  Max     0.006196836 RMS     0.001144121
 Search for a local minimum.
 Step number   3 out of a maximum of   85
 All quantities printed in internal units (Hartrees-Bohrs-Radians)
 Mixed Optimization -- RFO/linear search
 Update second derivatives using D2CorX and points    1    2    3
 DE= -3.50D-03 DEPred=-2.89D-03 R= 1.21D+00
 TightC=F SS=  1.41D+00  RLast= 1.47D-01 DXNew= 8.4853D-01 4.4108D-01
 Trust test= 1.21D+00 RLast= 1.47D-01 DXMaxT set to 5.05D-01
 ITU=  1  1  0
 Use linear search instead of GDIIS.
     Eigenvalues ---    0.02189   0.02214   0.02243   0.02433   0.02516
     Eigenvalues ---    0.02660   0.02680   0.02736   0.02753   0.02804
     Eigenvalues ---    0.02827   0.02852   0.02867   0.02884   0.15791
     Eigenvalues ---    0.16000   0.16000   0.16000   0.16032   0.16208
     Eigenvalues ---    0.22071   0.22689   0.24227   0.24643   0.25000
     Eigenvalues ---    0.25000   0.25237   0.25871   0.33305   0.33371
     Eigenvalues ---    0.33497   0.42281   0.50227   0.50405   0.52524
     Eigenvalues ---    0.52881   0.53204   0.53221   0.53251   0.53573
     Eigenvalues ---    0.55183   0.56282   0.56985   0.61122   1.02823
 RFO step:  Lambda=-1.97673991D-04 EMin= 2.18917030D-02
 Quartic linear search produced a step of  0.04389.
 Iteration  1 RMS(Cart)=  0.00609941 RMS(Int)=  0.00003132
 Iteration  2 RMS(Cart)=  0.00003470 RMS(Int)=  0.00000009
 Iteration  3 RMS(Cart)=  0.00000000 RMS(Int)=  0.00000009
 Variable       Old X    -DE/DX   Delta X   Delta X   Delta X     New X
                                 (Linear)    (Quad)   (Total)
    R1        2.67380   0.00007   0.00128   0.00034   0.00162   2.67542
    R2        2.65049  -0.00172   0.00117  -0.00299  -0.00183   2.64866
    R3        2.57290   0.00001  -0.00031   0.00019  -0.00012   2.57278
    R4        2.66275  -0.00181   0.00123  -0.00325  -0.00202   2.66073
    R5        2.78657   0.00620   0.00324   0.01215   0.01540   2.80197
    R6        2.62848  -0.00045   0.00103  -0.00082   0.00021   2.62869
    R7        2.04268   0.00113  -0.00083   0.00364   0.00282   2.04549
    R8        2.64779  -0.00224   0.00124  -0.00399  -0.00275   2.64504
    R9        2.59417   0.00090   0.00018   0.00184   0.00202   2.59619
   R10        2.63056   0.00038   0.00119   0.00074   0.00193   2.63249
   R11        2.05351   0.00063  -0.00063   0.00207   0.00144   2.05495
   R12        2.05274   0.00089  -0.00063   0.00285   0.00223   2.05497
   R13        1.82424   0.00038  -0.00011   0.00074   0.00062   1.82486
   R14        2.58001   0.00137  -0.00008   0.00280   0.00272   2.58274
   R15        2.30345  -0.00562  -0.00056  -0.00550  -0.00605   2.29740
   R16        1.83626  -0.00032   0.00028  -0.00078  -0.00049   1.83576
   R17        1.82640   0.00034  -0.00006   0.00063   0.00057   1.82697
    A1        2.07940  -0.00060   0.00054  -0.00235  -0.00181   2.07758
    A2        2.08997   0.00128  -0.00158   0.00541   0.00383   2.09379
    A3        2.11382  -0.00068   0.00104  -0.00305  -0.00201   2.11181
    A4        2.07234   0.00074   0.00002   0.00318   0.00320   2.07554
    A5        2.12207   0.00032  -0.00078   0.00152   0.00075   2.12281
    A6        2.08878  -0.00107   0.00076  -0.00471  -0.00395   2.08483
    A7        2.12219  -0.00043  -0.00075  -0.00193  -0.00268   2.11950
    A8        2.08157   0.00056  -0.00074   0.00333   0.00259   2.08417
    A9        2.07943  -0.00013   0.00149  -0.00140   0.00009   2.07952
   A10        2.08325   0.00013   0.00093   0.00010   0.00103   2.08428
   A11        2.04952   0.00056  -0.00149   0.00262   0.00113   2.05064
   A12        2.15042  -0.00069   0.00056  -0.00272  -0.00215   2.14826
   A13        2.09125   0.00029  -0.00033   0.00135   0.00103   2.09227
   A14        2.10545  -0.00039   0.00042  -0.00230  -0.00189   2.10356
   A15        2.08649   0.00010  -0.00009   0.00095   0.00086   2.08735
   A16        2.11795  -0.00013  -0.00041  -0.00034  -0.00076   2.11720
   A17        2.08073  -0.00000   0.00003  -0.00023  -0.00020   2.08053
   A18        2.08451   0.00013   0.00038   0.00058   0.00096   2.08546
   A19        1.92263   0.00031   0.00026   0.00204   0.00230   1.92493
   A20        1.96654  -0.00092  -0.00233  -0.00392  -0.00624   1.96029
   A21        2.21080   0.00021   0.00121   0.00050   0.00171   2.21251
   A22        2.10585   0.00071   0.00112   0.00342   0.00454   2.11039
   A23        1.83598   0.00162  -0.00006   0.01000   0.00994   1.84592
   A24        1.90230   0.00109   0.00013   0.00692   0.00706   1.90936
    D1       -0.00005   0.00000  -0.00000   0.00004   0.00004  -0.00002
    D2        3.14155   0.00000  -0.00000   0.00003   0.00003   3.14158
    D3        3.14157  -0.00000   0.00000  -0.00002  -0.00001   3.14156
    D4       -0.00001  -0.00000   0.00000  -0.00003  -0.00002  -0.00003
    D5       -0.00000  -0.00000   0.00000  -0.00003  -0.00003  -0.00003
    D6       -3.14156  -0.00000   0.00000  -0.00003  -0.00003   3.14159
    D7        3.14156   0.00000  -0.00000   0.00003   0.00003   3.14159
    D8       -0.00000   0.00000  -0.00000   0.00003   0.00002   0.00002
    D9       -3.14154   0.00000  -0.00000   0.00002   0.00002  -3.14153
   D10        0.00008  -0.00000   0.00000  -0.00004  -0.00004   0.00005
   D11        0.00006  -0.00000  -0.00000  -0.00002  -0.00002   0.00003
   D12       -3.14156  -0.00000   0.00000  -0.00001  -0.00001  -3.14156
   D13       -3.14155  -0.00000  -0.00000  -0.00001  -0.00002  -3.14156
   D14        0.00003   0.00000   0.00000   0.00000   0.00000   0.00003
   D15        3.14129   0.00000  -0.00000   0.00011   0.00011   3.14140
   D16       -0.00025  -0.00000   0.00000  -0.00007  -0.00007  -0.00032
   D17       -0.00029   0.00000  -0.00000   0.00010   0.00010  -0.00019
   D18        3.14135  -0.00000   0.00000  -0.00008  -0.00008   3.14127
   D19       -0.00001  -0.00000   0.00001  -0.00001  -0.00000  -0.00001
   D20        3.14143   0.00000  -0.00001   0.00007   0.00006   3.14149
   D21       -3.14158  -0.00000   0.00000  -0.00002  -0.00002   3.14158
   D22       -0.00014   0.00000  -0.00001   0.00005   0.00004  -0.00009
   D23       -0.00004   0.00000  -0.00001   0.00002   0.00001  -0.00003
   D24        3.14154   0.00000  -0.00001   0.00003   0.00002   3.14156
   D25       -3.14148  -0.00000   0.00001  -0.00006  -0.00005  -3.14153
   D26        0.00010  -0.00000   0.00001  -0.00005  -0.00004   0.00006
   D27        3.14070   0.00000   0.00002   0.00011   0.00012   3.14082
   D28       -0.00105   0.00000   0.00001   0.00018   0.00019  -0.00086
   D29        0.00005  -0.00000   0.00000  -0.00000  -0.00000   0.00005
   D30       -3.14157   0.00000   0.00000   0.00000   0.00000  -3.14157
   D31       -3.14153  -0.00000   0.00000  -0.00001  -0.00001  -3.14154
   D32        0.00003  -0.00000   0.00000  -0.00001  -0.00001   0.00003
   D33        3.14159  -0.00000   0.00001  -0.00009  -0.00008   3.14150
   D34       -0.00005   0.00000   0.00000   0.00008   0.00008   0.00003
         Item               Value     Threshold  Converged?
 Maximum Force            0.006197     0.000450     NO 
 RMS     Force            0.001144     0.000300     NO 
 Maximum Displacement     0.030620     0.001800     NO 
 RMS     Displacement     0.006098     0.001200     NO 
 Predicted change in Energy=-1.043798D-04
 GradGradGradGradGradGradGradGradGradGradGradGradGradGradGradGradGradGrad

                          Input orientation:                          
 ---------------------------------------------------------------------
 Center     Atomic      Atomic             Coordinates (Angstroms)
 Number     Number       Type             X           Y           Z
 ---------------------------------------------------------------------
      1          6           0        0.700358   -1.068126   -0.000448
      2          6           0        0.728396    0.347366   -0.000773
      3          6           0       -0.490297    1.052519   -0.000421
      4          6           0       -1.712686    0.388621    0.000277
      5          6           0       -1.734995   -1.010896    0.000623
      6          6           0       -0.538314   -1.724024    0.000233
      7          8           0       -2.851661    1.156860    0.000698
      8          6           0        2.006050    1.099770   -0.001476
      9          8           0        1.811657    2.452600   -0.001939
     10          8           0        3.127289    0.629844   -0.001530
     11          8           0        1.866124   -1.771370   -0.000820
     12          1           0       -0.478199    2.134881   -0.000694
     13          1           0       -2.680399   -1.548218    0.001200
     14          1           0       -0.563050   -2.811185    0.000483
     15          1           0       -3.635769    0.593212    0.000471
     16          1           0        2.699525    2.846802   -0.002294
     17          1           0        1.670034   -2.718068   -0.000582
 ---------------------------------------------------------------------
                    Distance matrix (angstroms):
                    1          2          3          4          5
     1  C    0.000000
     2  C    1.415770   0.000000
     3  C    2.432036   1.407996   0.000000
     4  C    2.818669   2.441431   1.391042   0.000000
     5  C    2.436026   2.813036   2.409763   1.399694   0.000000
     6  C    1.401610   2.428006   2.776959   2.417110   1.393053
     7  O    4.191349   3.670434   2.363668   1.373847   2.438464
     8  C    2.530732   1.482738   2.496795   3.786124   4.295385
     9  O    3.691951   2.367586   2.694294   4.084239   4.957273
    10  O    2.961942   2.415468   3.642195   4.845984   5.131651
    11  O    1.361455   2.404884   3.677916   4.180125   3.680540
    12  H    3.412954   2.156636   1.082429   2.138547   3.387543
    13  H    3.414676   3.900401   3.400057   2.165136   1.087430
    14  H    2.152779   3.412372   3.864390   3.400062   2.148138
    15  H    4.643495   4.371084   3.178830   1.933935   2.487188
    16  H    4.395831   3.183164   3.659839   5.050769   5.877653
    17  H    1.913786   3.206800   4.345614   4.592854   3.809024
                    6          7          8          9         10
     6  C    0.000000
     7  O    3.694735   0.000000
     8  C    3.801000   4.858047   0.000000
     9  O    4.792343   4.839988   1.366725   0.000000
    10  O    4.356300   6.002133   1.215733   2.247960   0.000000
    11  O    2.404904   5.552659   2.874548   4.224321   2.712263
    12  H    3.859373   2.567070   2.691273   2.311793   3.907004
    13  H    2.149288   2.710494   5.382811   6.015407   6.202678
    14  H    1.087443   4.580734   4.679300   5.774658   5.045720
    15  H    3.868309   0.965673   5.664515   5.756022   6.763158
    16  H    5.601434   5.802722   1.879635   0.971445   2.257849
    17  H    2.421761   5.954897   3.832596   5.172607   3.651316
                   11         12         13         14         15
    11  O    0.000000
    12  H    4.555727   0.000000
    13  H    4.551996   4.291259   0.000000
    14  H    2.642366   4.946794   2.465412   0.000000
    15  H    5.988495   3.513829   2.344878   4.586014   0.000000
    16  H    4.692768   3.256496   6.946927   6.531250   6.724183
    17  H    0.966793   5.307167   4.504978   2.235025   6.254288
                   16         17
    16  H    0.000000
    17  H    5.659296   0.000000
 Stoichiometry    C7H6O4
 Framework group  C1[X(C7H6O4)]
 Deg. of freedom    45
 Full point group                 C1      NOp   1
 Largest Abelian subgroup         C1      NOp   1
 Largest concise Abelian subgroup C1      NOp   1
                         Standard orientation:                         
 ---------------------------------------------------------------------
 Center     Atomic      Atomic             Coordinates (Angstroms)
 Number     Number       Type             X           Y           Z
[...]
 ! D30   D(4,5,6,14)          -179.9993         -DE/DX =    0.0                 !
 ! D31   D(13,5,6,1)          -179.9979         -DE/DX =    0.0                 !
 ! D32   D(13,5,6,14)            0.0011         -DE/DX =    0.0                 !
 ! D33   D(2,8,9,16)           179.9855         -DE/DX =    0.0                 !
 ! D34   D(10,8,9,16)            0.0101         -DE/DX =    0.0                 !
 --------------------------------------------------------------------------------
 GradGradGradGradGradGradGradGradGradGradGradGradGradGradGradGradGradGrad

 1\1\ WCSS.PL-BEM-C612-X99\Freq\RB3LYP\6-31+G(d,p)\C7H6O4\PHZD\19-Jun-2
 024\0\\#N Geom=AllCheck Guess=TCheck SCRF=Check GenChk RB3LYP/6-31+G(d
 ,p) Freq\\[No Title]\\0,1\C,0.6992418808,-1.0675506553,-0.0004745313\C
 ,0.7257057203,0.3467807852,-0.0008497695\C,-0.4902514065,1.0520882687,
 -0.0004909948\C,-1.712623972,0.3879057144,0.000239098\C,-1.7348623496,
 -1.0098879682,0.0006182106\C,-0.5382821824,-1.7230907426,0.000242796\O
 ,-2.852357871,1.1556621204,0.0006156968\C,2.0085807352,1.0991286009,-0
 .001604805\O,1.8138657997,2.4521559761,-0.0018678052\O,3.1268696128,0.
 6272103833,-0.0015267081\O,1.8660443801,-1.7689762583,-0.0008337915\H,
 -0.479454386,2.1344508472,-0.0007888646\H,-2.680656997,-1.5469575871,0
 .0012104021\H,-0.5635966858,-2.8103756844,0.0005291291\H,-3.6350565974
 ,0.5900611715,0.0006504106\H,2.700826505,2.8474906959,-0.002121036\H,1
 .6700708136,-2.7155076678,-0.000539437\\Version=ES64L-G09RevE.01\State
 =1-A\HF=-571.2950043\RMSD=6.111e-09\RMSF=6.710e-05\ZeroPoint=0.1232149
 \Thermal=0.132941\Dipole=-1.3731159,-0.9334079,0.0003851\DipoleDeriv=0
 .8982917,-0.8459944,-0.0001842,-0.4433856,0.4406884,0.000123,-0.000225
 1,0.0003321,0.0821672,-0.545734,-0.4914012,0.0003235,-0.0451022,-0.198
 5222,0.0000631,0.0002273,0.0002413,-0.0170262,0.0454925,0.4950206,-0.0
 001912,-0.176535,-0.0012526,0.0000462,-0.0000108,-0.0001844,-0.1187279
 ,1.1048529,-0.8321875,-0.0002895,-0.8210972,0.0776974,0.0003356,-0.000
 3204,0.0003793,0.0676584,-0.0666294,-0.1821287,-0.0000132,0.3531262,0.
 1782613,-0.0002448,-0.0000966,0.000006,-0.139206,-0.1821516,0.4462424,
 -0.0000932,-0.1441888,0.0838169,0.0000022,0.0000249,-0.0002981,-0.1717
 356,-1.3029862,0.5987636,0.000321,0.6614736,-0.4576072,-0.0001592,0.00
 04512,-0.0002185,-0.3770784,1.8867705,0.3195452,-0.0005871,0.2803071,1
 .8789383,-0.0006693,-0.0005405,-0.0006201,0.2960321,-0.4443201,-0.1022
 298,0.0000653,-0.1333393,-1.4564215,0.0004513,0.0001022,0.000287,-0.37
 95803,-1.3498558,0.0382278,0.0002978,0.0026341,-0.639732,0.000092,0.00
 016,0.0001603,-0.3536141,-0.9400287,0.7599656,0.0001127,0.6155138,-0.6
 677892,-0.000196,0.0001362,-0.0002782,-0.334714,0.1216069,0.0201292,0.
 0000088,0.0221809,0.0401526,0.0000188,-0.0000049,0.0000139,0.1425041,-
 0.0950874,-0.0564217,0.0001219,-0.0541235,0.0547306,0.0000521,0.000129
 3,0.0000524,0.1438368,0.0507733,0.0404979,0.0000337,0.0223956,-0.10952
 57,0.0000533,0.0000263,0.0000473,0.1484348,0.3504498,-0.0624401,-0.000
 0083,-0.1153404,0.1620731,-0.0000015,-0.0000954,0.0000247,0.3395067,0.
 1960956,0.0210449,0.0000192,0.0781107,0.3720411,-0.0000321,-0.0000146,
 -0.0000374,0.3400663,0.27246,-0.1666339,0.0000629,-0.10263,0.2424506,0
 .0000651,0.0000507,0.0000924,0.3314762\Polar=129.8150338,3.5564932,112
 .8031945,-0.031362,-0.0169083,52.1098724\PG=C01 [X(C7H6O4)]\NImag=0\\0
 .68054008,-0.00922519,0.68928924,-0.00023794,-0.00012982,0.14981018,-0
 .13401694,-0.03914541,0.00004188,0.64582555,0.01077241,-0.28391587,0.0
 0005139,-0.02876937,0.67302813,0.00002927,0.00007518,-0.06333144,-0.00
 020945,-0.00012904,0.13367374,0.04312187,0.07246130,-0.00003924,-0.262
 32107,0.06694787,0.00008129,0.69231255,0.03165034,-0.02418120,-0.00000
 784,0.11380482,-0.17874015,-0.00001476,0.00881690,0.74702887,-0.000025
 75,-0.00002625,-0.00068941,0.00006995,0.00000511,-0.05123716,-0.000260
 46,-0.00017180,0.12551667,-0.02708064,-0.03443887,0.00002223,-0.055166
 56,0.02249983,0.00001847,-0.27188609,-0.12984501,0.00012836,0.70242513
 ,-0.03800665,-0.05615159,0.00003180,-0.02513128,0.05891749,-0.00000688
 ,-0.05708813,-0.18467100,0.00005808,0.01609120,0.69077875,0.00002425,0
 .00003207,0.00164249,0.00003172,-0.00002501,-0.00170634,0.00010868,0.0
 0008888,-0.06134197,-0.00025055,-0.00013301,0.13571997,-0.05838134,-0.
 01950742,0.00003039,-0.01596616,0.02090791,0.00000263,0.03052508,-0.02
 627913,-0.00000416,-0.13194380,-0.05435138,0.00004983,0.73317868,0.029
 83765,0.06660765,-0.00003137,0.02470053,-0.04382259,0.00000161,-0.0707
 8977,-0.02445726,0.00003897,0.02404873,-0.31807630,0.00005439,0.016110
 79,0.68376489,0.00001746,-0.00000897,-0.00279799,0.00000091,0.00000167
 ,0.00241942,0.00000634,0.00002014,0.00257174,0.00002748,0.00009231,-0.
 05718250,-0.00029627,-0.00015430,0.11706767,-0.25525557,-0.04616249,0.
 00009842,0.02686989,-0.06398886,0.00000611,-0.06305955,-0.00224157,0.0
 0002863,0.04322088,0.07776031,-0.00004343,-0.29320351,0.07148734,0.000
 09799,0.68264832,-0.12005188,-0.18081275,0.00008360,-0.02283647,-0.019
 05421,0.00001706,-0.00240137,-0.00351177,0.00000204,0.02971692,-0.0279
 3544,-0.00000805,0.13166299,-0.18316466,-0.00002557,-0.02135757,0.7299
 9982,0.00011572,0.00004829,-0.06104973,-0.00000379,0.00003728,0.004437
 55,0.00003080,0.00000223,0.00232867,-0.00002883,-0.00002799,-0.0011299
 5,0.00008029,0.00000194,-0.04721433,-0.00025339,-0.00014478,0.11279269
 ,0.00699529,0.00106443,-0.00000470,0.00095007,-0.00517716,0.00000234,-
 0.05587452,0.02373419,0.00002365,-0.23320318,0.11757301,0.00006386,-0.
 00681005,0.00852742,0.00000576,-0.00574714,-0.00133040,0.00000540,0.63
 937847,0.00086388,0.00532404,-0.00000217,0.00054585,-0.00772671,0.0000
 0455,-0.01546075,0.01912226,0.00000458,0.06457247,-0.16562756,-0.00002
 331,0.04893503,-0.02980352,-0.00001552,-0.00777640,-0.00354581,0.00000
 534,0.10570951,0.39967769,-0.00000660,-0.00000398,-0.00161315,-0.00000
 174,0.00000543,0.00473853,0.00003238,-0.00001067,0.00606573,0.00005357
 ,-0.00003461,-0.03532150,-0.00000899,0.00000699,0.00581948,0.00001122,
 0.00000415,0.00689361,-0.00010233,0.00003037,0.02129222,0.02439977,-0.
 02636741,-0.00000336,-0.15468461,-0.03817123,0.00005264,-0.03978244,-0
 .00749203,0.00001754,0.00046279,0.01255461,-0.00000072,0.00370509,-0.0
 0311506,-0.00000104,-0.00199730,0.00133428,0.00000172,0.00242590,-0.00
 294009,-0.00000033,0.92731119,-0.02840115,-0.01722525,0.00001786,-0.05
 279895,-0.13341468,0.00004093,0.00287405,0.02107611,-0.00000926,0.0052
 2033,0.00392547,-0.00000234,0.00388824,-0.00425809,-0.00000044,-0.0011
 0956,-0.00667871,0.00000349,0.00445587,-0.00196562,-0.00000091,-0.1179
 8604,0.59575186,-0.00000047,0.00001110,0.00163394,0.00004527,0.0000271
 9,-0.07793760,0.00001414,0.00000007,-0.00086814,0.00000250,-0.00000349
 ,0.00813953,-0.00000362,0.00000132,-0.00105536,0.00000427,0.00000288,0
 .00582603,-0.00000122,0.00000185,0.00035093,-0.00006434,-0.00011771,0.
 20589563,-0.00875258,0.00240483,0.00000422,0.00236880,-0.03756112,0.00
 001368,-0.00596177,-0.00246595,0.00000328,0.00215459,-0.00109565,-0.00
 000153,-0.00034427,-0.00057170,0.00000039,0.00036696,-0.00213694,0.000
 00009,-0.00079318,0.00036336,0.00000042,-0.12226946,-0.01430072,0.0000
 1475,0.57447014,-0.00403375,0.00442182,0.00000111,-0.01249978,-0.03851
 912,0.00001549,0.00144901,-0.00475244,0.00000220,0.00076636,-0.0030234
 2,0.00000012,-0.00100084,0.00069876,0.00000013,-0.00011070,-0.00069558
 ,0.00000022,-0.00244823,0.00166647,0.00000070,0.02051832,-0.23452753,0
 .00004171,0.11935034,0.44649357,0.00000445,-0.00000166,0.00180584,0.00
 000856,0.00002758,0.01064723,0.00000227,0.00000195,0.00087937,-0.00000
 185,0.00000065,-0.00081353,0.00000031,0.00000051,0.00006010,-0.0000000
 1,0.00000069,-0.00067104,0.00000083,-0.00000052,0.00013812,0.00001084,
 0.00004160,-0.06204556,-0.00013019,-0.00013359,0.03496078,-0.00977375,
 0.01181723,0.00000158,-0.06060015,0.00863511,0.00000980,0.00254937,-0.
 00830437,0.00000211,-0.00199712,-0.00446308,0.00000305,-0.00238005,0.0
 0303651,0.00000006,0.00283316,0.00047145,-0.00000106,-0.00251703,0.001
 01476,0.00000062,-0.63030358,0.20338426,-0.00001539,-0.01226278,0.0628
 6303,-0.00001543,0.71068867,0.00669946,-0.00427497,-0.00000263,-0.0030
 2792,0.02199143,-0.00000020,-0.00400336,-0.00333288,0.00000311,0.00065
 084,0.00189911,-0.00000118,0.00004975,-0.00046180,0.00000006,-0.000953
 81,0.00054749,-0.00000017,-0.00124970,0.00026902,0.00000049,0.20514219
 ,-0.19316463,0.00002228,0.07521221,-0.05831940,0.00001591,-0.27395897,
 0.23106932,0.00000065,-0.00000042,-0.00103935,0.00002217,0.00000141,0.
 01962573,0.00000117,0.00000191,0.00280856,-0.00000026,0.00000079,-0.00
 153973,0.00000122,-0.00000064,0.00020701,-0.00000159,-0.00000070,-0.00
 073581,0.00000050,-0.00000052,-0.00015930,-0.00002565,0.00002151,-0.07
 570854,-0.00001517,0.00001631,0.02882314,0.00001787,-0.00003827,0.0309
 9332,-0.25975282,0.06312337,0.00008366,0.01160783,0.01558533,-0.000006
 91,-0.00997750,-0.00405379,0.00000592,0.00783411,0.00410524,-0.0000064
 5,0.00255139,-0.00844244,0.00000489,-0.05858928,0.02766600,0.00002451,
 -0.00760472,0.00368416,0.00000431,-0.01621357,-0.00344475,0.00000423,0
 .00231037,0.00072605,-0.00000083,0.00857957,-0.00595859,0.00000050,0.3
 8165869,0.11571443,-0.15700157,-0.00002421,0.04001489,-0.03442907,-0.0
 0000837,-0.00432725,-0.00392186,0.00000465,-0.00163709,0.00402913,-0.0
 0000005,-0.00090440,-0.00579604,0.00000317,-0.00579674,0.01178050,0.00
 000209,0.00535605,-0.00271646,-0.00000297,0.01109401,0.00371956,-0.000
 00561,-0.00081759,-0.00188084,0.00000073,-0.00820522,-0.00467673,0.000
 00287,-0.01726777,0.67400207,0.00007242,-0.00000045,-0.03925735,-0.000
 01375,0.00000144,0.00415154,0.00000749,0.00000406,0.00404119,-0.000003
 93,-0.00000330,-0.00129250,0.00000265,0.00000690,0.00745621,0.00003210
 ,-0.00001323,0.00941673,0.00000237,-0.00000096,-0.00038844,0.00000401,
 0.00000006,-0.00322087,-0.00000058,-0.00000050,0.00032946,-0.00000185,
 0.00000377,0.00143111,-0.00015528,-0.00013569,0.02499698,-0.00446761,0
 .00098744,0.00000428,0.00450616,0.02661618,-0.00000834,-0.05742291,-0.
 00461257,0.00001018,0.00448160,-0.02800951,0.00000906,-0.00491877,-0.0
 0210943,0.00000500,-0.00105051,0.00050444,0.00000020,0.00222950,0.0005
 1986,-0.00000261,0.00088615,0.00391823,-0.00000326,-0.00318449,-0.0024
 1361,0.00000220,0.00078985,-0.00103947,0.00000068,0.00014486,0.0017481
 1,-0.00000029,0.05775868,0.00235104,0.00161619,-0.00000009,-0.00061955
 ,-0.01076480,0.00000368,-0.00308793,-0.35080803,0.00008699,0.00225259,
 -0.01034394,0.00000367,-0.00216556,-0.00019701,0.00000240,-0.00054409,
 0.00069167,-0.00000007,0.00086995,0.00078469,-0.00000151,-0.00004575,-
 0.00129609,-0.00000084,-0.00386967,-0.00066833,0.00000184,-0.00000711,
 0.00026859,0.00000017,-0.00031673,-0.00061917,0.00000044,0.00524493,0.
 37113088,0.00000397,0.00000057,0.00575274,-0.00000220,-0.00000861,0.00
 245635,0.00001062,0.00008689,-0.03689210,0.00000129,0.00001679,0.00685
 661,0.00000488,0.00000255,0.00515620,0.00000050,-0.00000056,-0.0006768
 9,-0.00000270,-0.00000113,-0.00347280,-0.00000125,-0.00000182,-0.00412
 469,0.00000293,0.00000113,0.00042574,-0.00000089,0.00000069,0.00073128
 ,0.00000029,-0.00000049,0.00041032,-0.00001622,-0.00009627,0.02501239,
 -0.00139688,0.00410863,0.00000314,-0.00003071,0.00049566,-0.00000038,0
 .00182809,0.00006979,0.00000163,-0.00101113,0.00306060,0.00000196,-0.2
 6511972,-0.11894667,0.00014144,-0.01899987,-0.01545030,0.00001417,0.00
 336121,-0.00011303,-0.00000297,0.00026848,0.00028956,-0.00000048,-0.00
 007494,-0.00025366,0.00000015,-0.00018286,-0.00008530,0.00000007,-0.00
 176482,-0.00040903,0.00000090,0.00003948,0.00003931,-0.00000024,0.2817
 8046,0.00323098,-0.00112361,0.00000057,0.00133208,-0.00063035,-0.00000
 051,0.00092255,-0.00642396,0.00000256,-0.02891871,-0.00841402,0.000016
 95,-0.11956507,-0.12917718,0.00008218,0.01497466,0.01174611,-0.0000093
 4,-0.00084604,0.00269791,-0.00000156,0.00000200,-0.00032463,-0.0000001
 0,-0.00017791,0.00007476,0.00000009,-0.00005790,0.00006236,0.,0.000859
 15,0.00039158,-0.00000039,-0.00145122,-0.00033909,0.00000058,0.1285394
 0,0.13149446,0.00000333,0.00000082,0.00711871,-0.00000062,-0.00000049,
 -0.00061781,0.00000153,0.00000266,0.00508160,0.00000917,0.00000278,0.0
 0482291,0.00014293,0.00008103,-0.03377829,0.00000554,0.00000497,0.0027
 5849,-0.00000159,-0.00000106,-0.00349746,-0.00000032,-0.00000031,-0.00
 070418,0.00000018,0.00000020,0.00014497,0.00000010,0.00000013,0.000058
 56,0.00000048,0.00000006,0.00001357,0.00000011,-0.00000013,-0.00040138
 ,-0.00015715,-0.00009048,0.02261653,0.00194984,-0.02689060,0.00000768,
 -0.00442917,-0.00162246,0.00000459,-0.00141994,0.00029213,0.00000021,-
 0.00422442,0.00160116,0.00000468,0.00462160,0.02832777,-0.00000859,-0.
 05865741,-0.00900864,0.00001462,-0.00033773,0.00179448,-0.00000027,0.0
 0071948,-0.00109017,0.00000007,-0.00046192,-0.00036155,0.00000016,-0.0
 0002965,0.00010541,0.00000001,0.00307236,-0.00173917,-0.00000277,0.000
 07741,-0.00001665,-0.00000012,0.00100553,-0.00025773,-0.00000230,0.058
 87703,0.00545483,-0.01390467,0.00000210,-0.00351134,0.00031748,0.00000
 276,-0.00017964,0.00063150,-0.00000029,0.00276368,0.00167987,-0.000000
 32,-0.00232347,-0.01252623,0.00000488,-0.00898956,-0.33370152,0.000080
 54,0.00023164,-0.00108786,0.00000045,0.00150242,-0.00031981,-0.0000003
 3,-0.00045429,-0.00033979,0.00000019,-0.00057812,0.00019314,0.00000002
 ,0.00025067,0.00321761,-0.00000193,-0.00000086,-0.00006497,-0.00000004
 ,0.00010829,0.00090650,-0.00000121,0.00796516,0.35487072,-0.00000043,0
 .00001599,0.00417048,0.00000458,0.00000209,0.00436411,0.00000052,-0.00
 000041,-0.00082262,0.00000397,0.00000055,0.00641209,-0.00000053,-0.000
 00924,0.00210112,0.00001481,0.00008092,-0.03117681,0.00000060,-0.00000
 032,0.00045379,-0.00000041,0.00000066,0.00032290,0.00000025,0.00000020
 ,-0.00010273,0.00000007,-0.00000011,-0.00001090,-0.00000338,-0.0000007
 3,-0.00397480,-0.00000016,-0.00000004,-0.00023880,-0.00000248,-0.00000
 119,-0.00402665,-0.00001860,-0.00008780,0.02198471,-0.00004574,0.00060
 193,0.00000004,0.00001686,-0.00181858,0.00000210,-0.00371927,0.0056401
 9,-0.00000064,-0.03387950,-0.02410935,0.00000520,0.00513611,-0.0022589
 9,-0.00000175,-0.00073082,-0.00030501,0.00000147,-0.34256173,-0.201452
 66,0.00002331,-0.00083770,-0.00016385,0.00000043,0.00013176,0.00032277
 ,-0.00000013,0.00021113,-0.00000307,-0.00000012,0.00079678,-0.00046209
 ,-0.00000051,0.00028318,0.00007830,-0.00000076,0.00010091,0.00146906,-
 0.00000131,0.00027175,-0.00022879,-0.00000011,0.37495749,-0.00049204,-
 0.00000331,0.00000073,-0.00012675,0.00068612,-0.00000061,0.00439512,-0
 .00207510,-0.00000105,0.02550516,0.01138570,-0.00000191,0.00393382,0.0
 0216375,-0.00000221,0.00022075,-0.00060094,-0.00000006,-0.25583769,-0.
 21731225,0.00000720,0.00047709,0.00011999,-0.00000039,-0.00005328,-0.0
 0017218,0.00000007,-0.00011394,0.00001666,0.00000009,0.00025323,-0.000
 33173,-0.00000020,0.00031418,0.00019641,-0.00000026,-0.00120765,-0.001
 09688,0.00000098,-0.00000271,0.00004164,-0.00000018,0.22262522,0.20692
 837,0.00000130,0.00000062,0.00027854,0.00000293,0.00000082,0.00162752,
 0.00000173,-0.00000317,0.00146051,0.00001822,0.00000547,-0.00366011,-0
 .00000132,-0.00000074,0.00004954,-0.00000150,-0.00000042,-0.00078881,0
 .00000717,-0.00000120,-0.00119555,0.00000023,-0.00000023,0.00005181,-0
 .00000003,-0.00000002,-0.00004206,0.00000007,0.00000002,-0.00006983,-0
 .00000123,0.00000084,-0.00009575,-0.00000062,-0.00000028,-0.00070497,0
 .00000030,0.00000067,0.00044895,0.00000004,-0.00000007,-0.00005531,-0.
 00002730,-0.00000215,0.00263300,0.00014086,-0.00018514,0.00000014,0.00
 116628,0.00199225,-0.00000123,-0.00017852,0.00024239,-0.00000011,0.000
 12996,0.00000457,0.00000012,-0.00001301,-0.00000562,-0.00000002,0.0000
 9353,-0.00004327,-0.00000002,0.00003920,-0.00001587,-0.00000006,0.0074
 7661,-0.00571281,0.00000317,-0.42799591,-0.18222214,0.00011863,-0.0054
 1097,0.00456177,-0.00000253,-0.00007929,0.00012185,0.00000007,0.000184
 00,-0.00030706,-0.00000018,0.00001291,-0.00001702,-0.00000001,0.000014
 24,0.00002114,-0.00000003,-0.00002526,0.00000618,0.00000004,0.42442668
 ,-0.00191313,-0.00013310,0.00000128,0.00348961,-0.00657604,0.00000115,
 0.00140678,0.00024432,-0.00000096,-0.00035061,0.00079766,-0.00000004,0
 .00035889,-0.00014462,-0.00000009,0.00007601,-0.00055591,0.,0.00037473
 ,-0.00023939,-0.00000013,-0.05423844,-0.03128498,0.00001953,-0.1341294
 2,-0.11065369,0.00004410,0.00377349,0.00898472,-0.00000461,0.00005884,
 0.00032684,-0.00000006,-0.00050352,0.00044562,0.00000011,0.00003393,0.
 00005089,-0.00000004,-0.00012654,-0.00006016,0.00000006,-0.00006102,0.
 00002966,0.00000003,0.18160492,0.13878017,0.00000069,0.00000080,0.0007
 5974,0.00000072,0.00000299,0.00412412,0.00000016,-0.00000030,-0.000220
 88,0.00000023,0.00000008,0.00023468,0.,-0.00000005,0.00000831,-0.00000
 029,0.00000012,-0.00030319,-0.00000017,0.00000004,-0.00007597,0.000009
 52,0.00000724,0.00370668,0.00010757,0.00005431,-0.01421806,-0.00000033
 ,-0.00000483,-0.00569274,0.00000022,-0.00000025,0.00006991,-0.00000029
 ,0.00000008,-0.00029489,-0.00000003,0.,-0.00003659,0.00000002,0.,-0.00
 005286,0.00000004,0.,0.00004439,-0.00011796,-0.00006027,0.01194768,0.0
 0177617,0.04535337,-0.00001242,-0.00609606,0.00265623,0.00000340,0.001
 26663,0.00104367,-0.00000034,-0.00031660,-0.00049568,0.00000029,-0.000
 63726,0.00016295,-0.00000005,0.00125822,0.00356578,-0.00000192,0.00006
 964,-0.00024455,0.00000007,-0.00156680,0.00097747,-0.00000005,0.000298
 69,-0.00065161,0.00000004,-0.00019382,-0.00214143,0.00000047,-0.064573
 96,-0.13248300,0.00005697,-0.00033657,0.00014396,0.00000009,0.00018385
 ,-0.00003827,-0.00000006,-0.00104902,-0.00203174,0.00000133,-0.0001059
 3,0.00010331,-0.00000004,0.00001868,0.00014549,-0.00000007,0.07000414,
 -0.00445122,-0.02853106,0.00000771,0.00457904,0.00265293,-0.00000203,-
 0.00193539,-0.00122742,0.00000131,0.00110219,0.00083008,-0.00000084,0.
 00024987,-0.00134976,0.00000016,-0.00548771,0.00549171,0.00000099,-0.0
 0100757,0.00048309,0.00000058,-0.00226886,-0.00013298,0.00000056,0.000
 30351,0.00019694,-0.00000014,0.00069287,-0.00107144,0.00000009,-0.0768
 2796,-0.48609380,0.00014004,0.00028681,-0.00003263,-0.00000012,-0.0002
 7954,0.00010514,0.00000009,0.00103013,0.00014653,-0.00000043,0.0001259
 4,0.00002408,-0.00000016,-0.00004617,-0.00001201,0.00000003,0.08393407
 ,0.50852058,-0.00000230,-0.00001388,-0.00319423,0.00000284,-0.00000124
 ,0.00256453,0.00000059,0.00000018,0.00131821,-0.00000009,-0.00000003,0
 .00015983,-0.00000025,0.00000014,-0.00088834,0.00000062,-0.00000310,-0
 .00070721,0.00000023,0.,-0.00002825,0.00000093,-0.00000032,-0.00026252
 ,-0.00000024,0.00000027,-0.00032179,-0.00000036,0.00000092,0.00027747,
 0.00004507,0.00016397,-0.00408730,0.00000009,-0.00000001,0.00000488,-0
 .00000002,-0.00000002,-0.00000194,0.00000058,0.00000105,0.00065227,0.0
 0000004,-0.00000004,0.00001815,-0.00000001,-0.00000006,-0.00000033,-0.
 00004771,-0.00014784,0.00449657\\0.00014727,-0.00004814,0.00000153,0.0
 0000096,-0.00005052,0.00001704,-0.00018647,0.00000553,0.00000190,0.000
 12498,0.00008551,-0.00000254,0.00005666,-0.00007694,0.00000097,-0.0000
 8532,0.00000529,-0.00000125,-0.00002887,-0.00001850,0.00000298,0.00026
 729,-0.00004696,-0.00006159,-0.00004849,0.00004280,0.00001800,-0.00013
 935,0.00008221,0.00002348,-0.00011790,0.00001744,0.00000107,0.00002354
 ,0.00000771,0.00000008,-0.00000649,0.00001140,0.00000025,0.00002210,0.
 00000260,-0.00000015,0.00001812,-0.00001213,-0.00000213,-0.00004618,-0
 .00002106,0.00000053,-0.00000183,0.00001377,-0.00000015\\\@


 WE LEARN WISDOM FROM FAILURE MUCH MORE THAN FROM SUCCESS.
 WE DISCOVER WHAT WILL DO BY FINDING OUT WHAT WILL NOT DO...
 AND HE WHO NEVER MADE A MISTAKE NEVER MADE A DISCOVERY
 Job cpu time:       0 days  0 hours 24 minutes  1.2 seconds.
 File lengths (MBytes):  RWF=    107 Int=      0 D2E=      0 Chk=      5 Scr=      1
 Normal termination of Gaussian 09 at Wed Jun 19 13:40:36 2024.
