 Entering Gaussian System, Link 0=g09
 Input=camb3lypDHBgd3.gjf
 Output=camb3lypDHBgd3.log
 Initial command:
 /home/phzd/g09E/g09/l1.exe "/home/phzd/g09E/scratch/Gau-57049.inp" -scrdir="/home/phzd/g09E/scratch/"
 Default is to use a total of  18 processors:
                               18 via shared-memory
                                1 via Linda
 Entering Link 1 = /home/phzd/g09E/g09/l1.exe PID=     57051.
  
 Copyright (c) 1988,1990,1992,1993,1995,1998,2003,2009,2015,
            Gaussian, Inc.  All Rights Reserved.
  
 This is part of the Gaussian(R) 09 program.  It is based on
 the Gaussian(R) 03 system (copyright 2003, Gaussian, Inc.),
 the Gaussian(R) 98 system (copyright 1998, Gaussian, Inc.),
 the Gaussian(R) 94 system (copyright 1995, Gaussian, Inc.),
 the Gaussian 92(TM) system (copyright 1992, Gaussian, Inc.),
 the Gaussian 90(TM) system (copyright 1990, Gaussian, Inc.),
 the Gaussian 88(TM) system (copyright 1988, Gaussian, Inc.),
 the Gaussian 86(TM) system (copyright 1986, Carnegie Mellon
 University), and the Gaussian 82(TM) system (copyright 1983,
 Carnegie Mellon University). Gaussian is a federally registered
 trademark of Gaussian, Inc.
  
 This software contains proprietary and confidential information,
 including trade secrets, belonging to Gaussian, Inc.
  
 This software is provided under written license and may be
 used, copied, transmitted, or stored only in accord with that
 written license.
  
 The following legend is applicable only to US Government
 contracts under FAR:
  
                    RESTRICTED RIGHTS LEGEND
  
 Use, reproduction and disclosure by the US Government is
 subject to restrictions as set forth in subparagraphs (a)
 and (c) of the Commercial Computer Software - Restricted
 Rights clause in FAR 52.227-19.
  
 Gaussian, Inc.
 340 Quinnipiac St., Bldg. 40, Wallingford CT 06492
  
  
 ---------------------------------------------------------------
 Warning -- This program may not be used in any manner that
 competes with the business of Gaussian, Inc. or will provide
 assistance to any competitor of Gaussian, Inc.  The licensee
 of this program is prohibited from giving any competitor of
 Gaussian, Inc. access to this program.  By using this program,
 the user acknowledges that Gaussian, Inc. is engaged in the
 business of creating and licensing software in the field of
 computational chemistry and represents and warrants to the
 licensee that it is not a competitor of Gaussian, Inc. and that
 it will not use this program in any manner prohibited above.
 ---------------------------------------------------------------
  

 Cite this work as:
 Gaussian 09, Revision E.01,
 M. J. Frisch, G. W. Trucks, H. B. Schlegel, G. E. Scuseria, 
 M. A. Robb, J. R. Cheeseman, G. Scalmani, V. Barone, B. Mennucci, 
 G. A. Petersson, H. Nakatsuji, M. Caricato, X. Li, H. P. Hratchian, 
 A. F. Izmaylov, J. Bloino, G. Zheng, J. L. Sonnenberg, M. Hada, 
 M. Ehara, K. Toyota, R. Fukuda, J. Hasegawa, M. Ishida, T. Nakajima, 
 Y. Honda, O. Kitao, H. Nakai, T. Vreven, J. A. Montgomery, Jr., 
 J. E. Peralta, F. Ogliaro, M. Bearpark, J. J. Heyd, E. Brothers, 
 K. N. Kudin, V. N. Staroverov, T. Keith, R. Kobayashi, J. Normand, 
 K. Raghavachari, A. Rendell, J. C. Burant, S. S. Iyengar, J. Tomasi, 
 M. Cossi, N. Rega, J. M. Millam, M. Klene, J. E. Knox, J. B. Cross, 
 V. Bakken, C. Adamo, J. Jaramillo, R. Gomperts, R. E. Stratmann, 
 O. Yazyev, A. J. Austin, R. Cammi, C. Pomelli, J. W. Ochterski, 
 R. L. Martin, K. Morokuma, V. G. Zakrzewski, G. A. Voth, 
 P. Salvador, J. J. Dannenberg, S. Dapprich, A. D. Daniels, 
 O. Farkas, J. B. Foresman, J. V. Ortiz, J. Cioslowski, 
 and D. J. Fox, Gaussian, Inc., Wallingford CT, 2013.
 
 ******************************************
 Gaussian 09:  ES64L-G09RevE.01 30-Nov-2015
                19-Jun-2024 
 ******************************************
 %chk=camb3lypDHBgd3.chk
 --------------------------------
 # opt freq cam-b3lyp/6-31+g(d,p)
 --------------------------------
 1/14=-1,18=20,19=15,26=3,38=1/1,3;
 2/9=110,12=2,17=6,18=5,40=1/2;
 3/5=1,6=6,7=111,11=2,16=1,25=1,30=1,71=1,74=-40/1,2,3;
 4//1;
 5/5=2,38=5/2;
 6/7=2,8=2,9=2,10=2,28=1/1;
 7//1,2,3,16;
 1/14=-1,18=20,19=15,26=3/3(2);
 2/9=110/2;
 99//99;
 2/9=110/2;
 3/5=1,6=6,7=111,11=2,16=1,25=1,30=1,71=1,74=-40/1,2,3;
 4/5=5,16=3,69=1/1;
 5/5=2,38=5/2;
 7//1,2,3,16;
 1/14=-1,18=20,19=15,26=3/3(-5);
 2/9=110/2;
 6/7=2,8=2,9=2,10=2,19=2,28=1/1;
 99/9=1/99;
 ----------
 [No Title]
 ----------
 Symbolic Z-matrix:
 Charge =  0 Multiplicity = 1
 C                     0.23226   1.27551   0.00005 
 C                     0.46873  -0.11916   0.00007 
 C                    -0.62884  -0.99743   0.00005 
 C                    -1.93638  -0.52239  -0.00002 
 C                    -2.16622   0.85656  -0.00006 
 C                    -1.08899   1.73975  0. 
 O                    -2.94928  -1.45109  -0.00011 
 C                     1.84921  -0.67239   0.00012 
 O                     1.85785  -2.03933   0.00014 
 O                     2.8849   -0.03944  -0.00031 
 O                     1.28179   2.14264   0.0001 
 H                    -0.45722  -2.06616   0.00008 
 H                    -3.18135   1.24702  -0.00013 
 H                    -1.27569   2.81119  -0.00002 
 H                    -3.80738  -1.00815   0.00031 
 H                     2.79373  -2.29838  -0.00007 
 H                     0.94725   3.04951   0.00011 
 

 GradGradGradGradGradGradGradGradGradGradGradGradGradGradGradGradGradGrad
 Berny optimization.
 Initialization pass.
                           ----------------------------
                           !    Initial Parameters    !
                           ! (Angstroms and Degrees)  !
 --------------------------                            --------------------------
 ! Name  Definition              Value          Derivative Info.                !
 --------------------------------------------------------------------------------
 ! R1    R(1,2)                  1.4146         estimate D2E/DX2                !
 ! R2    R(1,6)                  1.4004         estimate D2E/DX2                !
 ! R3    R(1,11)                 1.3614         estimate D2E/DX2                !
 ! R4    R(2,3)                  1.4057         estimate D2E/DX2                !
 ! R5    R(2,8)                  1.4872         estimate D2E/DX2                !
 ! R6    R(3,4)                  1.3912         estimate D2E/DX2                !
 ! R7    R(3,12)                 1.0824         estimate D2E/DX2                !
 ! R8    R(4,5)                  1.398          estimate D2E/DX2                !
 ! R9    R(4,7)                  1.3742         estimate D2E/DX2                !
 ! R10   R(5,6)                  1.393          estimate D2E/DX2                !
 ! R11   R(5,13)                 1.0876         estimate D2E/DX2                !
 ! R12   R(6,14)                 1.0876         estimate D2E/DX2                !
 ! R13   R(7,15)                 0.9657         estimate D2E/DX2                !
 ! R14   R(8,9)                  1.367          estimate D2E/DX2                !
 ! R15   R(8,10)                 1.2138         estimate D2E/DX2                !
 ! R16   R(9,16)                 0.9711         estimate D2E/DX2                !
 ! R17   R(11,17)                0.9666         estimate D2E/DX2                !
 ! A1    A(2,1,6)              118.983          estimate D2E/DX2                !
 ! A2    A(2,1,11)             119.9403         estimate D2E/DX2                !
 ! A3    A(6,1,11)             121.0767         estimate D2E/DX2                !
 ! A4    A(1,2,3)              119.0436         estimate D2E/DX2                !
 ! A5    A(1,2,8)              121.4616         estimate D2E/DX2                !
 ! A6    A(3,2,8)              119.4947         estimate D2E/DX2                !
 ! A7    A(2,3,4)              121.3667         estimate D2E/DX2                !
 ! A8    A(2,3,12)             119.544          estimate D2E/DX2                !
 ! A9    A(4,3,12)             119.0892         estimate D2E/DX2                !
 ! A10   A(3,4,5)              119.4291         estimate D2E/DX2                !
 ! A11   A(3,4,7)              117.517          estimate D2E/DX2                !
 ! A12   A(5,4,7)              123.0538         estimate D2E/DX2                !
 ! A13   A(4,5,6)              119.885          estimate D2E/DX2                !
 ! A14   A(4,5,13)             120.5016         estimate D2E/DX2                !
 ! A15   A(6,5,13)             119.6135         estimate D2E/DX2                !
 ! A16   A(1,6,5)              121.2925         estimate D2E/DX2                !
 ! A17   A(1,6,14)             119.2447         estimate D2E/DX2                !
 ! A18   A(5,6,14)             119.4627         estimate D2E/DX2                !
 ! A19   A(4,7,15)             110.1818         estimate D2E/DX2                !
 ! A20   A(2,8,9)              112.2005         estimate D2E/DX2                !
 ! A21   A(2,8,10)             126.7305         estimate D2E/DX2                !
 ! A22   A(9,8,10)             121.069          estimate D2E/DX2                !
 ! A23   A(8,9,16)             105.8342         estimate D2E/DX2                !
 ! A24   A(1,11,17)            109.3148         estimate D2E/DX2                !
 ! D1    D(6,1,2,3)              0.0            estimate D2E/DX2                !
 ! D2    D(6,1,2,8)            179.9997         estimate D2E/DX2                !
 ! D3    D(11,1,2,3)           179.999          estimate D2E/DX2                !
 ! D4    D(11,1,2,8)            -0.0014         estimate D2E/DX2                !
 ! D5    D(2,1,6,5)             -0.0014         estimate D2E/DX2                !
 ! D6    D(2,1,6,14)           179.9997         estimate D2E/DX2                !
 ! D7    D(11,1,6,5)           179.9997         estimate D2E/DX2                !
 ! D8    D(11,1,6,14)            0.0008         estimate D2E/DX2                !
 ! D9    D(2,1,11,17)         -179.9976         estimate D2E/DX2                !
 ! D10   D(6,1,11,17)            0.0013         estimate D2E/DX2                !
 ! D11   D(1,2,3,4)              0.0008         estimate D2E/DX2                !
 ! D12   D(1,2,3,12)          -179.9991         estimate D2E/DX2                !
 ! D13   D(8,2,3,4)           -179.9989         estimate D2E/DX2                !
 ! D14   D(8,2,3,12)             0.0013         estimate D2E/DX2                !
 ! D15   D(1,2,8,9)            180.0            estimate D2E/DX2                !
 ! D16   D(1,2,8,10)            -0.0262         estimate D2E/DX2                !
 ! D17   D(3,2,8,9)             -0.0004         estimate D2E/DX2                !
 ! D18   D(3,2,8,10)           179.9734         estimate D2E/DX2                !
 ! D19   D(2,3,4,5)             -0.0003         estimate D2E/DX2                !
 ! D20   D(2,3,4,7)            179.9967         estimate D2E/DX2                !
 ! D21   D(12,3,4,5)           179.9996         estimate D2E/DX2                !
 ! D22   D(12,3,4,7)            -0.0034         estimate D2E/DX2                !
 ! D23   D(3,4,5,6)             -0.001          estimate D2E/DX2                !
 ! D24   D(3,4,5,13)           179.9987         estimate D2E/DX2                !
 ! D25   D(7,4,5,6)           -179.9979         estimate D2E/DX2                !
 ! D26   D(7,4,5,13)             0.0018         estimate D2E/DX2                !
 ! D27   D(3,4,7,15)           179.9707         estimate D2E/DX2                !
 ! D28   D(5,4,7,15)            -0.0324         estimate D2E/DX2                !
 ! D29   D(4,5,6,1)              0.0019         estimate D2E/DX2                !
 ! D30   D(4,5,6,14)          -179.9992         estimate D2E/DX2                !
 ! D31   D(13,5,6,1)          -179.9978         estimate D2E/DX2                !
 ! D32   D(13,5,6,14)            0.0011         estimate D2E/DX2                !
 ! D33   D(2,8,9,16)           179.9855         estimate D2E/DX2                !
 ! D34   D(10,8,9,16)            0.0101         estimate D2E/DX2                !
 --------------------------------------------------------------------------------
 Trust Radius=3.00D-01 FncErr=1.00D-07 GrdErr=1.00D-06
 Number of steps in this run=     85 maximum allowed number of steps=    102.
 GradGradGradGradGradGradGradGradGradGradGradGradGradGradGradGradGradGrad

                          Input orientation:                          
 ---------------------------------------------------------------------
 Center     Atomic      Atomic             Coordinates (Angstroms)
 Number     Number       Type             X           Y           Z
 ---------------------------------------------------------------------
      1          6           0        0.232256    1.275513    0.000048
      2          6           0        0.468728   -0.119161    0.000072
      3          6           0       -0.628837   -0.997433    0.000045
      4          6           0       -1.936381   -0.522393   -0.000021
      5          6           0       -2.166215    0.856555   -0.000055
      6          6           0       -1.088986    1.739754   -0.000001
      7          8           0       -2.949284   -1.451085   -0.000113
      8          6           0        1.849211   -0.672390    0.000117
      9          8           0        1.857848   -2.039329    0.000135
     10          8           0        2.884897   -0.039435   -0.000308
     11          8           0        1.281790    2.142637    0.000095
     12          1           0       -0.457219   -2.066158    0.000078
     13          1           0       -3.181355    1.247021   -0.000128
     14          1           0       -1.275691    2.811187   -0.000015
     15          1           0       -3.807383   -1.008155    0.000312
     16          1           0        2.793732   -2.298383   -0.000072
     17          1           0        0.947252    3.049506    0.000109
 ---------------------------------------------------------------------
                    Distance matrix (angstroms):
                    1          2          3          4          5
     1  C    0.000000
     2  C    1.414579   0.000000
     3  C    2.430589   1.405706   0.000000
     4  C    2.816994   2.438677   1.391163   0.000000
     5  C    2.434787   2.809795   2.408486   1.397970   0.000000
     6  C    1.400429   2.425291   2.775595   2.415655   1.393005
     7  O    4.190052   3.668355   2.364376   1.374206   2.436883
     8  C    2.531575   1.487211   2.499275   3.788563   4.296664
     9  O    3.691981   2.369958   2.696136   4.086229   4.957744
    10  O    2.960674   2.417484   3.641989   4.845407   5.129964
    11  O    1.361406   2.403497   3.675668   4.178398   3.680047
    12  H    3.412058   2.155963   1.082417   2.138020   3.385693
    13  H    3.413730   3.897379   3.398959   2.163512   1.087646
    14  H    2.152254   3.410269   3.863160   3.398421   2.147934
    15  H    4.640455   4.367543   3.178564   1.933032   2.484064
    16  H    4.397032   3.186636   3.661482   5.052535   5.878325
    17  H    1.912661   3.204596   4.343014   4.590621   3.808242
                    6          7          8          9         10
     6  C    0.000000
     7  O    3.693530   0.000000
     8  C    3.801505   4.861267   0.000000
     9  O    4.792212   4.842990   1.366966   0.000000
    10  O    4.353994   6.002535   1.213787   2.248201   0.000000
    11  O    2.404765   5.551290   2.871645   4.221455   2.707654
    12  H    3.857991   2.566847   2.694849   2.315222   3.908625
    13  H    2.149603   2.708068   5.384304   6.016117   6.201160
    14  H    1.087579   4.579069   4.679778   5.774649   5.043465
    15  H    3.865318   0.965671   5.666550   5.758312   6.762029
    16  H    5.601968   5.805183   1.880418   0.971076   2.260787
    17  H    2.421098   5.953009   3.829627   5.169664   3.646371
                   11         12         13         14         15
    11  O    0.000000
    12  H    4.553911   0.000000
    13  H    4.552119   4.289297   0.000000
    14  H    2.643420   4.945543   2.465395   0.000000
    15  H    5.985580   3.513256   2.340455   4.582231   0.000000
    16  H    4.691335   3.259235   6.947773   6.532068   6.726025
    17  H    0.966606   5.304956   4.504925   2.235681   6.250693
                   16         17
    16  H    0.000000
    17  H    5.657685   0.000000
 Stoichiometry    C7H6O4
 Framework group  C1[X(C7H6O4)]
 Deg. of freedom    45
 Full point group                 C1      NOp   1
 Largest Abelian subgroup         C1      NOp   1
 Largest concise Abelian subgroup C1      NOp   1
                         Standard orientation:                         
 ---------------------------------------------------------------------
 Center     Atomic      Atomic             Coordinates (Angstroms)
 Number     Number       Type             X           Y           Z
 ---------------------------------------------------------------------
      1          6           0        0.232256    1.275513    0.000048
      2          6           0        0.468728   -0.119161    0.000072
      3          6           0       -0.628837   -0.997433    0.000045
      4          6           0       -1.936381   -0.522393   -0.000021
      5          6           0       -2.166215    0.856555   -0.000055
      6          6           0       -1.088986    1.739754   -0.000001
      7          8           0       -2.949284   -1.451085   -0.000113
      8          6           0        1.849211   -0.672390    0.000117
      9          8           0        1.857848   -2.039329    0.000135
     10          8           0        2.884897   -0.039434   -0.000308
     11          8           0        1.281790    2.142637    0.000095
     12          1           0       -0.457219   -2.066158    0.000078
     13          1           0       -3.181355    1.247021   -0.000128
     14          1           0       -1.275691    2.811187   -0.000015
     15          1           0       -3.807383   -1.008156    0.000312
     16          1           0        2.793732   -2.298382   -0.000072
     17          1           0        0.947251    3.049506    0.000109
 ---------------------------------------------------------------------
 Rotational constants (GHZ):      1.7517488      0.9126359      0.6000293
 Standard basis: 6-31+G(d,p) (6D, 7F)
 There are   239 symmetry adapted cartesian basis functions of A   symmetry.
 There are   239 symmetry adapted basis functions of A   symmetry.
   239 basis functions,   394 primitive gaussians,   239 cartesian basis functions
    40 alpha electrons       40 beta electrons
       nuclear repulsion energy       589.1542397892 Hartrees.
 NAtoms=   17 NActive=   17 NUniq=   17 SFac= 1.00D+00 NAtFMM=   60 NAOKFM=F Big=F
 Integral buffers will be    131072 words long.
 Raffenetti 2 integral format.
 Two-electron integral symmetry is turned on.
 One-electron integrals computed using PRISM.
 NBasis=   239 RedAO= T EigKep=  3.24D-06  NBF=   239
 NBsUse=   239 1.00D-06 EigRej= -1.00D+00 NBFU=   239
 ExpMin= 4.38D-02 ExpMax= 5.48D+03 ExpMxC= 8.25D+02 IAcc=2 IRadAn=         4 AccDes= 0.00D+00
 Harris functional with IExCor=20419 and IRadAn=       4 diagonalized for initial guess.
 HarFok:  IExCor=20419 AccDes= 0.00D+00 IRadAn=         4 IDoV= 1 UseB2=F ITyADJ=14
 ICtDFT=  3500011 ScaDFX=  1.000000  1.000000  1.000000  1.000000
 FoFCou: FMM=F IPFlag=           0 FMFlag=      100000 FMFlg1=           0
         NFxFlg=           0 DoJE=T BraDBF=F KetDBF=T FulRan=T
         wScrn=  0.000000 ICntrl=     500 IOpCl=  0 I1Cent=   200000004 NGrid=           0
         NMat0=    1 NMatS0=      1 NMatT0=    0 NMatD0=    1 NMtDS0=    0 NMtDT0=    0
 Petite list used in FoFCou.
 Keep R1 ints in memory in canonical form, NReq=829678955.
 Requested convergence on RMS density matrix=1.00D-08 within 128 cycles.
 Requested convergence on MAX density matrix=1.00D-06.
 Requested convergence on             energy=1.00D-06.
 No special actions if energy rises.
 SCF Done:  E(RCAM-B3LYP) =  -571.049611303     A.U. after   15 cycles
            NFock= 15  Conv=0.97D-08     -V/T= 2.0091

 **********************************************************************

            Population analysis using the SCF density.

 **********************************************************************

 Orbital symmetries:
       Occupied  (A) (A) (A) (A) (A) (A) (A) (A) (A) (A) (A) (A)
                 (A) (A) (A) (A) (A) (A) (A) (A) (A) (A) (A) (A)
                 (A) (A) (A) (A) (A) (A) (A) (A) (A) (A) (A) (A)
                 (A) (A) (A) (A)
       Virtual   (A) (A) (A) (A) (A) (A) (A) (A) (A) (A) (A) (A)
                 (A) (A) (A) (A) (A) (A) (A) (A) (A) (A) (A) (A)
                 (A) (A) (A) (A) (A) (A) (A) (A) (A) (A) (A) (A)
                 (A) (A) (A) (A) (A) (A) (A) (A) (A) (A) (A) (A)
                 (A) (A) (A) (A) (A) (A) (A) (A) (A) (A) (A) (A)
                 (A) (A) (A) (A) (A) (A) (A) (A) (A) (A) (A) (A)
                 (A) (A) (A) (A) (A) (A) (A) (A) (A) (A) (A) (A)
                 (A) (A) (A) (A) (A) (A) (A) (A) (A) (A) (A) (A)
                 (A) (A) (A) (A) (A) (A) (A) (A) (A) (A) (A) (A)
                 (A) (A) (A) (A) (A) (A) (A) (A) (A) (A) (A) (A)
                 (A) (A) (A) (A) (A) (A) (A) (A) (A) (A) (A) (A)
                 (A) (A) (A) (A) (A) (A) (A) (A) (A) (A) (A) (A)
                 (A) (A) (A) (A) (A) (A) (A) (A) (A) (A) (A) (A)
                 (A) (A) (A) (A) (A) (A) (A) (A) (A) (A) (A) (A)
                 (A) (A) (A) (A) (A) (A) (A) (A) (A) (A) (A) (A)
                 (A) (A) (A) (A) (A) (A) (A) (A) (A) (A) (A) (A)
                 (A) (A) (A) (A) (A) (A) (A)
 The electronic state is 1-A.
 Alpha  occ. eigenvalues --  -19.27656 -19.27095 -19.27040 -19.22004 -10.40812
 Alpha  occ. eigenvalues --  -10.35174 -10.34172 -10.29784 -10.29668 -10.29145
 Alpha  occ. eigenvalues --  -10.28509  -1.19271  -1.16002  -1.15542  -1.09818
 Alpha  occ. eigenvalues --   -0.95744  -0.87026  -0.83611  -0.75651  -0.72359
 Alpha  occ. eigenvalues --   -0.68763  -0.63761  -0.62687  -0.58176  -0.56457
 Alpha  occ. eigenvalues --   -0.55413  -0.53209  -0.52536  -0.50425  -0.49842
 Alpha  occ. eigenvalues --   -0.48942  -0.47648  -0.46781  -0.44519  -0.43329
 Alpha  occ. eigenvalues --   -0.39400  -0.39011  -0.34447  -0.33384  -0.27827
 Alpha virt. eigenvalues --   -0.01856   0.01619   0.02319   0.03506   0.03758
 Alpha virt. eigenvalues --    0.04825   0.07148   0.07587   0.07734   0.08976
 Alpha virt. eigenvalues --    0.09189   0.10371   0.10416   0.11843   0.12133
 Alpha virt. eigenvalues --    0.13670   0.14782   0.15362   0.16215   0.16843
 Alpha virt. eigenvalues --    0.17602   0.18251   0.18970   0.19325   0.19806
 Alpha virt. eigenvalues --    0.20308   0.22581   0.22761   0.23055   0.23326
 Alpha virt. eigenvalues --    0.23751   0.23888   0.24627   0.25294   0.27400
 Alpha virt. eigenvalues --    0.27933   0.28062   0.28473   0.29856   0.30092
 Alpha virt. eigenvalues --    0.30544   0.30876   0.32339   0.32499   0.33613
 Alpha virt. eigenvalues --    0.34397   0.34401   0.34987   0.35878   0.35906
 Alpha virt. eigenvalues --    0.37743   0.38767   0.40269   0.40593   0.42549
 Alpha virt. eigenvalues --    0.43195   0.44751   0.46168   0.47752   0.49843
 Alpha virt. eigenvalues --    0.51252   0.54167   0.58237   0.65607   0.68323
 Alpha virt. eigenvalues --    0.69958   0.73290   0.73797   0.75897   0.77524
 Alpha virt. eigenvalues --    0.78230   0.79399   0.80403   0.81980   0.83115
 Alpha virt. eigenvalues --    0.85020   0.89014   0.89834   0.91107   0.92123
 Alpha virt. eigenvalues --    0.99256   0.99691   1.04595   1.05533   1.07029
 Alpha virt. eigenvalues --    1.08906   1.11833   1.14044   1.15037   1.19503
 Alpha virt. eigenvalues --    1.21761   1.22344   1.22748   1.24432   1.26642
 Alpha virt. eigenvalues --    1.26981   1.27800   1.28547   1.30616   1.30658
 Alpha virt. eigenvalues --    1.32071   1.33875   1.36464   1.37460   1.37703
 Alpha virt. eigenvalues --    1.40121   1.42475   1.42667   1.43032   1.44766
 Alpha virt. eigenvalues --    1.45761   1.46087   1.47916   1.48494   1.50744
 Alpha virt. eigenvalues --    1.53532   1.56295   1.64291   1.64902   1.64986
 Alpha virt. eigenvalues --    1.66688   1.74837   1.77076   1.80890   1.82212
 Alpha virt. eigenvalues --    1.83710   1.86495   1.91711   1.92760   1.93362
 Alpha virt. eigenvalues --    1.95097   1.95876   1.96514   1.97246   2.00166
 Alpha virt. eigenvalues --    2.01029   2.05250   2.07807   2.10230   2.12972
 Alpha virt. eigenvalues --    2.13471   2.15890   2.20420   2.29685   2.30447
 Alpha virt. eigenvalues --    2.32973   2.38881   2.38983   2.41670   2.43235
 Alpha virt. eigenvalues --    2.46119   2.46684   2.48701   2.52393   2.54713
 Alpha virt. eigenvalues --    2.56602   2.57267   2.59781   2.61774   2.62104
 Alpha virt. eigenvalues --    2.65665   2.66546   2.66950   2.69528   2.72195
 Alpha virt. eigenvalues --    2.74434   2.75908   2.79515   2.81699   2.82276
 Alpha virt. eigenvalues --    2.85171   2.90083   2.94968   3.02579   3.08993
 Alpha virt. eigenvalues --    3.11542   3.15659   3.19666   3.22919   3.28075
 Alpha virt. eigenvalues --    3.32258   3.37674   3.46848   3.53799   3.57480
 Alpha virt. eigenvalues --    3.59664   3.60753   3.86690   4.25646   4.31337
 Alpha virt. eigenvalues --    4.35398   4.38428   4.40779   4.51461   4.55783
 Alpha virt. eigenvalues --    4.61393   4.65964   4.88171   4.99623
          Condensed to atoms (all electrons):
               1          2          3          4          5          6
     1  C   14.925659  -4.004589  -3.481694   0.342275   0.727605  -0.640426
     2  C   -4.004589  13.093189  -1.841060   0.311348  -0.799431  -1.023542
     3  C   -3.481694  -1.841060  14.452809  -2.829817  -0.646023  -0.370869
     4  C    0.342275   0.311348  -2.829817   8.718812   0.003780   0.090012
     5  C    0.727605  -0.799431  -0.646023   0.003780   6.147546   0.146989
     6  C   -0.640426  -1.023542  -0.370869   0.090012   0.146989   7.646275
     7  O   -0.022365   0.061933  -0.059825  -0.001174  -0.085941   0.052564
     8  C   -1.079116   0.107533   0.563578  -0.645518   0.028863  -0.314110
     9  O   -0.048606  -0.170001   0.040824   0.095969   0.003580  -0.014855
    10  O   -0.045891  -0.143384  -0.049057   0.045174   0.006293   0.016897
    11  O    0.186666  -0.388204   0.087424  -0.010702   0.055368   0.190429
    12  H    0.014888   0.009284   0.219606   0.067386   0.028370  -0.010255
    13  H    0.001051   0.002237  -0.011705  -0.003013   0.271465   0.057917
    14  H    0.005047   0.007607  -0.020665   0.008181   0.064495   0.249488
    15  H   -0.005098  -0.010034   0.122157  -0.044446  -0.058179  -0.001104
    16  H   -0.003654   0.051956  -0.008404  -0.007548  -0.000588   0.005427
    17  H   -0.026055   0.184385  -0.010713   0.004741  -0.007417  -0.159482
               7          8          9         10         11         12
     1  C   -0.022365  -1.079116  -0.048606  -0.045891   0.186666   0.014888
     2  C    0.061933   0.107533  -0.170001  -0.143384  -0.388204   0.009284
     3  C   -0.059825   0.563578   0.040824  -0.049057   0.087424   0.219606
     4  C   -0.001174  -0.645518   0.095969   0.045174  -0.010702   0.067386
     5  C   -0.085941   0.028863   0.003580   0.006293   0.055368   0.028370
     6  C    0.052564  -0.314110  -0.014855   0.016897   0.190429  -0.010255
     7  O    8.421397  -0.005348   0.000305   0.000062   0.000228  -0.006017
     8  C   -0.005348   6.078680   0.090307   0.448057  -0.163677  -0.009528
     9  O    0.000305   0.090307   8.473216  -0.168094   0.000251  -0.001162
    10  O    0.000062   0.448057  -0.168094   8.357593  -0.013293  -0.000248
    11  O    0.000228  -0.163677   0.000251  -0.013293   8.392823  -0.000397
    12  H   -0.006017  -0.009528  -0.001162  -0.000248  -0.000397   0.509748
    13  H   -0.011839   0.000750   0.000003   0.000008  -0.000480  -0.000139
    14  H   -0.000569   0.007281   0.000012   0.000002  -0.015389   0.000009
    15  H    0.209347   0.002571   0.000017   0.000000  -0.000006  -0.000021
    16  H   -0.000000  -0.002020   0.198429   0.005134   0.000113   0.000185
    17  H   -0.000005   0.026041   0.000018   0.001465   0.175443   0.000004
              13         14         15         16         17
     1  C    0.001051   0.005047  -0.005098  -0.003654  -0.026055
     2  C    0.002237   0.007607  -0.010034   0.051956   0.184385
     3  C   -0.011705  -0.020665   0.122157  -0.008404  -0.010713
     4  C   -0.003013   0.008181  -0.044446  -0.007548   0.004741
     5  C    0.271465   0.064495  -0.058179  -0.000588  -0.007417
     6  C    0.057917   0.249488  -0.001104   0.005427  -0.159482
     7  O   -0.011839  -0.000569   0.209347  -0.000000  -0.000005
     8  C    0.000750   0.007281   0.002571  -0.002020   0.026041
     9  O    0.000003   0.000012   0.000017   0.198429   0.000018
    10  O    0.000008   0.000002   0.000000   0.005134   0.001465
    11  O   -0.000480  -0.015389  -0.000006   0.000113   0.175443
    12  H   -0.000139   0.000009  -0.000021   0.000185   0.000004
    13  H    0.568243  -0.005025   0.005603  -0.000000  -0.000016
    14  H   -0.005025   0.570066  -0.000006  -0.000000   0.008204
    15  H    0.005603  -0.000006   0.417613   0.000000   0.000000
    16  H   -0.000000  -0.000000   0.000000   0.367934  -0.000000
    17  H   -0.000016   0.008204   0.000000  -0.000000   0.432791
 Mulliken charges:
               1
     1  C   -0.845698
     2  C    0.550770
     3  C   -0.156565
     4  C   -0.145460
     5  C    0.113227
     6  C    0.078644
     7  O   -0.552752
     8  C    0.865658
     9  O   -0.500213
    10  O   -0.460718
    11  O   -0.496597
    12  H    0.178284
    13  H    0.124940
    14  H    0.121263
    15  H    0.361584
    16  H    0.393036
    17  H    0.370596
 Sum of Mulliken charges =  -0.00000
 Mulliken charges with hydrogens summed into heavy atoms:
               1
     1  C   -0.845698
     2  C    0.550770
     3  C    0.021719
     4  C   -0.145460
     5  C    0.238167
     6  C    0.199907
     7  O   -0.191168
     8  C    0.865658
     9  O   -0.107177
    10  O   -0.460718
    11  O   -0.126001
 Electronic spatial extent (au):  <R**2>=           1751.4593
 Charge=             -0.0000 electrons
 Dipole moment (field-independent basis, Debye):
    X=             -3.8147    Y=              1.8439    Z=              0.0011  Tot=              4.2370
 Quadrupole moment (field-independent basis, Debye-Ang):
   XX=            -58.9087   YY=            -53.8006   ZZ=            -65.8234
   XY=            -10.6170   XZ=             -0.0016   YZ=              0.0001
 Traceless Quadrupole moment (field-independent basis, Debye-Ang):
   XX=              0.6022   YY=              5.7103   ZZ=             -6.3125
   XY=            -10.6170   XZ=             -0.0016   YZ=              0.0001
 Octapole moment (field-independent basis, Debye-Ang**2):
  XXX=            -62.0788  YYY=             34.7324  ZZZ=             -0.0008  XYY=             23.7536
  XXY=            -19.8958  XXZ=              0.0152  XZZ=              8.0304  YZZ=             -3.0780
  YYZ=             -0.0012  XYZ=              0.0062
 Hexadecapole moment (field-independent basis, Debye-Ang**3):
 XXXX=          -1160.5752 YYYY=           -611.1632 ZZZZ=            -69.9733 XXXY=            -79.6640
 XXXZ=             -0.0337 YYYX=            -27.7381 YYYZ=              0.0092 ZZZX=             -0.0026
 ZZZY=              0.0007 XXYY=           -323.8656 XXZZ=           -248.3817 YYZZ=           -147.5745
 XXYZ=             -0.0106 YYXZ=             -0.0095 ZZXY=              3.8927
 N-N= 5.891542397892D+02 E-N=-2.513414951581D+03  KE= 5.659184698453D+02
 Calling FoFJK, ICntrl=      2127 FMM=F ISym2X=0 I1Cent= 0 IOpClX= 0 NMat=1 NMatS=1 NMatT=0.
 ***** Axes restored to original set *****
 -------------------------------------------------------------------
 Center     Atomic                   Forces (Hartrees/Bohr)
 Number     Number              X              Y              Z
 -------------------------------------------------------------------
      1        6          -0.000544434   -0.002568719    0.000001648
      2        6          -0.004493953    0.002820028    0.000017278
      3        6          -0.000077831    0.005046185    0.000001645
      4        6           0.001710518    0.001367297   -0.000002899
      5        6           0.004492765   -0.002942736    0.000001297
      6        6           0.001552411   -0.004413875   -0.000001323
      7        8           0.002002766    0.004424250    0.000004026
      8        6           0.006053370   -0.000804335   -0.000065579
      9        8           0.001581724    0.007729662    0.000017595
     10        8          -0.009333209   -0.005994693    0.000027449
     11        8          -0.004670020   -0.001677719    0.000000829
     12        1          -0.000013101    0.000230433    0.000000024
     13        1           0.000615723   -0.000269175    0.000000260
     14        1           0.000153055   -0.000671083   -0.000000142
     15        1           0.001450927   -0.000994788   -0.000002694
     16        1          -0.001329889    0.000354439    0.000000754
     17        1           0.000849178   -0.001635171   -0.000000168
 -------------------------------------------------------------------
 Cartesian Forces:  Max     0.009333209 RMS     0.002787251

 GradGradGradGradGradGradGradGradGradGradGradGradGradGradGradGradGradGrad
 Berny optimization.
 FormGI is forming the generalized inverse of G from B-inverse, IUseBI=4.
 Internal  Forces:  Max     0.011092254 RMS     0.002631000
 Search for a local minimum.
 Step number   1 out of a maximum of   85
 All quantities printed in internal units (Hartrees-Bohrs-Radians)
 Mixed Optimization -- RFO/linear search
 Second derivative matrix not updated -- first step.
 ITU=  0
     Eigenvalues ---    0.00935   0.01299   0.01646   0.01964   0.02033
     Eigenvalues ---    0.02035   0.02098   0.02110   0.02126   0.02129
     Eigenvalues ---    0.02138   0.02151   0.02165   0.02202   0.16000
     Eigenvalues ---    0.16000   0.16000   0.16000   0.16000   0.16000
     Eigenvalues ---    0.22368   0.23487   0.24600   0.25000   0.25000
     Eigenvalues ---    0.25000   0.25000   0.25000   0.33757   0.35086
     Eigenvalues ---    0.35094   0.35704   0.40981   0.41727   0.44464
     Eigenvalues ---    0.45444   0.46221   0.46799   0.50177   0.51564
     Eigenvalues ---    0.52664   0.53158   0.54076   0.54271   0.98190
 RFO step:  Lambda=-9.81474781D-04 EMin= 9.35125468D-03
 Linear search not attempted -- first point.
 Iteration  1 RMS(Cart)=  0.01070950 RMS(Int)=  0.00000660
 Iteration  2 RMS(Cart)=  0.00000902 RMS(Int)=  0.00000139
 Iteration  3 RMS(Cart)=  0.00000000 RMS(Int)=  0.00000139
 Variable       Old X    -DE/DX   Delta X   Delta X   Delta X     New X
                                 (Linear)    (Quad)   (Total)
    R1        2.67317  -0.00792   0.00000  -0.01833  -0.01833   2.65484
    R2        2.64643  -0.00628   0.00000  -0.01375  -0.01375   2.63268
    R3        2.57268  -0.00505   0.00000  -0.00958  -0.00958   2.56311
    R4        2.65640  -0.00688   0.00000  -0.01545  -0.01545   2.64095
    R5        2.81042  -0.00329   0.00000  -0.00972  -0.00972   2.80070
    R6        2.62892  -0.00617   0.00000  -0.01308  -0.01308   2.61584
    R7        2.04547  -0.00023   0.00000  -0.00064  -0.00064   2.04483
    R8        2.64178  -0.00647   0.00000  -0.01397  -0.01398   2.62780
    R9        2.59687  -0.00487   0.00000  -0.00968  -0.00968   2.58719
   R10        2.63240  -0.00536   0.00000  -0.01134  -0.01135   2.62105
   R11        2.05535  -0.00067   0.00000  -0.00191  -0.00191   2.05344
   R12        2.05523  -0.00069   0.00000  -0.00195  -0.00195   2.05327
   R13        1.82485  -0.00174   0.00000  -0.00320  -0.00320   1.82165
   R14        2.58319  -0.00808   0.00000  -0.01563  -0.01563   2.56756
   R15        2.29372  -0.01109   0.00000  -0.01129  -0.01129   2.28244
   R16        1.83507  -0.00138   0.00000  -0.00259  -0.00259   1.83248
   R17        1.82662  -0.00183   0.00000  -0.00338  -0.00338   1.82324
    A1        2.07664   0.00016   0.00000   0.00060   0.00061   2.07725
    A2        2.09335  -0.00046   0.00000  -0.00181  -0.00181   2.09154
    A3        2.11319   0.00030   0.00000   0.00120   0.00120   2.11439
    A4        2.07770   0.00090   0.00000   0.00336   0.00337   2.08107
    A5        2.11991  -0.00060   0.00000  -0.00227  -0.00228   2.11763
    A6        2.08558  -0.00030   0.00000  -0.00109  -0.00109   2.08448
    A7        2.11825  -0.00066   0.00000  -0.00310  -0.00309   2.11516
    A8        2.08644   0.00031   0.00000   0.00142   0.00142   2.08785
    A9        2.07850   0.00035   0.00000   0.00168   0.00168   2.08018
   A10        2.08443   0.00028   0.00000   0.00134   0.00134   2.08577
   A11        2.05106  -0.00007   0.00000  -0.00041  -0.00040   2.05066
   A12        2.14769  -0.00021   0.00000  -0.00094  -0.00094   2.14676
   A13        2.09239  -0.00014   0.00000  -0.00013  -0.00014   2.09225
   A14        2.10315   0.00004   0.00000  -0.00010  -0.00010   2.10305
   A15        2.08765   0.00010   0.00000   0.00023   0.00023   2.08788
   A16        2.11695  -0.00054   0.00000  -0.00208  -0.00208   2.11487
   A17        2.08121   0.00023   0.00000   0.00079   0.00079   2.08200
   A18        2.08502   0.00031   0.00000   0.00129   0.00129   2.08631
   A19        1.92303   0.00039   0.00000   0.00244   0.00244   1.92547
   A20        1.95827   0.00030   0.00000   0.00118   0.00118   1.95945
   A21        2.21187   0.00014   0.00000   0.00056   0.00056   2.21242
   A22        2.11305  -0.00044   0.00000  -0.00174  -0.00174   2.11131
   A23        1.84715   0.00003   0.00000   0.00021   0.00021   1.84736
   A24        1.90790   0.00043   0.00000   0.00265   0.00265   1.91056
    D1        0.00000  -0.00000   0.00000  -0.00005  -0.00005  -0.00005
    D2        3.14159  -0.00000   0.00000  -0.00005  -0.00005   3.14153
    D3        3.14157  -0.00000   0.00000  -0.00003  -0.00003   3.14154
    D4       -0.00002  -0.00000   0.00000  -0.00004  -0.00004  -0.00007
    D5       -0.00002   0.00000   0.00000   0.00003   0.00003   0.00000
    D6        3.14159   0.00000   0.00000   0.00002   0.00002  -3.14158
    D7        3.14159   0.00000   0.00000   0.00001   0.00001  -3.14158
    D8        0.00001   0.00000   0.00000   0.00000   0.00000   0.00002
    D9       -3.14155  -0.00000   0.00000  -0.00001  -0.00001  -3.14156
   D10        0.00002   0.00000   0.00000   0.00000   0.00000   0.00002
   D11        0.00001   0.00000   0.00000   0.00004   0.00004   0.00006
   D12       -3.14158   0.00000   0.00000   0.00001   0.00001  -3.14156
   D13       -3.14157   0.00000   0.00000   0.00005   0.00005  -3.14152
   D14        0.00002   0.00000   0.00000   0.00002   0.00002   0.00004
   D15        3.14159  -0.00002   0.00000  -0.00112  -0.00112   3.14047
   D16       -0.00046   0.00002   0.00000   0.00108   0.00108   0.00062
   D17       -0.00001  -0.00002   0.00000  -0.00112  -0.00112  -0.00113
   D18        3.14113   0.00002   0.00000   0.00108   0.00108  -3.14098
   D19       -0.00001  -0.00000   0.00000  -0.00002  -0.00002  -0.00003
   D20        3.14154  -0.00000   0.00000  -0.00001  -0.00001   3.14153
   D21        3.14159   0.00000   0.00000   0.00001   0.00001  -3.14159
   D22       -0.00006   0.00000   0.00000   0.00002   0.00002  -0.00004
   D23       -0.00002   0.00000   0.00000  -0.00000   0.00000  -0.00002
   D24        3.14157   0.00000   0.00000   0.00001   0.00001   3.14158
   D25       -3.14156  -0.00000   0.00000  -0.00001  -0.00001  -3.14157
   D26        0.00003  -0.00000   0.00000  -0.00001  -0.00001   0.00003
   D27        3.14108   0.00000   0.00000   0.00007   0.00007   3.14115
   D28       -0.00057   0.00000   0.00000   0.00008   0.00008  -0.00048
   D29        0.00003  -0.00000   0.00000  -0.00000  -0.00000   0.00003
   D30       -3.14158   0.00000   0.00000   0.00001   0.00001  -3.14157
   D31       -3.14155  -0.00000   0.00000  -0.00001  -0.00001  -3.14157
   D32        0.00002  -0.00000   0.00000  -0.00000  -0.00000   0.00002
   D33        3.14134   0.00001   0.00000   0.00105   0.00105  -3.14080
   D34        0.00018  -0.00001   0.00000  -0.00101  -0.00101  -0.00083
         Item               Value     Threshold  Converged?
 Maximum Force            0.011092     0.000450     NO 
 RMS     Force            0.002631     0.000300     NO 
 Maximum Displacement     0.031736     0.001800     NO 
 RMS     Displacement     0.010711     0.001200     NO 
 Predicted change in Energy=-4.917319D-04
 GradGradGradGradGradGradGradGradGradGradGradGradGradGradGradGradGradGrad

                          Input orientation:                          
 ---------------------------------------------------------------------
 Center     Atomic      Atomic             Coordinates (Angstroms)
 Number     Number       Type             X           Y           Z
 ---------------------------------------------------------------------
      1          6           0        0.228478    1.267723   -0.000119
      2          6           0        0.461528   -0.117695   -0.000363
      3          6           0       -0.627845   -0.993114   -0.000312
      4          6           0       -1.928398   -0.519104   -0.000094
      5          6           0       -2.157447    0.852477    0.000109
      6          6           0       -1.085016    1.732057    0.000113
      7          8           0       -2.938101   -1.443707   -0.000137
      8          6           0        1.837775   -0.667668   -0.000689
      9          8           0        1.849288   -2.026313    0.000516
     10          8           0        2.868103   -0.037399   -0.000177
     11          8           0        1.276786    2.128364   -0.000104
     12          1           0       -0.455584   -2.061390   -0.000470
     13          1           0       -3.171805    1.242164    0.000268
     14          1           0       -1.270347    2.802681    0.000293
     15          1           0       -3.795494   -1.003110    0.000428
     16          1           0        2.784355   -2.283180    0.000930
     17          1           0        0.948089    3.035464    0.000105
 ---------------------------------------------------------------------
                    Distance matrix (angstroms):
                    1          2          3          4          5
     1  C    0.000000
     2  C    1.404882   0.000000
     3  C    2.417575   1.397531   0.000000
     4  C    2.800868   2.423402   1.384241   0.000000
     5  C    2.421790   2.792896   2.397058   1.390574   0.000000
     6  C    1.393152   2.411095   2.763252   2.403959   1.387000
     7  O    4.168821   3.649080   2.353787   1.369084   2.425259
     8  C    2.517056   1.482068   2.487006   3.769102   4.274651
     9  O    3.671199   2.359810   2.683970   4.067259   4.933697
    10  O    2.944650   2.407914   3.624230   4.820629   5.103727
    11  O    1.356338   2.389440   3.656671   4.157197   3.663583
    12  H    3.398666   2.149197   1.082076   2.132564   3.374457
    13  H    3.400379   3.879475   3.386473   2.155951   1.086636
    14  H    2.145361   3.395289   3.849788   3.386338   2.142485
    15  H    4.620501   4.348126   3.167665   1.928810   2.475156
    16  H    4.375091   3.175665   3.647929   5.032098   5.852671
    17  H    1.908599   3.190478   4.325854   4.572651   3.796023
                    6          7          8          9         10
     6  C    0.000000
     7  O    3.676874   0.000000
     8  C    3.781717   4.838515   0.000000
     9  O    4.768175   4.822709   1.358695   0.000000
    10  O    4.331065   5.974086   1.207815   2.234673   0.000000
    11  O    2.394821   5.524940   2.851754   4.193936   2.687530
    12  H    3.845313   2.558207   2.683646   2.305139   3.891457
    13  H    2.143521   2.696019   5.361282   5.991187   6.173959
    14  H    1.086546   4.562150   4.658728   5.749027   5.019245
    15  H    3.850692   0.963976   5.643247   5.736769   6.733210
    16  H    5.576214   5.783703   1.872404   0.969706   2.247342
    17  H    2.415034   5.930046   3.808507   5.141377   3.623388
                   11         12         13         14         15
    11  O    0.000000
    12  H    4.533778   0.000000
    13  H    4.536001   4.276836   0.000000
    14  H    2.634880   4.931838   2.459828   0.000000
    15  H    5.961053   3.503564   2.330288   4.567319   0.000000
    16  H    4.662026   3.247521   6.921264   6.504352   6.703208
    17  H    0.964817   5.286608   4.493268   2.230616   6.229901
                   16         17
    16  H    0.000000
    17  H    5.626708   0.000000
 Stoichiometry    C7H6O4
 Framework group  C1[X(C7H6O4)]
 Deg. of freedom    45
 Full point group                 C1      NOp   1
 Largest Abelian subgroup         C1      NOp   1
 Largest concise Abelian subgroup C1      NOp   1
                         Standard orientation:                         
 ---------------------------------------------------------------------
 Center     Atomic      Atomic             Coordinates (Angstroms)
 Number     Number       Type             X           Y           Z
 ---------------------------------------------------------------------
      1          6           0        0.231056    1.267214   -0.000046
      2          6           0        0.463170   -0.118361   -0.000291
      3          6           0       -0.626795   -0.993044   -0.000239
      4          6           0       -1.927027   -0.518155   -0.000022
      5          6           0       -2.155149    0.853580    0.000181
      6          6           0       -1.082124    1.732436    0.000186
      7          8           0       -2.937354   -1.442075   -0.000065
      8          6           0        1.839044   -0.669264   -0.000617
      9          8           0        1.849640   -2.027917    0.000588
     10          8           0        2.869798   -0.039691   -0.000105
     11          8           0        1.279945    2.127146   -0.000031
     12          1           0       -0.455255   -2.061436   -0.000398
     13          1           0       -3.169243    1.243953    0.000341
     14          1           0       -1.266732    2.803184    0.000365
     15          1           0       -3.794450   -1.000899    0.000501
     16          1           0        2.784533   -2.285415    0.001002
     17          1           0        0.951862    3.034469    0.000177
 ---------------------------------------------------------------------
 Rotational constants (GHZ):      1.7719161      0.9210450      0.6060297
 Standard basis: 6-31+G(d,p) (6D, 7F)
 There are   239 symmetry adapted cartesian basis functions of A   symmetry.
 There are   239 symmetry adapted basis functions of A   symmetry.
   239 basis functions,   394 primitive gaussians,   239 cartesian basis functions
    40 alpha electrons       40 beta electrons
       nuclear repulsion energy       592.0161338644 Hartrees.
 NAtoms=   17 NActive=   17 NUniq=   17 SFac= 1.00D+00 NAtFMM=   60 NAOKFM=F Big=F
 Integral buffers will be    131072 words long.
 Raffenetti 2 integral format.
 Two-electron integral symmetry is turned on.
 One-electron integrals computed using PRISM.
 NBasis=   239 RedAO= T EigKep=  3.10D-06  NBF=   239
 NBsUse=   239 1.00D-06 EigRej= -1.00D+00 NBFU=   239
 Initial guess from the checkpoint file:  "camb3lypDHBgd3.chk"
 B after Tr=     0.000000    0.000000    0.000000
         Rot=    1.000000    0.000008   -0.000005    0.000332 Ang=   0.04 deg.
 ExpMin= 4.38D-02 ExpMax= 5.48D+03 ExpMxC= 8.25D+02 IAcc=2 IRadAn=         4 AccDes= 0.00D+00
 Harris functional with IExCor=20419 and IRadAn=       4 diagonalized for initial guess.
 HarFok:  IExCor=20419 AccDes= 0.00D+00 IRadAn=         4 IDoV= 1 UseB2=F ITyADJ=14
 ICtDFT=  3500011 ScaDFX=  1.000000  1.000000  1.000000  1.000000
 FoFCou: FMM=F IPFlag=           0 FMFlag=      100000 FMFlg1=           0
         NFxFlg=           0 DoJE=T BraDBF=F KetDBF=T FulRan=T
         wScrn=  0.000000 ICntrl=     500 IOpCl=  0 I1Cent=   200000004 NGrid=           0
         NMat0=    1 NMatS0=      1 NMatT0=    0 NMatD0=    1 NMtDS0=    0 NMtDT0=    0
 Petite list used in FoFCou.
 Keep R1 ints in memory in canonical form, NReq=829678955.
 Requested convergence on RMS density matrix=1.00D-08 within 128 cycles.
 Requested convergence on MAX density matrix=1.00D-06.
 Requested convergence on             energy=1.00D-06.
 No special actions if energy rises.
 SCF Done:  E(RCAM-B3LYP) =  -571.050050711     A.U. after   12 cycles
            NFock= 12  Conv=0.73D-08     -V/T= 2.0087
 Calling FoFJK, ICntrl=      2127 FMM=F ISym2X=0 I1Cent= 0 IOpClX= 0 NMat=1 NMatS=1 NMatT=0.
 ***** Axes restored to original set *****
 -------------------------------------------------------------------
 Center     Atomic                   Forces (Hartrees/Bohr)
 Number     Number              X              Y              Z
 -------------------------------------------------------------------
      1        6           0.001051796    0.000694143   -0.000005308
      2        6          -0.000395555    0.000125263   -0.000070499
      3        6           0.000444862   -0.000609400   -0.000007860
      4        6          -0.001087840   -0.000979921    0.000003208
      5        6          -0.000364859    0.000189054    0.000000748
      6        6          -0.000320007    0.000712358    0.000004460
      7        8          -0.000241995    0.000534778    0.000002978
      8        6           0.000842950   -0.001990935    0.000248661
      9        8           0.000373016    0.000971092   -0.000075543
     10        8           0.000392657    0.000370848   -0.000093902
     11        8          -0.000549465    0.000515109   -0.000003352
     12        1          -0.000125551    0.000002551   -0.000001038
     13        1          -0.000162593   -0.000004512   -0.000000402
     14        1          -0.000021378    0.000124863    0.000000354
     15        1          -0.000034146   -0.000332114   -0.000001786
     16        1          -0.000109104   -0.000301722   -0.000000795
     17        1           0.000307211   -0.000021456    0.000000074
 -------------------------------------------------------------------
 Cartesian Forces:  Max     0.001990935 RMS     0.000498251

 GradGradGradGradGradGradGradGradGradGradGradGradGradGradGradGradGradGrad
 Berny optimization.
 Using GEDIIS/GDIIS optimizer.
 FormGI is forming the generalized inverse of G from B-inverse, IUseBI=4.
 Internal  Forces:  Max     0.001743705 RMS     0.000416989
 Search for a local minimum.
 Step number   2 out of a maximum of   85
 All quantities printed in internal units (Hartrees-Bohrs-Radians)
 Mixed Optimization -- En-DIIS/RFO-DIIS
 Update second derivatives using D2CorX and points    1    2
 DE= -4.39D-04 DEPred=-4.92D-04 R= 8.94D-01
 TightC=F SS=  1.41D+00  RLast= 4.49D-02 DXNew= 5.0454D-01 1.3477D-01
 Trust test= 8.94D-01 RLast= 4.49D-02 DXMaxT set to 3.00D-01
 ITU=  1  0
 Use linear search instead of GDIIS.
     Eigenvalues ---    0.00935   0.01299   0.01648   0.01964   0.02033
     Eigenvalues ---    0.02035   0.02098   0.02110   0.02126   0.02129
     Eigenvalues ---    0.02138   0.02151   0.02165   0.02202   0.15868
     Eigenvalues ---    0.16000   0.16000   0.16000   0.16000   0.16007
     Eigenvalues ---    0.22377   0.23568   0.24582   0.24965   0.25000
     Eigenvalues ---    0.25000   0.25000   0.25054   0.34203   0.35090
     Eigenvalues ---    0.35123   0.35703   0.41359   0.41705   0.44486
     Eigenvalues ---    0.46172   0.46304   0.49235   0.50404   0.51704
     Eigenvalues ---    0.53137   0.53327   0.54034   0.54243   0.98210
 RFO step:  Lambda=-2.10962449D-05 EMin= 9.35125714D-03
 Quartic linear search produced a step of -0.09893.
 Iteration  1 RMS(Cart)=  0.00275977 RMS(Int)=  0.00000453
 Iteration  2 RMS(Cart)=  0.00000557 RMS(Int)=  0.00000200
 Iteration  3 RMS(Cart)=  0.00000000 RMS(Int)=  0.00000200
 Variable       Old X    -DE/DX   Delta X   Delta X   Delta X     New X
                                 (Linear)    (Quad)   (Total)
    R1        2.65484   0.00147   0.00181   0.00086   0.00267   2.65751
    R2        2.63268   0.00103   0.00136   0.00036   0.00172   2.63439
    R3        2.56311   0.00013   0.00095  -0.00095  -0.00001   2.56310
    R4        2.64095   0.00111   0.00153   0.00037   0.00190   2.64285
    R5        2.80070   0.00174   0.00096   0.00345   0.00441   2.80512
    R6        2.61584   0.00115   0.00129   0.00059   0.00189   2.61772
    R7        2.04483  -0.00002   0.00006  -0.00014  -0.00007   2.04475
    R8        2.62780   0.00072   0.00138  -0.00035   0.00103   2.62884
    R9        2.58719   0.00006   0.00096  -0.00107  -0.00011   2.58708
   R10        2.62105   0.00086   0.00112   0.00024   0.00136   2.62241
   R11        2.05344   0.00015   0.00019   0.00015   0.00034   2.05378
   R12        2.05327   0.00013   0.00019   0.00009   0.00028   2.05355
   R13        1.82165  -0.00012   0.00032  -0.00059  -0.00027   1.82138
   R14        2.56756  -0.00066   0.00155  -0.00307  -0.00152   2.56604
   R15        2.28244   0.00053   0.00112  -0.00089   0.00023   2.28267
   R16        1.83248  -0.00003   0.00026  -0.00036  -0.00011   1.83237
   R17        1.82324  -0.00013   0.00033  -0.00063  -0.00029   1.82295
    A1        2.07725  -0.00023  -0.00006  -0.00069  -0.00075   2.07650
    A2        2.09154   0.00053   0.00018   0.00166   0.00184   2.09338
    A3        2.11439  -0.00030  -0.00012  -0.00097  -0.00109   2.11330
    A4        2.08107  -0.00017  -0.00033  -0.00011  -0.00044   2.08063
    A5        2.11763   0.00040   0.00023   0.00111   0.00134   2.11897
    A6        2.08448  -0.00023   0.00011  -0.00101  -0.00090   2.08358
    A7        2.11516   0.00028   0.00031   0.00077   0.00107   2.11623
    A8        2.08785  -0.00001  -0.00014   0.00033   0.00019   2.08804
    A9        2.08018  -0.00027  -0.00017  -0.00109  -0.00126   2.07892
   A10        2.08577  -0.00029  -0.00013  -0.00101  -0.00114   2.08463
   A11        2.05066   0.00031   0.00004   0.00113   0.00117   2.05183
   A12        2.14676  -0.00002   0.00009  -0.00012  -0.00003   2.14673
   A13        2.09225   0.00023   0.00001   0.00071   0.00073   2.09298
   A14        2.10305  -0.00018   0.00001  -0.00072  -0.00071   2.10235
   A15        2.08788  -0.00006  -0.00002   0.00000  -0.00002   2.08786
   A16        2.11487   0.00017   0.00021   0.00032   0.00053   2.11540
   A17        2.08200  -0.00009  -0.00008  -0.00022  -0.00029   2.08171
   A18        2.08631  -0.00008  -0.00013  -0.00011  -0.00023   2.08608
   A19        1.92547   0.00056  -0.00024   0.00346   0.00322   1.92869
   A20        1.95945   0.00014  -0.00012   0.00064   0.00052   1.95996
   A21        2.21242  -0.00019  -0.00006  -0.00062  -0.00068   2.21174
   A22        2.11131   0.00005   0.00017  -0.00002   0.00015   2.11146
   A23        1.84736   0.00059  -0.00002   0.00338   0.00336   1.85072
   A24        1.91056   0.00052  -0.00026   0.00326   0.00300   1.91355
    D1       -0.00005   0.00000   0.00000   0.00015   0.00016   0.00011
    D2        3.14153   0.00000   0.00001   0.00019   0.00019  -3.14146
    D3        3.14154   0.00000   0.00000   0.00013   0.00013  -3.14152
    D4       -0.00007   0.00000   0.00000   0.00016   0.00016   0.00010
    D5        0.00000  -0.00000  -0.00000  -0.00007  -0.00007  -0.00007
    D6       -3.14158  -0.00000  -0.00000  -0.00005  -0.00005   3.14155
    D7       -3.14158  -0.00000  -0.00000  -0.00004  -0.00004   3.14156
    D8        0.00002  -0.00000  -0.00000  -0.00002  -0.00002  -0.00000
    D9       -3.14156   0.00000   0.00000   0.00002   0.00002  -3.14154
   D10        0.00002  -0.00000  -0.00000  -0.00001  -0.00001   0.00001
   D11        0.00006  -0.00000  -0.00000  -0.00016  -0.00016  -0.00010
   D12       -3.14156  -0.00000  -0.00000  -0.00006  -0.00006   3.14157
   D13       -3.14152  -0.00000  -0.00001  -0.00019  -0.00020   3.14147
   D14        0.00004  -0.00000  -0.00000  -0.00009  -0.00009  -0.00005
   D15        3.14047   0.00006   0.00011   0.00420   0.00431  -3.13840
   D16        0.00062  -0.00006  -0.00011  -0.00388  -0.00399  -0.00336
   D17       -0.00113   0.00006   0.00011   0.00424   0.00435   0.00322
   D18       -3.14098  -0.00006  -0.00011  -0.00385  -0.00396   3.13825
   D19       -0.00003   0.00000   0.00000   0.00007   0.00008   0.00005
   D20        3.14153   0.00000   0.00000   0.00008   0.00008  -3.14158
   D21       -3.14159  -0.00000  -0.00000  -0.00003  -0.00003   3.14156
   D22       -0.00004  -0.00000  -0.00000  -0.00003  -0.00003  -0.00006
   D23       -0.00002   0.00000  -0.00000   0.00002   0.00002  -0.00000
   D24        3.14158  -0.00000  -0.00000  -0.00001  -0.00001   3.14157
   D25       -3.14157   0.00000   0.00000   0.00001   0.00001  -3.14156
   D26        0.00003  -0.00000   0.00000  -0.00002  -0.00002   0.00001
   D27        3.14115   0.00000  -0.00001   0.00007   0.00007   3.14121
   D28       -0.00048   0.00000  -0.00001   0.00008   0.00007  -0.00041
   D29        0.00003  -0.00000   0.00000  -0.00002  -0.00002   0.00001
   D30       -3.14157  -0.00000  -0.00000  -0.00004  -0.00004   3.14158
   D31       -3.14157   0.00000   0.00000   0.00001   0.00001  -3.14156
   D32        0.00002  -0.00000   0.00000  -0.00001  -0.00001   0.00001
   D33       -3.14080  -0.00006  -0.00010  -0.00381  -0.00392   3.13847
   D34       -0.00083   0.00006   0.00010   0.00374   0.00384   0.00301
         Item               Value     Threshold  Converged?
 Maximum Force            0.001744     0.000450     NO 
 RMS     Force            0.000417     0.000300     NO 
 Maximum Displacement     0.009222     0.001800     NO 
 RMS     Displacement     0.002757     0.001200     NO 
 Predicted change in Energy=-1.608420D-05
 GradGradGradGradGradGradGradGradGradGradGradGradGradGradGradGradGradGrad

                          Input orientation:                          
 ---------------------------------------------------------------------
 Center     Atomic      Atomic             Coordinates (Angstroms)
 Number     Number       Type             X           Y           Z
 ---------------------------------------------------------------------
      1          6           0        0.229205    1.269642    0.000512
      2          6           0        0.462700   -0.117133    0.001290
      3          6           0       -0.627708   -0.992868    0.001066
      4          6           0       -1.929572   -0.519539    0.000218
      5          6           0       -2.158223    0.852661   -0.000483
      6          6           0       -1.085563    1.733097   -0.000325
      7          8           0       -2.939587   -1.443711    0.000069
      8          6           0        1.840461   -0.669610    0.002369
      9          8           0        1.851062   -2.027453   -0.001016
     10          8           0        2.871210   -0.039805   -0.000561
     11          8           0        1.275795    2.132367    0.000626
     12          1           0       -0.455959   -2.061187    0.001636
     13          1           0       -3.172885    1.242056   -0.001178
     14          1           0       -1.271569    2.803754   -0.000891
     15          1           0       -3.798099   -1.005613   -0.000199
     16          1           0        2.785032   -2.288060   -0.002910
     17          1           0        0.948063    3.039652    0.000074
 ---------------------------------------------------------------------
                    Distance matrix (angstroms):
                    1          2          3          4          5
     1  C    0.000000
     2  C    1.406295   0.000000
     3  C    2.419349   1.398535   0.000000
     4  C    2.803834   2.425881   1.385240   0.000000
     5  C    2.423569   2.794592   2.397594   1.391120   0.000000
     6  C    1.394062   2.412567   2.764149   2.405561   1.387720
     7  O    4.171754   3.651763   2.355429   1.369023   2.425666
     8  C    2.521278   1.484404   2.489247   3.773018   4.278643
     9  O    3.674406   2.361541   2.686014   4.070257   4.936540
    10  O    2.948701   2.409751   3.626397   4.824691   5.108003
    11  O    1.356335   2.391940   3.659292   4.160166   3.664714
    12  H    3.400570   2.150182   1.082037   2.132654   3.374644
    13  H    3.402202   3.881350   3.387154   2.156165   1.086815
    14  H    2.146118   3.396951   3.850831   3.387808   2.143110
    15  H    4.625577   4.352449   3.170417   1.930716   2.478381
    16  H    4.380583   3.179019   3.650251   5.035391   5.856612
    17  H    1.910417   3.193881   4.329466   4.576967   3.798940
                    6          7          8          9         10
     6  C    0.000000
     7  O    3.678249   0.000000
     8  C    3.786109   4.842323   0.000000
     9  O    4.771321   4.826083   1.357889   0.000000
    10  O    4.335809   5.977986   1.207935   2.234155   0.000000
    11  O    2.394876   5.527909   2.858308   4.199410   2.695122
    12  H    3.846167   2.559235   2.685151   2.307269   3.893077
    13  H    2.144303   2.695880   5.365455   5.994141   6.178531
    14  H    1.086694   4.563249   4.663581   5.752511   5.024782
    15  H    3.854657   0.963832   5.648563   5.740834   6.738877
    16  H    5.581328   5.786553   1.873933   0.969649   2.249907
    17  H    2.417172   5.934170   3.815102   5.146937   3.630640
                   11         12         13         14         15
    11  O    0.000000
    12  H    4.537056   0.000000
    13  H    4.536894   4.277044   0.000000
    14  H    2.634355   4.932837   2.460468   0.000000
    15  H    5.965846   3.504873   2.333004   4.571064   0.000000
    16  H    4.670973   3.248926   6.925207   6.510190   6.706884
    17  H    0.964663   5.290543   4.495950   2.232132   6.236203
                   16         17
    16  H    0.000000
    17  H    5.635510   0.000000
 Stoichiometry    C7H6O4
 Framework group  C1[X(C7H6O4)]
 Deg. of freedom    45
 Full point group                 C1      NOp   1
 Largest Abelian subgroup         C1      NOp   1
 Largest concise Abelian subgroup C1      NOp   1
                         Standard orientation:                         
 ---------------------------------------------------------------------
 Center     Atomic      Atomic             Coordinates (Angstroms)
 Number     Number       Type             X           Y           Z
 ---------------------------------------------------------------------
      1          6           0        0.230493    1.269166    0.000295
      2          6           0        0.464081   -0.117593    0.001073
      3          6           0       -0.626269   -0.993401    0.000849
      4          6           0       -1.928165   -0.520159    0.000001
      5          6           0       -2.156908    0.852026   -0.000700
      6          6           0       -1.084307    1.732534   -0.000542
      7          8           0       -2.938118   -1.444398   -0.000148
      8          6           0        1.841878   -0.669978    0.002152
      9          8           0        1.852570   -2.027820   -0.001233
     10          8           0        2.872585   -0.040104   -0.000778
     11          8           0        1.277025    2.131962    0.000409
     12          1           0       -0.454449   -2.061709    0.001419
     13          1           0       -3.171596    1.241352   -0.001395
     14          1           0       -1.270384    2.803178   -0.001108
     15          1           0       -3.796659   -1.006358   -0.000416
     16          1           0        2.786557   -2.288365   -0.003127
     17          1           0        0.949232    3.039224   -0.000143
 ---------------------------------------------------------------------
 Rotational constants (GHZ):      1.7684887      0.9197832      0.6050827
 Standard basis: 6-31+G(d,p) (6D, 7F)
 There are   239 symmetry adapted cartesian basis functions of A   symmetry.
 There are   239 symmetry adapted basis functions of A   symmetry.
   239 basis functions,   394 primitive gaussians,   239 cartesian basis functions
    40 alpha electrons       40 beta electrons
       nuclear repulsion energy       591.6345331970 Hartrees.
 NAtoms=   17 NActive=   17 NUniq=   17 SFac= 1.00D+00 NAtFMM=   60 NAOKFM=F Big=F
 Integral buffers will be    131072 words long.
 Raffenetti 2 integral format.
 Two-electron integral symmetry is turned on.
 One-electron integrals computed using PRISM.
 NBasis=   239 RedAO= T EigKep=  3.12D-06  NBF=   239
 NBsUse=   239 1.00D-06 EigRej= -1.00D+00 NBFU=   239
 Initial guess from the checkpoint file:  "camb3lypDHBgd3.chk"
 B after Tr=     0.000000   -0.000000   -0.000000
         Rot=    1.000000   -0.000030    0.000015   -0.000361 Ang=  -0.04 deg.
 Keep R1 ints in memory in canonical form, NReq=829678955.
 Requested convergence on RMS density matrix=1.00D-08 within 128 cycles.
 Requested convergence on MAX density matrix=1.00D-06.
 Requested convergence on             energy=1.00D-06.
 No special actions if energy rises.
 SCF Done:  E(RCAM-B3LYP) =  -571.050065000     A.U. after   11 cycles
            NFock= 11  Conv=0.74D-08     -V/T= 2.0087
 Calling FoFJK, ICntrl=      2127 FMM=F ISym2X=0 I1Cent= 0 IOpClX= 0 NMat=1 NMatS=1 NMatT=0.
 ***** Axes restored to original set *****
 -------------------------------------------------------------------
 Center     Atomic                   Forces (Hartrees/Bohr)
 Number     Number              X              Y              Z
 -------------------------------------------------------------------
      1        6           0.000319524    0.000172942    0.000019216
      2        6          -0.000218323    0.000133474    0.000263073
      3        6           0.000190830   -0.000022604    0.000026793
      4        6          -0.000423067   -0.000279315   -0.000016479
      5        6          -0.000010037    0.000131503    0.000001102
      6        6          -0.000138989    0.000017392   -0.000016475
      7        8           0.000179972    0.000108765    0.000001133
      8        6           0.000224838   -0.000924357   -0.000928035
      9        8          -0.000139926    0.000435386    0.000279411
     10        8           0.000105663    0.000454254    0.000351294
     11        8          -0.000047875   -0.000151846    0.000013517
     12        1          -0.000000977   -0.000030345    0.000003331
     13        1          -0.000031407    0.000003734    0.000001702
     14        1           0.000002091    0.000009532   -0.000001401
     15        1           0.000041601    0.000003727   -0.000001695
     16        1          -0.000046819   -0.000008433    0.000004318
     17        1          -0.000007098   -0.000053809   -0.000000806
 -------------------------------------------------------------------
 Cartesian Forces:  Max     0.000928035 RMS     0.000245445

 GradGradGradGradGradGradGradGradGradGradGradGradGradGradGradGradGradGrad
 Berny optimization.
 Using GEDIIS/GDIIS optimizer.
 FormGI is forming the generalized inverse of G from B-inverse, IUseBI=4.
 Internal  Forces:  Max     0.000428673 RMS     0.000127327
 Search for a local minimum.
 Step number   3 out of a maximum of   85
 All quantities printed in internal units (Hartrees-Bohrs-Radians)
 Mixed Optimization -- En-DIIS/RFO-DIIS
 Swapping is turned off.
 Update second derivatives using D2CorX and points    1    2    3
 DE= -1.43D-05 DEPred=-1.61D-05 R= 8.88D-01
 TightC=F SS=  1.41D+00  RLast= 1.37D-02 DXNew= 5.0454D-01 4.1138D-02
 Trust test= 8.88D-01 RLast= 1.37D-02 DXMaxT set to 3.00D-01
 ITU=  1  1  0
     Eigenvalues ---    0.00935   0.01647   0.01802   0.01972   0.02033
     Eigenvalues ---    0.02035   0.02098   0.02110   0.02126   0.02129
     Eigenvalues ---    0.02138   0.02151   0.02165   0.02202   0.14992
     Eigenvalues ---    0.16000   0.16000   0.16000   0.16000   0.16053
     Eigenvalues ---    0.22374   0.22589   0.24026   0.24706   0.25000
     Eigenvalues ---    0.25000   0.25000   0.26816   0.32521   0.35081
     Eigenvalues ---    0.35097   0.35710   0.41695   0.42049   0.44058
     Eigenvalues ---    0.44509   0.46276   0.46343   0.50408   0.51813
     Eigenvalues ---    0.53142   0.53955   0.54072   0.54283   0.98118
 En-DIIS/RFO-DIIS IScMMF=        0 using points:     3    2
 RFO step:  Lambda=-3.87981308D-06.
 DidBck=F Rises=F RFO-DIIS coefs:    0.89436    0.10564
 Iteration  1 RMS(Cart)=  0.00444349 RMS(Int)=  0.00003062
 Iteration  2 RMS(Cart)=  0.00003671 RMS(Int)=  0.00001863
 Iteration  3 RMS(Cart)=  0.00000000 RMS(Int)=  0.00001863
 Variable       Old X    -DE/DX   Delta X   Delta X   Delta X     New X
                                 (Linear)    (Quad)   (Total)
    R1        2.65751  -0.00007  -0.00028   0.00162   0.00134   2.65885
    R2        2.63439   0.00018  -0.00018   0.00145   0.00127   2.63566
    R3        2.56310  -0.00017   0.00000  -0.00049  -0.00049   2.56261
    R4        2.64285   0.00000  -0.00020   0.00121   0.00101   2.64386
    R5        2.80512   0.00015  -0.00047   0.00376   0.00329   2.80841
    R6        2.61772   0.00018  -0.00020   0.00159   0.00139   2.61912
    R7        2.04475   0.00003   0.00001  -0.00000   0.00001   2.04476
    R8        2.62884   0.00019  -0.00011   0.00092   0.00081   2.62964
    R9        2.58708  -0.00024   0.00001  -0.00072  -0.00071   2.58637
   R10        2.62241   0.00009  -0.00014   0.00104   0.00089   2.62330
   R11        2.05378   0.00003  -0.00004   0.00031   0.00028   2.05406
   R12        2.05355   0.00001  -0.00003   0.00021   0.00018   2.05373
   R13        1.82138  -0.00003   0.00003  -0.00034  -0.00031   1.82107
   R14        2.56604  -0.00042   0.00016  -0.00228  -0.00212   2.56392
   R15        2.28267   0.00032  -0.00002   0.00024   0.00021   2.28288
   R16        1.83237  -0.00004   0.00001  -0.00022  -0.00020   1.83217
   R17        1.82295  -0.00005   0.00003  -0.00039  -0.00036   1.82259
    A1        2.07650  -0.00004   0.00008  -0.00078  -0.00070   2.07581
    A2        2.09338  -0.00013  -0.00019   0.00102   0.00083   2.09421
    A3        2.11330   0.00017   0.00012  -0.00025  -0.00013   2.11317
    A4        2.08063   0.00010   0.00005   0.00001   0.00006   2.08069
    A5        2.11897  -0.00015  -0.00014   0.00052   0.00038   2.11935
    A6        2.08358   0.00006   0.00010  -0.00053  -0.00043   2.08315
    A7        2.11623   0.00000  -0.00011   0.00080   0.00069   2.11692
    A8        2.08804   0.00001  -0.00002   0.00023   0.00021   2.08825
    A9        2.07892  -0.00001   0.00013  -0.00103  -0.00090   2.07802
   A10        2.08463  -0.00007   0.00012  -0.00111  -0.00099   2.08364
   A11        2.05183  -0.00002  -0.00012   0.00087   0.00074   2.05257
   A12        2.14673   0.00009   0.00000   0.00024   0.00025   2.14697
   A13        2.09298  -0.00000  -0.00008   0.00064   0.00056   2.09354
   A14        2.10235  -0.00000   0.00007  -0.00062  -0.00055   2.10180
   A15        2.08786   0.00000   0.00000  -0.00002  -0.00002   2.08785
   A16        2.11540   0.00001  -0.00006   0.00043   0.00037   2.11577
   A17        2.08171  -0.00001   0.00003  -0.00029  -0.00026   2.08145
   A18        2.08608   0.00000   0.00002  -0.00014  -0.00012   2.08596
   A19        1.92869  -0.00005  -0.00034   0.00240   0.00206   1.93076
   A20        1.95996  -0.00010  -0.00005   0.00012  -0.00002   1.95994
   A21        2.21174  -0.00032   0.00007  -0.00163  -0.00165   2.21009
   A22        2.11146   0.00043  -0.00002   0.00164   0.00154   2.11300
   A23        1.85072   0.00005  -0.00035   0.00298   0.00263   1.85334
   A24        1.91355  -0.00004  -0.00032   0.00226   0.00195   1.91550
    D1        0.00011  -0.00001  -0.00002  -0.00045  -0.00047  -0.00036
    D2       -3.14146  -0.00002  -0.00002  -0.00056  -0.00058   3.14115
    D3       -3.14152  -0.00001  -0.00001  -0.00037  -0.00038   3.14129
    D4        0.00010  -0.00001  -0.00002  -0.00047  -0.00049  -0.00039
    D5       -0.00007   0.00001   0.00001   0.00022   0.00022   0.00016
    D6        3.14155   0.00000   0.00001   0.00015   0.00015  -3.14148
    D7        3.14156   0.00000   0.00000   0.00013   0.00014  -3.14149
    D8       -0.00000   0.00000   0.00000   0.00006   0.00006   0.00006
    D9       -3.14154  -0.00000  -0.00000  -0.00007  -0.00007   3.14157
   D10        0.00001   0.00000   0.00000   0.00002   0.00002   0.00003
   D11       -0.00010   0.00001   0.00002   0.00046   0.00047   0.00037
   D12        3.14157   0.00000   0.00001   0.00015   0.00016  -3.14146
   D13        3.14147   0.00002   0.00002   0.00056   0.00058  -3.14114
   D14       -0.00005   0.00001   0.00001   0.00025   0.00026   0.00022
   D15       -3.13840  -0.00024  -0.00046  -0.01263  -0.01308   3.13171
   D16       -0.00336   0.00022   0.00042   0.01183   0.01224   0.00888
   D17        0.00322  -0.00024  -0.00046  -0.01273  -0.01318  -0.00997
   D18        3.13825   0.00022   0.00042   0.01173   0.01214  -3.13280
   D19        0.00005  -0.00001  -0.00001  -0.00021  -0.00022  -0.00017
   D20       -3.14158  -0.00001  -0.00001  -0.00020  -0.00020   3.14140
   D21        3.14156   0.00000   0.00000   0.00009   0.00009  -3.14153
   D22       -0.00006   0.00000   0.00000   0.00011   0.00011   0.00005
   D23       -0.00000  -0.00000  -0.00000  -0.00004  -0.00004  -0.00004
   D24        3.14157   0.00000   0.00000   0.00004   0.00005  -3.14157
   D25       -3.14156  -0.00000  -0.00000  -0.00005  -0.00005   3.14158
   D26        0.00001   0.00000   0.00000   0.00003   0.00003   0.00004
   D27        3.14121   0.00000  -0.00001   0.00011   0.00010   3.14132
   D28       -0.00041   0.00000  -0.00001   0.00013   0.00012  -0.00029
   D29        0.00001   0.00000   0.00000   0.00003   0.00003   0.00004
   D30        3.14158   0.00000   0.00000   0.00010   0.00010  -3.14151
   D31       -3.14156  -0.00000  -0.00000  -0.00005  -0.00005   3.14158
   D32        0.00001   0.00000   0.00000   0.00002   0.00002   0.00003
   D33        3.13847   0.00022   0.00041   0.01155   0.01198  -3.13273
   D34        0.00301  -0.00021  -0.00041  -0.01130  -0.01173  -0.00872
         Item               Value     Threshold  Converged?
 Maximum Force            0.000429     0.000450     YES
 RMS     Force            0.000127     0.000300     YES
 Maximum Displacement     0.022089     0.001800     NO 
 RMS     Displacement     0.004439     0.001200     NO 
 Predicted change in Energy=-1.009562D-05
 GradGradGradGradGradGradGradGradGradGradGradGradGradGradGradGradGradGrad

                          Input orientation:                          
 ---------------------------------------------------------------------
 Center     Atomic      Atomic             Coordinates (Angstroms)
 Number     Number       Type             X           Y           Z
 ---------------------------------------------------------------------
      1          6           0        0.229785    1.270673   -0.001416
      2          6           0        0.463169   -0.116837   -0.003740
      3          6           0       -0.627748   -0.992790   -0.003114
      4          6           0       -1.930580   -0.519972   -0.000693
      5          6           0       -2.158748    0.852740    0.001360
      6          6           0       -1.085863    1.733648    0.001016
      7          8           0       -2.940464   -1.443731   -0.000469
      8          6           0        1.842245   -0.670706   -0.006951
      9          8           0        1.852113   -2.027396    0.003568
     10          8           0        2.872393   -0.039741    0.000697
     11          8           0        1.275600    2.133930   -0.001626
     12          1           0       -0.456339   -2.061166   -0.004764
     13          1           0       -3.173600    1.242041    0.003290
     14          1           0       -1.272182    2.804346    0.002710
     15          1           0       -3.799662   -1.007345    0.001534
     16          1           0        2.785146   -2.290896    0.008778
     17          1           0        0.949097    3.041454    0.000117
 ---------------------------------------------------------------------
                    Distance matrix (angstroms):
                    1          2          3          4          5
     1  C    0.000000
     2  C    1.407003   0.000000
     3  C    2.420461   1.399069   0.000000
     4  C    2.805991   2.427460   1.385978   0.000000
     5  C    2.424822   2.795453   2.397908   1.391547   0.000000
     6  C    1.394733   2.413259   2.764661   2.406730   1.388193
     7  O    4.173544   3.653133   2.356271   1.368648   2.425874
     8  C    2.523690   1.486147   2.490907   3.775841   4.281227
     9  O    3.675491   2.362086   2.687036   4.071991   4.937832
    10  O    2.949672   2.410461   3.627575   4.826922   5.109687
    11  O    1.356076   2.392906   3.660480   4.162065   3.665542
    12  H    3.401754   2.150793   1.082040   2.132765   3.374772
    13  H    3.403509   3.882356   3.387606   2.156340   1.086961
    14  H    2.146642   3.397763   3.851437   3.388891   2.143540
    15  H    4.628803   4.354855   3.171951   1.931581   2.480427
    16  H    4.383463   3.180922   3.651447   5.037294   5.858719
    17  H    1.911302   3.195456   4.331463   4.579988   3.801205
                    6          7          8          9         10
     6  C    0.000000
     7  O    3.679033   0.000000
     8  C    3.788773   4.844783   0.000000
     9  O    4.772542   4.827989   1.356767   0.000000
    10  O    4.337361   5.980008   1.208048   2.234223   0.000000
    11  O    2.395150   5.529454   2.861311   4.201074   2.697146
    12  H    3.846680   2.559712   2.686424   2.308713   3.894438
    13  H    2.144838   2.695874   5.368185   5.995582   6.180372
    14  H    1.086789   4.563916   4.666448   5.753863   5.026562
    15  H    3.857168   0.963668   5.651948   5.743088   6.741852
    16  H    5.584060   5.787952   1.874653   0.969541   2.252860
    17  H    2.418971   5.936798   3.818101   5.148659   3.632193
                   11         12         13         14         15
    11  O    0.000000
    12  H    4.538552   0.000000
    13  H    4.537717   4.277236   0.000000
    14  H    2.634515   4.933443   2.460933   0.000000
    15  H    5.968744   3.505480   2.334886   4.573526   0.000000
    16  H    4.675246   3.249643   6.927361   6.513327   6.708744
    17  H    0.964472   5.292637   4.498280   2.233899   6.240471
                   16         17
    16  H    0.000000
    17  H    5.639601   0.000000
 Stoichiometry    C7H6O4
 Framework group  C1[X(C7H6O4)]
 Deg. of freedom    45
 Full point group                 C1      NOp   1
 Largest Abelian subgroup         C1      NOp   1
 Largest concise Abelian subgroup C1      NOp   1
                         Standard orientation:                         
 ---------------------------------------------------------------------
 Center     Atomic      Atomic             Coordinates (Angstroms)
 Number     Number       Type             X           Y           Z
 ---------------------------------------------------------------------
      1          6           0        0.230865    1.270029   -0.000764
      2          6           0        0.464392   -0.117458   -0.003088
      3          6           0       -0.626435   -0.993523   -0.002461
      4          6           0       -1.929316   -0.520838   -0.000040
      5          6           0       -2.157624    0.851850    0.002012
      6          6           0       -1.084831    1.732868    0.001668
      7          8           0       -2.939106   -1.444701    0.000184
      8          6           0        1.843525   -0.671185   -0.006298
      9          8           0        1.853531   -2.027874    0.004221
     10          8           0        2.873608   -0.040114    0.001349
[...]
 ! D25   D(7,4,5,6)           -179.999          -DE/DX =    0.0                 !
 ! D26   D(7,4,5,13)             0.0009         -DE/DX =    0.0                 !
 ! D27   D(3,4,7,15)          -180.0164         -DE/DX =    0.0                 !
 ! D28   D(5,4,7,15)            -0.0179         -DE/DX =    0.0                 !
 ! D29   D(4,5,6,1)              0.001          -DE/DX =    0.0                 !
 ! D30   D(4,5,6,14)          -179.9995         -DE/DX =    0.0                 !
 ! D31   D(13,5,6,1)          -179.9988         -DE/DX =    0.0                 !
 ! D32   D(13,5,6,14)            0.0006         -DE/DX =    0.0                 !
 ! D33   D(2,8,9,16)           179.9888         -DE/DX =    0.0                 !
 ! D34   D(10,8,9,16)            0.0081         -DE/DX =    0.0                 !
 --------------------------------------------------------------------------------
 GradGradGradGradGradGradGradGradGradGradGradGradGradGradGradGradGradGrad

 1\1\ WCSS.PL-BEM-C612-X99\Freq\RCAM-B3LYP\6-31+G(d,p)\C7H6O4\PHZD\19-J
 un-2024\0\\#N Geom=AllCheck Guess=TCheck SCRF=Check GenChk RCAM-B3LYP/
 6-31+G(d,p) Freq\\[No Title]\\0,1\C,0.2294523354,1.2696604704,0.000039
 7245\C,0.4625134006,-0.1171760066,0.0000612827\C,-0.6278693078,-0.9929
 83148,0.0000493587\C,-1.9301021927,-0.5198017994,0.000003435\C,-2.1584
 365204,0.8526948691,-0.0000255272\C,-1.0856053153,1.733137684,0.000003
 3891\O,-2.9397231495,-1.4438227833,-0.0000428803\C,1.8409136578,-0.669
 6740661,0.0000912279\O,1.8512435316,-2.0267356457,0.0000973539\O,2.870
 6946639,-0.0380027033,-0.0002382883\O,1.2763019418,2.1316297856,0.0000
 699338\H,-0.4561796121,-2.061353475,0.0000762635\H,-3.173126038,1.2422
 053336,-0.0000731921\H,-1.2715369067,2.8038331276,-0.0000113044\H,-3.7
 98296167,-1.0060150897,0.0001858397\H,2.7848412534,-2.2884087147,-0.00
 00643276\H,0.9492774251,3.0390631618,0.000075711\\Version=ES64L-G09Rev
 E.01\State=1-A\HF=-571.0500684\RMSD=4.784e-09\RMSF=4.209e-05\ZeroPoint
 =0.1249077\Thermal=0.1345381\Dipole=-1.4824181,0.7079201,0.0002582\Dip
 oleDeriv=0.7016946,0.9197705,0.0000324,0.5295067,0.6126207,0.0000259,-
 0.0000117,0.000046,0.0920474,-0.6182105,0.4258768,0.0000093,-0.0584721
 ,-0.0929879,0.,-0.0000061,0.0000026,-0.0245211,0.1078615,-0.517692,0.0
 000058,0.1901239,-0.0543137,-0.0000003,-0.0000231,0.0000254,-0.1180369
 ,0.8277023,0.9862614,0.0000305,0.942959,0.3121035,0.0000047,0.0000408,
 0.0000321,0.072623,-0.0550855,0.16511,0.0000179,-0.3919695,0.1853412,-
 0.0000123,-0.0000073,0.000001,-0.1389412,-0.1229061,-0.5220397,-0.0000
 053,0.1113407,0.0077672,0.0000005,0.0000137,-0.000033,-0.1767457,-1.12
 27214,-0.7053034,-0.0000489,-0.7492161,-0.6817854,0.0000439,-0.0001152
 ,-0.0000128,-0.3938068,1.9914163,-0.2778873,-0.0000981,-0.2266108,1.82
 98716,-0.0001448,-0.0001251,-0.000106,0.3219945,-0.530483,0.2610199,-0
 .0000239,0.2503301,-1.4224709,0.000099,-0.000029,-0.0000239,-0.3922224
 ,-1.3412499,-0.1614234,0.0000824,-0.1071912,-0.6846851,0.000031,0.0001
 816,0.0001165,-0.3660295,-0.7602318,-0.76688,-0.0000288,-0.6384408,-0.
 9085498,-0.0000203,-0.0000177,-0.0000354,-0.3518368,0.1335177,-0.00925
 03,-0.0000036,-0.0095539,0.0470325,0.0000021,0.0000055,-0.0000007,0.14
 48102,-0.0934694,0.0281701,-0.0000068,0.026929,0.0742337,0.0000041,-0.
 000011,0.0000034,0.1453643,0.0614382,-0.01603,-0.0000018,-0.0000764,-0
 .100216,0.000001,0.0000042,0.0000029,0.1505862,0.342985,0.0858285,0.00
 00147,0.1356341,0.2000195,-0.0000469,0.0000615,-0.0000142,0.3470744,0.
 237458,-0.0569906,0.0000241,-0.107826,0.3676347,0.0000109,0.0000409,-0
 .0000067,0.3485179,0.240284,0.1614595,0.,0.1025334,0.3083843,0.0000016
 ,-0.0000021,0.0000027,0.3391225\Polar=125.1688327,-0.2539326,108.59334
 57,-0.00125,-0.0010065,51.286543\PG=C01 [X(C7H6O4)]\NImag=0\\0.7052865
 1,0.01241178,0.72250095,0.00001572,-0.00000268,0.15823191,-0.15088852,
 0.06847513,-0.00000322,0.66826152,0.00646756,-0.29232129,0.00000243,0.
 02291588,0.71258408,-0.00000267,0.00000490,-0.06725337,0.00000291,-0.0
 0000971,0.13997362,0.06821579,-0.07086988,0.00000334,-0.24597350,-0.07
 388405,-0.00000686,0.72047134,-0.01893821,-0.03913986,0.00000036,-0.13
 222360,-0.21792988,0.00000099,-0.01442400,0.76514763,0.00000050,-0.000
 00153,-0.00008137,-0.00000636,0.00000162,-0.05469960,0.00001827,-0.000
 01316,0.13288199,-0.04619165,0.04527962,-0.00000211,-0.05607257,-0.047
 57611,-0.00000073,-0.30774723,0.12052332,-0.00000855,0.73462016,0.0492
 5807,-0.05479086,0.00000188,0.01139091,0.06811812,-0.00000227,0.035358
 80,-0.16712259,0.00000282,-0.00721131,0.71415263,-0.00000303,0.0000029
 7,0.00093922,-0.00000256,-0.00000192,-0.00105681,-0.00000603,0.0000039
 4,-0.06526806,0.00000939,0.00000130,0.14314188,-0.05686700,0.00396137,
 -0.00000177,-0.01262661,-0.01942933,-0.00000001,0.02053811,0.03346808,
 -0.00000106,-0.14894195,0.08784899,-0.00000461,0.75851450,-0.05648417,
 0.07370518,-0.00000252,-0.02383830,-0.06176314,0.00000072,0.08876115,-
 0.00646921,0.00000218,-0.00283123,-0.32238675,0.00000195,-0.00770818,0
 .70432776,-0.00000085,-0.00000079,-0.00196517,0.00000065,-0.00000016,0
 .00195001,-0.00000124,0.00000179,0.00335952,-0.00000229,0.00000613,-0.
 06126684,0.00002540,-0.00000705,0.12509282,-0.28871536,0.02779642,-0.0
 0000584,0.01898779,0.07999002,-0.00000044,-0.07648880,-0.00848689,-0.0
 0000094,0.06832885,-0.07561375,0.00000505,-0.27118195,-0.08038932,-0.0
 0000798,0.70072343,0.11245094,-0.16681580,0.00000351,0.02868071,-0.002
 84200,0.00000152,-0.00826570,-0.00493030,-0.00000033,-0.01614474,-0.04
 337463,-0.00000056,-0.15137222,-0.22474859,-0.00000311,0.01360350,0.75
 705247,-0.00000546,0.00000009,-0.06541220,-0.00000052,0.00000391,0.005
 38706,-0.00000247,-0.00000046,0.00175811,0.00000283,-0.00000133,-0.000
 32775,-0.00000590,-0.00000080,-0.05151168,0.00001631,-0.00000449,0.120
 49203,0.00842243,-0.00094919,0.00000057,0.00069498,0.00652736,-0.00000
 009,-0.05436766,-0.03566993,-0.00000207,-0.21635230,-0.13221852,-0.000
 00342,0.00223399,-0.00310935,-0.00000118,-0.00832711,0.00109655,0.,0.6
 8949883,-0.00066835,0.00607332,-0.00000002,0.00080458,-0.00794611,0.00
 000108,0.00548581,0.01682598,0.00000055,-0.07931731,-0.20344450,-0.000
 01591,-0.04522017,-0.03898007,-0.00000222,0.00748295,-0.00196708,-0.00
 000013,-0.05987224,0.38519664,0.00000194,-0.00000088,-0.00157694,0.000
 00180,0.00000051,0.00504319,-0.00000232,0.00000075,0.00652705,0.000008
 24,-0.00000820,-0.03725135,0.00000164,0.00000178,0.00629974,-0.0000027
 2,0.00000039,0.00722645,-0.00011139,0.00007435,0.02208273,0.01834595,0
 .03024050,0.00000019,-0.18008865,0.03760713,-0.00000968,-0.03886385,-0
 .00066555,0.00000070,0.00336527,-0.01297500,0.00000097,0.00468753,0.00
 475158,-0.00000020,-0.00362884,-0.00065705,0.00000089,0.00225163,0.003
 34837,-0.00000005,0.93094094,0.03406563,-0.00719215,0.00000117,0.05061
 958,-0.12540500,0.00000288,-0.01175587,0.02090410,-0.00000206,-0.00582
 217,0.00149307,-0.00000066,-0.00307840,-0.00455719,0.00000022,0.002408
 20,-0.00685212,0.00000023,-0.00356671,-0.00204071,0.00000027,0.1707976
 7,0.67935428,-0.00000139,-0.00000325,0.00244558,0.00000068,-0.00000230
 ,-0.08173458,0.00000044,0.00000177,-0.00033634,-0.00000030,0.00000031,
 0.00848760,0.00000057,-0.00000034,-0.00106371,-0.00000057,0.00000035,0
 .00608065,-0.00000052,-0.00000009,0.00023327,-0.00015976,-0.00008286,0
 .21353830,-0.00912536,-0.00445337,-0.00000026,-0.00576911,0.04324752,-
 0.00000051,-0.00609250,0.00204601,0.00000005,0.00199336,0.00207441,0.0
 0000035,-0.00066298,0.00030321,-0.00000004,0.00011650,0.00226517,-0.00
 000006,-0.00110120,-0.00082890,-0.00000006,-0.12823398,0.03174446,0.00
 000994,0.61953011,0.00233991,0.00393480,0.00000004,0.01639264,-0.03024
 888,-0.00000139,-0.00169964,-0.00459793,0.00000103,-0.00008549,-0.0027
 3201,0.,0.00097229,0.00086968,-0.00000008,0.00008271,-0.00034396,0.000
 00012,0.00198105,0.00188351,0.,-0.00069160,-0.25901692,0.00000689,-0.0
 9829205,0.44715137,0.00000071,0.00000008,0.00172420,-0.00000160,-0.000
 00026,0.01145037,0.00000025,-0.00000031,0.00092566,0.00000034,-0.00000
 020,-0.00087872,0.00000002,0.00000033,0.00009740,-0.00000026,-0.000000
 22,-0.00072558,0.00000012,0.00000004,0.00014706,0.00000813,-0.00000428
 ,-0.06490873,-0.00009716,-0.00000102,0.03668318,-0.00776152,-0.0117305
 4,-0.00000064,-0.05681991,-0.02257421,0.00001674,0.00033990,0.00888228
 ,0.,-0.00262207,0.00385899,-0.00000135,-0.00232313,-0.00343970,0.00000
 022,0.00339364,-0.00002479,-0.00000037,-0.00239854,-0.00129625,0.00000
 008,-0.59109193,-0.27289868,0.00015016,0.00773325,-0.05638546,0.000010
 15,0.64928955,-0.00807978,-0.00690321,-0.00000057,-0.00762902,0.019320
 22,0.00000179,0.00446878,-0.00149162,-0.00000004,-0.00134477,0.0023662
 9,-0.00000026,-0.00044067,-0.00110241,-0.00000001,0.00172731,0.0008248
 3,-0.00000025,0.00088408,0.00033305,0.00000006,-0.27750238,-0.27506711
 ,0.00008848,-0.06765729,-0.08157166,0.00002233,0.35085292,0.33843236,0
 .00000081,0.00000280,-0.00120031,0.00000792,0.00000617,0.02063015,0.00
 000060,-0.00000227,0.00259002,0.00000016,-0.00000008,-0.00155805,-0.00
 000009,0.00000029,0.00019085,0.00000017,-0.00000017,-0.00074914,0.0000
 0058,0.00000011,-0.00013028,0.00015810,0.00008766,-0.07834171,0.000008
 23,0.00001868,0.03000396,-0.00017596,-0.00011185,0.03196062,-0.2428344
 2,-0.08262529,-0.00000502,0.01998532,-0.00730257,0.00000021,-0.0124249
 3,0.00313833,0.00000044,0.00921134,-0.00403567,0.00000103,0.00147981,0
 .00999704,-0.00000055,-0.05563344,-0.03805249,-0.00000215,-0.00691443,
 -0.00469173,-0.00000120,-0.01592910,0.00035517,0.00000149,0.00247341,0
 .00006665,-0.00000013,0.00647604,0.00812930,-0.00000137,0.39593656,-0.
 13470664,-0.19455771,-0.00000382,-0.03291628,-0.04228851,-0.00000058,0
 .00330536,-0.00267813,0.00000072,0.00226465,0.00447802,0.00000040,0.00
 219122,-0.00497925,-0.00000022,-0.00369750,0.00826131,-0.00000020,-0.0
 0652378,-0.00469172,-0.00000098,-0.01404471,0.00274849,0.00000061,0.00
 148206,-0.00191921,-0.00000011,0.01026776,-0.00298485,-0.00000182,-0.0
 1929662,0.69611937,-0.00000602,-0.00000251,-0.04169326,0.00000109,-0.0
 0000074,0.00487879,-0.00000061,0.00000031,0.00437243,0.00000045,-0.000
 00024,-0.00125865,-0.00000026,0.00000026,0.00772706,-0.00000186,-0.000
 00120,0.01002758,-0.00000040,-0.00000008,-0.00042339,-0.00000094,0.000
 00011,-0.00355454,0.00000004,-0.00000060,0.00033197,0.00000067,-0.0000
 0016,0.00154533,0.00000791,0.00000831,0.02593099,-0.00372329,-0.002003
 74,-0.00000018,0.00864218,-0.02375185,0.00000085,-0.06664479,0.0481091
 3,-0.00000163,0.00095064,0.02969234,-0.00000107,-0.00541645,0.00159557
 ,-0.00000025,-0.00119829,-0.00078950,-0.00000012,0.00256458,-0.0004128
 1,0.00000012,0.00129818,-0.00355440,0.00000018,-0.00411326,0.00197139,
 0.,0.00068897,0.00112860,-0.00000036,0.00029898,-0.00158211,0.,0.06667
 200,-0.00315566,0.00094389,-0.00000007,0.00365373,-0.01396351,0.000000
 35,0.04666764,-0.34820122,0.00000817,-0.00077905,-0.00570897,0.0000002
 1,0.00132072,0.00017810,0.00000014,0.00034395,0.00071768,0.,-0.0006711
 1,0.00052694,-0.00000010,0.00027471,-0.00175052,-0.00000011,0.00353804
 ,0.00002820,-0.00000007,0.00011386,0.00042465,-0.00000002,0.00040294,-
 0.00083302,0.00000004,-0.05175149,0.36720104,-0.00000016,-0.00000008,0
 .00602717,0.00000119,-0.00000021,0.00305247,-0.00000226,0.00000744,-0.
 03899965,-0.00000052,0.00000074,0.00742998,-0.00000021,0.00000032,0.00
 531757,-0.00000020,-0.00000006,-0.00066650,0.00000015,0.00000004,-0.00
 367377,-0.00000070,0.00000026,-0.00429167,-0.00000030,-0.00000015,0.00
 031264,0.00000064,0.00000021,0.00074307,-0.00000007,0.,0.00030460,0.00
 000220,-0.00000863,0.02613875,-0.00054083,-0.00384978,-0.00000036,0.00
 027410,-0.00040894,0.,0.00166121,0.00110311,-0.00000021,-0.00449127,-0
 .00248001,-0.00000035,-0.30276361,0.09501724,-0.00001230,-0.01786429,0
 .01105782,-0.00000091,0.00307510,0.00015128,0.00000015,0.00026439,-0.0
 0018270,0.,-0.00012772,0.00020243,0.,-0.00017842,0.00004696,0.00000004
 ,-0.00160310,0.00008243,-0.00000005,-0.00015427,0.00000564,0.00000003,
 0.32119803,-0.00335060,-0.00210487,-0.00000006,-0.00127024,-0.00105228
 ,0.00000003,0.00061145,-0.00634568,0.00000016,0.02963025,-0.00390404,0
 .00000119,0.09566593,-0.09913546,0.00000493,-0.01954356,0.01159816,-0.
 00000080,0.00077317,0.00293714,-0.00000027,0.00010543,-0.00037084,-0.0
 0000002,0.00014423,0.00013542,0.,0.00000876,0.00007456,-0.00000002,-0.
 00108815,0.00030330,0.00000002,0.00143674,-0.00012699,0.00000001,-0.10
 222191,0.09806477,-0.00000046,0.00000036,0.00730137,0.00000006,-0.0000
 0019,-0.00058654,-0.00000024,-0.00000002,0.00530711,-0.00000022,0.0000
 0052,0.00549550,-0.00001301,0.00000430,-0.03601651,-0.00000003,0.00000
 043,0.00333589,-0.00000058,0.00000012,-0.00377580,-0.00000006,-0.00000
 007,-0.00067896,-0.00000004,0.00000004,0.00012280,0.,0.00000006,0.0000
 5266,0.00000006,0.,-0.00005117,0.00000004,-0.00000005,-0.00048625,0.00
 001369,-0.00000564,0.02375159,-0.00092405,0.02897412,-0.00000033,-0.00
 504151,0.00102709,-0.00000046,-0.00153920,-0.00060216,-0.00000002,-0.0
 0335392,-0.00264740,-0.00000036,0.00854419,-0.02528922,0.00000052,-0.0
 6908662,0.04970622,-0.00000137,-0.00003607,-0.00155640,0.00000009,0.00
 074829,0.00125582,0.,-0.00056234,0.00032767,0.00000006,-0.00010720,-0.
 00016079,0.,0.00290177,0.00141766,0.00000022,0.00006002,0.00003915,0.,
 0.00096370,0.00029126,0.00000018,0.06844209,-0.00359543,-0.00993570,0.
 00000002,0.00262492,0.00083414,0.00000019,-0.00011502,0.00058480,-0.00
 000001,-0.00344694,0.00074719,-0.00000020,0.00556660,-0.01546716,0.000
 00040,0.04965386,-0.33114982,0.00000404,-0.00010760,-0.00134010,0.0000
 0011,-0.00125218,-0.00035280,0.00000011,0.00039638,-0.00021100,-0.0000
 0003,0.00050593,0.00024892,-0.00000012,-0.00034076,0.00330977,-0.00000
 006,0.00001819,-0.00005170,0.,-0.00010583,0.00090658,0.,-0.05179878,0.
 35154134,0.00000001,0.00000044,0.00479447,-0.00000012,0.00000031,0.004
 53452,-0.00000020,0.,-0.00081740,-0.00000016,0.,0.00664191,0.00000014,
 -0.00000055,0.00262899,-0.00000159,0.00000422,-0.03310848,-0.00000018,
 0.,0.00036868,-0.00000009,0.00000002,0.00021972,0.,0.,-0.00010015,0.00
 000006,0.,-0.00000128,0.00000026,0.00000019,-0.00424019,0.00000002,0.,
 -0.00022754,0.00000025,-0.00000006,-0.00422888,0.00000166,-0.00000440,
 0.02293027,-0.00004379,-0.00074817,-0.00000004,-0.00025469,0.00167992,
 -0.00000047,-0.00236207,-0.00540303,0.00000073,-0.03240756,0.01730901,
 0.00000603,0.00530317,0.00284816,0.00000011,-0.00073004,0.00027878,-0.
 00000080,-0.41923296,0.17640188,0.00010375,-0.00080389,0.00009000,0.00
 000001,0.00019008,-0.00028569,-0.00000001,0.00024076,0.00001235,-0.000
 00002,0.00080784,0.00071108,0.00000015,0.00029001,-0.00005783,0.000000
 17,0.00014953,-0.00124245,0.00000061,0.00022227,0.00024748,0.00000003,
 0.44873585,0.00064818,-0.00012666,0.00000025,0.00013498,0.00102984,-0.
 00000059,-0.00453947,-0.00362611,0.00000008,-0.03200268,0.01054419,0.0
 0000776,-0.00325434,0.00212709,-0.00000010,-0.00040532,-0.00054944,-0.
 00000005,0.23076138,-0.15378654,-0.00006796,-0.00067460,0.00010005,-0.
 00000007,0.00011633,-0.00022118,0.,0.00016665,0.00003563,0.00000002,-0
 .00015433,-0.00031819,-0.00000006,-0.00028036,0.00013655,0.00000007,0.
 00134571,-0.00116818,0.00000014,0.00002668,0.00006880,-0.00000008,-0.1
 9174844,0.14572288,-0.00000070,0.00000038,0.00027382,-0.00000127,-0.00
 000026,0.00158217,-0.00000017,-0.00000100,0.00145765,-0.00000650,-0.00
 000147,-0.00368861,-0.00000088,-0.00000089,0.00006899,0.00000091,-0.00
 000019,-0.00080165,0.00011843,-0.00005783,-0.00099420,0.00000009,-0.00
 000018,0.00004515,-0.00000003,0.00000006,-0.00003588,-0.00000011,0.,-0
 .00006492,0.00000043,0.00000042,-0.00009226,0.00000009,-0.00000001,-0.
 00070618,0.,0.00000051,0.00049614,-0.00000008,-0.00000009,-0.00005527,
 -0.00011023,0.00006059,0.00245029,-0.00008656,0.00021427,0.00000010,0.
 00158305,-0.00066645,0.00000150,0.00009114,-0.00023825,0.00000004,0.00
 004259,-0.00013807,-0.00000005,0.00006296,0.00004866,0.00000002,0.0000
 3859,0.00010829,-0.00000010,0.00011731,0.00007813,0.,-0.00165040,0.010
 72750,-0.00000125,-0.47645895,0.13247510,0.00007949,-0.00433293,-0.006
 65009,0.00000101,-0.00005829,-0.00022817,-0.00000003,0.00003144,0.0002
 2982,0.00000003,0.00001738,0.00000845,0.,0.00000250,-0.00001454,0.,-0.
 00003737,-0.00001808,0.,0.48059640,0.00182924,0.00015579,0.00000019,-0
 .00220488,-0.00712987,0.00000021,-0.00142570,0.00004195,-0.00000016,0.
 00027296,0.00084465,-0.00000006,-0.00034260,-0.00019808,0.00000002,0.0
 0004612,-0.00049672,-0.00000003,-0.00035715,-0.00030188,0.,0.05940756,
 -0.02188480,-0.00000930,0.08417499,-0.07348394,-0.00001631,-0.00570604
 ,0.00773191,0.00000055,-0.00014940,0.00034274,0.00000002,0.00044662,0.
 00057675,0.00000006,-0.00003720,0.00004409,0.,0.00011968,-0.00003532,0
 .,0.00005970,0.00003855,0.,-0.13599824,0.09379776,0.,0.00000036,0.0006
 6243,-0.00000044,0.00000090,0.00427227,-0.00000037,-0.00000012,-0.0002
 6602,-0.00000010,0.00000015,0.00025283,-0.00000004,-0.00000008,-0.0000
 1643,0.00000007,0.00000004,-0.00027737,0.00000002,0.,-0.00007271,0.000
 00234,-0.00000279,0.00415560,0.00007994,-0.00002370,-0.01483859,-0.000
 00066,0.00000039,-0.00593415,-0.00000011,-0.00000012,0.00005740,0.0000
 0012,0.00000013,-0.00027352,0.,0.00000001,-0.00003205,0.,0.,-0.0000413
 1,0.,0.,0.00004327,-0.00008077,0.00002480,0.01229710,0.00743168,-0.040
 12325,-0.00000016,-0.00489387,-0.00386895,-0.00000030,0.00118702,-0.00
 061863,0.00000009,-0.00033170,0.00052821,0.00000002,-0.00058058,-0.000
 23313,-0.00000006,0.00126594,-0.00394149,0.00000017,-0.00012859,0.0001
 1117,-0.00000006,-0.00161155,-0.00120510,0.00000031,0.00021069,0.00062
 809,-0.00000011,-0.00052647,0.00221448,0.00000019,-0.10417337,0.191273
 58,-0.00000034,-0.00024665,-0.00017506,0.00000002,0.00012006,0.0000412
 3,0.,-0.00123392,0.00176370,-0.00000010,-0.00006715,-0.00012229,0.0000
 0005,0.00004114,-0.00013567,0.00000002,0.10353731,0.00950752,-0.033425
 83,-0.00000010,-0.00561074,0.00100407,-0.00000011,0.00232034,-0.000971
 92,-0.00000005,-0.00140900,0.00072019,-0.00000014,-0.00014929,-0.00142
 052,0.00000010,0.00500131,0.00561599,0.00000015,0.00102200,0.00072213,
 0.00000016,0.00193011,-0.00010983,-0.00000017,-0.00030122,0.00034369,0
 .00000005,-0.00060146,-0.00067155,0.00000006,0.13564758,-0.46031241,-0
 .00000342,-0.00027233,-0.00009789,0.,0.00027375,0.00014431,0.,-0.00113
 058,0.00030204,-0.00000009,-0.00015275,-0.00000728,-0.00000006,0.00006
 166,-0.00004359,0.,-0.14613689,0.48820839,0.00000104,-0.00000065,-0.00
 321755,-0.00000019,-0.00000010,0.00257627,-0.00000012,-0.00000002,0.00
 128891,0.00000005,-0.00000006,0.00016591,0.00000006,0.00000009,-0.0008
 9261,-0.00000010,-0.00000013,-0.00072743,-0.00000003,0.,-0.00002973,0.
 00000007,0.00000008,-0.00029564,-0.00000008,0.00000009,-0.00031158,0.0
 0000035,-0.00000018,0.00026318,-0.00000123,-0.00000280,-0.00386270,-0.
 00000002,0.00000002,-0.00000117,0.,0.,-0.00000687,-0.00000010,0.000000
 05,0.00070194,0.,0.,0.00002151,0.00000001,0.,0.00001125,0.00000028,0.0
 0000361,0.00431633\\0.00006968,0.00001479,-0.00000103,0.00001487,0.000
 04435,-0.00001422,0.00000119,-0.00005555,-0.00000113,-0.00005823,-0.00
 005256,0.00000147,-0.00003306,-0.00001374,-0.00000052,-0.00000816,0.00
 005645,0.00000092,-0.00004526,0.00007643,-0.00000150,0.00018634,-0.000
 00125,0.00004943,-0.00001959,-0.00005188,-0.00001462,-0.00008082,0.000
 02573,-0.00001881,-0.00004974,0.00002482,-0.00000071,-0.00000908,0.000
 00350,-0.00000010,-0.00001150,-0.00000038,-0.00000014,0.00000528,0.000
 00599,0.00000009,0.00002948,-0.00004102,0.00000110,-0.00004461,0.00001
 237,-0.00000032,0.00005321,-0.00004807,0.00000009\\\@


 A great many people think they are thinking when they
 are merely rearranging their prejudices.
                               -- William James
 Job cpu time:       0 days  0 hours 30 minutes 41.3 seconds.
 File lengths (MBytes):  RWF=    107 Int=      0 D2E=      0 Chk=      5 Scr=      1
 Normal termination of Gaussian 09 at Wed Jun 19 13:54:56 2024.
