 Entering Gaussian System, Link 0=g09
 Input=camb3lypDHByanggd3.gjf
 Output=camb3lypDHByanggd3.log
 Initial command:
 /home/phzd/g09E/g09/l1.exe "/home/phzd/g09E/scratch/Gau-63748.inp" -scrdir="/home/phzd/g09E/scratch/"
 Default is to use a total of  18 processors:
                               18 via shared-memory
                                1 via Linda
 Entering Link 1 = /home/phzd/g09E/g09/l1.exe PID=     63750.
  
 Copyright (c) 1988,1990,1992,1993,1995,1998,2003,2009,2015,
            Gaussian, Inc.  All Rights Reserved.
  
 This is part of the Gaussian(R) 09 program.  It is based on
 the Gaussian(R) 03 system (copyright 2003, Gaussian, Inc.),
 the Gaussian(R) 98 system (copyright 1998, Gaussian, Inc.),
 the Gaussian(R) 94 system (copyright 1995, Gaussian, Inc.),
 the Gaussian 92(TM) system (copyright 1992, Gaussian, Inc.),
 the Gaussian 90(TM) system (copyright 1990, Gaussian, Inc.),
 the Gaussian 88(TM) system (copyright 1988, Gaussian, Inc.),
 the Gaussian 86(TM) system (copyright 1986, Carnegie Mellon
 University), and the Gaussian 82(TM) system (copyright 1983,
 Carnegie Mellon University). Gaussian is a federally registered
 trademark of Gaussian, Inc.
  
 This software contains proprietary and confidential information,
 including trade secrets, belonging to Gaussian, Inc.
  
 This software is provided under written license and may be
 used, copied, transmitted, or stored only in accord with that
 written license.
  
 The following legend is applicable only to US Government
 contracts under FAR:
  
                    RESTRICTED RIGHTS LEGEND
  
 Use, reproduction and disclosure by the US Government is
 subject to restrictions as set forth in subparagraphs (a)
 and (c) of the Commercial Computer Software - Restricted
 Rights clause in FAR 52.227-19.
  
 Gaussian, Inc.
 340 Quinnipiac St., Bldg. 40, Wallingford CT 06492
  
  
 ---------------------------------------------------------------
 Warning -- This program may not be used in any manner that
 competes with the business of Gaussian, Inc. or will provide
 assistance to any competitor of Gaussian, Inc.  The licensee
 of this program is prohibited from giving any competitor of
 Gaussian, Inc. access to this program.  By using this program,
 the user acknowledges that Gaussian, Inc. is engaged in the
 business of creating and licensing software in the field of
 computational chemistry and represents and warrants to the
 licensee that it is not a competitor of Gaussian, Inc. and that
 it will not use this program in any manner prohibited above.
 ---------------------------------------------------------------
  

 Cite this work as:
 Gaussian 09, Revision E.01,
 M. J. Frisch, G. W. Trucks, H. B. Schlegel, G. E. Scuseria, 
 M. A. Robb, J. R. Cheeseman, G. Scalmani, V. Barone, B. Mennucci, 
 G. A. Petersson, H. Nakatsuji, M. Caricato, X. Li, H. P. Hratchian, 
 A. F. Izmaylov, J. Bloino, G. Zheng, J. L. Sonnenberg, M. Hada, 
 M. Ehara, K. Toyota, R. Fukuda, J. Hasegawa, M. Ishida, T. Nakajima, 
 Y. Honda, O. Kitao, H. Nakai, T. Vreven, J. A. Montgomery, Jr., 
 J. E. Peralta, F. Ogliaro, M. Bearpark, J. J. Heyd, E. Brothers, 
 K. N. Kudin, V. N. Staroverov, T. Keith, R. Kobayashi, J. Normand, 
 K. Raghavachari, A. Rendell, J. C. Burant, S. S. Iyengar, J. Tomasi, 
 M. Cossi, N. Rega, J. M. Millam, M. Klene, J. E. Knox, J. B. Cross, 
 V. Bakken, C. Adamo, J. Jaramillo, R. Gomperts, R. E. Stratmann, 
 O. Yazyev, A. J. Austin, R. Cammi, C. Pomelli, J. W. Ochterski, 
 R. L. Martin, K. Morokuma, V. G. Zakrzewski, G. A. Voth, 
 P. Salvador, J. J. Dannenberg, S. Dapprich, A. D. Daniels, 
 O. Farkas, J. B. Foresman, J. V. Ortiz, J. Cioslowski, 
 and D. J. Fox, Gaussian, Inc., Wallingford CT, 2013.
 
 ******************************************
 Gaussian 09:  ES64L-G09RevE.01 30-Nov-2015
                19-Jun-2024 
 ******************************************
 %chk=camb3lypDHByanggd3.chk
 --------------------------------
 # opt freq cam-b3lyp/6-31+g(d,p)
 --------------------------------
 1/14=-1,18=20,19=15,26=3,38=1/1,3;
 2/9=110,12=2,17=6,18=5,40=1/2;
 3/5=1,6=6,7=111,11=2,16=1,25=1,30=1,71=1,74=-40/1,2,3;
 4//1;
 5/5=2,38=5/2;
 6/7=2,8=2,9=2,10=2,28=1/1;
 7//1,2,3,16;
 1/14=-1,18=20,19=15,26=3/3(2);
 2/9=110/2;
 99//99;
 2/9=110/2;
 3/5=1,6=6,7=111,11=2,16=1,25=1,30=1,71=1,74=-40/1,2,3;
 4/5=5,16=3,69=1/1;
 5/5=2,38=5/2;
 7//1,2,3,16;
 1/14=-1,18=20,19=15,26=3/3(-5);
 2/9=110/2;
 6/7=2,8=2,9=2,10=2,19=2,28=1/1;
 99/9=1/99;
 ----------
 [No Title]
 ----------
 Symbolic Z-matrix:
 Charge =  1 Multiplicity = 1
 C                    -0.21627   1.27711  -0.00007 
 C                    -0.42627  -0.13796  -0.00009 
 C                     0.69504  -1.01621  -0.00009 
 C                     1.9836   -0.51706   0.00004 
 C                     2.17716   0.88247   0.00005 
 C                     1.10019   1.75598   0.00001 
 O                     3.00309  -1.40947   0.00008 
 C                    -1.72551  -0.71669   0. 
 O                    -1.81352  -2.02783  -0.0002 
 O                    -2.79332   0.03542   0.00031 
 O                    -1.27743   2.10011  -0.00016 
 H                     0.54817  -2.08873  -0.00018 
 H                     3.18552   1.28879   0.00008 
 H                     1.27722   2.8277   -0.00003 
 H                     3.86808  -0.97675   0.00032 
 H                    -2.71313  -2.39483  -0.0002 
 H                    -3.64331  -0.43704   0.0007 
 H                    -1.00074   3.02912  -0.00007 
 

 GradGradGradGradGradGradGradGradGradGradGradGradGradGradGradGradGradGrad
 Berny optimization.
 Initialization pass.
                           ----------------------------
                           !    Initial Parameters    !
                           ! (Angstroms and Degrees)  !
 --------------------------                            --------------------------
 ! Name  Definition              Value          Derivative Info.                !
 --------------------------------------------------------------------------------
 ! R1    R(1,2)                  1.4306         estimate D2E/DX2                !
 ! R2    R(1,6)                  1.4009         estimate D2E/DX2                !
 ! R3    R(1,11)                 1.3429         estimate D2E/DX2                !
 ! R4    R(2,3)                  1.4243         estimate D2E/DX2                !
 ! R5    R(2,8)                  1.4223         estimate D2E/DX2                !
 ! R6    R(3,4)                  1.3819         estimate D2E/DX2                !
 ! R7    R(3,12)                 1.0825         estimate D2E/DX2                !
 ! R8    R(4,5)                  1.4128         estimate D2E/DX2                !
 ! R9    R(4,7)                  1.3549         estimate D2E/DX2                !
 ! R10   R(5,6)                  1.3867         estimate D2E/DX2                !
 ! R11   R(5,13)                 1.0871         estimate D2E/DX2                !
 ! R12   R(6,14)                 1.0862         estimate D2E/DX2                !
 ! R13   R(7,15)                 0.9672         estimate D2E/DX2                !
 ! R14   R(8,9)                  1.3141         estimate D2E/DX2                !
 ! R15   R(8,10)                 1.3061         estimate D2E/DX2                !
 ! R16   R(9,16)                 0.9716         estimate D2E/DX2                !
 ! R17   R(10,17)                0.9725         estimate D2E/DX2                !
 ! R18   R(11,18)                0.9693         estimate D2E/DX2                !
 ! A1    A(2,1,6)              118.4304         estimate D2E/DX2                !
 ! A2    A(2,1,11)             119.355          estimate D2E/DX2                !
 ! A3    A(6,1,11)             122.2146         estimate D2E/DX2                !
 ! A4    A(1,2,3)              119.6281         estimate D2E/DX2                !
 ! A5    A(1,2,8)              122.4512         estimate D2E/DX2                !
 ! A6    A(3,2,8)              117.9208         estimate D2E/DX2                !
 ! A7    A(2,3,4)              120.7558         estimate D2E/DX2                !
 ! A8    A(2,3,12)             120.2721         estimate D2E/DX2                !
 ! A9    A(4,3,12)             118.9721         estimate D2E/DX2                !
 ! A10   A(3,4,5)              119.049          estimate D2E/DX2                !
 ! A11   A(3,4,7)              117.6278         estimate D2E/DX2                !
 ! A12   A(5,4,7)              123.3232         estimate D2E/DX2                !
 ! A13   A(4,5,6)              121.1709         estimate D2E/DX2                !
 ! A14   A(4,5,13)             119.821          estimate D2E/DX2                !
 ! A15   A(6,5,13)             119.0081         estimate D2E/DX2                !
 ! A16   A(1,6,5)              120.9657         estimate D2E/DX2                !
 ! A17   A(1,6,14)             119.3686         estimate D2E/DX2                !
 ! A18   A(5,6,14)             119.6656         estimate D2E/DX2                !
 ! A19   A(4,7,15)             112.2256         estimate D2E/DX2                !
 ! A20   A(2,8,9)              117.8503         estimate D2E/DX2                !
 ! A21   A(2,8,10)             120.8308         estimate D2E/DX2                !
 ! A22   A(9,8,10)             121.3189         estimate D2E/DX2                !
 ! A23   A(8,9,16)             116.0338         estimate D2E/DX2                !
 ! A24   A(8,10,17)            115.7739         estimate D2E/DX2                !
 ! A25   A(1,11,18)            111.2106         estimate D2E/DX2                !
 ! D1    D(6,1,2,3)             -0.0026         estimate D2E/DX2                !
 ! D2    D(6,1,2,8)            179.9921         estimate D2E/DX2                !
 ! D3    D(11,1,2,3)           179.9952         estimate D2E/DX2                !
 ! D4    D(11,1,2,8)            -0.0101         estimate D2E/DX2                !
 ! D5    D(2,1,6,5)              0.0005         estimate D2E/DX2                !
 ! D6    D(2,1,6,14)           179.9966         estimate D2E/DX2                !
 ! D7    D(11,1,6,5)          -179.9973         estimate D2E/DX2                !
 ! D8    D(11,1,6,14)           -0.0011         estimate D2E/DX2                !
 ! D9    D(2,1,11,18)          179.996          estimate D2E/DX2                !
 ! D10   D(6,1,11,18)           -0.0063         estimate D2E/DX2                !
 ! D11   D(1,2,3,4)              0.0052         estimate D2E/DX2                !
 ! D12   D(1,2,3,12)          -179.9955         estimate D2E/DX2                !
 ! D13   D(8,2,3,4)           -179.9897         estimate D2E/DX2                !
 ! D14   D(8,2,3,12)             0.0096         estimate D2E/DX2                !
 ! D15   D(1,2,8,9)            179.9919         estimate D2E/DX2                !
 ! D16   D(1,2,8,10)            -0.0104         estimate D2E/DX2                !
 ! D17   D(3,2,8,9)             -0.0134         estimate D2E/DX2                !
 ! D18   D(3,2,8,10)           179.9843         estimate D2E/DX2                !
 ! D19   D(2,3,4,5)             -0.0055         estimate D2E/DX2                !
 ! D20   D(2,3,4,7)            179.9972         estimate D2E/DX2                !
 ! D21   D(12,3,4,5)           179.9952         estimate D2E/DX2                !
 ! D22   D(12,3,4,7)            -0.0021         estimate D2E/DX2                !
 ! D23   D(3,4,5,6)              0.0033         estimate D2E/DX2                !
 ! D24   D(3,4,5,13)          -179.9956         estimate D2E/DX2                !
 ! D25   D(7,4,5,6)           -179.9996         estimate D2E/DX2                !
 ! D26   D(7,4,5,13)             0.0015         estimate D2E/DX2                !
 ! D27   D(3,4,7,15)          -179.9908         estimate D2E/DX2                !
 ! D28   D(5,4,7,15)             0.012          estimate D2E/DX2                !
 ! D29   D(4,5,6,1)             -0.0008         estimate D2E/DX2                !
 ! D30   D(4,5,6,14)          -179.997          estimate D2E/DX2                !
 ! D31   D(13,5,6,1)           179.9981         estimate D2E/DX2                !
 ! D32   D(13,5,6,14)            0.0019         estimate D2E/DX2                !
 ! D33   D(2,8,9,16)          -179.9951         estimate D2E/DX2                !
 ! D34   D(10,8,9,16)            0.0072         estimate D2E/DX2                !
 ! D35   D(2,8,10,17)         -179.9777         estimate D2E/DX2                !
 ! D36   D(9,8,10,17)            0.02           estimate D2E/DX2                !
 --------------------------------------------------------------------------------
 Trust Radius=3.00D-01 FncErr=1.00D-07 GrdErr=1.00D-06
 Number of steps in this run=     89 maximum allowed number of steps=    108.
 GradGradGradGradGradGradGradGradGradGradGradGradGradGradGradGradGradGrad

                          Input orientation:                          
 ---------------------------------------------------------------------
 Center     Atomic      Atomic             Coordinates (Angstroms)
 Number     Number       Type             X           Y           Z
 ---------------------------------------------------------------------
      1          6           0       -0.216273    1.277105   -0.000067
      2          6           0       -0.426271   -0.137963   -0.000090
      3          6           0        0.695035   -1.016208   -0.000092
      4          6           0        1.983602   -0.517055    0.000036
      5          6           0        2.177158    0.882470    0.000051
      6          6           0        1.100194    1.755980    0.000009
      7          8           0        3.003093   -1.409467    0.000084
      8          6           0       -1.725510   -0.716693    0.000000
      9          8           0       -1.813522   -2.027826   -0.000195
     10          8           0       -2.793317    0.035423    0.000313
     11          8           0       -1.277430    2.100110   -0.000163
     12          1           0        0.548172   -2.088730   -0.000183
     13          1           0        3.185520    1.288787    0.000078
     14          1           0        1.277220    2.827700   -0.000028
     15          1           0        3.868079   -0.976747    0.000317
     16          1           0       -2.713134   -2.394831   -0.000202
     17          1           0       -3.643314   -0.437036    0.000695
     18          1           0       -1.000736    3.029117   -0.000072
 ---------------------------------------------------------------------
                    Distance matrix (angstroms):
                    1          2          3          4          5
     1  C    0.000000
     2  C    1.430565   0.000000
     3  C    2.467745   1.424304   0.000000
     4  C    2.838743   2.439508   1.381868   0.000000
     5  C    2.425747   2.796270   2.408665   1.412846   0.000000
     6  C    1.400859   2.432512   2.801639   2.438667   1.386676
     7  O    4.193088   3.657494   2.341321   1.354903   2.436215
     8  C    2.500605   1.422305   2.439005   3.714481   4.217599
     9  O    3.670664   2.344365   2.704853   4.086634   4.939165
    10  O    2.860582   2.373388   3.643423   4.808761   5.042134
    11  O    1.342904   2.394461   3.688097   4.181373   3.662899
    12  H    3.451553   2.180603   1.082530   2.128526   3.388455
    13  H    3.401813   3.883381   3.393452   2.169256   1.087146
    14  H    2.152874   3.420093   3.887746   3.418532   2.143317
    15  H    4.664952   4.375500   3.173289   1.939735   2.513146
    16  H    4.440431   3.212973   3.676441   5.058198   5.886906
    17  H    3.831826   3.230915   4.376838   5.627485   5.968165
    18  H    1.919617   3.218758   4.386376   4.634826   3.834984
                    6          7          8          9         10
     6  C    0.000000
     7  O    3.693383   0.000000
     8  C    3.754826   4.779082   0.000000
     9  O    4.775660   4.856145   1.314084   0.000000
    10  O    4.256729   5.973782   1.306097   2.284074   0.000000
    11  O    2.402399   5.535342   2.852219   4.162601   2.561415
    12  H    3.884137   2.547162   2.655582   2.362479   3.959492
    13  H    2.137020   2.704414   5.304731   5.999195   6.108798
    14  H    1.086242   4.575175   4.645332   5.755764   4.936201
    15  H    3.889600   0.967185   5.599631   5.778006   6.737855
    16  H    5.636551   5.800534   1.947190   0.971594   2.431576
    17  H    5.225915   6.717168   1.938087   2.424614   0.972478
    18  H    2.456580   5.977598   3.815284   5.121845   3.489348
                   11         12         13         14         15
    11  O    0.000000
    12  H    4.569377   0.000000
    13  H    4.536096   4.285233   0.000000
    14  H    2.656242   4.970191   2.451502   0.000000
    15  H    5.995274   3.501184   2.366122   4.602865   0.000000
    16  H    4.718659   3.275640   6.954363   6.572500   6.732260
    17  H    3.469080   4.505180   7.043539   5.905096   7.530758
    18  H    0.969337   5.347100   4.533595   2.286843   6.304943
                   16         17         18
    16  H    0.000000
    17  H    2.167532   0.000000
    18  H    5.687840   4.358605   0.000000
 Stoichiometry    C7H7O4(1+)
 Framework group  C1[X(C7H7O4)]
 Deg. of freedom    48
 Full point group                 C1      NOp   1
 Largest Abelian subgroup         C1      NOp   1
 Largest concise Abelian subgroup C1      NOp   1
                         Standard orientation:                         
 ---------------------------------------------------------------------
 Center     Atomic      Atomic             Coordinates (Angstroms)
 Number     Number       Type             X           Y           Z
 ---------------------------------------------------------------------
      1          6           0       -0.216273    1.277105   -0.000067
      2          6           0       -0.426271   -0.137963   -0.000090
      3          6           0        0.695035   -1.016208   -0.000092
      4          6           0        1.983602   -0.517055    0.000036
      5          6           0        2.177158    0.882470    0.000051
      6          6           0        1.100194    1.755980    0.000009
      7          8           0        3.003093   -1.409466    0.000084
      8          6           0       -1.725510   -0.716693    0.000000
      9          8           0       -1.813522   -2.027826   -0.000195
     10          8           0       -2.793317    0.035423    0.000313
     11          8           0       -1.277430    2.100110   -0.000163
     12          1           0        0.548172   -2.088730   -0.000183
     13          1           0        3.185520    1.288788    0.000078
     14          1           0        1.277219    2.827700   -0.000028
     15          1           0        3.868079   -0.976746    0.000317
     16          1           0       -2.713134   -2.394831   -0.000202
     17          1           0       -3.643314   -0.437037    0.000695
     18          1           0       -1.000737    3.029117   -0.000072
 ---------------------------------------------------------------------
 Rotational constants (GHZ):      1.7664212      0.9026013      0.5973625
 Standard basis: 6-31+G(d,p) (6D, 7F)
 There are   244 symmetry adapted cartesian basis functions of A   symmetry.
 There are   244 symmetry adapted basis functions of A   symmetry.
   244 basis functions,   401 primitive gaussians,   244 cartesian basis functions
    40 alpha electrons       40 beta electrons
       nuclear repulsion energy       605.6097235074 Hartrees.
 NAtoms=   18 NActive=   18 NUniq=   18 SFac= 1.00D+00 NAtFMM=   60 NAOKFM=F Big=F
 Integral buffers will be    131072 words long.
 Raffenetti 2 integral format.
 Two-electron integral symmetry is turned on.
 One-electron integrals computed using PRISM.
 NBasis=   244 RedAO= T EigKep=  3.29D-06  NBF=   244
 NBsUse=   244 1.00D-06 EigRej= -1.00D+00 NBFU=   244
 ExpMin= 4.38D-02 ExpMax= 5.48D+03 ExpMxC= 8.25D+02 IAcc=2 IRadAn=         4 AccDes= 0.00D+00
 Harris functional with IExCor=20419 and IRadAn=       4 diagonalized for initial guess.
 HarFok:  IExCor=20419 AccDes= 0.00D+00 IRadAn=         4 IDoV= 1 UseB2=F ITyADJ=14
 ICtDFT=  3500011 ScaDFX=  1.000000  1.000000  1.000000  1.000000
 FoFCou: FMM=F IPFlag=           0 FMFlag=      100000 FMFlg1=           0
         NFxFlg=           0 DoJE=T BraDBF=F KetDBF=T FulRan=T
         wScrn=  0.000000 ICntrl=     500 IOpCl=  0 I1Cent=   200000004 NGrid=           0
         NMat0=    1 NMatS0=      1 NMatT0=    0 NMatD0=    1 NMtDS0=    0 NMtDT0=    0
 Petite list used in FoFCou.
 Keep R1 ints in memory in canonical form, NReq=900998300.
 Requested convergence on RMS density matrix=1.00D-08 within 128 cycles.
 Requested convergence on MAX density matrix=1.00D-06.
 Requested convergence on             energy=1.00D-06.
 No special actions if energy rises.
 SCF Done:  E(RCAM-B3LYP) =  -571.378105890     A.U. after   16 cycles
            NFock= 16  Conv=0.46D-08     -V/T= 2.0090

 **********************************************************************

            Population analysis using the SCF density.

 **********************************************************************

 Orbital symmetries:
       Occupied  (A) (A) (A) (A) (A) (A) (A) (A) (A) (A) (A) (A)
                 (A) (A) (A) (A) (A) (A) (A) (A) (A) (A) (A) (A)
                 (A) (A) (A) (A) (A) (A) (A) (A) (A) (A) (A) (A)
                 (A) (A) (A) (A)
       Virtual   (A) (A) (A) (A) (A) (A) (A) (A) (A) (A) (A) (A)
                 (A) (A) (A) (A) (A) (A) (A) (A) (A) (A) (A) (A)
                 (A) (A) (A) (A) (A) (A) (A) (A) (A) (A) (A) (A)
                 (A) (A) (A) (A) (A) (A) (A) (A) (A) (A) (A) (A)
                 (A) (A) (A) (A) (A) (A) (A) (A) (A) (A) (A) (A)
                 (A) (A) (A) (A) (A) (A) (A) (A) (A) (A) (A) (A)
                 (A) (A) (A) (A) (A) (A) (A) (A) (A) (A) (A) (A)
                 (A) (A) (A) (A) (A) (A) (A) (A) (A) (A) (A) (A)
                 (A) (A) (A) (A) (A) (A) (A) (A) (A) (A) (A) (A)
                 (A) (A) (A) (A) (A) (A) (A) (A) (A) (A) (A) (A)
                 (A) (A) (A) (A) (A) (A) (A) (A) (A) (A) (A) (A)
                 (A) (A) (A) (A) (A) (A) (A) (A) (A) (A) (A) (A)
                 (A) (A) (A) (A) (A) (A) (A) (A) (A) (A) (A) (A)
                 (A) (A) (A) (A) (A) (A) (A) (A) (A) (A) (A) (A)
                 (A) (A) (A) (A) (A) (A) (A) (A) (A) (A) (A) (A)
                 (A) (A) (A) (A) (A) (A) (A) (A) (A) (A) (A) (A)
                 (A) (A) (A) (A) (A) (A) (A) (A) (A) (A) (A) (A)
 The electronic state is 1-A.
 Alpha  occ. eigenvalues --  -19.50101 -19.50098 -19.43012 -19.39676 -10.64158
 Alpha  occ. eigenvalues --  -10.51917 -10.48532 -10.46417 -10.44778 -10.43730
 Alpha  occ. eigenvalues --  -10.43535  -1.43820  -1.35680  -1.32262  -1.28781
 Alpha  occ. eigenvalues --   -1.11586  -1.04983  -0.98944  -0.95767  -0.91337
 Alpha  occ. eigenvalues --   -0.87394  -0.85796  -0.80640  -0.78364  -0.75245
 Alpha  occ. eigenvalues --   -0.75079  -0.73482  -0.70032  -0.66815  -0.65747
 Alpha  occ. eigenvalues --   -0.65334  -0.64810  -0.63398  -0.63295  -0.61963
 Alpha  occ. eigenvalues --   -0.58583  -0.56766  -0.54033  -0.49172  -0.42323
 Alpha virt. eigenvalues --   -0.21585  -0.14789  -0.11045  -0.09325  -0.08429
 Alpha virt. eigenvalues --   -0.07780  -0.07448  -0.06622  -0.05463  -0.05056
 Alpha virt. eigenvalues --   -0.03238  -0.02176  -0.01520  -0.00753  -0.00169
 Alpha virt. eigenvalues --    0.00700   0.02549   0.03513   0.04285   0.04303
 Alpha virt. eigenvalues --    0.04645   0.05040   0.05829   0.06612   0.07001
 Alpha virt. eigenvalues --    0.07483   0.07984   0.08710   0.09650   0.09824
 Alpha virt. eigenvalues --    0.10218   0.11191   0.11892   0.12128   0.12264
 Alpha virt. eigenvalues --    0.12944   0.13683   0.14847   0.15796   0.16118
 Alpha virt. eigenvalues --    0.16712   0.16873   0.17538   0.18191   0.18854
 Alpha virt. eigenvalues --    0.19837   0.21110   0.21463   0.21590   0.22503
 Alpha virt. eigenvalues --    0.23219   0.23914   0.24903   0.26543   0.27693
 Alpha virt. eigenvalues --    0.27854   0.30947   0.31284   0.32157   0.33387
 Alpha virt. eigenvalues --    0.34235   0.37116   0.38755   0.40444   0.50694
 Alpha virt. eigenvalues --    0.51729   0.55377   0.56567   0.58424   0.59876
 Alpha virt. eigenvalues --    0.61854   0.63064   0.63809   0.64885   0.65852
 Alpha virt. eigenvalues --    0.67695   0.69275   0.74046   0.74134   0.77071
 Alpha virt. eigenvalues --    0.78427   0.84295   0.84949   0.88393   0.89474
 Alpha virt. eigenvalues --    0.91474   0.94366   0.95903   0.97840   0.99049
 Alpha virt. eigenvalues --    1.00485   1.01631   1.03930   1.06304   1.07279
 Alpha virt. eigenvalues --    1.07962   1.10674   1.10857   1.11907   1.12940
 Alpha virt. eigenvalues --    1.13608   1.15316   1.15760   1.17415   1.17806
 Alpha virt. eigenvalues --    1.18555   1.20195   1.22619   1.23055   1.24391
 Alpha virt. eigenvalues --    1.27103   1.28310   1.29711   1.30332   1.32375
 Alpha virt. eigenvalues --    1.33048   1.37121   1.41446   1.42369   1.45644
 Alpha virt. eigenvalues --    1.49249   1.50542   1.50795   1.53692   1.54634
 Alpha virt. eigenvalues --    1.60245   1.62420   1.66639   1.67032   1.68160
 Alpha virt. eigenvalues --    1.76980   1.78917   1.81734   1.82027   1.83073
 Alpha virt. eigenvalues --    1.84719   1.86082   1.86509   1.88771   1.93373
 Alpha virt. eigenvalues --    1.93699   1.94411   1.97096   2.04985   2.12038
 Alpha virt. eigenvalues --    2.12148   2.15105   2.17491   2.19479   2.22901
 Alpha virt. eigenvalues --    2.25765   2.28008   2.28157   2.31023   2.32025
 Alpha virt. eigenvalues --    2.32813   2.36531   2.38087   2.39905   2.41683
 Alpha virt. eigenvalues --    2.42664   2.45741   2.48575   2.48845   2.50962
 Alpha virt. eigenvalues --    2.52671   2.53606   2.55069   2.57864   2.59941
 Alpha virt. eigenvalues --    2.63603   2.64375   2.65922   2.66468   2.69936
 Alpha virt. eigenvalues --    2.71911   2.79280   2.84975   2.87634   2.95171
 Alpha virt. eigenvalues --    2.97811   3.02004   3.07846   3.11572   3.16312
 Alpha virt. eigenvalues --    3.24200   3.30363   3.38531   3.40173   3.44698
 Alpha virt. eigenvalues --    3.47329   3.48921   3.71636   4.13102   4.17024
 Alpha virt. eigenvalues --    4.21060   4.23274   4.25135   4.37043   4.41400
 Alpha virt. eigenvalues --    4.47769   4.52426   4.72423   4.87075
          Condensed to atoms (all electrons):
               1          2          3          4          5          6
     1  C   17.644733  -4.146726  -4.278306   0.519272   0.879589  -3.054866
     2  C   -4.146726  11.049534  -1.658743   0.825167  -0.682572   0.376151
     3  C   -4.278306  -1.658743  13.948809  -2.811481  -0.368568   0.345967
     4  C    0.519272   0.825167  -2.811481   8.255371  -0.248596   0.312652
     5  C    0.879589  -0.682572  -0.368568  -0.248596   5.938869  -0.052616
     6  C   -3.054866   0.376151   0.345967   0.312652  -0.052616   7.755365
     7  O   -0.026204   0.052430   0.051998  -0.023003  -0.118905   0.042664
     8  C   -0.975456  -0.101513   0.697399  -0.718914   0.041966  -0.225235
     9  O   -0.092543   0.117317  -0.022867   0.030823  -0.006966   0.022203
    10  O   -0.050265   0.073276  -0.114347   0.011677   0.011918   0.072447
    11  O    0.157970  -0.217705   0.075878  -0.001680   0.034885   0.087287
    12  H    0.017352   0.009459   0.181335   0.087799   0.023537  -0.000223
    13  H    0.020320   0.002710  -0.022753   0.005325   0.273172   0.047667
    14  H   -0.008072  -0.011800  -0.014430   0.011083   0.085394   0.262075
    15  H    0.002299  -0.009662   0.067800  -0.061131  -0.001240   0.000431
    16  H   -0.007445  -0.026349   0.024209   0.000095   0.000410   0.003864
    17  H   -0.000123  -0.003073   0.003662   0.005088  -0.000334  -0.008633
    18  H   -0.029569   0.099564  -0.006032   0.003550  -0.001876  -0.082112
               7          8          9         10         11         12
     1  C   -0.026204  -0.975456  -0.092543  -0.050265   0.157970   0.017352
     2  C    0.052430  -0.101513   0.117317   0.073276  -0.217705   0.009459
     3  C    0.051998   0.697399  -0.022867  -0.114347   0.075878   0.181335
     4  C   -0.023003  -0.718914   0.030823   0.011677  -0.001680   0.087799
     5  C   -0.118905   0.041966  -0.006966   0.011918   0.034885   0.023537
     6  C    0.042664  -0.225235   0.022203   0.072447   0.087287  -0.000223
     7  O    8.341313  -0.005716   0.000035   0.000104   0.000242  -0.006532
     8  C   -0.005716   6.173379   0.074162   0.124395  -0.171154   0.000905
     9  O    0.000035   0.074162   8.194035  -0.112624   0.001751   0.000636
    10  O    0.000104   0.124395  -0.112624   8.213428  -0.019193   0.000555
    11  O    0.000242  -0.171154   0.001751  -0.019193   8.357845  -0.000258
    12  H   -0.006532   0.000905   0.000636   0.000555  -0.000258   0.490550
    13  H   -0.010671   0.000651  -0.000002   0.000018  -0.000465  -0.000118
    14  H   -0.000489   0.006400  -0.000001   0.000010  -0.013470   0.000007
    15  H    0.226059   0.002623   0.000010   0.000001  -0.000007  -0.000014
    16  H    0.000008   0.032039   0.214422  -0.015108   0.000095   0.000366
    17  H    0.000001   0.030773  -0.016050   0.196436   0.004180   0.000009
    18  H   -0.000006   0.017530  -0.000016   0.000747   0.211986   0.000003
              13         14         15         16         17         18
     1  C    0.020320  -0.008072   0.002299  -0.007445  -0.000123  -0.029569
     2  C    0.002710  -0.011800  -0.009662  -0.026349  -0.003073   0.099564
     3  C   -0.022753  -0.014430   0.067800   0.024209   0.003662  -0.006032
     4  C    0.005325   0.011083  -0.061131   0.000095   0.005088   0.003550
     5  C    0.273172   0.085394  -0.001240   0.000410  -0.000334  -0.001876
     6  C    0.047667   0.262075   0.000431   0.003864  -0.008633  -0.082112
     7  O   -0.010671  -0.000489   0.226059   0.000008   0.000001  -0.000006
     8  C    0.000651   0.006400   0.002623   0.032039   0.030773   0.017530
     9  O   -0.000002  -0.000001   0.000010   0.214422  -0.016050  -0.000016
    10  O    0.000018   0.000010   0.000001  -0.015108   0.196436   0.000747
    11  O   -0.000465  -0.013470  -0.000007   0.000095   0.004180   0.211986
    12  H   -0.000118   0.000007  -0.000014   0.000366   0.000009   0.000003
    13  H    0.514950  -0.004501   0.004598  -0.000000   0.000000  -0.000015
    14  H   -0.004501   0.517734  -0.000003  -0.000000  -0.000000   0.006648
    15  H    0.004598  -0.000003   0.384884   0.000000   0.000000   0.000000
    16  H   -0.000000  -0.000000   0.000000   0.354916   0.007472  -0.000000
    17  H    0.000000  -0.000000   0.000000   0.007472   0.353436  -0.000000
    18  H   -0.000015   0.006648   0.000000  -0.000000  -0.000000   0.359524
 Mulliken charges:
               1
     1  C   -0.571960
     2  C    0.252534
     3  C   -0.099528
     4  C   -0.203098
     5  C    0.191935
     6  C    0.094913
     7  O   -0.523328
     8  C    0.995766
     9  O   -0.404325
    10  O   -0.393474
    11  O   -0.508187
    12  H    0.194632
    13  H    0.169114
    14  H    0.163415
    15  H    0.383353
    16  H    0.411008
    17  H    0.427156
    18  H    0.420075
 Sum of Mulliken charges =   1.00000
 Mulliken charges with hydrogens summed into heavy atoms:
               1
     1  C   -0.571960
     2  C    0.252534
     3  C    0.095104
     4  C   -0.203098
     5  C    0.361049
     6  C    0.258327
     7  O   -0.139975
     8  C    0.995766
     9  O    0.006683
    10  O    0.033682
    11  O   -0.088113
 Electronic spatial extent (au):  <R**2>=           1738.9948
 Charge=              1.0000 electrons
 Dipole moment (field-independent basis, Debye):
    X=             -4.0063    Y=              0.3554    Z=              0.0012  Tot=              4.0221
 Quadrupole moment (field-independent basis, Debye-Ang):
   XX=            -14.2156   YY=            -40.9813   ZZ=            -63.9081
   XY=             17.5311   XZ=             -0.0016   YZ=             -0.0003
 Traceless Quadrupole moment (field-independent basis, Debye-Ang):
   XX=             25.4861   YY=             -1.2796   ZZ=            -24.2065
   XY=             17.5311   XZ=             -0.0016   YZ=             -0.0003
 Octapole moment (field-independent basis, Debye-Ang**2):
  XXX=            -45.0022  YYY=             30.9571  ZZZ=              0.0011  XYY=            -34.7336
  XXY=            -39.3711  XXZ=              0.0238  XZZ=             -8.8882  YZZ=             -3.1833
  YYZ=             -0.0012  XYZ=             -0.0009
 Hexadecapole moment (field-independent basis, Debye-Ang**3):
 XXXX=           -581.0199 YYYY=           -505.8154 ZZZZ=            -63.8164 XXXY=            148.1159
 XXXZ=             -0.0229 YYYX=             52.1988 YYYZ=              0.0038 ZZZX=             -0.0021
 ZZZY=             -0.0007 XXYY=           -265.0497 XXZZ=           -239.1177 YYZZ=           -138.6972
 XXYZ=             -0.0098 YYXZ=              0.0023 ZZXY=             -0.8369
 N-N= 6.056097235074D+02 E-N=-2.532781279756D+03  KE= 5.662608412171D+02
 Calling FoFJK, ICntrl=      2127 FMM=F ISym2X=0 I1Cent= 0 IOpClX= 0 NMat=1 NMatS=1 NMatT=0.
 ***** Axes restored to original set *****
 -------------------------------------------------------------------
 Center     Atomic                   Forces (Hartrees/Bohr)
 Number     Number              X              Y              Z
 -------------------------------------------------------------------
      1        6          -0.001050879   -0.003188995    0.000001197
      2        6           0.001990694    0.003437171    0.000000375
      3        6           0.002589253    0.005082408   -0.000001117
      4        6          -0.003432562    0.000435134   -0.000003474
      5        6          -0.005365774   -0.002198310    0.000001258
      6        6          -0.000141569   -0.004487483   -0.000003809
      7        8          -0.001463309    0.003808675    0.000000601
      8        6          -0.003213281   -0.000846836    0.000000736
      9        8          -0.000900071    0.009003539    0.000003028
     10        8           0.006839470   -0.006473862   -0.000000201
     11        8           0.004947871   -0.002291231    0.000003192
     12        1           0.000138302    0.000114081    0.000002861
     13        1          -0.000450631   -0.000212232    0.000000915
     14        1          -0.000122865   -0.000548797    0.000001504
     15        1          -0.001359745   -0.001018332   -0.000001458
     16        1           0.000957537    0.000041182    0.000000407
     17        1           0.000664907    0.000742953   -0.000004841
     18        1          -0.000627346   -0.001399066   -0.000001174
 -------------------------------------------------------------------
 Cartesian Forces:  Max     0.009003539 RMS     0.002585822

 GradGradGradGradGradGradGradGradGradGradGradGradGradGradGradGradGradGrad
 Berny optimization.
 FormGI is forming the generalized inverse of G from B-inverse, IUseBI=4.
 Internal  Forces:  Max     0.009441543 RMS     0.002555627
 Search for a local minimum.
 Step number   1 out of a maximum of   89
 All quantities printed in internal units (Hartrees-Bohrs-Radians)
 Mixed Optimization -- RFO/linear search
 Second derivative matrix not updated -- first step.
 ITU=  0
     Eigenvalues ---    0.01735   0.01794   0.01807   0.01965   0.02020
     Eigenvalues ---    0.02056   0.02103   0.02135   0.02173   0.02205
     Eigenvalues ---    0.02288   0.02349   0.02447   0.02828   0.02934
     Eigenvalues ---    0.16000   0.16000   0.16000   0.16000   0.16000
     Eigenvalues ---    0.16000   0.16000   0.22358   0.23489   0.24598
     Eigenvalues ---    0.25000   0.25000   0.25000   0.25000   0.25000
     Eigenvalues ---    0.35144   0.35251   0.35690   0.38971   0.40352
     Eigenvalues ---    0.42115   0.42661   0.44101   0.46855   0.48072
     Eigenvalues ---    0.52874   0.53053   0.53513   0.53956   0.53991
     Eigenvalues ---    0.56559   0.63429   0.65528
 RFO step:  Lambda=-1.03392742D-03 EMin= 1.73538689D-02
 Linear search not attempted -- first point.
 Iteration  1 RMS(Cart)=  0.01203601 RMS(Int)=  0.00001064
 Iteration  2 RMS(Cart)=  0.00001830 RMS(Int)=  0.00000121
 Iteration  3 RMS(Cart)=  0.00000000 RMS(Int)=  0.00000121
 Variable       Old X    -DE/DX   Delta X   Delta X   Delta X     New X
                                 (Linear)    (Quad)   (Total)
    R1        2.70338  -0.00880   0.00000  -0.02144  -0.02144   2.68194
    R2        2.64724  -0.00546   0.00000  -0.01193  -0.01193   2.63531
    R3        2.53772  -0.00567   0.00000  -0.01001  -0.01001   2.52771
    R4        2.69154  -0.00517   0.00000  -0.01237  -0.01236   2.67918
    R5        2.68777  -0.00498   0.00000  -0.01179  -0.01179   2.67598
    R6        2.61135  -0.00757   0.00000  -0.01554  -0.01554   2.59581
    R7        2.04569  -0.00013   0.00000  -0.00037  -0.00037   2.04532
    R8        2.66989  -0.00577   0.00000  -0.01325  -0.01325   2.65664
    R9        2.56039  -0.00397   0.00000  -0.00733  -0.00733   2.55306
   R10        2.62044  -0.00589   0.00000  -0.01225  -0.01225   2.60819
   R11        2.05441  -0.00050   0.00000  -0.00141  -0.00141   2.05300
   R12        2.05270  -0.00056   0.00000  -0.00159  -0.00159   2.05111
   R13        1.82772  -0.00167   0.00000  -0.00309  -0.00309   1.82463
   R14        2.48326  -0.00902   0.00000  -0.01420  -0.01420   2.46906
   R15        2.46817  -0.00944   0.00000  -0.01439  -0.01439   2.45378
   R16        1.83605  -0.00090   0.00000  -0.00170  -0.00170   1.83435
   R17        1.83772  -0.00094   0.00000  -0.00177  -0.00177   1.83594
   R18        1.83178  -0.00152   0.00000  -0.00284  -0.00284   1.82894
    A1        2.06700  -0.00001   0.00000   0.00017   0.00017   2.06717
    A2        2.08314  -0.00053   0.00000  -0.00223  -0.00223   2.08091
    A3        2.13305   0.00055   0.00000   0.00206   0.00206   2.13510
    A4        2.08790   0.00093   0.00000   0.00379   0.00379   2.09170
    A5        2.13718  -0.00130   0.00000  -0.00520  -0.00520   2.13197
    A6        2.05811   0.00036   0.00000   0.00141   0.00141   2.05952
    A7        2.10759  -0.00058   0.00000  -0.00269  -0.00269   2.10490
    A8        2.09914   0.00042   0.00000   0.00214   0.00214   2.10128
    A9        2.07645   0.00016   0.00000   0.00055   0.00055   2.07701
   A10        2.07780   0.00004   0.00000   0.00009   0.00009   2.07789
   A11        2.05299   0.00003   0.00000   0.00014   0.00014   2.05313
   A12        2.15240  -0.00007   0.00000  -0.00023  -0.00023   2.15216
   A13        2.11483   0.00027   0.00000   0.00131   0.00131   2.11614
   A14        2.09127  -0.00016   0.00000  -0.00081  -0.00081   2.09046
   A15        2.07708  -0.00011   0.00000  -0.00051  -0.00050   2.07658
   A16        2.11125  -0.00065   0.00000  -0.00267  -0.00267   2.10858
   A17        2.08338   0.00029   0.00000   0.00111   0.00111   2.08448
   A18        2.08856   0.00036   0.00000   0.00156   0.00157   2.09013
   A19        1.95871   0.00055   0.00000   0.00339   0.00339   1.96209
   A20        2.05688   0.00039   0.00000   0.00154   0.00154   2.05841
   A21        2.10890  -0.00003   0.00000  -0.00012  -0.00012   2.10878
   A22        2.11741  -0.00036   0.00000  -0.00142  -0.00142   2.11600
   A23        2.02517   0.00060   0.00000   0.00375   0.00375   2.02892
   A24        2.02064   0.00059   0.00000   0.00367   0.00367   2.02430
   A25        1.94099   0.00038   0.00000   0.00234   0.00234   1.94333
    D1       -0.00005   0.00000   0.00000   0.00003   0.00003  -0.00001
    D2        3.14145   0.00000   0.00000   0.00010   0.00010   3.14155
    D3        3.14151   0.00000   0.00000   0.00005   0.00005   3.14156
    D4       -0.00018   0.00000   0.00000   0.00011   0.00011  -0.00007
    D5        0.00001  -0.00000   0.00000  -0.00001  -0.00001   0.00000
    D6        3.14153   0.00000   0.00000   0.00004   0.00004   3.14157
    D7       -3.14155  -0.00000   0.00000  -0.00002  -0.00002  -3.14157
    D8       -0.00002   0.00000   0.00000   0.00002   0.00002   0.00000
    D9        3.14152   0.00000   0.00000   0.00003   0.00003   3.14155
   D10       -0.00011   0.00000   0.00000   0.00004   0.00004  -0.00007
   D11        0.00009  -0.00000   0.00000  -0.00006  -0.00006   0.00003
   D12       -3.14151  -0.00000   0.00000  -0.00005  -0.00005  -3.14156
   D13       -3.14141  -0.00000   0.00000  -0.00012  -0.00012  -3.14153
   D14        0.00017  -0.00000   0.00000  -0.00011  -0.00011   0.00006
   D15        3.14145   0.00000   0.00000   0.00006   0.00006   3.14151
   D16       -0.00018   0.00000   0.00000   0.00014   0.00014  -0.00005
   D17       -0.00023   0.00000   0.00000   0.00012   0.00012  -0.00011
   D18        3.14132   0.00000   0.00000   0.00020   0.00020   3.14152
   D19       -0.00010   0.00000   0.00000   0.00006   0.00006  -0.00004
   D20        3.14154   0.00000   0.00000   0.00004   0.00004   3.14159
   D21        3.14151   0.00000   0.00000   0.00005   0.00005   3.14156
   D22       -0.00004   0.00000   0.00000   0.00003   0.00003  -0.00000
   D23        0.00006  -0.00000   0.00000  -0.00003  -0.00003   0.00002
   D24       -3.14152  -0.00000   0.00000  -0.00005  -0.00005  -3.14156
   D25       -3.14159  -0.00000   0.00000  -0.00001  -0.00001   3.14159
   D26        0.00003  -0.00000   0.00000  -0.00003  -0.00003  -0.00000
   D27       -3.14143  -0.00000   0.00000  -0.00003  -0.00003  -3.14146
   D28        0.00021  -0.00000   0.00000  -0.00005  -0.00005   0.00016
   D29       -0.00001   0.00000   0.00000   0.00001   0.00001  -0.00001
   D30       -3.14154  -0.00000   0.00000  -0.00004  -0.00004  -3.14158
   D31        3.14156   0.00000   0.00000   0.00002   0.00002   3.14158
   D32        0.00003  -0.00000   0.00000  -0.00002  -0.00002   0.00001
   D33       -3.14151   0.00000   0.00000   0.00003   0.00003  -3.14148
   D34        0.00013  -0.00000   0.00000  -0.00005  -0.00005   0.00007
   D35       -3.14120  -0.00000   0.00000  -0.00016  -0.00016  -3.14137
   D36        0.00035  -0.00000   0.00000  -0.00008  -0.00008   0.00027
         Item               Value     Threshold  Converged?
 Maximum Force            0.009442     0.000450     NO 
 RMS     Force            0.002556     0.000300     NO 
 Maximum Displacement     0.035956     0.001800     NO 
 RMS     Displacement     0.012037     0.001200     NO 
 Predicted change in Energy=-5.180928D-04
 GradGradGradGradGradGradGradGradGradGradGradGradGradGradGradGradGradGrad

                          Input orientation:                          
 ---------------------------------------------------------------------
 Center     Atomic      Atomic             Coordinates (Angstroms)
 Number     Number       Type             X           Y           Z
 ---------------------------------------------------------------------
      1          6           0       -0.215017    1.267059   -0.000001
      2          6           0       -0.419710   -0.137322   -0.000001
      3          6           0        0.695394   -1.012872   -0.000008
      4          6           0        1.975555   -0.514783    0.000022
      5          6           0        2.166204    0.878063    0.000016
      6          6           0        1.094197    1.747395    0.000008
      7          8           0        2.993576   -1.402981    0.000022
      8          6           0       -1.714752   -0.710134    0.000040
      9          8           0       -1.807667   -2.013395   -0.000060
     10          8           0       -2.774290    0.040494    0.000132
     11          8           0       -1.275926    2.081714   -0.000038
     12          1           0        0.549561   -2.085336   -0.000035
     13          1           0        3.173633    1.284697    0.000013
     14          1           0        1.269314    2.818578   -0.000012
     15          1           0        3.857859   -0.972508    0.000163
     16          1           0       -2.706592   -2.379701   -0.000127
     17          1           0       -3.626468   -0.426067    0.000353
     18          1           0       -1.006305    3.011234    0.000005
 ---------------------------------------------------------------------
                    Distance matrix (angstroms):
                    1          2          3          4          5
     1  C    0.000000
     2  C    1.419220   0.000000
     3  C    2.454981   1.417761   0.000000
     4  C    2.823750   2.424824   1.373646   0.000000
     5  C    2.412784   2.778122   2.395603   1.405833   0.000000
     6  C    1.394548   2.417452   2.788927   2.427806   1.380194
     7  O    4.174228   3.640387   2.331057   1.351023   2.426460
     8  C    2.481632   1.416067   2.429086   3.695474   4.193351
     9  O    3.646630   2.333682   2.695619   4.069226   4.914486
    10  O    2.838017   2.361284   3.626057   4.782192   5.010988
    11  O    1.337607   2.378492   3.669137   4.161000   3.646509
    12  H    3.438478   2.175832   1.082334   2.121343   3.375688
    13  H    3.388696   3.864486   3.379421   2.161832   1.086400
    14  H    2.147196   3.404431   3.874196   3.407356   2.137759
    15  H    4.648007   4.358341   3.162722   1.937158   2.507251
    16  H    4.416650   3.202825   3.666297   5.039883   5.861498
    17  H    3.808501   3.219731   4.361518   5.602726   5.937660
    18  H    1.915277   3.202733   4.369120   4.617822   3.822987
                    6          7          8          9         10
     6  C    0.000000
     7  O    3.678656   0.000000
     8  C    3.732244   4.759033   0.000000
     9  O    4.750195   4.839890   1.306569   0.000000
    10  O    4.228322   5.945747   1.298485   2.269983   0.000000
    11  O    2.393585   5.511057   2.826125   4.129488   2.532129
    12  H    3.871234   2.537483   2.649206   2.358325   3.945521
    13  H    2.130292   2.693703   5.279741   5.974174   6.076663
    14  H    1.085403   4.560115   4.621305   5.728506   4.905965
    15  H    3.877589   0.965553   5.578784   5.760349   6.709067
    16  H    5.610607   5.783243   1.941958   0.970694   2.421141
    17  H    5.196982   6.691738   1.932706   2.414053   0.971538
    18  H    2.451408   5.956874   3.788202   5.088131   3.457032
                   11         12         13         14         15
    11  O    0.000000
    12  H    4.549363   0.000000
    13  H    4.520377   4.271168   0.000000
    14  H    2.649757   4.956453   2.445245   0.000000
    15  H    5.973610   3.490448   2.358631   4.590523   0.000000
    16  H    4.685192   3.269431   6.928554   6.544458   6.713584
    17  H    3.437153   4.493594   7.011996   5.873365   7.504249
    18  H    0.967834   5.328766   4.522479   2.283760   6.287312
                   16         17         18
    16  H    0.000000
    17  H    2.159365   0.000000
    18  H    5.652712   4.322071   0.000000
 Stoichiometry    C7H7O4(1+)
 Framework group  C1[X(C7H7O4)]
 Deg. of freedom    48
 Full point group                 C1      NOp   1
 Largest Abelian subgroup         C1      NOp   1
 Largest concise Abelian subgroup C1      NOp   1
                         Standard orientation:                         
 ---------------------------------------------------------------------
 Center     Atomic      Atomic             Coordinates (Angstroms)
 Number     Number       Type             X           Y           Z
 ---------------------------------------------------------------------
      1          6           0       -0.219101    1.266519   -0.000016
      2          6           0       -0.420468   -0.138343   -0.000017
      3          6           0        0.696708   -1.011249   -0.000024
      4          6           0        1.975685   -0.510129    0.000006
      5          6           0        2.163034    0.883164    0.000000
      6          6           0        1.088972    1.749955   -0.000007
      7          8           0        2.995807   -1.395914    0.000006
      8          6           0       -1.714149   -0.714220    0.000025
      9          8           0       -1.803976   -2.017698   -0.000076
     10          8           0       -2.775462    0.033896    0.000116
     11          8           0       -1.281936    2.078659   -0.000053
     12          1           0        0.553415   -2.084056   -0.000050
     13          1           0        3.169498    1.292183   -0.000002
     14          1           0        1.261551    2.821550   -0.000028
     15          1           0        3.859068   -0.963395    0.000147
     16          1           0       -2.702032   -2.386132   -0.000142
     17          1           0       -3.626533   -0.434683    0.000337
     18          1           0       -1.014518    3.008815   -0.000010
 ---------------------------------------------------------------------
 Rotational constants (GHZ):      1.7898379      0.9105959      0.6035397
 Standard basis: 6-31+G(d,p) (6D, 7F)
 There are   244 symmetry adapted cartesian basis functions of A   symmetry.
 There are   244 symmetry adapted basis functions of A   symmetry.
   244 basis functions,   401 primitive gaussians,   244 cartesian basis functions
    40 alpha electrons       40 beta electrons
       nuclear repulsion energy       608.6563844196 Hartrees.
 NAtoms=   18 NActive=   18 NUniq=   18 SFac= 1.00D+00 NAtFMM=   60 NAOKFM=F Big=F
 Integral buffers will be    131072 words long.
 Raffenetti 2 integral format.
 Two-electron integral symmetry is turned on.
 One-electron integrals computed using PRISM.
 NBasis=   244 RedAO= T EigKep=  3.13D-06  NBF=   244
 NBsUse=   244 1.00D-06 EigRej= -1.00D+00 NBFU=   244
 Initial guess from the checkpoint file:  "camb3lypDHByanggd3.chk"
 B after Tr=     0.000000    0.000000    0.000000
         Rot=    0.999999   -0.000000   -0.000002   -0.001173 Ang=  -0.13 deg.
 ExpMin= 4.38D-02 ExpMax= 5.48D+03 ExpMxC= 8.25D+02 IAcc=2 IRadAn=         4 AccDes= 0.00D+00
 Harris functional with IExCor=20419 and IRadAn=       4 diagonalized for initial guess.
 HarFok:  IExCor=20419 AccDes= 0.00D+00 IRadAn=         4 IDoV= 1 UseB2=F ITyADJ=14
 ICtDFT=  3500011 ScaDFX=  1.000000  1.000000  1.000000  1.000000
 FoFCou: FMM=F IPFlag=           0 FMFlag=      100000 FMFlg1=           0
         NFxFlg=           0 DoJE=T BraDBF=F KetDBF=T FulRan=T
         wScrn=  0.000000 ICntrl=     500 IOpCl=  0 I1Cent=   200000004 NGrid=           0
         NMat0=    1 NMatS0=      1 NMatT0=    0 NMatD0=    1 NMtDS0=    0 NMtDT0=    0
 Petite list used in FoFCou.
 Keep R1 ints in memory in canonical form, NReq=900998300.
 Requested convergence on RMS density matrix=1.00D-08 within 128 cycles.
 Requested convergence on MAX density matrix=1.00D-06.
 Requested convergence on             energy=1.00D-06.
 No special actions if energy rises.
 SCF Done:  E(RCAM-B3LYP) =  -571.378565592     A.U. after   13 cycles
            NFock= 13  Conv=0.47D-08     -V/T= 2.0087
 Calling FoFJK, ICntrl=      2127 FMM=F ISym2X=0 I1Cent= 0 IOpClX= 0 NMat=1 NMatS=1 NMatT=0.
 ***** Axes restored to original set *****
 -------------------------------------------------------------------
 Center     Atomic                   Forces (Hartrees/Bohr)
 Number     Number              X              Y              Z
 -------------------------------------------------------------------
      1        6          -0.001433671   -0.000228012    0.000000054
      2        6           0.001165242    0.000468223    0.000001313
      3        6          -0.000350105   -0.000512457   -0.000000840
      4        6           0.000630498   -0.000972716   -0.000001508
      5        6           0.000188462    0.000540502    0.000001110
      6        6           0.000947196    0.000795229   -0.000000812
      7        8           0.000468539    0.000439203    0.000000803
      8        6          -0.002262181   -0.000955607   -0.000007148
      9        8          -0.000484010    0.001023127    0.000003334
     10        8           0.000191084   -0.001549351    0.000003832
     11        8           0.000835606    0.001136034    0.000001787
     12        1           0.000042561   -0.000018705    0.000001038
     13        1           0.000155371   -0.000002769    0.000000121
     14        1           0.000026244    0.000095028    0.000000388
     15        1          -0.000020107   -0.000285809   -0.000000794
     16        1           0.000287129   -0.000353568    0.000000529
     17        1          -0.000105618    0.000400491   -0.000002516
     18        1          -0.000282242   -0.000018843   -0.000000688
 -------------------------------------------------------------------
 Cartesian Forces:  Max     0.002262181 RMS     0.000608546

 GradGradGradGradGradGradGradGradGradGradGradGradGradGradGradGradGradGrad
 Berny optimization.
 Using GEDIIS/GDIIS optimizer.
 FormGI is forming the generalized inverse of G from B-inverse, IUseBI=4.
 Internal  Forces:  Max     0.002751122 RMS     0.000590545
 Search for a local minimum.
 Step number   2 out of a maximum of   89
 All quantities printed in internal units (Hartrees-Bohrs-Radians)
 Mixed Optimization -- En-DIIS/RFO-DIIS
 Update second derivatives using D2CorX and points    1    2
 DE= -4.60D-04 DEPred=-5.18D-04 R= 8.87D-01
 TightC=F SS=  1.41D+00  RLast= 4.67D-02 DXNew= 5.0454D-01 1.4004D-01
 Trust test= 8.87D-01 RLast= 4.67D-02 DXMaxT set to 3.00D-01
 ITU=  1  0
 Use linear search instead of GDIIS.
     Eigenvalues ---    0.01735   0.01794   0.01807   0.01965   0.02020
     Eigenvalues ---    0.02056   0.02103   0.02134   0.02173   0.02205
     Eigenvalues ---    0.02288   0.02348   0.02447   0.02828   0.02934
     Eigenvalues ---    0.15685   0.16000   0.16000   0.16000   0.16000
     Eigenvalues ---    0.16000   0.16002   0.22385   0.23534   0.24556
     Eigenvalues ---    0.24847   0.25000   0.25000   0.25000   0.25218
     Eigenvalues ---    0.35150   0.35254   0.35690   0.39463   0.40347
     Eigenvalues ---    0.41556   0.43429   0.45992   0.46740   0.52603
     Eigenvalues ---    0.52879   0.53026   0.53496   0.53907   0.54806
     Eigenvalues ---    0.57519   0.61153   0.64726
 RFO step:  Lambda=-5.74846277D-05 EMin= 1.73543047D-02
 Quartic linear search produced a step of -0.10380.
 Iteration  1 RMS(Cart)=  0.00687994 RMS(Int)=  0.00001541
 Iteration  2 RMS(Cart)=  0.00002072 RMS(Int)=  0.00000005
 Iteration  3 RMS(Cart)=  0.00000000 RMS(Int)=  0.00000005
 Variable       Old X    -DE/DX   Delta X   Delta X   Delta X     New X
                                 (Linear)    (Quad)   (Total)
    R1        2.68194   0.00166   0.00223   0.00024   0.00247   2.68440
    R2        2.63531   0.00146   0.00124   0.00099   0.00223   2.63754
    R3        2.52771   0.00024   0.00104  -0.00123  -0.00019   2.52752
    R4        2.67918   0.00102   0.00128   0.00022   0.00150   2.68068
    R5        2.67598   0.00275   0.00122   0.00395   0.00517   2.68115
    R6        2.59581   0.00099   0.00161  -0.00072   0.00089   2.59670
    R7        2.04532   0.00001   0.00004  -0.00003   0.00001   2.04532
    R8        2.65664   0.00070   0.00138  -0.00078   0.00060   2.65724
    R9        2.55306   0.00023   0.00076  -0.00079  -0.00003   2.55303
   R10        2.60819   0.00035   0.00127  -0.00136  -0.00008   2.60810
   R11        2.05300   0.00014   0.00015   0.00014   0.00028   2.05328
   R12        2.05111   0.00010   0.00016  -0.00001   0.00016   2.05127
   R13        1.82463  -0.00014   0.00032  -0.00073  -0.00041   1.82422
   R14        2.46906  -0.00065   0.00147  -0.00320  -0.00173   2.46733
   R15        2.45378  -0.00074   0.00149  -0.00333  -0.00183   2.45195
   R16        1.83435  -0.00013   0.00018  -0.00050  -0.00032   1.83402
   R17        1.83594  -0.00010   0.00018  -0.00045  -0.00027   1.83567
   R18        1.82894  -0.00010   0.00029  -0.00062  -0.00033   1.82861
    A1        2.06717  -0.00020  -0.00002  -0.00056  -0.00058   2.06660
    A2        2.08091   0.00139   0.00023   0.00456   0.00479   2.08570
    A3        2.13510  -0.00119  -0.00021  -0.00400  -0.00421   2.13089
    A4        2.09170  -0.00046  -0.00039  -0.00090  -0.00130   2.09040
    A5        2.13197   0.00157   0.00054   0.00471   0.00525   2.13723
    A6        2.05952  -0.00111  -0.00015  -0.00381  -0.00396   2.05556
    A7        2.10490   0.00045   0.00028   0.00133   0.00161   2.10651
    A8        2.10128  -0.00018  -0.00022  -0.00026  -0.00049   2.10079
    A9        2.07701  -0.00028  -0.00006  -0.00107  -0.00113   2.07588
   A10        2.07789  -0.00016  -0.00001  -0.00083  -0.00084   2.07705
   A11        2.05313   0.00040  -0.00001   0.00157   0.00155   2.05469
   A12        2.15216  -0.00023   0.00002  -0.00074  -0.00071   2.15145
   A13        2.11614   0.00014  -0.00014   0.00051   0.00037   2.11651
   A14        2.09046  -0.00013   0.00008  -0.00060  -0.00052   2.08995
   A15        2.07658  -0.00001   0.00005   0.00010   0.00015   2.07673
   A16        2.10858   0.00023   0.00028   0.00045   0.00073   2.10931
   A17        2.08448  -0.00011  -0.00012  -0.00022  -0.00034   2.08414
   A18        2.09013  -0.00012  -0.00016  -0.00023  -0.00039   2.08974
   A19        1.96209   0.00044  -0.00035   0.00305   0.00269   1.96479
   A20        2.05841  -0.00064  -0.00016  -0.00203  -0.00219   2.05622
   A21        2.10878   0.00105   0.00001   0.00375   0.00376   2.11254
   A22        2.11600  -0.00041   0.00015  -0.00172  -0.00157   2.11442
   A23        2.02892   0.00081  -0.00039   0.00515   0.00476   2.03368
   A24        2.02430   0.00073  -0.00038   0.00469   0.00431   2.02862
   A25        1.94333   0.00049  -0.00024   0.00314   0.00290   1.94623
    D1       -0.00001   0.00000  -0.00000   0.00002   0.00002   0.00000
    D2        3.14155   0.00000  -0.00001   0.00005   0.00004   3.14159
    D3        3.14156   0.00000  -0.00000   0.00004   0.00003   3.14159
    D4       -0.00007   0.00000  -0.00001   0.00006   0.00005  -0.00001
    D5        0.00000  -0.00000   0.00000  -0.00000  -0.00000  -0.00000
    D6        3.14157   0.00000  -0.00000   0.00002   0.00001   3.14159
    D7       -3.14157  -0.00000   0.00000  -0.00002  -0.00002  -3.14159
    D8        0.00000  -0.00000  -0.00000   0.00000  -0.00000   0.00000
    D9        3.14155   0.00000  -0.00000   0.00002   0.00002   3.14157
   D10       -0.00007   0.00000  -0.00000   0.00004   0.00003  -0.00004
   D11        0.00003  -0.00000   0.00001  -0.00004  -0.00003   0.00000
   D12       -3.14156  -0.00000   0.00001  -0.00003  -0.00003  -3.14159
   D13       -3.14153  -0.00000   0.00001  -0.00006  -0.00005  -3.14158
   D14        0.00006  -0.00000   0.00001  -0.00006  -0.00005   0.00001
   D15        3.14151   0.00000  -0.00001   0.00011   0.00010  -3.14157
   D16       -0.00005   0.00000  -0.00001   0.00005   0.00004  -0.00001
   D17       -0.00011   0.00000  -0.00001   0.00014   0.00012   0.00001
   D18        3.14152   0.00000  -0.00002   0.00008   0.00006   3.14157
   D19       -0.00004   0.00000  -0.00001   0.00004   0.00003  -0.00001
   D20        3.14159   0.00000  -0.00000   0.00002   0.00002  -3.14158
   D21        3.14156   0.00000  -0.00001   0.00003   0.00003   3.14158
   D22       -0.00000   0.00000  -0.00000   0.00002   0.00001   0.00001
   D23        0.00002  -0.00000   0.00000  -0.00002  -0.00002   0.00001
   D24       -3.14156  -0.00000   0.00001  -0.00002  -0.00002  -3.14158
   D25        3.14159  -0.00000   0.00000  -0.00000  -0.00000   3.14158
   D26       -0.00000  -0.00000   0.00000  -0.00001  -0.00001  -0.00001
   D27       -3.14146  -0.00000   0.00000  -0.00003  -0.00002  -3.14148
   D28        0.00016  -0.00000   0.00000  -0.00004  -0.00003   0.00013
   D29       -0.00001   0.00000  -0.00000   0.00000   0.00000  -0.00000
   D30       -3.14158  -0.00000   0.00000  -0.00002  -0.00002  -3.14159
   D31        3.14158   0.00000  -0.00000   0.00001   0.00001   3.14159
   D32        0.00001  -0.00000   0.00000  -0.00001  -0.00001   0.00000
   D33       -3.14148  -0.00000  -0.00000  -0.00005  -0.00005  -3.14153
   D34        0.00007   0.00000   0.00001   0.00001   0.00002   0.00009
   D35       -3.14137  -0.00000   0.00002  -0.00006  -0.00004  -3.14140
   D36        0.00027  -0.00000   0.00001  -0.00012  -0.00011   0.00016
         Item               Value     Threshold  Converged?
 Maximum Force            0.002751     0.000450     NO 
 RMS     Force            0.000591     0.000300     NO 
 Maximum Displacement     0.022524     0.001800     NO 
 RMS     Displacement     0.006877     0.001200     NO 
 Predicted change in Energy=-3.511452D-05
 GradGradGradGradGradGradGradGradGradGradGradGradGradGradGradGradGradGrad

                          Input orientation:                          
 ---------------------------------------------------------------------
 Center     Atomic      Atomic             Coordinates (Angstroms)
 Number     Number       Type             X           Y           Z
 ---------------------------------------------------------------------
      1          6           0       -0.215176    1.271883    0.000016
      2          6           0       -0.422833   -0.133381    0.000008
      3          6           0        0.692303   -1.010179    0.000005
      4          6           0        1.974040   -0.514854    0.000011
      5          6           0        2.166753    0.878028    0.000011
      6          6           0        1.096366    1.749282    0.000016
      7          8           0        2.991393   -1.403790   -0.000005
      8          6           0       -1.718487   -0.711551    0.000013
      9          8           0       -1.804216   -2.014388    0.000028
     10          8           0       -2.782486    0.031046    0.000037
     11          8           0       -1.270473    2.093633    0.000012
     12          1           0        0.545222   -2.082477   -0.000003
     13          1           0        3.175119    1.282732    0.000007
     14          1           0        1.273864    2.820159    0.000015
     15          1           0        3.856951   -0.976382    0.000098
     16          1           0       -2.699192   -2.389797   -0.000023
     17          1           0       -3.633266   -0.437767    0.000203
     18          1           0       -0.997315    3.021938    0.000042
 ---------------------------------------------------------------------
                    Distance matrix (angstroms):
                    1          2          3          4          5
     1  C    0.000000
     2  C    1.420524   0.000000
     3  C    2.455876   1.418556   0.000000
     4  C    2.825791   2.427039   1.374116   0.000000
     5  C    2.414272   2.780090   2.395689   1.406150   0.000000
     6  C    1.395726   2.419171   2.788887   2.428296   1.380150
     7  O    4.176280   3.642921   2.332540   1.351006   2.426258
     8  C    2.488766   1.418803   2.429216   3.697762   4.197839
     9  O    3.650291   2.333753   2.690919   4.064950   4.912704
    10  O    2.851448   2.365375   3.627439   4.787749   5.021189
    11  O    1.337507   2.382874   3.672349   4.163060   3.645850
    12  H    3.439467   2.176259   1.082338   2.121076   3.375493
    13  H    3.390313   3.866606   3.379618   2.161922   1.086549
    14  H    2.148115   3.406197   3.874235   3.407720   2.137551
    15  H    4.651550   4.362018   3.164828   1.938650   2.509105
    16  H    4.424730   3.205187   3.661364   5.035326   5.861407
    17  H    3.821811   3.224830   4.363279   5.607835   5.947397
    18  H    1.916881   3.207190   4.371816   4.619290   3.821999
                    6          7          8          9         10
     6  C    0.000000
     7  O    3.678722   0.000000
     8  C    3.738863   4.760480   0.000000
     9  O    4.751693   4.834325   1.305654   0.000000
    10  O    4.242384   5.949490   1.297514   2.267336   0.000000
    11  O    2.391758   5.513209   2.840735   4.142550   2.557430
    12  H    3.871193   2.538576   2.646473   2.350424   3.942159
    13  H    2.130466   2.692798   5.284369   5.972000   6.087675
    14  H    1.085487   4.559787   4.628946   5.731266   4.922715
    15  H    3.879443   0.965334   5.581725   5.755543   6.715433
    16  H    5.615891   5.775375   1.943783   0.970522   2.422276
    17  H    5.210815   6.694722   1.934253   2.414778   0.971397
    18  H    2.450133   5.957924   3.802503   5.100555   3.483141
                   11         12         13         14         15
    11  O    0.000000
    12  H    4.553751   0.000000
    13  H    4.518944   4.270948   0.000000
    14  H    2.646033   4.956486   2.445088   0.000000
    15  H    5.976243   3.491561   2.359765   4.591957   0.000000
    16  H    4.705570   3.258936   6.927843   6.552008   6.706769
    17  H    3.462770   4.490526   7.022409   5.890161   7.509558
    18  H    0.967659   5.332398   4.520403   2.280124   6.288916
                   16         17         18
    16  H    0.000000
    17  H    2.164005   0.000000
    18  H    5.673029   4.349459   0.000000
 Stoichiometry    C7H7O4(1+)
 Framework group  C1[X(C7H7O4)]
 Deg. of freedom    48
 Full point group                 C1      NOp   1
 Largest Abelian subgroup         C1      NOp   1
 Largest concise Abelian subgroup C1      NOp   1
                         Standard orientation:                         
 ---------------------------------------------------------------------
 Center     Atomic      Atomic             Coordinates (Angstroms)
 Number     Number       Type             X           Y           Z
 ---------------------------------------------------------------------
      1          6           0       -0.215911    1.271015   -0.000002
      2          6           0       -0.423204   -0.134303   -0.000009
      3          6           0        0.692158   -1.010812   -0.000012
      4          6           0        1.973766   -0.515156   -0.000007
      5          6           0        2.166120    0.877776   -0.000006
      6          6           0        1.095507    1.748753   -0.000001
      7          8           0        2.991349   -1.403829   -0.000022
      8          6           0       -1.718710   -0.712807   -0.000004
      9          8           0       -1.804102   -2.015666    0.000011
     10          8           0       -2.782900    0.029515    0.000020
     11          8           0       -1.271421    2.092493   -0.000005
     12          1           0        0.545354   -2.083148   -0.000020
     13          1           0        3.174382    1.282741   -0.000010
     14          1           0        1.272729    2.819676   -0.000003
     15          1           0        3.856797   -0.976198    0.000081
     16          1           0       -2.698980   -2.391307   -0.000040
     17          1           0       -3.633558   -0.439518    0.000186
     18          1           0       -0.998502    3.020868    0.000025
 ---------------------------------------------------------------------
 Rotational constants (GHZ):      1.7821747      0.9102448      0.6025121
 Standard basis: 6-31+G(d,p) (6D, 7F)
 There are   244 symmetry adapted cartesian basis functions of A   symmetry.
 There are   244 symmetry adapted basis functions of A   symmetry.
   244 basis functions,   401 primitive gaussians,   244 cartesian basis functions
    40 alpha electrons       40 beta electrons
       nuclear repulsion energy       608.2017173289 Hartrees.
 NAtoms=   18 NActive=   18 NUniq=   18 SFac= 1.00D+00 NAtFMM=   60 NAOKFM=F Big=F
 Integral buffers will be    131072 words long.
 Raffenetti 2 integral format.
 Two-electron integral symmetry is turned on.
 One-electron integrals computed using PRISM.
 NBasis=   244 RedAO= T EigKep=  3.15D-06  NBF=   244
 NBsUse=   244 1.00D-06 EigRej= -1.00D+00 NBFU=   244
 Initial guess from the checkpoint file:  "camb3lypDHByanggd3.chk"
 B after Tr=    -0.000000    0.000000   -0.000000
         Rot=    0.999999    0.000000   -0.000000    0.001072 Ang=   0.12 deg.
 ExpMin= 4.38D-02 ExpMax= 5.48D+03 ExpMxC= 8.25D+02 IAcc=2 IRadAn=         4 AccDes= 0.00D+00
 Harris functional with IExCor=20419 and IRadAn=       4 diagonalized for initial guess.
 HarFok:  IExCor=20419 AccDes= 0.00D+00 IRadAn=         4 IDoV= 1 UseB2=F ITyADJ=14
 ICtDFT=  3500011 ScaDFX=  1.000000  1.000000  1.000000  1.000000
 FoFCou: FMM=F IPFlag=           0 FMFlag=      100000 FMFlg1=           0
         NFxFlg=           0 DoJE=T BraDBF=F KetDBF=T FulRan=T
         wScrn=  0.000000 ICntrl=     500 IOpCl=  0 I1Cent=   200000004 NGrid=           0
         NMat0=    1 NMatS0=      1 NMatT0=    0 NMatD0=    1 NMtDS0=    0 NMtDT0=    0
 Petite list used in FoFCou.
 Keep R1 ints in memory in canonical form, NReq=900998300.
 Requested convergence on RMS density matrix=1.00D-08 within 128 cycles.
 Requested convergence on MAX density matrix=1.00D-06.
 Requested convergence on             energy=1.00D-06.
 No special actions if energy rises.
 SCF Done:  E(RCAM-B3LYP) =  -571.378588759     A.U. after   11 cycles
            NFock= 11  Conv=0.55D-08     -V/T= 2.0087
 Calling FoFJK, ICntrl=      2127 FMM=F ISym2X=0 I1Cent= 0 IOpClX= 0 NMat=1 NMatS=1 NMatT=0.
 ***** Axes restored to original set *****
 -------------------------------------------------------------------
 Center     Atomic                   Forces (Hartrees/Bohr)
 Number     Number              X              Y              Z
 -------------------------------------------------------------------
      1        6          -0.000539423   -0.000174139   -0.000000378
      2        6           0.000175294    0.000604690   -0.000001957
      3        6          -0.000038073   -0.000300768   -0.000000913
      4        6           0.000346478   -0.000391669   -0.000000391
      5        6           0.000247542    0.000403852    0.000000443
      6        6           0.000428116    0.000108371    0.000000327
      7        8          -0.000028250   -0.000075569    0.000000791
      8        6          -0.000765844   -0.000353921    0.000004549
      9        8           0.000034736   -0.000055755   -0.000000387
     10        8           0.000509369    0.000490268    0.000000066
     11        8          -0.000423367   -0.000384980    0.000000649
     12        1           0.000026959    0.000029662    0.000000074
     13        1           0.000053261   -0.000006915   -0.000000074
     14        1          -0.000044839    0.000034387    0.000000042
     15        1          -0.000002817    0.000041103   -0.000000545
     16        1           0.000036419   -0.000037950   -0.000000155
     17        1           0.000009748    0.000128109   -0.000001758
     18        1          -0.000025307   -0.000058777   -0.000000383
 -------------------------------------------------------------------
 Cartesian Forces:  Max     0.000765844 RMS     0.000239022

 GradGradGradGradGradGradGradGradGradGradGradGradGradGradGradGradGradGrad
 Berny optimization.
 Using GEDIIS/GDIIS optimizer.
 FormGI is forming the generalized inverse of G from B-inverse, IUseBI=4.
 Internal  Forces:  Max     0.001354247 RMS     0.000333104
 Search for a local minimum.
 Step number   3 out of a maximum of   89
 All quantities printed in internal units (Hartrees-Bohrs-Radians)
 Mixed Optimization -- En-DIIS/RFO-DIIS
 Swapping is turned off.
 Update second derivatives using D2CorX and points    1    2    3
 DE= -2.32D-05 DEPred=-3.51D-05 R= 6.60D-01
 TightC=F SS=  1.41D+00  RLast= 1.49D-02 DXNew= 5.0454D-01 4.4636D-02
 Trust test= 6.60D-01 RLast= 1.49D-02 DXMaxT set to 3.00D-01
 ITU=  1  1  0
     Eigenvalues ---    0.01735   0.01794   0.01807   0.01965   0.02020
     Eigenvalues ---    0.02056   0.02103   0.02134   0.02173   0.02205
     Eigenvalues ---    0.02288   0.02348   0.02447   0.02828   0.02934
     Eigenvalues ---    0.13914   0.16000   0.16000   0.16000   0.16000
     Eigenvalues ---    0.16000   0.16022   0.22383   0.23417   0.24450
     Eigenvalues ---    0.24715   0.25000   0.25000   0.25008   0.35137
     Eigenvalues ---    0.35253   0.35477   0.35714   0.38530   0.40115
     Eigenvalues ---    0.42659   0.44422   0.46647   0.49256   0.52672
     Eigenvalues ---    0.53013   0.53323   0.53778   0.53914   0.56184
     Eigenvalues ---    0.59225   0.60550   0.64651
 En-DIIS/RFO-DIIS IScMMF=        0 using points:     3    2
 RFO step:  Lambda=-1.25520032D-05.
 DidBck=T Rises=F RFO-DIIS coefs:    0.74172    0.25828
 Iteration  1 RMS(Cart)=  0.00374596 RMS(Int)=  0.00000538
 Iteration  2 RMS(Cart)=  0.00000725 RMS(Int)=  0.00000004
 Iteration  3 RMS(Cart)=  0.00000000 RMS(Int)=  0.00000004
 Variable       Old X    -DE/DX   Delta X   Delta X   Delta X     New X
                                 (Linear)    (Quad)   (Total)
    R1        2.68440  -0.00072  -0.00064  -0.00018  -0.00081   2.68359
    R2        2.63754   0.00055  -0.00058   0.00185   0.00128   2.63882
    R3        2.52752   0.00008   0.00005   0.00004   0.00009   2.52761
    R4        2.68068   0.00035  -0.00039   0.00125   0.00087   2.68155
    R5        2.68115   0.00009  -0.00133   0.00247   0.00114   2.68229
    R6        2.59670   0.00043  -0.00023   0.00107   0.00084   2.59754
    R7        2.04532  -0.00003  -0.00000  -0.00006  -0.00007   2.04526
    R8        2.65724   0.00060  -0.00015   0.00133   0.00117   2.65841
    R9        2.55303  -0.00000   0.00001  -0.00001  -0.00000   2.55303
   R10        2.60810   0.00030   0.00002   0.00046   0.00048   2.60858
   R11        2.05328   0.00005  -0.00007   0.00022   0.00015   2.05343
   R12        2.05127   0.00003  -0.00004   0.00013   0.00009   2.05136
   R13        1.82422   0.00002   0.00011  -0.00015  -0.00005   1.82417
   R14        2.46733   0.00010   0.00045  -0.00064  -0.00019   2.46713
   R15        2.45195  -0.00008   0.00047  -0.00088  -0.00041   2.45154
   R16        1.83402  -0.00002   0.00008  -0.00017  -0.00009   1.83394
   R17        1.83567  -0.00007   0.00007  -0.00021  -0.00014   1.83553
   R18        1.82861  -0.00007   0.00009  -0.00023  -0.00014   1.82847
    A1        2.06660   0.00006   0.00015  -0.00021  -0.00006   2.06654
    A2        2.08570  -0.00084  -0.00124  -0.00019  -0.00143   2.08427
    A3        2.13089   0.00078   0.00109   0.00040   0.00148   2.13237
    A4        2.09040   0.00032   0.00033   0.00019   0.00052   2.09092
    A5        2.13723  -0.00135  -0.00136  -0.00143  -0.00278   2.13444
    A6        2.05556   0.00103   0.00102   0.00124   0.00226   2.05782
    A7        2.10651  -0.00016  -0.00042   0.00023  -0.00018   2.10633
    A8        2.10079   0.00010   0.00013   0.00014   0.00027   2.10106
    A9        2.07588   0.00005   0.00029  -0.00037  -0.00008   2.07580
   A10        2.07705  -0.00008   0.00022  -0.00046  -0.00024   2.07681
   A11        2.05469   0.00003  -0.00040   0.00071   0.00031   2.05499
   A12        2.15145   0.00005   0.00018  -0.00025  -0.00007   2.15138
   A13        2.11651  -0.00008  -0.00010   0.00010   0.00000   2.11651
   A14        2.08995   0.00002   0.00013  -0.00030  -0.00016   2.08978
   A15        2.07673   0.00006  -0.00004   0.00020   0.00016   2.07689
   A16        2.10931  -0.00007  -0.00019   0.00014  -0.00004   2.10926
   A17        2.08414  -0.00002   0.00009  -0.00031  -0.00022   2.08393
   A18        2.08974   0.00009   0.00010   0.00016   0.00026   2.09000
   A19        1.96479  -0.00008  -0.00070   0.00085   0.00015   1.96494
   A20        2.05622   0.00051   0.00057   0.00047   0.00103   2.05726
   A21        2.11254  -0.00133  -0.00097  -0.00209  -0.00306   2.10948
   A22        2.11442   0.00082   0.00041   0.00162   0.00203   2.11645
   A23        2.03368   0.00010  -0.00123   0.00255   0.00132   2.03499
   A24        2.02862   0.00019  -0.00111   0.00274   0.00163   2.03025
   A25        1.94623   0.00002  -0.00075   0.00138   0.00063   1.94686
    D1        0.00000  -0.00000  -0.00000   0.00000  -0.00000  -0.00000
    D2        3.14159  -0.00000  -0.00001   0.00001   0.00000   3.14159
    D3        3.14159   0.00000  -0.00001   0.00001   0.00001  -3.14159
    D4       -0.00001   0.00000  -0.00001   0.00003   0.00001  -0.00000
    D5       -0.00000   0.00000   0.00000   0.00000   0.00000   0.00000
    D6        3.14159   0.00000  -0.00000   0.00001   0.00001   3.14159
    D7       -3.14159  -0.00000   0.00000  -0.00001  -0.00001  -3.14159
    D8        0.00000  -0.00000   0.00000  -0.00000  -0.00000  -0.00000
    D9        3.14157   0.00000  -0.00000   0.00001   0.00001   3.14157
   D10       -0.00004   0.00000  -0.00001   0.00003   0.00002  -0.00002
   D11        0.00000   0.00000   0.00001  -0.00001  -0.00000  -0.00000
   D12       -3.14159   0.00000   0.00001  -0.00001  -0.00000   3.14159
   D13       -3.14158   0.00000   0.00001  -0.00002  -0.00001  -3.14159
   D14        0.00001  -0.00000   0.00001  -0.00002  -0.00001   0.00000
   D15       -3.14157  -0.00000  -0.00003   0.00004   0.00001  -3.14156
   D16       -0.00001   0.00000  -0.00001   0.00006   0.00005   0.00004
   D17        0.00001  -0.00000  -0.00003   0.00005   0.00002   0.00003
   D18        3.14157   0.00000  -0.00001   0.00007   0.00006  -3.14155
   D19       -0.00001   0.00000  -0.00001   0.00001   0.00001  -0.00000
   D20       -3.14158  -0.00000  -0.00000   0.00001   0.00000  -3.14158
   D21        3.14158   0.00000  -0.00001   0.00001   0.00001   3.14159
   D22        0.00001   0.00000  -0.00000   0.00001   0.00000   0.00001
   D23        0.00001  -0.00000   0.00000  -0.00001  -0.00001   0.00000
   D24       -3.14158  -0.00000   0.00001  -0.00001  -0.00000  -3.14159
   D25        3.14158   0.00000   0.00000  -0.00000  -0.00000   3.14158
   D26       -0.00001   0.00000   0.00000  -0.00000   0.00000  -0.00001
   D27       -3.14148  -0.00000   0.00001  -0.00002  -0.00002  -3.14150
   D28        0.00013  -0.00000   0.00001  -0.00003  -0.00002   0.00011
   D29       -0.00000   0.00000  -0.00000   0.00000   0.00000  -0.00000
   D30       -3.14159   0.00000   0.00000  -0.00001  -0.00000   3.14159
   D31        3.14159  -0.00000  -0.00000   0.00000  -0.00000   3.14159
   D32        0.00000  -0.00000   0.00000  -0.00001  -0.00000  -0.00000
   D33       -3.14153   0.00000   0.00001   0.00001   0.00002  -3.14151
   D34        0.00009  -0.00000  -0.00000  -0.00002  -0.00002   0.00007
   D35       -3.14140  -0.00000   0.00001  -0.00008  -0.00007  -3.14147
   D36        0.00016  -0.00000   0.00003  -0.00005  -0.00002   0.00013
         Item               Value     Threshold  Converged?
 Maximum Force            0.001354     0.000450     NO 
 RMS     Force            0.000333     0.000300     NO 
 Maximum Displacement     0.018539     0.001800     NO 
 RMS     Displacement     0.003747     0.001200     NO 
 Predicted change in Energy=-9.195179D-06
 GradGradGradGradGradGradGradGradGradGradGradGradGradGradGradGradGradGrad

                          Input orientation:                          
 ---------------------------------------------------------------------
 Center     Atomic      Atomic             Coordinates (Angstroms)
 Number     Number       Type             X           Y           Z
 ---------------------------------------------------------------------
      1          6           0       -0.215727    1.269512    0.000028
      2          6           0       -0.421635   -0.135574    0.000025
      3          6           0        0.694456   -1.011899    0.000015
      4          6           0        1.976177   -0.515310    0.000007
      5          6           0        2.167443    0.878398    0.000008
      6          6           0        1.095904    1.748639    0.000019
      7          8           0        2.994568   -1.403058   -0.000016
      8          6           0       -1.718755   -0.711933    0.000036
      9          8           0       -1.807888   -2.014439    0.000066
     10          8           0       -2.779117    0.035474    0.000002
     11          8           0       -1.273214    2.088518    0.000038
     12          1           0        0.548391   -2.084301    0.000014
     13          1           0        3.175503    1.284078   -0.000003
[...]
 3971,-0.0000136,0.0610297,0.8531619,0.000005,-0.0000079,0.0000139,0.17
 27531,-1.3538697,-0.9572277,0.0000044,-0.50811,-0.439292,0.0000035,0.0
 000079,-0.000001,-0.0700026,0.2958649,0.8304182,0.0000028,-0.2637057,-
 0.0651852,0.0000028,-0.0000113,-0.0000006,-0.1047266,0.9355647,-1.2391
 174,-0.0000182,-1.2128789,-0.1039005,0.0000047,-0.0000176,0.0000107,0.
 1320699,0.1127092,-0.2046626,-0.0000044,0.368125,0.5468999,-0.0000007,
 0.0000038,0.000004,-0.041179,-0.460608,0.7439841,0.0000072,-0.005516,0
 .0407599,0.0000004,0.0000003,-0.0000042,-0.1410649,-1.2446434,0.635246
 ,0.0000186,0.8093034,-0.523959,0.0000089,0.0000385,-0.0000037,-0.38462
 31,2.8690022,0.8039439,0.000007,0.5918087,1.9948893,-0.0000467,0.00001
 52,-0.0000565,0.4116438,-0.6008221,-0.3711956,0.0000224,-0.7924658,-1.
 552536,0.0000294,0.0000602,0.0000669,-0.3015786,-1.7277895,-0.0174318,
 -0.0000231,0.5277814,-0.2783956,-0.0000079,-0.0000948,-0.0000205,-0.28
 20127,-0.7069397,0.9439952,0.0000113,0.4648165,-1.1053991,-0.0000064,0
 .0000184,-0.0000142,-0.3376953,0.1022059,-0.0132945,0.0000005,0.012321
 5,0.1025749,-0.0000007,-0.0000021,-0.000001,0.1503874,0.0114688,-0.003
 9187,0.0000004,0.0075215,0.1082786,0.0000003,-0.0000002,-0.0000004,0.1
 363998,0.080088,0.0389211,0.0000009,0.0187678,-0.0002408,-0.0000012,0.
 0000001,-0.0000019,0.1577198,0.4528026,-0.0795874,-0.0000031,-0.113967
 2,0.2128012,-0.0000132,-0.0000143,-0.0000055,0.3653571,0.3621674,0.155
 554,-0.0000095,0.1820442,0.4940489,0.0000056,-0.0000298,-0.0000132,0.3
 890446,0.5930975,-0.0051745,-0.0000016,-0.0447188,0.2550196,0.0000157,
 0.000037,0.000025,0.3863528,0.2770489,-0.1270551,-0.0000019,-0.1021573
 ,0.4604741,0.0000005,-0.0000034,0.0000021,0.3611546\Polar=134.3674487,
 8.8645644,111.5874051,-0.0004363,-0.0000215,46.5788761\PG=C01 [X(C7H7O
 4)]\NImag=0\\0.71731185,-0.02822706,0.72150746,-0.00000377,0.00000457,
 0.16833743,-0.14637457,-0.03264254,-0.00000020,0.68418549,-0.01214004,
 -0.28054544,-0.00000183,-0.00174159,0.70966270,0.00000014,-0.00000136,
 -0.06793860,-0.00000361,0.00000063,0.13935972,0.06355533,0.04652282,-0
 .00000004,-0.21059951,0.08539703,0.00000100,0.73475125,0.01896820,-0.0
 3508823,-0.00000025,0.11086133,-0.20278915,-0.00000098,0.03626550,0.75
 497191,-0.00000010,-0.00000024,0.00171312,0.00000199,-0.00000080,-0.05
 099012,-0.00000358,0.00000284,0.12721386,-0.04514390,-0.03041021,0.000
 00006,-0.05663423,0.02409420,0.00000050,-0.33506001,-0.12580844,0.0000
 0070,0.77541919,-0.05103637,-0.03906290,0.00000006,-0.01814044,0.04242
 933,0.00000022,-0.05636162,-0.17115298,-0.00000027,-0.00417306,0.69641
 311,0.00000017,-0.00000018,0.00038700,0.00000042,0.00000025,-0.0021108
 3,0.00000103,-0.00000028,-0.06323522,-0.00000234,0.00000548,0.14298753
 ,-0.05935791,0.00428799,0.00000043,-0.01290464,0.01183303,0.00000009,0
 .02173154,-0.03456336,-0.00000010,-0.14610050,-0.07535675,0.00000036,0
 .77208686,0.06278085,0.06181337,-0.00000006,0.02155416,-0.03897394,-0.
 00000025,-0.07738327,-0.01121977,0.00000026,0.00988206,-0.29501197,-0.
 00000112,-0.00733490,0.68859773,0.00000084,0.00000043,-0.00269618,-0.0
 0000004,-0.00000033,0.00041477,-0.00000026,0.00000031,0.00140187,0.000
 00042,-0.00000022,-0.06197975,-0.00000623,0.00000248,0.13604266,-0.268
 86261,-0.04219104,0.00000096,0.01110449,-0.05860605,-0.00000011,-0.065
 22152,0.00843288,0.00000012,0.06408973,0.07281887,-0.00000034,-0.28483
 330,0.08490390,0.00000251,0.69661476,-0.11425413,-0.17228253,0.0000000
 3,-0.02347165,-0.00501661,0.00000012,0.00063769,-0.00313868,-0.0000001
 3,0.02299866,-0.03449385,-0.00000047,0.15927550,-0.23748563,-0.0000021
 4,-0.02109110,0.77466154,0.00000053,-0.00000056,-0.07014807,-0.0000001
 6,0.00000057,0.00712578,0.00000053,-0.00000014,0.00239459,-0.00000045,
 -0.00000055,-0.00085979,0.00000271,-0.00000164,-0.05338200,-0.00000434
 ,0.00000368,0.12255413,0.00530317,-0.00213652,-0.00000012,0.00063641,-
 0.00500740,-0.00000007,-0.06162856,0.03379357,0.00000103,-0.24437757,0
 .14554093,0.00000259,0.00085002,0.00593872,0.00000040,-0.00446863,-0.0
 0207642,0.00000002,0.72674464,0.00373570,0.00570701,0.00000002,0.00098
 131,-0.00484706,0.00000019,-0.00469389,0.01849683,0.00000016,0.0937286
 5,-0.20755143,-0.00000627,0.04553969,-0.04082292,-0.00000115,-0.010298
 67,-0.00267089,-0.00000010,0.04271478,0.38322578,-0.00000030,0.0000000
 2,-0.00141898,-0.00000062,-0.00000008,0.00536153,0.00000074,0.00000043
 ,0.00766459,-0.00000147,-0.00000441,-0.03817454,0.00000014,-0.00000005
 ,0.00650086,0.00000040,0.00000010,0.00634246,0.00003070,0.00002396,0.0
 2178655,0.01978205,-0.05278117,0.,-0.23288705,-0.05893679,0.00000120,-
 0.06217414,0.00296469,0.00000005,0.00762542,0.02592332,-0.00000011,0.0
 0562152,-0.00837924,0.00000003,-0.00101204,-0.00393994,-0.00000002,0.0
 0306680,-0.00634619,0.00000002,0.81266407,-0.03343000,-0.02078887,0.00
 000040,-0.06089544,-0.13652255,0.00000072,0.00088785,0.02299927,-0.000
 00022,0.00865490,0.00875531,-0.00000014,0.00335233,-0.00757001,0.,-0.0
 0153859,-0.00916818,-0.00000018,0.00433895,-0.00373093,0.00000005,-0.0
 1247201,0.78442724,0.00000040,0.00000026,-0.00149724,0.00000176,0.0000
 0121,-0.07918102,0.00000015,-0.00000020,-0.00293066,0.00000021,0.00000
 026,0.00665670,0.00000010,-0.00000032,-0.00098131,-0.00000030,-0.00000
 008,0.00597663,0.,0.00000003,0.00027890,0.00000293,-0.00002111,0.20763
 330,-0.00839031,0.00846375,0.00000027,-0.00756348,-0.04931641,0.000002
 18,-0.00239905,-0.00364494,0.00000017,0.00168259,-0.00240877,-0.000000
 19,-0.00034225,-0.00081116,-0.00000005,-0.00123492,-0.00184499,-0.0000
 0011,-0.00120330,0.00093191,0.00000002,-0.13833241,-0.05908380,-0.0000
 0144,0.59424736,-0.00300813,0.01923307,-0.00000002,-0.04224685,-0.0492
 6847,0.00000121,0.01206093,-0.00671488,0.00000023,-0.00178639,-0.00863
 776,0.00000004,-0.00081022,0.00218103,-0.00000007,-0.00238957,0.001552
 74,0.00000011,-0.00267289,0.00332711,0.00000001,0.00795638,-0.40480751
 ,0.00001497,0.18968510,0.60681769,-0.00000032,-0.00000133,0.00335317,0
 .00000202,0.00000142,0.01171832,-0.00000032,0.00000043,0.00075314,-0.0
 0000021,0.00000019,-0.00127840,-0.00000003,0.00000026,0.00001864,0.000
 00048,-0.00000018,-0.00099997,0.00000012,-0.00000009,0.00020659,-0.000
 00368,0.00000991,-0.06079077,0.00003253,-0.00000842,0.02839814,-0.0122
 1282,0.02121234,0.,-0.07003734,0.01428286,-0.00000123,0.00949728,-0.00
 968289,0.00000013,-0.00550170,-0.01202830,0.00000016,-0.00304378,0.007
 86723,0.00000004,0.00458964,0.00184921,0.00000005,-0.00332914,0.003370
 95,-0.00000002,-0.34209675,0.17245164,-0.00000716,0.00474797,0.0249175
 2,-0.00000186,0.79048577,0.00582956,-0.00946178,-0.00000015,0.01000709
 ,0.02413091,-0.00000090,-0.00840349,-0.00147604,-0.00000015,0.00244235
 ,0.00662130,0.00000005,0.00129138,-0.00365261,0.,-0.00277591,-0.000529
 33,-0.00000007,0.00015778,-0.00129616,0.,0.10371520,-0.22550628,0.0000
 1131,0.05468985,-0.05965598,0.00000435,0.02025347,0.42209090,-0.000000
 84,0.00000082,0.00000314,-0.00000125,-0.00000201,0.00910692,0.00000125
 ,-0.00000004,0.00326382,-0.00000023,-0.00000093,-0.00012928,-0.0000001
 3,0.00000042,0.00030088,0.00000005,0.00000018,-0.00031356,-0.00000009,
 0.00000021,-0.00015558,0.00000025,0.00000818,-0.06085809,-0.00000214,0
 .00000444,0.02818223,-0.00003796,-0.00004069,0.03056248,-0.26681348,0.
 09500335,0.00000174,0.03145315,0.01377378,-0.00000003,-0.02185759,-0.0
 0136323,-0.00000001,0.01708912,0.01311973,-0.00000027,0.00426985,-0.01
 972110,-0.00000003,-0.06503276,0.03756898,0.00000077,-0.00686783,0.002
 53114,0.00000037,-0.02686814,-0.00517901,-0.00000019,0.00333056,0.0051
 1976,-0.00000019,0.01018209,-0.01239164,0.00000031,0.40705668,0.144029
 24,-0.20987617,-0.00000234,0.02339302,-0.04442933,-0.00000066,0.005975
 80,-0.00438464,0.00000009,-0.00969237,-0.00368423,0.00000026,-0.005963
 06,0.00316578,-0.00000011,0.00995429,0.01096812,0.00000006,0.00680244,
 -0.00296017,-0.00000033,0.02348246,0.00786070,-0.00000014,-0.00258393,
 -0.00797021,0.00000048,-0.01744330,-0.00268280,-0.00000022,-0.01375274
 ,0.72209606,0.00000265,-0.00000245,-0.04560062,0.00000009,-0.00000041,
 0.00544409,0.00000008,-0.00000001,0.00289178,-0.00000019,-0.00000003,-
 0.00086704,0.00000001,0.00000007,0.00727493,0.00000063,-0.00000028,0.0
 1438354,0.00000013,-0.00000002,-0.00029752,0.00000034,0.00000017,-0.00
 351557,-0.00000005,-0.00000030,0.00025175,-0.00000039,0.00000015,0.001
 29813,-0.00000085,0.00001053,0.03004702,-0.00436774,0.00132569,0.,0.00
 690669,0.02390690,0.00000009,-0.06538031,-0.04197186,-0.00000021,0.002
 49060,-0.03069931,-0.00000004,-0.00594524,-0.00128425,0.00000005,-0.00
 051331,0.00064261,0.00000004,0.00226667,0.00071655,-0.00000003,0.00203
 714,0.00371607,-0.00000010,-0.00425910,-0.00183061,0.00000036,0.000353
 15,-0.00047766,0.,0.00042821,0.00159465,0.00000003,0.06592621,0.003602
 51,0.00172343,-0.00000006,-0.00244597,-0.01173471,-0.00000005,-0.04181
 997,-0.35189735,-0.00000152,0.00058701,-0.00489771,-0.00000003,-0.0011
 5372,-0.00097366,-0.00000003,-0.00143949,0.00067409,0.00000001,0.00133
 250,-0.00003305,0.,-0.00063029,-0.00194007,0.00000004,-0.00297564,0.00
 042253,0.00000002,0.00014136,0.00004391,0.00000001,-0.00074174,-0.0004
 7234,0.,0.04570901,0.36873043,0.00000013,0.00000007,0.00386189,-0.0000
 0013,-0.00000025,0.00174151,-0.00000031,-0.00000145,-0.03767210,0.0000
 0035,0.00000004,0.00943141,0.00000005,-0.00000013,0.00641229,-0.000000
 11,0.,-0.00045664,-0.00000006,0.00000004,-0.00397783,-0.00000006,0.000
 00005,-0.00278743,0.00000039,-0.00000005,0.00063915,-0.00000008,-0.000
 00003,-0.00008151,-0.00000001,-0.00000001,0.00069910,-0.00000006,0.000
 00157,0.02423212,-0.00130825,0.00338685,0.00000014,0.00065336,0.000383
 17,0.,0.00095131,-0.00035699,0.00000005,-0.00121047,0.00209664,0.00000
 010,-0.30547855,-0.09942808,0.00000230,-0.01690603,-0.01022155,0.00000
 019,0.00236610,0.00001454,0.,-0.00020580,-0.00003380,0.,-0.00001075,-0
 .00000175,0.,0.00005686,-0.00002687,0.,-0.00122068,-0.00029389,-0.0000
 0001,0.00001879,0.00004298,-0.00000002,0.32101951,0.00390416,-0.002491
 27,-0.00000008,0.00168753,-0.00049350,0.00000002,-0.00084174,-0.006293
 84,-0.00000005,-0.02917188,-0.00406880,0.00000023,-0.10071347,-0.10377
 089,0.00000086,0.01957507,0.01181325,-0.00000018,-0.00033250,0.0028047
 4,-0.00000002,-0.00063107,-0.00061463,0.,-0.00003718,0.00035791,0.,0.0
 0029173,-0.00010790,0.00000001,0.00093468,0.00056320,0.00000002,-0.001
 43100,-0.00019058,0.,0.10576846,0.10282877,0.00000010,-0.00000004,0.00
 869954,0.,-0.00000006,-0.00026281,-0.00000003,-0.00000004,0.00505986,-
 0.00000009,0.00000009,0.00728801,0.00000245,0.00000069,-0.04261639,0.0
 0000025,0.00000014,0.00612074,0.00000013,0.00000008,-0.00286215,0.,0.0
 0000002,-0.00076951,0.00000005,0.,0.00028431,-0.00000002,0.00000001,-0
 .00010105,0.,0.,-0.00103701,-0.00000002,-0.00000002,-0.00135008,-0.000
 00264,-0.00000093,0.02553595,-0.00168118,-0.02996085,-0.00000013,-0.00
 459894,-0.00043886,0.00000005,-0.00120354,0.00058471,0.,-0.00371199,0.
 00240627,0.00000014,0.00820742,0.02631829,0.00000005,-0.06831705,-0.04
 838605,0.00000005,0.00007106,0.00146335,-0.00000002,0.00033311,-0.0013
 7686,-0.00000002,-0.00054814,-0.00025210,-0.00000001,0.00004784,-0.000
 00914,0.00000002,0.00297361,-0.00064649,-0.00000005,0.00008874,-0.0000
 5633,0.,0.00093261,-0.00001221,-0.00000005,0.06850529,0.00267810,-0.00
 761834,-0.00000008,-0.00177519,0.00065144,0.,0.00006637,0.00053612,0.,
 0.00310376,0.00082235,-0.00000007,-0.00414466,-0.01463915,-0.00000004,
 -0.04826713,-0.33938184,-0.00000107,-0.00005056,-0.00098676,0.00000002
 ,0.00069785,-0.00023870,0.,-0.00020858,-0.00014289,0.,-0.00026497,0.00
 015243,-0.00000002,0.00049983,0.00285630,0.00000004,-0.00002552,-0.000
 04572,0.,-0.00015086,0.00087748,0.00000003,0.04965635,0.35685675,-0.00
 000004,0.00000005,0.00454987,0.00000004,-0.00000001,0.00444842,0.00000
 003,0.00000001,-0.00106603,0.00000006,-0.00000009,0.00756816,-0.000000
 07,-0.00000022,0.00360271,0.00000014,-0.00000100,-0.03524063,0.0000000
 3,0.00000001,-0.00003602,0.,0.00000002,0.00059653,0.,0.,-0.00014987,0.
 ,0.,-0.00001078,-0.00000003,0.00000007,-0.00407633,0.,0.,-0.00026512,-
 0.00000007,0.00000002,-0.00464946,-0.00000010,0.00000119,0.02407833,-0
 .00016455,0.00048938,0.00000002,0.00036828,-0.00077562,0.00000006,-0.0
 0162898,0.00460565,-0.00000014,-0.03152087,-0.01524761,-0.00000168,0.0
 0482446,-0.00303393,-0.00000005,-0.00060652,-0.00044640,0.00000017,-0.
 42008439,-0.17312878,-0.00002995,-0.00173452,-0.00064288,0.,0.00030630
 ,0.00075351,-0.00000004,0.00084971,-0.00032012,0.00000006,0.00079415,-
 0.00070188,-0.00000004,0.00019916,0.00000625,-0.00000004,0.00027245,0.
 00117521,-0.00000012,0.00024280,-0.00018425,0.,0.44828470,-0.00008742,
 0.00066814,0.00000006,-0.00071602,0.00044345,-0.00000017,0.00497047,-0
 .00332657,-0.00000009,0.03262016,0.00965725,0.00000235,0.00341407,0.00
 221330,0.00000002,-0.00032298,-0.00031183,0.,-0.22778584,-0.14850103,-
 0.00001974,0.00116075,0.00027999,-0.00000005,-0.00017083,-0.00046496,0
 .00000002,-0.00032073,0.00016809,-0.00000002,0.00023606,-0.00049614,-0
 .00000001,0.00030899,0.00010466,0.00000004,-0.00096439,-0.00135477,0.0
 0000001,-0.00003806,0.00003517,-0.00000002,0.18741463,0.14079794,0.000
 00007,0.,0.00021589,0.00000040,0.00000001,0.00199850,0.00000010,-0.000
 00039,0.00170970,0.00000254,-0.00000013,-0.00544887,0.00000018,-0.0000
 0016,0.00016308,-0.00000010,-0.00000009,-0.00067699,-0.00003479,-0.000
 01699,-0.00094128,-0.00000004,-0.00000007,0.00031034,0.00000002,0.0000
 0003,-0.00003517,0.00000003,0.00000001,-0.00015201,-0.00000011,0.00000
 011,-0.00009473,-0.00000002,0.,-0.00085369,-0.00000004,0.00000012,0.00
 041472,0.00000003,-0.00000002,-0.00000239,0.00003176,0.00001758,0.0033
 3235,0.00043695,-0.00208393,0.,0.00526211,0.00322482,-0.00000050,-0.00
 153051,0.00061269,0.,0.00033393,0.00117420,0.00000006,0.00019709,-0.00
 051224,0.,0.00002852,-0.00034099,0.00000002,0.00034724,-0.00038881,0.,
 -0.00212837,-0.00011199,0.00000071,-0.44696447,-0.18074697,-0.00002847
 ,-0.00018491,0.00513032,-0.00000038,-0.00088150,0.00109443,0.00000007,
 0.00011994,-0.00036799,-0.00000008,-0.00000213,-0.00005057,0.,-0.00000
 730,0.00002282,0.,-0.00012342,0.00005575,0.,0.44393307,-0.00120692,-0.
 00100703,0.00000014,0.00540329,-0.00343883,0.00000048,0.00026286,0.000
 49456,-0.00000018,-0.00023457,0.00161403,0.,0.00037154,-0.00054378,0.,
 0.00000776,-0.00052813,-0.00000004,0.00067308,-0.00060539,0.,-0.050430
 49,-0.02478017,-0.00000260,-0.13105295,-0.09728346,-0.00000736,0.00136
 434,0.00566522,0.00000041,-0.00031315,0.00095880,0.,-0.00047351,0.0005
 9969,0.00000008,0.00000823,0.00001005,0.00000001,-0.00008911,-0.000008
 02,0.,-0.00015220,0.00006186,0.,0.17189326,0.12221445,0.00000022,0.000
 00060,0.00217265,-0.00000105,0.00000032,0.00459317,0.00000025,-0.00000
 017,-0.00112224,0.00000001,-0.00000013,0.00035296,-0.00000001,-0.00000
 006,0.00008197,-0.00000017,0.00000017,-0.00063339,-0.00000001,0.000000
 03,-0.00007621,0.00000354,0.00000263,-0.00420606,-0.00003129,-0.000012
 47,-0.00505234,-0.00000018,0.00000002,-0.00445937,0.00000018,-0.000000
 24,0.00012878,-0.00000012,0.00000004,-0.00019966,0.,0.,-0.00002530,0.0
 0000002,0.,-0.00006447,0.00000001,-0.00000001,0.00005603,0.00002831,0.
 00000972,0.00599868,0.00102928,-0.00274252,0.00000003,0.00513333,0.006
 94411,0.00000021,-0.00229170,-0.00036600,-0.00000008,0.00027972,0.0023
 7082,-0.00000005,0.00040917,-0.00091347,0.00000002,-0.00023982,-0.0002
 2954,-0.00000002,0.00050370,-0.00071452,0.,-0.04221815,-0.01936226,0.0
 0000296,0.00678702,-0.00467632,-0.00000041,-0.38343889,-0.17769350,0.0
 0004113,-0.00141159,0.00122685,-0.00000003,-0.00011180,0.00006726,0.00
 000002,-0.00000232,-0.00004648,0.,0.00001668,0.00001528,0.,-0.00019875
 ,0.00009079,0.,0.00115110,0.00386298,0.00000026,0.41437397,0.00120440,
 -0.00098204,0.00000001,0.00351397,-0.00156444,0.00000079,0.00004629,0.
 00062313,0.00000009,0.00031846,0.00036250,-0.00000004,0.00009657,-0.00
 026022,-0.00000002,-0.00019684,-0.00011149,0.00000001,0.00006008,-0.00
 009524,0.,0.03216614,0.01280000,-0.00000357,-0.00014249,-0.00054072,0.
 00000039,-0.22960674,-0.15345004,0.00002916,-0.00096319,-0.00162250,-0
 .00000014,0.00005362,-0.00000566,0.00000004,-0.00000730,-0.00001183,0.
 ,-0.00000454,0.00001756,0.,-0.00000906,0.00001152,0.,0.00164554,-0.003
 20488,-0.00000051,0.19243259,0.14799581,0.00000037,-0.00000035,-0.0013
 4975,0.00000021,0.00000132,0.00596307,-0.00000062,-0.00000004,0.001772
 34,0.00000012,0.00000044,-0.00045159,0.00000005,-0.00000017,0.00001559
 ,-0.00000001,-0.00000011,-0.00017140,0.,-0.00000011,-0.00015234,-0.000
 00442,-0.00000041,-0.00378130,-0.00000037,0.00000018,-0.00513959,0.000
 04859,0.00002614,-0.00663442,-0.00000015,0.,0.00008036,0.00000004,-0.0
 0000001,0.00024134,0.,0.,0.00006795,-0.00000001,0.,0.00002214,-0.00000
 003,0.00000002,-0.00002467,0.00000031,-0.00000062,0.00252601,-0.000044
 07,-0.00002622,0.00686190,0.00725868,0.04248366,0.00000063,-0.00410355
 ,0.00312289,0.00000003,0.00048869,0.00066848,0.,0.00025094,0.00000146,
 0.,-0.00019177,-0.00044357,0.,0.00082137,0.00333012,0.,-0.00019640,-0.
 00015772,0.00000002,-0.00147273,0.00072493,0.,0.00014639,-0.00007140,0
 .00000004,-0.00096498,-0.00141866,-0.00000005,-0.08662383,-0.16647552,
 -0.00000242,-0.00025782,0.00014225,0.,0.00007399,-0.00006874,0.,-0.001
 35102,-0.00166865,0.00000002,-0.00008001,0.00013459,-0.00000001,0.0000
 1265,0.00010557,0.,0.00022903,-0.00060751,-0.00000003,0.08596036,-0.00
 334264,-0.03144789,-0.00000041,0.00667398,0.00230619,-0.00000003,-0.00
 358961,-0.00063970,-0.00000002,0.00284673,0.00188643,-0.00000003,0.000
 57803,-0.00304668,0.00000002,-0.00657539,0.00544925,0.00000010,-0.0012
 9069,0.00053956,0.00000006,-0.00351959,-0.00145462,0.,0.00051104,0.001
 59478,-0.00000008,0.00134430,-0.00105384,0.00000007,-0.11436152,-0.469
 89043,-0.00000733,0.00021962,-0.00010789,-0.00000001,-0.00021539,0.000
 14263,0.,0.00084161,0.00025580,-0.00000003,0.00019810,0.00001394,-0.00
 000002,-0.00025036,-0.00021896,0.00000004,-0.00026605,0.00003853,-0.00
 000005,0.12019781,0.49563290,-0.00000026,-0.00000030,-0.00264427,0.000
 00011,0.00000005,0.00320757,0.00000002,-0.00000002,0.00117770,0.,-0.00
 000003,-0.00013645,-0.00000002,0.,-0.00057463,-0.00000008,0.00000006,-
 0.00201542,0.,0.,-0.00004904,-0.00000006,-0.00000004,-0.00015345,0.000
 00003,0.00000012,-0.00035933,-0.00000009,-0.00000005,0.00017805,-0.000
 00150,-0.00000755,-0.00701066,0.00000001,0.,0.00038526,0.,0.,0.0002026
 7,0.00000004,0.,0.00069492,0.,0.,0.00002920,-0.00000003,0.,-0.00007122
 ,0.00000003,0.00000002,0.00015435,0.00000179,0.00000772,0.00698474\\0.
 00000363,0.00006385,0.00000015,-0.00005222,-0.00005446,0.00000048,-0.0
 0001851,-0.00000997,0.00000019,0.00003790,0.00000940,0.00000028,0.0000
 2560,-0.00002125,-0.00000021,-0.00003821,0.00003694,-0.00000009,-0.000
 00523,0.00000050,-0.00000059,-0.00002140,0.00000490,-0.00000082,0.0000
 2565,-0.00001501,-0.00000002,0.00000140,0.00000301,-0.00000037,0.00002
 007,-0.00001630,-0.00000019,0.00000024,-0.00001135,0.00000005,-0.00000
 042,0.00001134,0.00000001,0.00000243,-0.00000103,0.,-0.00001474,0.0000
 0428,0.00000038,0.00002556,0.00000353,0.00000002,0.00001944,0.00000525
 ,0.00000062,-0.00001119,-0.00001364,0.00000010\\\@


 TERENCE, THIS IS STUPID STUFF:
 YOU EAT YOUR VICTUALS FAST ENOUGH;
 THERE CAN'T BE MUCH AMISS, 'TIS CLEAR
 TO SEE THE RATE YOU DRINK YOUR BEER.
 BUT OH, GOOD LORD, THE VERSE YOU MAKE,
 IT GIVES A CHAP THE BELLY-ACHE.
 THE COW, THE OLD COW, SHE IS DEAD;
 IT SLEEPS WELL, THE HORNED HEAD:
 WE POOR LADS, 'TIS OUR TURN NOW
 TO HEAR SUCH TUNES AS KILLED THE COW.
 PRETTY FRIENDSHIP 'TIS TO RHYME
 YOUR FRIENDS TO DEATH BEFORE THEIR TIME.
 MOPING, MELANCHOLY MAD:
 COME PIPE A TUNE TO DANCE TO, LAD.

     -- A. E. HOUSMAN
 Job cpu time:       0 days  0 hours 29 minutes 49.1 seconds.
 File lengths (MBytes):  RWF=    115 Int=      0 D2E=      0 Chk=      6 Scr=      1
 Normal termination of Gaussian 09 at Wed Jun 19 15:02:25 2024.
