 Entering Gaussian System, Link 0=g09
 Input=2pbeDHB21.gjf
 Output=2pbeDHB21.log
 Initial command:
 /home/phzd/g09E/g09/l1.exe "/home/phzd/g09E/scratch/Gau-541492.inp" -scrdir="/home/phzd/g09E/scratch/"
 Default is to use a total of  18 processors:
                               18 via shared-memory
                                1 via Linda
 Entering Link 1 = /home/phzd/g09E/g09/l1.exe PID=    541494.
  
 Copyright (c) 1988,1990,1992,1993,1995,1998,2003,2009,2015,
            Gaussian, Inc.  All Rights Reserved.
  
 This is part of the Gaussian(R) 09 program.  It is based on
 the Gaussian(R) 03 system (copyright 2003, Gaussian, Inc.),
 the Gaussian(R) 98 system (copyright 1998, Gaussian, Inc.),
 the Gaussian(R) 94 system (copyright 1995, Gaussian, Inc.),
 the Gaussian 92(TM) system (copyright 1992, Gaussian, Inc.),
 the Gaussian 90(TM) system (copyright 1990, Gaussian, Inc.),
 the Gaussian 88(TM) system (copyright 1988, Gaussian, Inc.),
 the Gaussian 86(TM) system (copyright 1986, Carnegie Mellon
 University), and the Gaussian 82(TM) system (copyright 1983,
 Carnegie Mellon University). Gaussian is a federally registered
 trademark of Gaussian, Inc.
  
 This software contains proprietary and confidential information,
 including trade secrets, belonging to Gaussian, Inc.
  
 This software is provided under written license and may be
 used, copied, transmitted, or stored only in accord with that
 written license.
  
 The following legend is applicable only to US Government
 contracts under FAR:
  
                    RESTRICTED RIGHTS LEGEND
  
 Use, reproduction and disclosure by the US Government is
 subject to restrictions as set forth in subparagraphs (a)
 and (c) of the Commercial Computer Software - Restricted
 Rights clause in FAR 52.227-19.
  
 Gaussian, Inc.
 340 Quinnipiac St., Bldg. 40, Wallingford CT 06492
  
  
 ---------------------------------------------------------------
 Warning -- This program may not be used in any manner that
 competes with the business of Gaussian, Inc. or will provide
 assistance to any competitor of Gaussian, Inc.  The licensee
 of this program is prohibited from giving any competitor of
 Gaussian, Inc. access to this program.  By using this program,
 the user acknowledges that Gaussian, Inc. is engaged in the
 business of creating and licensing software in the field of
 computational chemistry and represents and warrants to the
 licensee that it is not a competitor of Gaussian, Inc. and that
 it will not use this program in any manner prohibited above.
 ---------------------------------------------------------------
  

 Cite this work as:
 Gaussian 09, Revision E.01,
 M. J. Frisch, G. W. Trucks, H. B. Schlegel, G. E. Scuseria, 
 M. A. Robb, J. R. Cheeseman, G. Scalmani, V. Barone, B. Mennucci, 
 G. A. Petersson, H. Nakatsuji, M. Caricato, X. Li, H. P. Hratchian, 
 A. F. Izmaylov, J. Bloino, G. Zheng, J. L. Sonnenberg, M. Hada, 
 M. Ehara, K. Toyota, R. Fukuda, J. Hasegawa, M. Ishida, T. Nakajima, 
 Y. Honda, O. Kitao, H. Nakai, T. Vreven, J. A. Montgomery, Jr., 
 J. E. Peralta, F. Ogliaro, M. Bearpark, J. J. Heyd, E. Brothers, 
 K. N. Kudin, V. N. Staroverov, T. Keith, R. Kobayashi, J. Normand, 
 K. Raghavachari, A. Rendell, J. C. Burant, S. S. Iyengar, J. Tomasi, 
 M. Cossi, N. Rega, J. M. Millam, M. Klene, J. E. Knox, J. B. Cross, 
 V. Bakken, C. Adamo, J. Jaramillo, R. Gomperts, R. E. Stratmann, 
 O. Yazyev, A. J. Austin, R. Cammi, C. Pomelli, J. W. Ochterski, 
 R. L. Martin, K. Morokuma, V. G. Zakrzewski, G. A. Voth, 
 P. Salvador, J. J. Dannenberg, S. Dapprich, A. D. Daniels, 
 O. Farkas, J. B. Foresman, J. V. Ortiz, J. Cioslowski, 
 and D. J. Fox, Gaussian, Inc., Wallingford CT, 2013.
 
 ******************************************
 Gaussian 09:  ES64L-G09RevE.01 30-Nov-2015
                20-May-2024 
 ******************************************
 %chk=2pbeDHB21.chk
 -----------------------------
 # opt freq pbepbe/6-31+g(d,p)
 -----------------------------
 1/14=-1,18=20,19=15,26=3,38=1/1,3;
 2/9=110,12=2,17=6,18=5,40=1/2;
 3/5=1,6=6,7=111,11=2,16=1,25=1,30=1,71=1,74=1009/1,2,3;
 4//1;
 5/5=2,38=5/2;
 6/7=2,8=2,9=2,10=2,28=1/1;
 7//1,2,3,16;
 1/14=-1,18=20,19=15,26=3/3(2);
 2/9=110/2;
 99//99;
 2/9=110/2;
 3/5=1,6=6,7=111,11=2,16=1,25=1,30=1,71=1,74=1009/1,2,3;
 4/5=5,16=3,69=1/1;
 5/5=2,38=5/2;
 7//1,2,3,16;
 1/14=-1,18=20,19=15,26=3/3(-5);
 2/9=110/2;
 6/7=2,8=2,9=2,10=2,19=2,28=1/1;
 99/9=1/99;
 ----------
 [No Title]
 ----------
 Symbolic Z-matrix:
 Charge =  1 Multiplicity = 1
 C                     0.21852   1.26844  0. 
 C                     0.42184  -0.13647  0. 
 C                    -0.69451  -1.01156   0.00001 
 C                    -1.97506  -0.51302   0.00001 
 C                    -2.16451   0.88094   0.00001 
 C                    -1.09213   1.74959   0.00001 
 O                    -2.99465  -1.39891  -0.00002 
 C                     1.71744  -0.71434  -0.00001 
 O                     1.80384  -2.01682   0.00008 
 O                     2.7786    0.03169  -0.00011 
 O                     1.27713   2.08563  0. 
 H                    -0.54928  -2.08394   0.00001 
 H                    -3.17195   1.28772  0. 
 H                    -1.26638   2.82088   0.00001 
 H                    -3.8585   -0.96817   0.00022 
 H                     2.69877  -2.39207  -0.00002 
 H                     3.63127  -0.43339  -0.00002 
 H                     1.00728   3.01476   0. 
 

 GradGradGradGradGradGradGradGradGradGradGradGradGradGradGradGradGradGrad
 Berny optimization.
 Initialization pass.
                           ----------------------------
                           !    Initial Parameters    !
                           ! (Angstroms and Degrees)  !
 --------------------------                            --------------------------
 ! Name  Definition              Value          Derivative Info.                !
 --------------------------------------------------------------------------------
 ! R1    R(1,2)                  1.4195         estimate D2E/DX2                !
 ! R2    R(1,6)                  1.3962         estimate D2E/DX2                !
 ! R3    R(1,11)                 1.3373         estimate D2E/DX2                !
 ! R4    R(2,3)                  1.4185         estimate D2E/DX2                !
 ! R5    R(2,8)                  1.4186         estimate D2E/DX2                !
 ! R6    R(3,4)                  1.3742         estimate D2E/DX2                !
 ! R7    R(3,12)                 1.0822         estimate D2E/DX2                !
 ! R8    R(4,5)                  1.4068         estimate D2E/DX2                !
 ! R9    R(4,7)                  1.3507         estimate D2E/DX2                !
 ! R10   R(5,6)                  1.3801         estimate D2E/DX2                !
 ! R11   R(5,13)                 1.0865         estimate D2E/DX2                !
 ! R12   R(6,14)                 1.0854         estimate D2E/DX2                !
 ! R13   R(7,15)                 0.9653         estimate D2E/DX2                !
 ! R14   R(8,9)                  1.3053         estimate D2E/DX2                !
 ! R15   R(8,10)                 1.2972         estimate D2E/DX2                !
 ! R16   R(9,16)                 0.9704         estimate D2E/DX2                !
 ! R17   R(10,17)                0.9713         estimate D2E/DX2                !
 ! R18   R(11,18)                0.9675         estimate D2E/DX2                !
 ! A1    A(2,1,6)              118.3932         estimate D2E/DX2                !
 ! A2    A(2,1,11)             119.4315         estimate D2E/DX2                !
 ! A3    A(6,1,11)             122.1752         estimate D2E/DX2                !
 ! A4    A(1,2,3)              119.8577         estimate D2E/DX2                !
 ! A5    A(1,2,8)              122.2728         estimate D2E/DX2                !
 ! A6    A(3,2,8)              117.8695         estimate D2E/DX2                !
 ! A7    A(2,3,4)              120.6356         estimate D2E/DX2                !
 ! A8    A(2,3,12)             120.3796         estimate D2E/DX2                !
 ! A9    A(4,3,12)             118.9848         estimate D2E/DX2                !
 ! A10   A(3,4,5)              119.0116         estimate D2E/DX2                !
 ! A11   A(3,4,7)              117.7416         estimate D2E/DX2                !
 ! A12   A(5,4,7)              123.2468         estimate D2E/DX2                !
 ! A13   A(4,5,6)              121.2684         estimate D2E/DX2                !
 ! A14   A(4,5,13)             119.7274         estimate D2E/DX2                !
 ! A15   A(6,5,13)             119.0042         estimate D2E/DX2                !
 ! A16   A(1,6,5)              120.8334         estimate D2E/DX2                !
 ! A17   A(1,6,14)             119.397          estimate D2E/DX2                !
 ! A18   A(5,6,14)             119.7697         estimate D2E/DX2                !
 ! A19   A(4,7,15)             112.5114         estimate D2E/DX2                !
 ! A20   A(2,8,9)              117.8332         estimate D2E/DX2                !
 ! A21   A(2,8,10)             120.8535         estimate D2E/DX2                !
 ! A22   A(9,8,10)             121.3133         estimate D2E/DX2                !
 ! A23   A(8,9,16)             116.5438         estimate D2E/DX2                !
 ! A24   A(8,10,17)            116.2819         estimate D2E/DX2                !
 ! A25   A(1,11,18)            111.4713         estimate D2E/DX2                !
 ! D1    D(6,1,2,3)             -0.0004         estimate D2E/DX2                !
 ! D2    D(6,1,2,8)           -179.9998         estimate D2E/DX2                !
 ! D3    D(11,1,2,3)           179.9993         estimate D2E/DX2                !
 ! D4    D(11,1,2,8)            -0.0001         estimate D2E/DX2                !
 ! D5    D(2,1,6,5)             -0.0005         estimate D2E/DX2                !
 ! D6    D(2,1,6,14)          -179.9999         estimate D2E/DX2                !
 ! D7    D(11,1,6,5)           179.9999         estimate D2E/DX2                !
 ! D8    D(11,1,6,14)            0.0005         estimate D2E/DX2                !
 ! D9    D(2,1,11,18)          180.0            estimate D2E/DX2                !
 ! D10   D(6,1,11,18)           -0.0004         estimate D2E/DX2                !
 ! D11   D(1,2,3,4)              0.0007         estimate D2E/DX2                !
 ! D12   D(1,2,3,12)          -179.9997         estimate D2E/DX2                !
 ! D13   D(8,2,3,4)           -179.9998         estimate D2E/DX2                !
 ! D14   D(8,2,3,12)            -0.0003         estimate D2E/DX2                !
 ! D15   D(1,2,8,9)            179.9953         estimate D2E/DX2                !
 ! D16   D(1,2,8,10)            -0.0049         estimate D2E/DX2                !
 ! D17   D(3,2,8,9)             -0.0041         estimate D2E/DX2                !
 ! D18   D(3,2,8,10)           179.9957         estimate D2E/DX2                !
 ! D19   D(2,3,4,5)             -0.0003         estimate D2E/DX2                !
 ! D20   D(2,3,4,7)            179.9977         estimate D2E/DX2                !
 ! D21   D(12,3,4,5)          -179.9999         estimate D2E/DX2                !
 ! D22   D(12,3,4,7)            -0.0019         estimate D2E/DX2                !
 ! D23   D(3,4,5,6)             -0.0006         estimate D2E/DX2                !
 ! D24   D(3,4,5,13)           179.9994         estimate D2E/DX2                !
 ! D25   D(7,4,5,6)           -179.9984         estimate D2E/DX2                !
 ! D26   D(7,4,5,13)             0.0015         estimate D2E/DX2                !
 ! D27   D(3,4,7,15)           179.9849         estimate D2E/DX2                !
 ! D28   D(5,4,7,15)            -0.0172         estimate D2E/DX2                !
 ! D29   D(4,5,6,1)              0.001          estimate D2E/DX2                !
 ! D30   D(4,5,6,14)          -179.9997         estimate D2E/DX2                !
 ! D31   D(13,5,6,1)          -179.999          estimate D2E/DX2                !
 ! D32   D(13,5,6,14)            0.0004         estimate D2E/DX2                !
 ! D33   D(2,8,9,16)           179.9937         estimate D2E/DX2                !
 ! D34   D(10,8,9,16)           -0.0061         estimate D2E/DX2                !
 ! D35   D(2,8,10,17)          179.9945         estimate D2E/DX2                !
 ! D36   D(9,8,10,17)           -0.0057         estimate D2E/DX2                !
 --------------------------------------------------------------------------------
 Trust Radius=3.00D-01 FncErr=1.00D-07 GrdErr=1.00D-06
 Number of steps in this run=     89 maximum allowed number of steps=    108.
 GradGradGradGradGradGradGradGradGradGradGradGradGradGradGradGradGradGrad

                          Input orientation:                          
 ---------------------------------------------------------------------
 Center     Atomic      Atomic             Coordinates (Angstroms)
 Number     Number       Type             X           Y           Z
 ---------------------------------------------------------------------
      1          6           0        0.218520    1.268441   -0.000001
      2          6           0        0.421840   -0.136467   -0.000004
      3          6           0       -0.694512   -1.011562    0.000011
      4          6           0       -1.975059   -0.513021    0.000013
      5          6           0       -2.164514    0.880938    0.000006
      6          6           0       -1.092132    1.749589    0.000009
      7          8           0       -2.994648   -1.398914   -0.000021
      8          6           0        1.717439   -0.714336   -0.000009
      9          8           0        1.803839   -2.016818    0.000084
     10          8           0        2.778597    0.031693   -0.000107
     11          8           0        1.277125    2.085629   -0.000001
     12          1           0       -0.549276   -2.083938    0.000014
     13          1           0       -3.171953    1.287717   -0.000003
     14          1           0       -1.266382    2.820881    0.000009
     15          1           0       -3.858502   -0.968172    0.000218
     16          1           0        2.698772   -2.392069   -0.000016
     17          1           0        3.631270   -0.433385   -0.000020
     18          1           0        1.007276    3.014760    0.000001
 ---------------------------------------------------------------------
                    Distance matrix (angstroms):
                    1          2          3          4          5
     1  C    0.000000
     2  C    1.419544   0.000000
     3  C    2.456021   1.418462   0.000000
     4  C    2.825844   2.426297   1.374170   0.000000
     5  C    2.414334   2.779270   2.396343   1.406775   0.000000
     6  C    1.396178   2.418536   2.789634   2.428778   1.380057
     7  O    4.176031   3.642274   2.332524   1.350692   2.426283
     8  C    2.485591   1.418629   2.430196   3.697982   4.196958
     9  O    3.647761   2.333590   2.693009   4.067121   4.913737
    10  O    2.843157   2.362749   3.626412   4.784763   5.015532
    11  O    1.337326   2.381013   3.671504   4.162894   3.646390
    12  H    3.439180   2.176169   1.082166   2.121471   3.376312
    13  H    3.390528   3.865702   3.380000   2.162224   1.086463
    14  H    2.148256   3.405290   3.874875   3.408390   2.137760
    15  H    4.650220   4.360397   3.164288   1.937658   2.507749
    16  H    4.421649   3.205021   3.663356   5.037412   5.862092
    17  H    3.813538   3.223135   4.364250   5.606895   5.942942
    18  H    1.916185   3.205147   4.371196   4.619476   3.822754
                    6          7          8          9         10
     6  C    0.000000
     7  O    3.678673   0.000000
     8  C    3.736926   4.761556   0.000000
     9  O    4.751049   4.838107   1.305345   0.000000
    10  O    4.234821   5.947856   1.297157   2.268601   0.000000
    11  O    2.392969   5.512720   2.834375   4.136121   2.544223
    12  H    3.871772   2.539508   2.648359   2.354072   3.943429
    13  H    2.130488   2.692475   5.283405   5.973145   6.081664
    14  H    1.085371   4.559997   4.626116   5.729711   4.913392
    15  H    3.878019   0.965289   5.581716   5.758625   6.711990
    16  H    5.614649   5.779393   1.943657   0.970422   2.425076
    17  H    5.203451   6.695897   1.934343   2.418008   0.971261
    18  H    2.451157   5.957845   3.796115   5.094241   3.469332
                   11         12         13         14         15
    11  O    0.000000
    12  H    4.552036   0.000000
    13  H    4.520062   4.271591   0.000000
    14  H    2.647645   4.956964   2.445770   0.000000
    15  H    5.974978   3.492264   2.358047   4.590861   0.000000
    16  H    4.697963   3.262631   6.928653   6.549603   6.710091
    17  H    3.447815   4.494585   7.017552   5.880242   7.508840
    18  H    0.967524   5.331001   4.522016   2.281909   6.288048
                   16         17         18
    16  H    0.000000
    17  H    2.169331   0.000000
    18  H    5.665241   4.333018   0.000000
 Stoichiometry    C7H7O4(1+)
 Framework group  C1[X(C7H7O4)]
 Deg. of freedom    48
 Full point group                 C1      NOp   1
 Largest Abelian subgroup         C1      NOp   1
 Largest concise Abelian subgroup C1      NOp   1
                         Standard orientation:                         
 ---------------------------------------------------------------------
 Center     Atomic      Atomic             Coordinates (Angstroms)
 Number     Number       Type             X           Y           Z
 ---------------------------------------------------------------------
      1          6           0        0.218520    1.268441   -0.000001
      2          6           0        0.421840   -0.136467   -0.000004
      3          6           0       -0.694512   -1.011562    0.000011
      4          6           0       -1.975059   -0.513021    0.000013
      5          6           0       -2.164514    0.880938    0.000006
      6          6           0       -1.092132    1.749589    0.000009
      7          8           0       -2.994648   -1.398914   -0.000021
      8          6           0        1.717439   -0.714336   -0.000009
      9          8           0        1.803839   -2.016818    0.000084
     10          8           0        2.778597    0.031693   -0.000107
     11          8           0        1.277125    2.085629   -0.000001
     12          1           0       -0.549276   -2.083938    0.000014
     13          1           0       -3.171953    1.287717   -0.000003
     14          1           0       -1.266382    2.820881    0.000009
     15          1           0       -3.858502   -0.968172    0.000218
     16          1           0        2.698772   -2.392069   -0.000016
     17          1           0        3.631270   -0.433385   -0.000020
     18          1           0        1.007276    3.014760    0.000001
 ---------------------------------------------------------------------
 Rotational constants (GHZ):      1.7858526      0.9102282      0.6029246
 Standard basis: 6-31+G(d,p) (6D, 7F)
 There are   244 symmetry adapted cartesian basis functions of A   symmetry.
 There are   244 symmetry adapted basis functions of A   symmetry.
   244 basis functions,   401 primitive gaussians,   244 cartesian basis functions
    40 alpha electrons       40 beta electrons
       nuclear repulsion energy       608.3935479087 Hartrees.
 NAtoms=   18 NActive=   18 NUniq=   18 SFac= 1.00D+00 NAtFMM=   60 NAOKFM=F Big=F
 Integral buffers will be    131072 words long.
 Raffenetti 2 integral format.
 Two-electron integral symmetry is turned on.
 One-electron integrals computed using PRISM.
 NBasis=   244 RedAO= T EigKep=  3.15D-06  NBF=   244
 NBsUse=   244 1.00D-06 EigRej= -1.00D+00 NBFU=   244
 ExpMin= 4.38D-02 ExpMax= 5.48D+03 ExpMxC= 8.25D+02 IAcc=2 IRadAn=         4 AccDes= 0.00D+00
 Harris functional with IExCor= 1009 and IRadAn=       4 diagonalized for initial guess.
 HarFok:  IExCor= 1009 AccDes= 0.00D+00 IRadAn=         4 IDoV= 1 UseB2=F ITyADJ=14
 ICtDFT=  3500011 ScaDFX=  1.000000  1.000000  1.000000  1.000000
 FoFCou: FMM=F IPFlag=           0 FMFlag=      100000 FMFlg1=           0
         NFxFlg=           0 DoJE=T BraDBF=F KetDBF=T FulRan=T
         wScrn=  0.000000 ICntrl=     500 IOpCl=  0 I1Cent=   200000004 NGrid=           0
         NMat0=    1 NMatS0=      1 NMatT0=    0 NMatD0=    1 NMtDS0=    0 NMtDT0=    0
 Petite list used in FoFCou.
 Keep J ints in memory in canonical form, NReq=454277305.
 Requested convergence on RMS density matrix=1.00D-08 within 128 cycles.
 Requested convergence on MAX density matrix=1.00D-06.
 Requested convergence on             energy=1.00D-06.
 No special actions if energy rises.
 EnCoef did     2 forward-backward iterations
 EnCoef did     2 forward-backward iterations
 EnCoef did     7 forward-backward iterations
 SCF Done:  E(RPBE-PBE) =  -570.991349760     A.U. after   18 cycles
            NFock= 18  Conv=0.34D-08     -V/T= 2.0085

 **********************************************************************

            Population analysis using the SCF density.

 **********************************************************************

 Orbital symmetries:
       Occupied  (A) (A) (A) (A) (A) (A) (A) (A) (A) (A) (A) (A)
                 (A) (A) (A) (A) (A) (A) (A) (A) (A) (A) (A) (A)
                 (A) (A) (A) (A) (A) (A) (A) (A) (A) (A) (A) (A)
                 (A) (A) (A) (A)
       Virtual   (A) (A) (A) (A) (A) (A) (A) (A) (A) (A) (A) (A)
                 (A) (A) (A) (A) (A) (A) (A) (A) (A) (A) (A) (A)
                 (A) (A) (A) (A) (A) (A) (A) (A) (A) (A) (A) (A)
                 (A) (A) (A) (A) (A) (A) (A) (A) (A) (A) (A) (A)
                 (A) (A) (A) (A) (A) (A) (A) (A) (A) (A) (A) (A)
                 (A) (A) (A) (A) (A) (A) (A) (A) (A) (A) (A) (A)
                 (A) (A) (A) (A) (A) (A) (A) (A) (A) (A) (A) (A)
                 (A) (A) (A) (A) (A) (A) (A) (A) (A) (A) (A) (A)
                 (A) (A) (A) (A) (A) (A) (A) (A) (A) (A) (A) (A)
                 (A) (A) (A) (A) (A) (A) (A) (A) (A) (A) (A) (A)
                 (A) (A) (A) (A) (A) (A) (A) (A) (A) (A) (A) (A)
                 (A) (A) (A) (A) (A) (A) (A) (A) (A) (A) (A) (A)
                 (A) (A) (A) (A) (A) (A) (A) (A) (A) (A) (A) (A)
                 (A) (A) (A) (A) (A) (A) (A) (A) (A) (A) (A) (A)
                 (A) (A) (A) (A) (A) (A) (A) (A) (A) (A) (A) (A)
                 (A) (A) (A) (A) (A) (A) (A) (A) (A) (A) (A) (A)
                 (A) (A) (A) (A) (A) (A) (A) (A) (A) (A) (A) (A)
 The electronic state is 1-A.
 Alpha  occ. eigenvalues --  -19.04343 -19.04291 -18.98290 -18.95180 -10.25210
 Alpha  occ. eigenvalues --  -10.14547 -10.11780 -10.09876 -10.07818 -10.07055
 Alpha  occ. eigenvalues --  -10.06786  -1.26123  -1.18390  -1.15612  -1.12306
 Alpha  occ. eigenvalues --   -0.95608  -0.89549  -0.83985  -0.81501  -0.78197
 Alpha  occ. eigenvalues --   -0.73661  -0.72813  -0.67868  -0.66049  -0.62251
 Alpha  occ. eigenvalues --   -0.62005  -0.60806  -0.57781  -0.54684  -0.53952
 Alpha  occ. eigenvalues --   -0.53768  -0.52356  -0.51312  -0.51196  -0.50282
 Alpha  occ. eigenvalues --   -0.46906  -0.45373  -0.43220  -0.40649  -0.34250
 Alpha virt. eigenvalues --   -0.27649  -0.20003  -0.18550  -0.15689  -0.14421
 Alpha virt. eigenvalues --   -0.13739  -0.12673  -0.11212  -0.10246  -0.08864
 Alpha virt. eigenvalues --   -0.07755  -0.06456  -0.05492  -0.05272  -0.05181
 Alpha virt. eigenvalues --   -0.04081  -0.01605  -0.01329  -0.01047  -0.00649
 Alpha virt. eigenvalues --   -0.00340   0.00408   0.00525   0.01730   0.02294
 Alpha virt. eigenvalues --    0.02420   0.02521   0.03835   0.03966   0.04824
 Alpha virt. eigenvalues --    0.05521   0.06344   0.06533   0.07138   0.07862
 Alpha virt. eigenvalues --    0.07888   0.08404   0.09230   0.10125   0.10324
 Alpha virt. eigenvalues --    0.11579   0.11935   0.12502   0.13010   0.13418
 Alpha virt. eigenvalues --    0.13879   0.15005   0.16177   0.16617   0.16624
 Alpha virt. eigenvalues --    0.16903   0.17603   0.18152   0.20434   0.21216
 Alpha virt. eigenvalues --    0.21737   0.23066   0.24660   0.25501   0.26513
 Alpha virt. eigenvalues --    0.28171   0.29685   0.30578   0.33986   0.40443
 Alpha virt. eigenvalues --    0.41716   0.46216   0.47108   0.49105   0.51359
 Alpha virt. eigenvalues --    0.52466   0.53471   0.54311   0.55120   0.56426
 Alpha virt. eigenvalues --    0.57953   0.59364   0.64181   0.64225   0.67104
 Alpha virt. eigenvalues --    0.68523   0.74078   0.74657   0.78342   0.79383
 Alpha virt. eigenvalues --    0.81604   0.84034   0.85518   0.87803   0.88846
 Alpha virt. eigenvalues --    0.89163   0.91209   0.93810   0.95410   0.95950
 Alpha virt. eigenvalues --    0.97418   0.98135   0.99067   1.00651   1.01127
 Alpha virt. eigenvalues --    1.02201   1.04411   1.05306   1.05479   1.06153
 Alpha virt. eigenvalues --    1.07360   1.07416   1.10947   1.11351   1.11819
 Alpha virt. eigenvalues --    1.14843   1.16126   1.16824   1.18611   1.18794
 Alpha virt. eigenvalues --    1.21980   1.25408   1.28970   1.29979   1.33974
 Alpha virt. eigenvalues --    1.35803   1.36556   1.38807   1.39484   1.43306
 Alpha virt. eigenvalues --    1.47574   1.50302   1.53676   1.54362   1.55139
 Alpha virt. eigenvalues --    1.64186   1.65789   1.67671   1.68482   1.70045
 Alpha virt. eigenvalues --    1.71361   1.72471   1.72569   1.75586   1.79510
 Alpha virt. eigenvalues --    1.80880   1.81265   1.84581   1.91364   1.97747
 Alpha virt. eigenvalues --    1.98537   2.01328   2.02875   2.05521   2.08318
 Alpha virt. eigenvalues --    2.10933   2.13393   2.14356   2.16359   2.17808
 Alpha virt. eigenvalues --    2.18863   2.22314   2.24303   2.25954   2.26940
 Alpha virt. eigenvalues --    2.28851   2.30940   2.33742   2.35294   2.37240
 Alpha virt. eigenvalues --    2.38237   2.39485   2.41052   2.43016   2.45397
 Alpha virt. eigenvalues --    2.49425   2.49963   2.51725   2.52551   2.55917
 Alpha virt. eigenvalues --    2.58080   2.65384   2.71109   2.73869   2.80560
 Alpha virt. eigenvalues --    2.83075   2.87604   2.93764   2.96945   3.01923
 Alpha virt. eigenvalues --    3.09452   3.15652   3.24639   3.25368   3.29785
 Alpha virt. eigenvalues --    3.32176   3.34481   3.57285   3.98260   4.01724
 Alpha virt. eigenvalues --    4.06233   4.09775   4.10173   4.22190   4.26627
 Alpha virt. eigenvalues --    4.33762   4.37790   4.58664   4.72943
          Condensed to atoms (all electrons):
               1          2          3          4          5          6
     1  C   21.215205  -5.577229  -5.337335   0.786224   1.046375  -3.950201
     2  C   -5.577229  12.703191  -2.098721   1.155971  -0.808507   0.464341
     3  C   -5.337335  -2.098721  16.492398  -3.908774  -0.522321   0.313175
     4  C    0.786224   1.155971  -3.908774   9.282834  -0.475162   0.416962
     5  C    1.046375  -0.808507  -0.522321  -0.475162   6.526184  -0.380738
     6  C   -3.950201   0.464341   0.313175   0.416962  -0.380738   8.812433
     7  O   -0.033837   0.053145   0.074103  -0.060402  -0.105708   0.042058
     8  C   -1.271386  -0.352603   0.956329  -0.986731   0.079413  -0.306477
     9  O   -0.143242   0.120651   0.007890   0.039104  -0.008324   0.027567
    10  O   -0.009116   0.043329  -0.157900   0.017264   0.015495   0.086412
    11  O    0.131722  -0.224994   0.076787  -0.004683   0.034651   0.124087
    12  H    0.018090   0.028243   0.122879   0.114619   0.026339  -0.000341
    13  H    0.021346   0.002874  -0.025342   0.029528   0.220658   0.070391
    14  H    0.027577  -0.019821  -0.013224   0.007643   0.118392   0.194081
    15  H    0.001721  -0.012854   0.085980  -0.055369  -0.023125   0.007947
    16  H   -0.004970  -0.015823   0.021432  -0.002570   0.000464   0.004632
    17  H    0.001092   0.008757   0.004834   0.005394  -0.000431  -0.010362
    18  H   -0.040560   0.136105  -0.000751   0.002842   0.002011  -0.114164
               7          8          9         10         11         12
     1  C   -0.033837  -1.271386  -0.143242  -0.009116   0.131722   0.018090
     2  C    0.053145  -0.352603   0.120651   0.043329  -0.224994   0.028243
     3  C    0.074103   0.956329   0.007890  -0.157900   0.076787   0.122879
     4  C   -0.060402  -0.986731   0.039104   0.017264  -0.004683   0.114619
     5  C   -0.105708   0.079413  -0.008324   0.015495   0.034651   0.026339
     6  C    0.042058  -0.306477   0.027567   0.086412   0.124087  -0.000341
     7  O    8.312849  -0.004394   0.000061   0.000140   0.000404  -0.007768
     8  C   -0.004394   6.884120   0.050752   0.097679  -0.203046  -0.000277
     9  O    0.000061   0.050752   8.202674  -0.124382   0.001960   0.003229
    10  O    0.000140   0.097679  -0.124382   8.235279  -0.010728   0.000651
    11  O    0.000404  -0.203046   0.001960  -0.010728   8.340181  -0.000288
    12  H   -0.007768  -0.000277   0.003229   0.000651  -0.000288   0.501573
    13  H   -0.014533   0.000336  -0.000003   0.000021  -0.000576  -0.000145
    14  H   -0.000567   0.008917   0.000004  -0.000007  -0.017494   0.000010
    15  H    0.208721   0.002774   0.000011   0.000001  -0.000011  -0.000064
    16  H    0.000008   0.031376   0.195657  -0.016824   0.000087   0.000307
    17  H    0.000001   0.025387  -0.018093   0.178862   0.004078   0.000006
    18  H   -0.000010   0.021658   0.000024  -0.000097   0.192789   0.000004
              13         14         15         16         17         18
     1  C    0.021346   0.027577   0.001721  -0.004970   0.001092  -0.040560
     2  C    0.002874  -0.019821  -0.012854  -0.015823   0.008757   0.136105
     3  C   -0.025342  -0.013224   0.085980   0.021432   0.004834  -0.000751
     4  C    0.029528   0.007643  -0.055369  -0.002570   0.005394   0.002842
     5  C    0.220658   0.118392  -0.023125   0.000464  -0.000431   0.002011
     6  C    0.070391   0.194081   0.007947   0.004632  -0.010362  -0.114164
     7  O   -0.014533  -0.000567   0.208721   0.000008   0.000001  -0.000010
     8  C    0.000336   0.008917   0.002774   0.031376   0.025387   0.021658
     9  O   -0.000003   0.000004   0.000011   0.195657  -0.018093   0.000024
    10  O    0.000021  -0.000007   0.000001  -0.016824   0.178862  -0.000097
    11  O   -0.000576  -0.017494  -0.000011   0.000087   0.004078   0.192789
    12  H   -0.000145   0.000010  -0.000064   0.000307   0.000006   0.000004
    13  H    0.525367  -0.005789   0.005913  -0.000000   0.000000  -0.000024
    14  H   -0.005789   0.525068  -0.000010  -0.000000  -0.000000   0.008224
    15  H    0.005913  -0.000010   0.399645   0.000000   0.000000  -0.000000
    16  H   -0.000000  -0.000000   0.000000   0.375374   0.009024  -0.000000
    17  H    0.000000  -0.000000   0.000000   0.009024   0.371553  -0.000011
    18  H   -0.000024   0.008224  -0.000000  -0.000000  -0.000011   0.376551
 Mulliken charges:
               1
     1  C   -0.881479
     2  C    0.393945
     3  C   -0.091438
     4  C   -0.364693
     5  C    0.254332
     6  C    0.198197
     7  O   -0.464272
     8  C    0.966171
     9  O   -0.355538
    10  O   -0.356079
    11  O   -0.444924
    12  H    0.192935
    13  H    0.169978
    14  H    0.166997
    15  H    0.378720
    16  H    0.401828
    17  H    0.419909
    18  H    0.415410
 Sum of Mulliken charges =   1.00000
 Mulliken charges with hydrogens summed into heavy atoms:
               1
     1  C   -0.881479
     2  C    0.393945
     3  C    0.101497
     4  C   -0.364693
     5  C    0.424310
     6  C    0.365194
     7  O   -0.085553
     8  C    0.966171
     9  O    0.046290
    10  O    0.063830
    11  O   -0.029513
 Electronic spatial extent (au):  <R**2>=           1722.9935
 Charge=              1.0000 electrons
 Dipole moment (field-independent basis, Debye):
    X=              3.8410    Y=              0.3663    Z=              0.0004  Tot=              3.8585
 Quadrupole moment (field-independent basis, Debye-Ang):
   XX=            -13.8968   YY=            -40.1679   ZZ=            -63.5048
   XY=            -15.8809   XZ=             -0.0018   YZ=              0.0000
 Traceless Quadrupole moment (field-independent basis, Debye-Ang):
   XX=             25.2930   YY=             -0.9781   ZZ=            -24.3149
   XY=            -15.8809   XZ=             -0.0018   YZ=              0.0000
 Octapole moment (field-independent basis, Debye-Ang**2):
  XXX=             41.5529  YYY=             29.8145  ZZZ=             -0.0001  XYY=             34.1603
  XXY=            -39.5136  XXZ=              0.0075  XZZ=              8.5603  YZZ=             -3.0132
  YYZ=             -0.0006  XYZ=              0.0028
 Hexadecapole moment (field-independent basis, Debye-Ang**3):
 XXXX=           -577.5418 YYYY=           -497.7802 ZZZZ=            -62.7205 XXXY=           -132.0866
 XXXZ=             -0.0248 YYYX=            -47.1083 YYYZ=              0.0043 ZZZX=              0.0038
 ZZZY=              0.0026 XXYY=           -257.8556 XXZZ=           -235.7842 YYZZ=           -136.3173
 XXYZ=             -0.0045 YYXZ=             -0.0023 ZZXY=              1.3457
 N-N= 6.083935479087D+02 E-N=-2.538330005021D+03  KE= 5.661728115912D+02
 Calling FoFJK, ICntrl=      2527 FMM=F ISym2X=0 I1Cent= 0 IOpClX= 0 NMat=1 NMatS=1 NMatT=0.
 ***** Axes restored to original set *****
 -------------------------------------------------------------------
 Center     Atomic                   Forces (Hartrees/Bohr)
 Number     Number              X              Y              Z
 -------------------------------------------------------------------
      1        6          -0.000588719    0.005478213    0.000000106
      2        6           0.001535094   -0.005571788   -0.000000129
      3        6           0.006836086   -0.004690407   -0.000000524
      4        6          -0.009341166   -0.001003414   -0.000000240
      5        6          -0.005792532    0.002977085    0.000000872
      6        6          -0.000886635    0.004348413   -0.000000089
      7        8           0.003837303   -0.011088746   -0.000000417
      8        6          -0.004951535    0.000300300   -0.000000118
      9        8          -0.009475897   -0.017292324    0.000002664
     10        8           0.008661777    0.019185365   -0.000002426
     11        8           0.013173013   -0.002776223   -0.000000190
     12        1           0.001142892   -0.006075664   -0.000000068
     13        1          -0.005816914    0.002410177   -0.000000067
     14        1          -0.001090242    0.006296751    0.000000022
     15        1          -0.008103187    0.005682762    0.000000622
     16        1           0.008054100   -0.002129127   -0.000000925
     17        1           0.006801965   -0.005000216    0.000000767
     18        1          -0.003995405    0.008948844    0.000000138
 -------------------------------------------------------------------
 Cartesian Forces:  Max     0.019185365 RMS     0.005949931

 GradGradGradGradGradGradGradGradGradGradGradGradGradGradGradGradGradGrad
 Berny optimization.
 FormGI is forming the generalized inverse of G from B-inverse, IUseBI=4.
 Internal  Forces:  Max     0.020803531 RMS     0.005753962
 Search for a local minimum.
 Step number   1 out of a maximum of   89
 All quantities printed in internal units (Hartrees-Bohrs-Radians)
 Mixed Optimization -- RFO/linear search
 Second derivative matrix not updated -- first step.
 ITU=  0
     Eigenvalues ---    0.01838   0.01842   0.01905   0.02057   0.02106
     Eigenvalues ---    0.02141   0.02186   0.02219   0.02253   0.02293
     Eigenvalues ---    0.02344   0.02432   0.02521   0.02944   0.03052
     Eigenvalues ---    0.16000   0.16000   0.16000   0.16000   0.16000
     Eigenvalues ---    0.16000   0.16000   0.22358   0.23489   0.24600
     Eigenvalues ---    0.25000   0.25000   0.25000   0.25000   0.25000
     Eigenvalues ---    0.35225   0.35353   0.35734   0.40043   0.41318
     Eigenvalues ---    0.42667   0.43734   0.44929   0.47965   0.49405
     Eigenvalues ---    0.53120   0.53291   0.53886   0.54351   0.54874
     Eigenvalues ---    0.57808   0.65730   0.67989
 RFO step:  Lambda=-5.13325448D-03 EMin= 1.83808510D-02
 Linear search not attempted -- first point.
 Iteration  1 RMS(Cart)=  0.02286210 RMS(Int)=  0.00005893
 Iteration  2 RMS(Cart)=  0.00008083 RMS(Int)=  0.00000144
 Iteration  3 RMS(Cart)=  0.00000001 RMS(Int)=  0.00000144
 Variable       Old X    -DE/DX   Delta X   Delta X   Delta X     New X
                                 (Linear)    (Quad)   (Total)
    R1        2.68255   0.01589   0.00000   0.03669   0.03669   2.71924
    R2        2.63839   0.01237   0.00000   0.02630   0.02630   2.66470
    R3        2.52718   0.01104   0.00000   0.01893   0.01893   2.54611
    R4        2.68050   0.00903   0.00000   0.02083   0.02083   2.70134
    R5        2.68082   0.01031   0.00000   0.02388   0.02388   2.70470
    R6        2.59681   0.01648   0.00000   0.03263   0.03263   2.62944
    R7        2.04500   0.00617   0.00000   0.01703   0.01703   2.06203
    R8        2.65842   0.01223   0.00000   0.02736   0.02736   2.68578
    R9        2.55244   0.00676   0.00000   0.01221   0.01221   2.56465
   R10        2.60793   0.01179   0.00000   0.02383   0.02383   2.63176
   R11        2.05312   0.00630   0.00000   0.01762   0.01762   2.07074
   R12        2.05105   0.00639   0.00000   0.01782   0.01782   2.06887
   R13        1.82413   0.00979   0.00000   0.01785   0.01785   1.84198
   R14        2.46674   0.01929   0.00000   0.02912   0.02912   2.49586
   R15        2.45127   0.02080   0.00000   0.03037   0.03037   2.48164
   R16        1.83383   0.00825   0.00000   0.01533   0.01533   1.84916
   R17        1.83542   0.00837   0.00000   0.01560   0.01560   1.85102
   R18        1.82836   0.00971   0.00000   0.01784   0.01784   1.84620
    A1        2.06635   0.00010   0.00000  -0.00035  -0.00035   2.06600
    A2        2.08447   0.00026   0.00000   0.00136   0.00136   2.08584
    A3        2.13236  -0.00035   0.00000  -0.00102  -0.00102   2.13134
    A4        2.09191  -0.00090   0.00000  -0.00409  -0.00408   2.08783
    A5        2.13406   0.00157   0.00000   0.00644   0.00644   2.14050
    A6        2.05721  -0.00067   0.00000  -0.00235  -0.00235   2.05486
    A7        2.10549   0.00076   0.00000   0.00344   0.00345   2.10894
    A8        2.10102  -0.00070   0.00000  -0.00367  -0.00367   2.09735
    A9        2.07668  -0.00006   0.00000   0.00023   0.00023   2.07690
   A10        2.07714  -0.00018   0.00000  -0.00016  -0.00016   2.07698
   A11        2.05498  -0.00019   0.00000  -0.00103  -0.00103   2.05395
   A12        2.15106   0.00037   0.00000   0.00119   0.00119   2.15226
   A13        2.11653  -0.00070   0.00000  -0.00268  -0.00268   2.11385
   A14        2.08964   0.00041   0.00000   0.00172   0.00172   2.09136
   A15        2.07701   0.00029   0.00000   0.00096   0.00096   2.07798
   A16        2.10894   0.00092   0.00000   0.00383   0.00383   2.11277
   A17        2.08387  -0.00040   0.00000  -0.00153  -0.00153   2.08234
   A18        2.09038  -0.00052   0.00000  -0.00230  -0.00230   2.08808
   A19        1.96369  -0.00269   0.00000  -0.01627  -0.01627   1.94742
   A20        2.05658  -0.00154   0.00000  -0.00604  -0.00604   2.05054
   A21        2.10929  -0.00150   0.00000  -0.00589  -0.00589   2.10341
   A22        2.11732   0.00304   0.00000   0.01192   0.01192   2.12924
   A23        2.03407  -0.00210   0.00000  -0.01273  -0.01273   2.02134
   A24        2.02950  -0.00209   0.00000  -0.01264  -0.01264   2.01687
   A25        1.94554  -0.00245   0.00000  -0.01481  -0.01481   1.93073
    D1       -0.00001  -0.00000   0.00000  -0.00000  -0.00000  -0.00001
    D2       -3.14159   0.00000   0.00000   0.00000   0.00000  -3.14159
    D3        3.14158  -0.00000   0.00000  -0.00000  -0.00000   3.14158
    D4       -0.00000   0.00000   0.00000   0.00000   0.00000  -0.00000
    D5       -0.00001   0.00000   0.00000   0.00000   0.00000  -0.00001
    D6       -3.14159  -0.00000   0.00000  -0.00000  -0.00000  -3.14159
    D7        3.14159   0.00000   0.00000   0.00000   0.00000   3.14159
    D8        0.00001  -0.00000   0.00000  -0.00000  -0.00000   0.00001
    D9        3.14159   0.00000   0.00000   0.00000   0.00000  -3.14159
   D10       -0.00001   0.00000   0.00000   0.00000   0.00000  -0.00000
   D11        0.00001  -0.00000   0.00000   0.00000   0.00000   0.00001
   D12       -3.14159  -0.00000   0.00000  -0.00000  -0.00000  -3.14159
   D13       -3.14159  -0.00000   0.00000  -0.00000  -0.00000  -3.14159
   D14       -0.00000  -0.00000   0.00000  -0.00000  -0.00000  -0.00001
   D15        3.14151  -0.00000   0.00000  -0.00000  -0.00000   3.14151
   D16       -0.00009   0.00000   0.00000   0.00000   0.00000  -0.00009
   D17       -0.00007  -0.00000   0.00000  -0.00000  -0.00000  -0.00007
   D18        3.14152   0.00000   0.00000   0.00000   0.00000   3.14152
   D19       -0.00000  -0.00000   0.00000  -0.00000  -0.00000  -0.00001
   D20        3.14155   0.00000   0.00000   0.00000   0.00000   3.14155
   D21       -3.14159   0.00000   0.00000   0.00000   0.00000  -3.14159
   D22       -0.00003   0.00000   0.00000   0.00000   0.00000  -0.00003
   D23       -0.00001   0.00000   0.00000   0.00000   0.00000  -0.00001
   D24        3.14158   0.00000   0.00000   0.00000   0.00000   3.14158
   D25       -3.14156   0.00000   0.00000   0.00000   0.00000  -3.14156
   D26        0.00003  -0.00000   0.00000  -0.00000  -0.00000   0.00003
   D27        3.14133   0.00000   0.00000   0.00006   0.00006   3.14139
   D28       -0.00030   0.00000   0.00000   0.00006   0.00006  -0.00024
   D29        0.00002  -0.00000   0.00000  -0.00000  -0.00000   0.00002
   D30       -3.14159  -0.00000   0.00000  -0.00000  -0.00000  -3.14159
   D31       -3.14157  -0.00000   0.00000  -0.00000  -0.00000  -3.14158
   D32        0.00001   0.00000   0.00000   0.00000   0.00000   0.00001
   D33        3.14148   0.00000   0.00000   0.00000   0.00000   3.14149
   D34       -0.00011   0.00000   0.00000  -0.00000  -0.00000  -0.00011
   D35        3.14150   0.00000   0.00000   0.00000   0.00000   3.14150
   D36       -0.00010   0.00000   0.00000   0.00000   0.00000  -0.00009
         Item               Value     Threshold  Converged?
 Maximum Force            0.020804     0.000450     NO 
 RMS     Force            0.005754     0.000300     NO 
 Maximum Displacement     0.064621     0.001800     NO 
 RMS     Displacement     0.022840     0.001200     NO 
 Predicted change in Energy=-2.594555D-03
 GradGradGradGradGradGradGradGradGradGradGradGradGradGradGradGradGradGrad

                          Input orientation:                          
 ---------------------------------------------------------------------
 Center     Atomic      Atomic             Coordinates (Angstroms)
 Number     Number       Type             X           Y           Z
 ---------------------------------------------------------------------
      1          6           0        0.222373    1.283847   -0.000002
      2          6           0        0.432779   -0.139648   -0.000004
      3          6           0       -0.693184   -1.020350    0.000015
      4          6           0       -1.991022   -0.518640    0.000021
      5          6           0       -2.185557    0.889238    0.000013
      6          6           0       -1.102975    1.765328    0.000011
      7          8           0       -3.012442   -1.412266   -0.000009
      8          6           0        1.737923   -0.727123   -0.000011
      9          8           0        1.812886   -2.045748    0.000088
     10          8           0        2.810356    0.030802   -0.000113
     11          8           0        1.285286    2.111826   -0.000006
     12          1           0       -0.543915   -2.101271    0.000018
     13          1           0       -3.201847    1.298996    0.000007
     14          1           0       -1.280726    2.845602    0.000011
     15          1           0       -3.879083   -0.966131    0.000183
     16          1           0        2.716539   -2.421170   -0.000012
     17          1           0        3.665466   -0.446944   -0.000026
     18          1           0        0.994841    3.044619   -0.000001
 ---------------------------------------------------------------------
                    Distance matrix (angstroms):
                    1          2          3          4          5
     1  C    0.000000
     2  C    1.438961   0.000000
     3  C    2.479430   1.429485   0.000000
     4  C    2.854484   2.453252   1.391437   0.000000
     5  C    2.440050   2.813235   2.423573   1.421254   0.000000
     6  C    1.410096   2.446932   2.815659   2.450539   1.392666
     7  O    4.211063   3.672751   2.352139   1.357153   2.445538
     8  C    2.518113   1.431267   2.448726   3.734768   4.243385
     9  O    3.689978   2.353277   2.707734   4.098997   4.960009
    10  O    2.875374   2.383679   3.657829   4.832714   5.069128
    11  O    1.347343   2.407468   3.704709   4.201613   3.679874
    12  H    3.470767   2.191323   1.091179   2.144491   3.411470
    13  H    3.424254   3.908990   3.416542   2.184009   1.095786
    14  H    2.167576   3.442066   3.910344   3.438408   2.155477
    15  H    4.678071   4.390356   3.186361   1.940366   2.512056
    16  H    4.466320   3.228142   3.686259   5.077475   5.915179
    17  H    3.853638   3.247260   4.396205   5.656943   6.001654
    18  H    1.922765   3.233492   4.401523   4.648892   3.841953
                    6          7          8          9         10
     6  C    0.000000
     7  O    3.707178   0.000000
     8  C    3.779287   4.799519   0.000000
     9  O    4.798598   4.866733   1.320754   0.000000
    10  O    4.280507   5.998952   1.313227   2.303695   0.000000
    11  O    2.413266   5.557849   2.874807   4.190917   2.580019
    12  H    3.906807   2.562880   2.663656   2.357455   3.974528
    13  H    2.150054   2.717869   5.339146   6.027840   6.144502
    14  H    1.094800   4.596551   4.677243   5.787550   4.965889
    15  H    3.894566   0.974732   5.622088   5.793451   6.763318
    16  H    5.667050   5.817140   1.956396   0.978535   2.453767
    17  H    5.256632   6.747318   1.947800   2.447086   0.979517
    18  H    2.457116   5.993508   3.844244   5.155680   3.518407
                   11         12         13         14         15
    11  O    0.000000
    12  H    4.593056   0.000000
    13  H    4.560160   4.315833   0.000000
    14  H    2.668866   5.001444   2.466313   0.000000
    15  H    6.012032   3.523051   2.364202   4.613109   0.000000
    16  H    4.753582   3.276110   6.990489   6.611884   6.754211
    17  H    3.494647   4.522797   7.085781   5.941858   7.562392
    18  H    0.976966   5.371030   4.545261   2.284253   6.311993
                   16         17         18
    16  H    0.000000
    17  H    2.190441   0.000000
    18  H    5.730541   4.395822   0.000000
 Stoichiometry    C7H7O4(1+)
 Framework group  C1[X(C7H7O4)]
 Deg. of freedom    48
 Full point group                 C1      NOp   1
 Largest Abelian subgroup         C1      NOp   1
 Largest concise Abelian subgroup C1      NOp   1
                         Standard orientation:                         
 ---------------------------------------------------------------------
 Center     Atomic      Atomic             Coordinates (Angstroms)
 Number     Number       Type             X           Y           Z
 ---------------------------------------------------------------------
      1          6           0        0.216310    1.285445   -0.000003
      2          6           0        0.431216   -0.137378   -0.000006
      3          6           0       -0.691956   -1.021636    0.000014
      4          6           0       -1.991375   -0.524032    0.000019
      5          6           0       -2.190360    0.883223    0.000012
      6          6           0       -1.110554    1.762733    0.000010
      7          8           0       -3.009964   -1.420883   -0.000011
      8          6           0        1.738210   -0.720724   -0.000013
      9          8           0        1.817343   -2.039105    0.000087
     10          8           0        2.808242    0.040589   -0.000115
     11          8           0        1.276599    2.116780   -0.000007
     12          1           0       -0.539271   -2.102080    0.000016
     13          1           0       -3.207941    1.289766    0.000006
     14          1           0       -1.291720    2.842439    0.000010
     15          1           0       -3.878011   -0.977491    0.000182
     16          1           0        2.722179   -2.411667   -0.000014
     17          1           0        3.664858   -0.434450   -0.000028
     18          1           0        0.983206    3.048651   -0.000002
 ---------------------------------------------------------------------
 Rotational constants (GHZ):      1.7447148      0.8954303      0.5917366
 Standard basis: 6-31+G(d,p) (6D, 7F)
 There are   244 symmetry adapted cartesian basis functions of A   symmetry.
 There are   244 symmetry adapted basis functions of A   symmetry.
   244 basis functions,   401 primitive gaussians,   244 cartesian basis functions
    40 alpha electrons       40 beta electrons
       nuclear repulsion energy       602.5296024272 Hartrees.
 NAtoms=   18 NActive=   18 NUniq=   18 SFac= 1.00D+00 NAtFMM=   60 NAOKFM=F Big=F
 Integral buffers will be    131072 words long.
 Raffenetti 2 integral format.
 Two-electron integral symmetry is turned on.
 One-electron integrals computed using PRISM.
 NBasis=   244 RedAO= T EigKep=  3.46D-06  NBF=   244
 NBsUse=   244 1.00D-06 EigRej= -1.00D+00 NBFU=   244
 Initial guess from the checkpoint file:  "2pbeDHB21.chk"
 B after Tr=    -0.000000    0.000000   -0.000000
         Rot=    0.999999    0.000001   -0.000001   -0.001558 Ang=   0.18 deg.
 ExpMin= 4.38D-02 ExpMax= 5.48D+03 ExpMxC= 8.25D+02 IAcc=2 IRadAn=         4 AccDes= 0.00D+00
 Harris functional with IExCor= 1009 and IRadAn=       4 diagonalized for initial guess.
 HarFok:  IExCor= 1009 AccDes= 0.00D+00 IRadAn=         4 IDoV= 1 UseB2=F ITyADJ=14
 ICtDFT=  3500011 ScaDFX=  1.000000  1.000000  1.000000  1.000000
 FoFCou: FMM=F IPFlag=           0 FMFlag=      100000 FMFlg1=           0
         NFxFlg=           0 DoJE=T BraDBF=F KetDBF=T FulRan=T
         wScrn=  0.000000 ICntrl=     500 IOpCl=  0 I1Cent=   200000004 NGrid=           0
         NMat0=    1 NMatS0=      1 NMatT0=    0 NMatD0=    1 NMtDS0=    0 NMtDT0=    0
 Petite list used in FoFCou.
 Keep J ints in memory in canonical form, NReq=454277305.
 Requested convergence on RMS density matrix=1.00D-08 within 128 cycles.
 Requested convergence on MAX density matrix=1.00D-06.
 Requested convergence on             energy=1.00D-06.
 No special actions if energy rises.
 SCF Done:  E(RPBE-PBE) =  -570.993916436     A.U. after   13 cycles
            NFock= 13  Conv=0.59D-08     -V/T= 2.0094
 Calling FoFJK, ICntrl=      2527 FMM=F ISym2X=0 I1Cent= 0 IOpClX= 0 NMat=1 NMatS=1 NMatT=0.
 ***** Axes restored to original set *****
 -------------------------------------------------------------------
 Center     Atomic                   Forces (Hartrees/Bohr)
 Number     Number              X              Y              Z
 -------------------------------------------------------------------
      1        6          -0.002678644    0.000561718    0.000000069
      2        6           0.000958322   -0.001317455    0.000000087
      3        6           0.000323153    0.000525444   -0.000000449
      4        6           0.000214866    0.001415652   -0.000001005
      5        6           0.000298463   -0.000332678    0.000000692
      6        6           0.001055088   -0.001094340   -0.000000097
      7        8           0.001115359   -0.001612462    0.000001894
      8        6          -0.003755128    0.001307793    0.000000297
      9        8          -0.001630655   -0.002962131    0.000000485
     10        8           0.001195901    0.004060873   -0.000000475
     11        8           0.002571537   -0.001557737   -0.000000196
     12        1          -0.000047213    0.000101243   -0.000000136
     13        1           0.000158503    0.000003951    0.000000036
     14        1           0.000040651   -0.000040025    0.000000002
     15        1          -0.000652345    0.000969017   -0.000001198
     16        1           0.001373341    0.000580445   -0.000000245
     17        1           0.000417142   -0.001402365    0.000000141
     18        1          -0.000958341    0.000793058    0.000000097
 -------------------------------------------------------------------
 Cartesian Forces:  Max     0.004060873 RMS     0.001220589

 GradGradGradGradGradGradGradGradGradGradGradGradGradGradGradGradGradGrad
 Berny optimization.
 Using GEDIIS/GDIIS optimizer.
 FormGI is forming the generalized inverse of G from B-inverse, IUseBI=4.
 Internal  Forces:  Max     0.002844007 RMS     0.000847590
 Search for a local minimum.
 Step number   2 out of a maximum of   89
 All quantities printed in internal units (Hartrees-Bohrs-Radians)
 Mixed Optimization -- En-DIIS/RFO-DIIS
 Update second derivatives using D2CorX and points    1    2
 DE= -2.57D-03 DEPred=-2.59D-03 R= 9.89D-01
 TightC=F SS=  1.41D+00  RLast= 1.04D-01 DXNew= 5.0454D-01 3.1295D-01
 Trust test= 9.89D-01 RLast= 1.04D-01 DXMaxT set to 3.13D-01
 ITU=  1  0
 Use linear search instead of GDIIS.
     Eigenvalues ---    0.01838   0.01842   0.01906   0.02057   0.02107
     Eigenvalues ---    0.02142   0.02186   0.02219   0.02253   0.02293
     Eigenvalues ---    0.02344   0.02439   0.02521   0.02944   0.03052
     Eigenvalues ---    0.15393   0.16000   0.16000   0.16000   0.16000
     Eigenvalues ---    0.16000   0.16017   0.22376   0.23501   0.24597
     Eigenvalues ---    0.24739   0.25000   0.25000   0.25000   0.25227
     Eigenvalues ---    0.35254   0.35374   0.35763   0.40360   0.41350
     Eigenvalues ---    0.42761   0.44127   0.46650   0.47968   0.52009
     Eigenvalues ---    0.52127   0.53206   0.53684   0.54212   0.54991
     Eigenvalues ---    0.57556   0.63730   0.67122
 RFO step:  Lambda=-1.83169641D-04 EMin= 1.83806114D-02
 Quartic linear search produced a step of  0.01427.
 Iteration  1 RMS(Cart)=  0.00934295 RMS(Int)=  0.00005121
 Iteration  2 RMS(Cart)=  0.00006487 RMS(Int)=  0.00000019
 Iteration  3 RMS(Cart)=  0.00000000 RMS(Int)=  0.00000019
 Variable       Old X    -DE/DX   Delta X   Delta X   Delta X     New X
                                 (Linear)    (Quad)   (Total)
    R1        2.71924  -0.00117   0.00052  -0.00209  -0.00157   2.71768
    R2        2.66470  -0.00170   0.00038  -0.00321  -0.00284   2.66186
    R3        2.54611   0.00081   0.00027   0.00182   0.00209   2.54820
    R4        2.70134  -0.00135   0.00030  -0.00279  -0.00249   2.69885
    R5        2.70470  -0.00284   0.00034  -0.00623  -0.00589   2.69882
    R6        2.62944  -0.00062   0.00047  -0.00049  -0.00002   2.62941
    R7        2.06203  -0.00011   0.00024   0.00006   0.00031   2.06234
    R8        2.68578  -0.00054   0.00039  -0.00055  -0.00016   2.68562
    R9        2.56465   0.00007   0.00017   0.00039   0.00057   2.56522
   R10        2.63176  -0.00042   0.00034  -0.00034  -0.00000   2.63176
   R11        2.07074  -0.00015   0.00025  -0.00003   0.00022   2.07095
   R12        2.06887  -0.00004   0.00025   0.00026   0.00051   2.06939
   R13        1.84198   0.00103   0.00025   0.00230   0.00256   1.84453
   R14        2.49586   0.00237   0.00042   0.00428   0.00470   2.50056
   R15        2.48164   0.00284   0.00043   0.00490   0.00533   2.48697
   R16        1.84916   0.00104   0.00022   0.00232   0.00254   1.85170
   R17        1.85102   0.00105   0.00022   0.00234   0.00256   1.85358
   R18        1.84620   0.00104   0.00025   0.00234   0.00259   1.84879
    A1        2.06600   0.00018  -0.00000   0.00048   0.00047   2.06648
    A2        2.08584  -0.00151   0.00002  -0.00596  -0.00594   2.07989
    A3        2.13134   0.00133  -0.00001   0.00549   0.00547   2.13682
    A4        2.08783   0.00048  -0.00006   0.00172   0.00166   2.08949
    A5        2.14050  -0.00188   0.00009  -0.00742  -0.00733   2.13317
    A6        2.05486   0.00140  -0.00003   0.00570   0.00566   2.06052
    A7        2.10894  -0.00049   0.00005  -0.00199  -0.00194   2.10700
    A8        2.09735   0.00028  -0.00005   0.00119   0.00114   2.09849
    A9        2.07690   0.00021   0.00000   0.00080   0.00080   2.07770
   A10        2.07698   0.00011  -0.00000   0.00082   0.00082   2.07780
   A11        2.05395  -0.00053  -0.00001  -0.00236  -0.00237   2.05158
   A12        2.15226   0.00042   0.00002   0.00154   0.00155   2.15381
   A13        2.11385  -0.00013  -0.00004  -0.00033  -0.00037   2.11348
   A14        2.09136   0.00013   0.00002   0.00062   0.00065   2.09201
   A15        2.07798  -0.00001   0.00001  -0.00029  -0.00028   2.07770
   A16        2.11277  -0.00016   0.00005  -0.00069  -0.00064   2.11213
   A17        2.08234   0.00004  -0.00002   0.00010   0.00008   2.08242
   A18        2.08808   0.00012  -0.00003   0.00059   0.00056   2.08864
   A19        1.94742  -0.00105  -0.00023  -0.00699  -0.00722   1.94020
   A20        2.05054   0.00102  -0.00009   0.00400   0.00392   2.05446
   A21        2.10341  -0.00109  -0.00008  -0.00454  -0.00462   2.09878
   A22        2.12924   0.00007   0.00017   0.00053   0.00070   2.12994
   A23        2.02134  -0.00195  -0.00018  -0.01266  -0.01284   2.00850
   A24        2.01687  -0.00190  -0.00018  -0.01232  -0.01250   2.00437
   A25        1.93073  -0.00125  -0.00021  -0.00822  -0.00843   1.92229
    D1       -0.00001   0.00000  -0.00000   0.00000   0.00000  -0.00000
    D2       -3.14159   0.00000   0.00000   0.00000   0.00000  -3.14159
    D3        3.14158   0.00000  -0.00000   0.00000   0.00000   3.14158
    D4       -0.00000   0.00000   0.00000   0.00000   0.00000   0.00000
    D5       -0.00001   0.00000   0.00000   0.00000   0.00000  -0.00001
    D6       -3.14159  -0.00000  -0.00000  -0.00000  -0.00000  -3.14159
    D7        3.14159   0.00000   0.00000   0.00000   0.00000   3.14159
    D8        0.00001  -0.00000  -0.00000  -0.00000  -0.00000   0.00001
    D9       -3.14159   0.00000   0.00000   0.00000   0.00000  -3.14159
   D10       -0.00000   0.00000   0.00000   0.00000   0.00000   0.00000
   D11        0.00001  -0.00000   0.00000  -0.00000  -0.00000   0.00001
   D12       -3.14159  -0.00000  -0.00000  -0.00000  -0.00000  -3.14159
   D13       -3.14159  -0.00000  -0.00000  -0.00000  -0.00000   3.14159
   D14       -0.00001  -0.00000  -0.00000  -0.00000  -0.00000  -0.00001
   D15        3.14151   0.00000  -0.00000   0.00000   0.00000   3.14151
   D16       -0.00009   0.00000   0.00000   0.00000   0.00000  -0.00008
   D17       -0.00007   0.00000  -0.00000   0.00000   0.00000  -0.00007
   D18        3.14152  -0.00000   0.00000   0.00000   0.00000   3.14152
   D19       -0.00001   0.00000  -0.00000   0.00000   0.00000  -0.00001
   D20        3.14155   0.00000   0.00000   0.00001   0.00001   3.14156
   D21       -3.14159  -0.00000   0.00000  -0.00000  -0.00000  -3.14159
   D22       -0.00003   0.00000   0.00000   0.00001   0.00001  -0.00002
   D23       -0.00001   0.00000   0.00000   0.00000   0.00000  -0.00001
   D24        3.14158   0.00000   0.00000   0.00000   0.00000   3.14158
   D25       -3.14156  -0.00000   0.00000  -0.00001  -0.00001  -3.14157
   D26        0.00003  -0.00000  -0.00000  -0.00001  -0.00001   0.00002
   D27        3.14139   0.00000   0.00000   0.00005   0.00005   3.14144
   D28       -0.00024   0.00000   0.00000   0.00006   0.00006  -0.00018
   D29        0.00002  -0.00000  -0.00000  -0.00000  -0.00000   0.00001
   D30       -3.14159  -0.00000  -0.00000  -0.00000  -0.00000  -3.14159
   D31       -3.14158  -0.00000  -0.00000  -0.00000  -0.00000  -3.14158
   D32        0.00001  -0.00000   0.00000  -0.00000  -0.00000   0.00001
   D33        3.14149  -0.00000   0.00000  -0.00000  -0.00000   3.14149
   D34       -0.00011   0.00000  -0.00000   0.00000   0.00000  -0.00010
   D35        3.14150   0.00000   0.00000   0.00000   0.00000   3.14150
   D36       -0.00009   0.00000   0.00000   0.00000   0.00000  -0.00009
         Item               Value     Threshold  Converged?
 Maximum Force            0.002844     0.000450     NO 
 RMS     Force            0.000848     0.000300     NO 
 Maximum Displacement     0.034368     0.001800     NO 
 RMS     Displacement     0.009369     0.001200     NO 
 Predicted change in Energy=-9.198151D-05
 GradGradGradGradGradGradGradGradGradGradGradGradGradGradGradGradGradGrad

                          Input orientation:                          
 ---------------------------------------------------------------------
 Center     Atomic      Atomic             Coordinates (Angstroms)
 Number     Number       Type             X           Y           Z
 ---------------------------------------------------------------------
      1          6           0        0.222009    1.277601   -0.000003
      2          6           0        0.428304   -0.145659   -0.000003
      3          6           0       -0.697625   -1.024264    0.000017
      4          6           0       -1.993900   -0.518561    0.000025
      5          6           0       -2.185232    0.889668    0.000019
      6          6           0       -1.100345    1.762902    0.000012
      7          8           0       -3.016183   -1.411656    0.000006
      8          6           0        1.733245   -0.725960   -0.000010
      9          8           0        1.819498   -2.046387    0.000089
     10          8           0        2.800991    0.043389   -0.000112
     11          8           0        1.293003    2.096925   -0.000012
     12          1           0       -0.550798   -2.105684    0.000019
     13          1           0       -3.200430    1.302430    0.000017
     14          1           0       -1.274686    2.844006    0.000012
     15          1           0       -3.880455   -0.958030    0.000153
     16          1           0        2.732186   -2.402983   -0.000014
     17          1           0        3.655675   -0.437891   -0.000027
     18          1           0        1.002442    3.031120   -0.000005
 ---------------------------------------------------------------------
                    Distance matrix (angstroms):
                    1          2          3          4          5
     1  C    0.000000
     2  C    1.438132   0.000000
     3  C    2.478771   1.428167   0.000000
     4  C    2.852446   2.450740   1.391426   0.000000
     5  C    2.438299   2.811133   2.424070   1.421167   0.000000
     6  C    1.408594   2.445275   2.816110   2.450206   1.392666
     7  O    4.209274   3.669773   2.350699   1.357454   2.446747
     8  C    2.509599   1.428153   2.449104   3.732911   4.238481
     9  O    3.687935   2.355460   2.716734   4.108072   4.965711
    10  O    2.859096   2.380207   3.657895   4.827708   5.057530
    11  O    1.348451   2.403515   3.701948   4.200534   3.681791
    12  H    3.470424   2.190967   1.091341   2.145111   3.412258
    13  H    3.422529   3.907002   3.417242   2.184427   1.095901
    14  H    2.166501   3.440679   3.911076   3.438623   2.156045
    15  H    4.672072   4.384672   3.183519   1.937066   2.507542
    16  H    4.455074   3.225428   3.696547   5.087920   5.917985
    17  H    3.838355   3.240575   4.392613   5.650151   5.989876
    18  H    1.919350   3.228244   4.397313   4.645244   3.840193
                    6          7          8          9         10
     6  C    0.000000
     7  O    3.707864   0.000000
     8  C    3.771427   4.798671   0.000000
     9  O    4.799600   4.877160   1.323241   0.000000
    10  O    4.263466   5.996388   1.316047   2.308786   0.000000
    11  O    2.416544   5.556907   2.857007   4.176629   2.547752
    12  H    3.907423   2.561210   2.668425   2.371038   3.981583
    13  H    2.149975   2.720333   5.334371   6.034423   6.132067
    14  H    1.095072   4.598203   4.668224   5.787048   4.945160
    15  H    3.890049   0.976086   5.618495   5.802929   6.756076
    16  H    5.660643   5.833221   1.951996   0.979877   2.447340
    17  H    5.240535   6.742544   1.943893   2.441066   0.980874
    18  H    2.455624   5.990626   3.827495   5.142826   3.487308
                   11         12         13         14         15
    11  O    0.000000
    12  H    4.589283   0.000000
    13  H    4.563130   4.316919   0.000000
    14  H    2.674165   5.002344   2.466768   0.000000
    15  H    6.008112   3.521892   2.360533   4.609285   0.000000
    16  H    4.724449   3.296418   6.994713   6.601964   6.768671
    17  H    3.465185   4.525036   7.073535   5.922779   7.554058
    18  H    0.978338   5.366498   4.544502   2.284803   6.305236
                   16         17         18
    16  H    0.000000
    17  H    2.171271   0.000000
    18  H    5.702761   4.367343   0.000000
 Stoichiometry    C7H7O4(1+)
 Framework group  C1[X(C7H7O4)]
 Deg. of freedom    48
 Full point group                 C1      NOp   1
 Largest Abelian subgroup         C1      NOp   1
 Largest concise Abelian subgroup C1      NOp   1
                         Standard orientation:                         
 ---------------------------------------------------------------------
 Center     Atomic      Atomic             Coordinates (Angstroms)
 Number     Number       Type             X           Y           Z
 ---------------------------------------------------------------------
      1          6           0        0.219544    1.279964   -0.000006
      2          6           0        0.427191   -0.143098   -0.000007
      3          6           0       -0.697901   -1.022774    0.000014
      4          6           0       -1.994657   -0.518303    0.000021
      5          6           0       -2.187328    0.889744    0.000015
      6          6           0       -1.103271    1.764008    0.000009
      7          8           0       -3.016090   -1.412369    0.000003
      8          6           0        1.732683   -0.722159   -0.000013
      9          8           0        1.820192   -2.042503    0.000085
     10          8           0        2.799698    0.048205   -0.000115
     11          8           0        1.289758    2.100306   -0.000015
     12          1           0       -0.550047   -2.104053    0.000016
     13          1           0       -3.202917    1.301541    0.000014
     14          1           0       -1.278640    2.844947    0.000008
     15          1           0       -3.880793   -0.959565    0.000150
     16          1           0        2.733218   -2.398231   -0.000017
     17          1           0        3.654839   -0.432262   -0.000030
     18          1           0        0.998309    3.034225   -0.000008
 ---------------------------------------------------------------------
 Rotational constants (GHZ):      1.7530391      0.8951748      0.5925792
 Standard basis: 6-31+G(d,p) (6D, 7F)
 There are   244 symmetry adapted cartesian basis functions of A   symmetry.
 There are   244 symmetry adapted basis functions of A   symmetry.
   244 basis functions,   401 primitive gaussians,   244 cartesian basis functions
    40 alpha electrons       40 beta electrons
       nuclear repulsion energy       602.8753220372 Hartrees.
 NAtoms=   18 NActive=   18 NUniq=   18 SFac= 1.00D+00 NAtFMM=   60 NAOKFM=F Big=F
 Integral buffers will be    131072 words long.
 Raffenetti 2 integral format.
 Two-electron integral symmetry is turned on.
 One-electron integrals computed using PRISM.
 NBasis=   244 RedAO= T EigKep=  3.45D-06  NBF=   244
 NBsUse=   244 1.00D-06 EigRej= -1.00D+00 NBFU=   244
 Initial guess from the checkpoint file:  "2pbeDHB21.chk"
 B after Tr=    -0.000000   -0.000000    0.000000
         Rot=    0.999999    0.000001   -0.000001    0.001130 Ang=   0.13 deg.
 ExpMin= 4.38D-02 ExpMax= 5.48D+03 ExpMxC= 8.25D+02 IAcc=2 IRadAn=         4 AccDes= 0.00D+00
 Harris functional with IExCor= 1009 and IRadAn=       4 diagonalized for initial guess.
 HarFok:  IExCor= 1009 AccDes= 0.00D+00 IRadAn=         4 IDoV= 1 UseB2=F ITyADJ=14
 ICtDFT=  3500011 ScaDFX=  1.000000  1.000000  1.000000  1.000000
 FoFCou: FMM=F IPFlag=           0 FMFlag=      100000 FMFlg1=           0
         NFxFlg=           0 DoJE=T BraDBF=F KetDBF=T FulRan=T
         wScrn=  0.000000 ICntrl=     500 IOpCl=  0 I1Cent=   200000004 NGrid=           0
         NMat0=    1 NMatS0=      1 NMatT0=    0 NMatD0=    1 NMtDS0=    0 NMtDT0=    0
 Petite list used in FoFCou.
 Keep J ints in memory in canonical form, NReq=454277305.
 Requested convergence on RMS density matrix=1.00D-08 within 128 cycles.
 Requested convergence on MAX density matrix=1.00D-06.
 Requested convergence on             energy=1.00D-06.
 No special actions if energy rises.
 SCF Done:  E(RPBE-PBE) =  -570.993995143     A.U. after   11 cycles
            NFock= 11  Conv=0.64D-08     -V/T= 2.0093
 Calling FoFJK, ICntrl=      2527 FMM=F ISym2X=0 I1Cent= 0 IOpClX= 0 NMat=1 NMatS=1 NMatT=0.
 ***** Axes restored to original set *****
 -------------------------------------------------------------------
 Center     Atomic                   Forces (Hartrees/Bohr)
 Number     Number              X              Y              Z
 -------------------------------------------------------------------
      1        6          -0.001077775    0.000073352    0.000000102
      2        6           0.000247502   -0.000984004    0.000000135
      3        6           0.000215528    0.000236526   -0.000000323
      4        6           0.000460571    0.000579116   -0.000000811
      5        6           0.000107085   -0.000480584    0.000000525
      6        6           0.000671001   -0.000005694   -0.000000093
      7        8          -0.000260324    0.000038278    0.000001721
      8        6          -0.001815183    0.000671779   -0.000000086
      9        8           0.000096175   -0.000588306    0.000000100
     10        8           0.001344134   -0.000020955   -0.000000026
     11        8          -0.000204567    0.000780942   -0.000000085
     12        1          -0.000025152    0.000141620   -0.000000102
     13        1           0.000212243   -0.000063928    0.000000021
     14        1          -0.000043292   -0.000200671   -0.000000009
     15        1           0.000021823   -0.000136412   -0.000001116
     16        1           0.000024680    0.000063238   -0.000000017
     17        1           0.000019661   -0.000158845    0.000000006
     18        1           0.000005890    0.000054548    0.000000060
 -------------------------------------------------------------------
 Cartesian Forces:  Max     0.001815183 RMS     0.000437438

 GradGradGradGradGradGradGradGradGradGradGradGradGradGradGradGradGradGrad
 Berny optimization.
 Using GEDIIS/GDIIS optimizer.
 FormGI is forming the generalized inverse of G from B-inverse, IUseBI=4.
 Internal  Forces:  Max     0.001632191 RMS     0.000427517
 Search for a local minimum.
 Step number   3 out of a maximum of   89
 All quantities printed in internal units (Hartrees-Bohrs-Radians)
 Mixed Optimization -- En-DIIS/RFO-DIIS
 Swapping is turned off.
 Update second derivatives using D2CorX and points    1    2    3
 DE= -7.87D-05 DEPred=-9.20D-05 R= 8.56D-01
 TightC=F SS=  1.41D+00  RLast= 2.80D-02 DXNew= 5.2631D-01 8.4035D-02
 Trust test= 8.56D-01 RLast= 2.80D-02 DXMaxT set to 3.13D-01
 ITU=  1  1  0
     Eigenvalues ---    0.01838   0.01842   0.01905   0.02058   0.02107
     Eigenvalues ---    0.02142   0.02186   0.02219   0.02253   0.02293
     Eigenvalues ---    0.02344   0.02439   0.02521   0.02944   0.03052
     Eigenvalues ---    0.12878   0.16000   0.16000   0.16000   0.16000
     Eigenvalues ---    0.16003   0.16052   0.22379   0.23494   0.24594
     Eigenvalues ---    0.24744   0.25000   0.25000   0.25030   0.34727
     Eigenvalues ---    0.35278   0.35577   0.35889   0.39875   0.40896
     Eigenvalues ---    0.43297   0.44980   0.47511   0.48131   0.50656
     Eigenvalues ---    0.52300   0.53236   0.53681   0.54254   0.55234
     Eigenvalues ---    0.57331   0.61437   0.66871
 En-DIIS/RFO-DIIS IScMMF=        0 using points:     3    2
 RFO step:  Lambda=-2.31247126D-05.
 DidBck=F Rises=F RFO-DIIS coefs:    0.87475    0.12525
 Iteration  1 RMS(Cart)=  0.00579079 RMS(Int)=  0.00001486
 Iteration  2 RMS(Cart)=  0.00002062 RMS(Int)=  0.00000005
 Iteration  3 RMS(Cart)=  0.00000000 RMS(Int)=  0.00000005
 Variable       Old X    -DE/DX   Delta X   Delta X   Delta X     New X
                                 (Linear)    (Quad)   (Total)
    R1        2.71768   0.00094   0.00020   0.00164   0.00184   2.71951
    R2        2.66186  -0.00079   0.00036  -0.00229  -0.00194   2.65992
    R3        2.54820   0.00035  -0.00026   0.00125   0.00099   2.54919
    R4        2.69885  -0.00050   0.00031  -0.00170  -0.00139   2.69745
    R5        2.69882  -0.00029   0.00074  -0.00238  -0.00164   2.69718
    R6        2.62941  -0.00040   0.00000  -0.00064  -0.00064   2.62878
    R7        2.06234  -0.00014  -0.00004  -0.00021  -0.00025   2.06209
    R8        2.68562  -0.00074   0.00002  -0.00151  -0.00148   2.68413
    R9        2.56522   0.00024  -0.00007   0.00060   0.00053   2.56574
   R10        2.63176  -0.00028   0.00000  -0.00047  -0.00047   2.63128
   R11        2.07095  -0.00022  -0.00003  -0.00043  -0.00046   2.07049
   R12        2.06939  -0.00019  -0.00006  -0.00026  -0.00032   2.06906
   R13        1.84453  -0.00008  -0.00032   0.00073   0.00041   1.84494
   R14        2.50056   0.00054  -0.00059   0.00228   0.00169   2.50226
   R15        2.48697   0.00100  -0.00067   0.00305   0.00238   2.48935
   R16        1.85170  -0.00000  -0.00032   0.00084   0.00052   1.85222
   R17        1.85358   0.00010  -0.00032   0.00101   0.00069   1.85427
   R18        1.84879   0.00005  -0.00032   0.00095   0.00062   1.84941
    A1        2.06648  -0.00010  -0.00006  -0.00002  -0.00008   2.06639
    A2        2.07989   0.00102   0.00074   0.00161   0.00236   2.08225
    A3        2.13682  -0.00092  -0.00069  -0.00159  -0.00228   2.13454
    A4        2.08949  -0.00036  -0.00021  -0.00054  -0.00075   2.08874
    A5        2.13317   0.00157   0.00092   0.00311   0.00403   2.13720
    A6        2.06052  -0.00121  -0.00071  -0.00257  -0.00328   2.05724
    A7        2.10700   0.00020   0.00024   0.00019   0.00044   2.10743
    A8        2.09849  -0.00009  -0.00014  -0.00000  -0.00014   2.09834
    A9        2.07770  -0.00011  -0.00010  -0.00019  -0.00029   2.07741
   A10        2.07780   0.00004  -0.00010   0.00019   0.00008   2.07788
   A11        2.05158  -0.00000   0.00030  -0.00065  -0.00035   2.05123
   A12        2.15381  -0.00004  -0.00019   0.00047   0.00027   2.15408
   A13        2.11348   0.00010   0.00005   0.00001   0.00006   2.11354
   A14        2.09201  -0.00003  -0.00008   0.00028   0.00020   2.09221
   A15        2.07770  -0.00008   0.00003  -0.00029  -0.00026   2.07744
   A16        2.11213   0.00011   0.00008   0.00018   0.00026   2.11239
   A17        2.08242   0.00002  -0.00001   0.00024   0.00023   2.08265
   A18        2.08864  -0.00013  -0.00007  -0.00042  -0.00049   2.08815
   A19        1.94020   0.00020   0.00090  -0.00124  -0.00033   1.93987
   A20        2.05446  -0.00066  -0.00049  -0.00109  -0.00158   2.05288
   A21        2.09878   0.00163   0.00058   0.00425   0.00483   2.10362
   A22        2.12994  -0.00098  -0.00009  -0.00317  -0.00326   2.12669
   A23        2.00850  -0.00012   0.00161  -0.00473  -0.00312   2.00538
   A24        2.00437  -0.00025   0.00157  -0.00533  -0.00376   2.00061
   A25        1.92229   0.00005   0.00106  -0.00245  -0.00139   1.92090
    D1       -0.00000   0.00000  -0.00000   0.00000   0.00000  -0.00000
    D2       -3.14159   0.00000  -0.00000   0.00000   0.00000  -3.14158
    D3        3.14158   0.00000  -0.00000   0.00000   0.00000   3.14158
    D4        0.00000   0.00000  -0.00000   0.00000   0.00000   0.00000
    D5       -0.00001   0.00000  -0.00000   0.00000   0.00000  -0.00001
    D6       -3.14159  -0.00000   0.00000  -0.00000  -0.00000   3.14159
    D7        3.14159   0.00000  -0.00000   0.00000   0.00000   3.14159
    D8        0.00001  -0.00000   0.00000  -0.00000  -0.00000   0.00001
    D9       -3.14159   0.00000  -0.00000   0.00000   0.00000  -3.14158
   D10        0.00000   0.00000  -0.00000   0.00000   0.00000   0.00000
   D11        0.00001  -0.00000   0.00000  -0.00000  -0.00000   0.00001
   D12       -3.14159  -0.00000   0.00000  -0.00000  -0.00000  -3.14159
   D13        3.14159  -0.00000   0.00000  -0.00000  -0.00000   3.14159
   D14       -0.00001  -0.00000   0.00000  -0.00000  -0.00000  -0.00001
   D15        3.14151  -0.00000  -0.00000  -0.00000  -0.00000   3.14151
   D16       -0.00008   0.00000  -0.00000   0.00000   0.00000  -0.00008
   D17       -0.00007  -0.00000  -0.00000   0.00000  -0.00000  -0.00007
   D18        3.14152   0.00000  -0.00000   0.00000   0.00000   3.14152
   D19       -0.00001   0.00000  -0.00000   0.00000   0.00000  -0.00000
   D20        3.14156   0.00000  -0.00000   0.00001   0.00001   3.14157
   D21       -3.14159   0.00000   0.00000  -0.00000  -0.00000  -3.14159
   D22       -0.00002   0.00000  -0.00000   0.00001   0.00001  -0.00002
   D23       -0.00001   0.00000  -0.00000   0.00000   0.00000  -0.00000
   D24        3.14158   0.00000  -0.00000   0.00000   0.00000   3.14159
   D25       -3.14157  -0.00000   0.00000  -0.00001  -0.00001  -3.14158
   D26        0.00002  -0.00000   0.00000  -0.00001  -0.00001   0.00001
   D27        3.14144   0.00000  -0.00001   0.00005   0.00004   3.14148
   D28       -0.00018   0.00000  -0.00001   0.00006   0.00005  -0.00013
   D29        0.00001  -0.00000   0.00000  -0.00000  -0.00000   0.00001
   D30       -3.14159  -0.00000   0.00000  -0.00000  -0.00000  -3.14159
   D31       -3.14158  -0.00000   0.00000  -0.00000  -0.00000  -3.14158
   D32        0.00001  -0.00000   0.00000  -0.00000  -0.00000   0.00001
   D33        3.14149   0.00000   0.00000   0.00000   0.00000   3.14149
   D34       -0.00010  -0.00000  -0.00000  -0.00000  -0.00000  -0.00011
   D35        3.14150   0.00000  -0.00000   0.00000   0.00000   3.14150
   D36       -0.00009   0.00000  -0.00000   0.00000   0.00000  -0.00009
         Item               Value     Threshold  Converged?
 Maximum Force            0.001632     0.000450     NO 
 RMS     Force            0.000428     0.000300     NO 
 Maximum Displacement     0.029867     0.001800     NO 
 RMS     Displacement     0.005800     0.001200     NO 
 Predicted change in Energy=-1.925801D-05
 GradGradGradGradGradGradGradGradGradGradGradGradGradGradGradGradGradGrad

                          Input orientation:                          
 ---------------------------------------------------------------------
 Center     Atomic      Atomic             Coordinates (Angstroms)
 Number     Number       Type             X           Y           Z
 ---------------------------------------------------------------------
      1          6           0        0.221179    1.281393   -0.000005
      2          6           0        0.430087   -0.142466   -0.000004
      3          6           0       -0.694393   -1.021731    0.000017
      4          6           0       -1.991073   -0.517994    0.000028
      5          6           0       -2.184419    0.889167    0.000023
      6          6           0       -1.101093    1.763938    0.000012
      7          8           0       -3.011977   -1.413089    0.000020
      8          6           0        1.732900   -0.725405   -0.000010
      9          8           0        1.814095   -2.047050    0.000090
     10          8           0        2.807131    0.037043   -0.000113
     11          8           0        1.289221    2.105416   -0.000015
     12          1           0       -0.546361   -2.102853    0.000019
[...]
 97893,-0.0000081364\\Version=ES64L-G09RevE.01\State=1-A\HF=-570.994011
 8\RMSD=7.482e-09\RMSF=4.309e-05\ZeroPoint=0.1316149\Thermal=0.1410446\
 Dipole=1.4415269,0.1641939,0.0000417\DipoleDeriv=0.9111006,0.9421618,-
 0.0000105,-0.0269436,0.7787521,0.0000007,-0.0000055,-0.000007,0.125256
 9,-0.9839059,0.7307973,0.0000091,0.4598296,-0.4191209,0.0000004,0.0000
 189,-0.0000164,-0.0224869,0.1083554,-0.6127266,-0.0000034,0.2348339,-0
 .0311653,-0.0000022,0.0000011,0.0000142,-0.1188476,0.9715067,1.0677087
 ,-0.0000037,1.1560367,0.0805311,-0.0000138,-0.0000022,-0.0000026,0.120
 5841,0.1227864,0.1483702,0.0000001,-0.3757539,0.3396461,0.0000008,-0.0
 000082,-0.0000034,-0.055568,-0.3950957,-0.5672334,0.0000034,0.0224435,
 0.0834451,-0.000001,0.0000061,0.000005,-0.1165906,-1.1769758,-0.607893
 1,-0.0000012,-0.8120352,-0.4667208,0.0000262,-0.0000284,0.0000045,-0.3
 285005,2.4510322,-0.6448913,-0.000055,-0.5024926,1.7584833,-0.0000851,
 -0.0000663,-0.0000907,0.2988528,-0.4979365,0.3209946,-0.000033,0.74276
 67,-1.4214282,0.0000455,-0.0000981,0.0001071,-0.2515821,-1.5663471,0.0
 133912,0.000069,-0.5145868,-0.2207142,0.0000088,0.0001624,-0.0000176,-
 0.2346469,-0.6393904,-0.8590685,0.0000035,-0.4410425,-0.9641684,0.0000
 078,-0.0000104,0.0000014,-0.282119,0.0935258,0.0166187,0.0000004,-0.01
 22618,0.0897556,-0.0000002,0.0000046,-0.0000014,0.1493362,-0.0017302,0
 .0043637,0.000002,-0.0110343,0.1001261,0.0000008,0.0000029,0.,0.136968
 1,0.0777872,-0.0440566,0.0000009,-0.0219187,-0.0089364,0.0000003,0.000
 0019,0.,0.1536678,0.4265277,0.0832647,0.0000025,0.1124958,0.1962703,-0
 .0000163,0.0000184,-0.0000061,0.3472003,0.3104349,-0.1345189,0.0000214
 ,-0.1694522,0.4591565,0.0000099,0.0000542,-0.0000213,0.3688494,0.53194
 78,0.0135386,-0.0000075,0.0605119,0.2267353,0.0000196,-0.0000554,0.000
 0329,0.3664169,0.2563769,0.1291788,0.0000021,0.0986034,0.4193525,-0.00
 00023,0.000004,0.0000014,0.3432091\Polar=146.6113992,-9.1321049,119.06
 81214,-0.0013674,-0.0006697,48.0956378\PG=C01 [X(C7H7O4)]\NImag=1\\0.6
 7067751,0.02058883,0.65543018,-0.00000657,-0.00000033,0.14631759,-0.12
 036944,0.03478649,0.00000142,0.64553869,0.01685871,-0.25176591,-0.0000
 0034,-0.00610323,0.64436284,0.00000112,0.00000023,-0.05912979,-0.00000
 659,-0.00000615,0.12623719,0.04109213,-0.03782773,-0.00000052,-0.20366
 886,-0.08419927,0.00000291,0.68273550,-0.01921427,-0.03235618,0.000000
 46,-0.10306089,-0.18332506,0.00000273,-0.02829338,0.69693883,-0.000000
 54,0.00000089,0.00139730,0.00000182,0.00000224,-0.04478534,-0.00000667
 ,-0.00000203,0.10882148,-0.02975377,0.02244704,0.00000031,-0.04529451,
 -0.01726710,0.00000058,-0.30875511,0.11116654,0.00000287,0.71519680,0.
 03085433,-0.02659460,-0.00000040,0.00589699,0.02933089,-0.00000052,0.0
 6526826,-0.14930919,-0.00000041,-0.00140580,0.64904207,0.00000005,-0.0
 0000031,0.00054705,0.00000047,0.00000039,-0.00308310,0.00000277,-0.000
 00158,-0.05496491,-0.00000795,0.00000191,0.12955316,-0.05125240,-0.005
 89049,0.00000053,-0.00802199,-0.00809025,0.00000023,0.01292753,0.03038
 677,-0.00000046,-0.12574021,0.06446204,0.00000043,0.71300904,-0.041501
 76,0.04407543,0.00000047,-0.01194625,-0.02379898,0.00000035,0.05480201
 ,-0.01433848,-0.00000074,0.00262874,-0.27889792,0.00000058,0.00909837,
 0.63961152,0.00000059,0.00000006,-0.00306065,0.00000034,0.00000016,0.0
 0067999,-0.00000055,-0.00000013,0.00109138,0.00000098,0.00000034,-0.05
 439021,-0.00000458,-0.00000190,0.11649920,-0.26108695,0.04977159,0.000
 00274,0.00298105,0.04206657,-0.00000034,-0.04171042,-0.00497622,0.0000
 0091,0.04450047,-0.04999223,0.,-0.26320849,-0.09615493,0.00000221,0.65
 384379,0.10478589,-0.15058991,-0.00000149,0.02341492,-0.00834297,-0.00
 000018,-0.00055187,-0.00241154,-0.00000011,-0.02142435,-0.03215678,0.0
 0000020,-0.14706814,-0.21397711,0.00000203,0.01988052,0.71376938,0.000
 00273,-0.00000088,-0.06041425,0.00000002,-0.00000009,0.00545723,0.0000
 0043,0.00000004,0.00276153,-0.00000032,0.00000076,-0.00169231,0.000002
 60,0.00000144,-0.04466669,-0.00000658,-0.00000118,0.10590212,0.0043856
 2,0.00035274,0.00000009,-0.00038238,0.00629774,0.00000012,-0.05718828,
 -0.03083176,0.00000014,-0.22744238,-0.13646981,0.00000152,-0.00077420,
 -0.00729798,-0.00000031,-0.00345027,0.00121555,0.00000014,0.66382559,-
 0.00203826,0.00337916,0.00000004,0.00028671,-0.00267639,0.00000037,0.0
 0238983,0.01651930,-0.00000005,-0.08571555,-0.19437857,-0.00000411,-0.
 04207123,-0.03683088,-0.00000022,0.00813381,-0.00330536,-0.00000019,-0
 .04248046,0.36328449,0.00000026,-0.00000016,-0.00135042,0.00000074,0.,
 0.00440579,0.00000030,0.00000093,0.00658882,0.00000552,-0.00000115,-0.
 03539175,0.00000028,0.00000035,0.00670087,-0.00000036,0.00000011,0.005
 62925,-0.00004295,0.00002420,0.02169830,0.01209121,0.03961862,-0.00000
 089,-0.23280125,0.06726823,0.00000066,-0.05172820,-0.00366887,0.000000
 95,0.00325537,-0.01782677,0.00000036,0.00323105,0.00486446,-0.00000015
 ,0.00068832,0.00187509,0.00000010,0.00334157,0.00526694,-0.00000003,0.
 75109846,0.03113149,-0.01733337,0.00000006,0.06709872,-0.12703977,0.00
 000004,-0.00488739,0.01980003,-0.00000043,-0.00570416,0.00507451,-0.00
 000007,-0.00206075,-0.00520576,0.00000009,0.00026961,-0.00767034,-0.00
 000003,-0.00440783,-0.00306839,0.00000014,-0.00322698,0.70671553,-0.00
 000145,-0.00000055,-0.00194634,0.00000094,0.00000095,-0.06890816,0.000
 00073,-0.00000050,-0.00212954,-0.00000011,0.00000075,0.00589403,-0.000
 00019,-0.00000050,-0.00092905,0.00000055,0.,0.00514515,-0.00000004,-0.
 00000007,0.00035599,-0.00002152,-0.00003761,0.17654143,-0.00709851,-0.
 00696000,-0.00000005,-0.00689081,0.04450082,-0.00000329,-0.00240698,0.
 00410310,-0.00000023,0.00176671,0.00151885,0.00000026,-0.00013295,0.00
 096859,0.00000007,-0.00119482,0.00199251,0.00000015,-0.00104131,-0.000
 66532,-0.00000001,-0.12280138,0.05558969,0.00000267,0.55292956,0.00136
 427,0.01452895,-0.00000033,0.03136568,-0.04308215,0.00000194,-0.007950
 49,-0.00492855,0.00000066,0.00074845,-0.00731599,0.00000008,0.00012115
 ,0.00199325,-0.00000011,0.00207832,0.00121883,0.00000009,0.00281910,0.
 00325822,-0.00000002,-0.00712707,-0.36013025,0.00002593,-0.17002235,0.
 53417358,0.00000074,-0.00000172,0.00298562,-0.00000258,0.00000156,0.00
 957071,0.00000061,0.00000052,0.00057198,0.00000022,0.00000036,-0.00119
 078,0.00000007,0.00000026,-0.00008227,-0.00000065,-0.00000031,-0.00082
 914,-0.00000019,-0.00000018,0.00020063,0.00000752,0.00001813,-0.049919
 51,-0.00005360,-0.00001690,0.02239866,-0.00956535,-0.01694670,0.000000
 48,-0.05741046,-0.01399170,0.00000397,0.00425130,0.00769044,-0.0000003
 0,-0.00326459,0.00901509,-0.00000030,-0.00187114,-0.00611471,0.0000000
 4,0.00344468,-0.00178125,-0.00000009,-0.00341314,-0.00326110,0.0000000
 8,-0.30387549,-0.15313146,0.00002059,0.00235509,-0.01843110,0.00000265
 ,0.70706894,-0.00258764,-0.00663959,-0.00000003,-0.00440729,0.02060866
 ,-0.00000084,0.00556843,-0.00207230,-0.00000025,-0.00131670,0.00513220
 ,0.00000004,-0.00057722,-0.00255257,0.00000002,0.00145438,-0.00075647,
 -0.00000018,-0.00036328,-0.00139300,-0.00000001,-0.08916040,-0.1980600
 8,0.00001863,-0.04825531,-0.05193327,0.00000779,-0.03375856,0.38517971
 ,0.00000124,0.00000135,0.00040856,0.00000249,-0.00000160,0.00670973,-0
 .00000119,-0.00000014,0.00289359,0.00000023,-0.00000126,0.00011417,0.0
 0000015,0.00000063,0.00027869,-0.00000016,0.00000027,-0.00022430,0.000
 00024,0.00000036,-0.00011621,0.00001220,0.00001800,-0.04971093,0.00000
 436,0.00000708,0.02323885,0.00001093,-0.00004912,0.02444340,-0.2477492
 7,-0.08563336,0.00000274,0.02079819,-0.01253501,-0.00000035,-0.0134811
 8,0.00187398,0.00000039,0.01131331,-0.00755655,0.00000015,0.00214640,0
 .01422837,-0.00000002,-0.05659311,-0.03484632,0.00000078,-0.00513624,-
 0.00194980,-0.00000027,-0.01772079,0.00375926,0.00000070,0.00211821,-0
 .00340067,0.00000024,0.00783825,0.00954377,-0.00000071,0.37976265,-0.1
 3551322,-0.19085165,0.00000158,-0.02631237,-0.04072091,0.00000010,-0.0
 0140905,-0.00382039,0.00000023,0.00650085,-0.00159233,0.00000017,0.004
 30994,0.00145554,-0.00000016,-0.00736779,0.00832558,0.00000022,-0.0051
 1556,-0.00206272,-0.00000021,-0.01747823,0.00433593,0.00000020,0.00179
 052,-0.00580180,0.00000063,0.01438380,-0.00238062,-0.00000069,0.005743
 46,0.65663990,0.00000223,0.00000059,-0.03928026,-0.00000010,0.00000016
 ,0.00336369,0.00000029,0.00000007,0.00224787,-0.00000010,0.00000018,-0
 .00084731,0.00000005,-0.00000024,0.00665104,0.00000086,0.00000047,0.01
 296484,-0.00000003,0.00000003,-0.00022974,0.00000006,-0.00000007,-0.00
 269783,0.,-0.00000032,0.00037751,0.00000005,0.00000018,0.00061578,-0.0
 0000505,0.00000288,0.02757601,-0.00410323,-0.00095711,0.00000022,0.005
 47411,-0.02251840,0.,-0.05856546,0.04001967,0.00000046,0.00149707,0.02
 859361,-0.00000013,-0.00564022,0.00093510,0.00000014,-0.00039043,-0.00
 067232,-0.00000007,0.00193487,-0.00046322,-0.00000007,0.00188110,-0.00
 358593,0.00000010,-0.00407066,0.00155024,-0.00000047,0.00031882,0.0004
 6879,-0.00000003,0.00042696,-0.00157858,0.,0.06102267,-0.00325652,0.00
 174305,0.,0.00245141,-0.01153441,0.,0.03946796,-0.33209417,0.00000023,
 -0.00058293,-0.00562451,0.00000010,0.00135507,-0.00049136,0.00000002,0
 .00107402,0.00056808,-0.00000002,-0.00112604,-0.00000572,-0.00000002,0
 .00069474,-0.00181374,0.00000004,0.00227139,0.00048405,-0.00000001,-0.
 00018913,-0.00000332,0.00000002,0.00075187,-0.00045001,0.00000001,-0.0
 4305532,0.34901669,0.00000008,0.00000010,0.00343242,0.00000015,0.00000
 036,0.00093156,0.00000047,0.00000019,-0.03181663,-0.00000027,-0.000000
 43,0.00782675,0.00000014,-0.00000007,0.00564144,0.00000007,-0.00000003
 ,-0.00043596,-0.00000003,0.00000006,-0.00333417,-0.00000006,0.00000013
 ,-0.00265491,-0.00000052,-0.00000010,0.00076043,0.00000009,-0.00000003
 ,-0.00010204,0.00000001,0.00000003,0.00073370,-0.00000029,-0.00000035,
 0.02089324,-0.00077172,-0.00349981,0.00000003,0.00051978,-0.00026232,0
 .,0.00106443,0.00052682,0.00000002,-0.00211593,-0.00258258,0.00000006,
 -0.28637760,0.09535154,0.00000128,-0.01681804,0.00961171,0.00000013,0.
 00261553,-0.00009291,-0.00000011,-0.00014535,0.00003988,0.,-0.00002877
 ,0.00002304,0.,0.00004575,0.00001766,-0.00000002,-0.00130153,0.0003090
 2,0.00000003,-0.00001952,-0.00006738,0.,0.30231429,-0.00323040,-0.0023
 2465,0.00000006,-0.00134748,-0.00035905,0.00000006,0.00021077,-0.00604
 997,0.00000003,0.02714304,-0.00495942,-0.00000019,0.09682801,-0.095227
 02,-0.00000034,-0.01855546,0.01004944,0.00000010,0.00076326,0.00253920
 ,-0.00000007,0.00044951,-0.00051502,-0.00000003,0.00003985,0.00033795,
 -0.00000002,-0.00025099,-0.00009467,0.00000002,-0.00116533,0.00041098,
 0.00000004,0.00143998,-0.00019417,-0.00000004,-0.10108802,0.09658582,0
 .00000008,0.00000013,0.00793825,0.,-0.00000008,-0.00031150,0.00000008,
 0.00000005,0.00440116,0.00000003,0.00000025,0.00601564,0.00000110,-0.0
 0000054,-0.03630048,0.00000035,-0.00000007,0.00474690,-0.00000024,0.00
 000004,-0.00238585,-0.00000003,0.00000003,-0.00085591,-0.00000008,0.,0
 .00036150,0.00000003,0.00000002,-0.00009975,0.00000002,-0.00000003,-0.
 00096179,0.,-0.00000004,-0.00117527,-0.00000146,0.00000020,0.02196787,
 -0.00256075,0.02747850,0.00000004,-0.00442836,0.00027080,0.00000011,-0
 .00099117,-0.00056096,0.,-0.00354483,-0.00195447,0.00000009,0.00673123
 ,-0.02460728,0.00000007,-0.06104602,0.04625529,0.00000024,-0.00002717,
 -0.00160366,0.00000003,0.00032720,0.00129905,0.00000002,-0.00055209,0.
 00019550,0.00000003,0.00011633,0.00006832,-0.00000003,0.00278882,0.001
 30475,-0.00000008,0.00009891,0.00004721,0.,0.00085374,-0.00010733,-0.0
 0000004,0.06316252,-0.00292221,-0.00802340,0.00000007,0.00169243,0.000
 76472,0.,0.00005251,0.00051410,-0.00000002,-0.00318711,0.00113860,0.00
 000001,0.00385530,-0.01452581,0.00000003,0.04591021,-0.31911263,0.0000
 0014,0.00010690,-0.00104262,0.00000004,-0.00059124,-0.00029628,0.00000
 002,0.00020762,-0.00009772,0.,0.00022311,0.00010867,-0.00000003,-0.000
 58915,0.00302163,0.,0.00003358,-0.00006239,0.,0.00021054,0.00083649,0.
 ,-0.04716612,0.33671780,0.00000020,-0.00000043,0.00358599,0.00000010,0
 .,0.00401943,0.,0.00000002,-0.00100960,0.00000016,0.00000003,0.0068992
 8,-0.00000005,0.00000038,0.00260820,0.00000009,0.00000022,-0.03064149,
 -0.00000004,0.00000006,0.00004305,0.,0.,0.00066627,0.,0.,-0.00012508,0
 .,0.,-0.00001234,-0.00000009,-0.00000001,-0.00350995,0.,0.,-0.00030986
 ,-0.00000002,-0.00000002,-0.00402523,-0.00000041,-0.00000021,0.0212788
 9,-0.00014603,-0.00024767,-0.00000003,-0.00012633,0.00062182,-0.000000
 09,-0.00126185,-0.00488762,0.00000031,-0.03239121,0.01547520,0.0000022
 7,0.00487791,0.00286324,-0.00000007,-0.00063604,0.00050282,-0.00000019
 ,-0.37780071,0.16291788,0.00003660,-0.00138218,0.00047902,0.00000004,0
 .00021483,-0.00073678,0.00000006,0.00075677,0.00035216,-0.00000010,0.0
 0068438,0.00055159,0.00000003,0.00028405,-0.00004190,0.00000003,0.0000
 6891,-0.00129905,0.00000014,0.00026163,0.00020742,0.,0.40698353,-0.000
 03934,0.00054338,0.00000008,0.00026743,0.00064688,-0.00000020,-0.00452
 015,-0.00298534,0.00000002,-0.03181719,0.00797619,0.00000288,-0.003911
 22,0.00203559,0.00000009,0.00046829,-0.00046935,-0.00000004,0.21614528
 ,-0.14397834,-0.00002418,-0.00075885,0.00006546,-0.00000005,0.00012767
 ,-0.00030838,0.00000002,0.00014831,0.00010939,-0.00000002,-0.00007375,
 -0.00038690,-0.00000002,-0.00036539,0.00007859,0.00000004,0.00126665,-
 0.00121073,0.00000002,0.00004076,0.00006388,-0.00000003,-0.17673455,0.
 13777257,-0.00000008,0.00000006,0.00023616,-0.00000040,-0.00000009,0.0
 0210294,0.00000003,-0.00000028,0.00202586,-0.00000204,-0.00000070,-0.0
 0505943,-0.00000028,-0.00000022,-0.00030907,0.00000012,-0.00000009,-0.
 00067389,0.00004158,-0.00002024,-0.00252370,0.00000003,-0.00000006,0.0
 0037500,-0.00000002,0.00000001,-0.00004106,0.,0.00000003,-0.00019972,0
 .00000008,0.00000009,-0.00009185,0.00000001,0.,-0.00084238,0.00000005,
 0.00000019,0.00036982,-0.00000004,-0.00000004,0.00000622,-0.00003903,0
 .00002134,0.00460613,-0.00012689,0.00148735,-0.00000003,0.00447298,-0.
 00251875,0.00000076,-0.00107473,-0.00044452,0.00000002,0.00026497,-0.0
 0090534,-0.00000010,0.00007537,0.00039410,0.,0.00018552,0.00046058,-0.
 00000004,0.00030936,0.00037031,0.,-0.00428871,-0.00283023,-0.00000055,
 -0.41990639,0.16352861,0.00004562,0.00114174,-0.00484634,0.00000035,-0
 .00058834,-0.00077766,-0.00000008,0.00024684,0.00040220,0.00000012,-0.
 00000359,0.00005811,0.00000001,-0.00003983,-0.00001620,0.00000001,-0.0
 0011059,-0.00003862,0.,0.41865057,0.00149352,-0.00054496,0.00000032,-0
 .00454219,-0.00414894,0.00000087,-0.00074733,0.00035293,-0.00000033,0.
 00030855,0.00139344,-0.00000002,-0.00031885,-0.00044702,0.,-0.00008223
 ,-0.00066430,-0.00000009,-0.00059597,-0.00054597,0.,0.04801863,-0.0235
 6365,-0.00000443,0.11397817,-0.08426965,-0.00001033,-0.00091229,0.0050
 4136,0.00000025,0.00025016,0.00075145,0.,0.00050522,0.00050761,0.00000
 009,-0.00001012,0.00001596,0.00000002,0.00012736,-0.00001463,-0.000000
 01,0.00013563,0.00004425,0.,-0.15360170,0.10913048,-0.00000030,0.00000
 076,0.00231063,0.00000122,0.00000075,0.00405912,-0.00000030,-0.0000002
 1,-0.00110035,-0.00000005,-0.00000018,0.00031001,0.,-0.00000007,0.0001
 2385,0.00000022,0.00000023,-0.00065499,0.00000004,0.00000006,-0.000074
 46,-0.00000521,0.00000341,-0.00478076,0.00005044,-0.00001817,-0.003388
 68,0.00000009,0.00000005,-0.00386143,-0.00000022,-0.00000032,0.0001621
 7,0.00000018,0.,-0.00022806,0.,0.00000001,-0.00003756,-0.00000004,0.,-
 0.00007566,-0.00000002,-0.00000001,0.00005924,-0.00004591,0.00001406,0
 .00492679,0.00102346,0.00229656,-0.00000019,0.00354362,-0.00740408,0.0
 0000005,-0.00177733,0.00089174,0.00000027,0.00014452,-0.00223122,0.000
 00007,0.00029151,0.00077076,-0.00000002,-0.00020600,0.00025516,0.,0.00
 038488,0.00072452,0.,-0.03957516,0.02095594,-0.00000254,0.00652402,0.0
 0377793,-0.00000018,-0.34731497,0.16656560,-0.00003011,-0.00129173,-0.
 00067537,0.00000013,-0.00012285,-0.00006031,-0.00000002,-0.00000489,0.
 00004695,0.,0.00000453,-0.00000781,0.,-0.00019275,-0.00007874,-0.00000
 003,0.00080733,-0.00389316,-0.00000012,0.37764610,-0.00135867,-0.00112
 913,0.00000002,-0.00341926,-0.00132647,0.00000107,-0.00019451,0.000515
 72,0.00000014,-0.00033039,0.00038748,-0.00000007,-0.00009875,-0.000306
 08,-0.00000002,0.00030641,-0.00010514,0.00000001,-0.00005694,-0.000105
 47,0.,-0.03112415,0.00951013,-0.00000268,-0.00079363,0.00052616,0.0000
 0032,0.21841616,-0.14905850,0.00002473,0.00104141,-0.00141852,-0.00000
 019,-0.00003680,-0.00000339,0.00000005,0.00001249,-0.00001173,0.,0.000
 00441,0.00002006,0.,0.00000947,0.00000408,0.,-0.00094767,-0.00285469,-
 0.00000046,-0.18210185,0.14537182,-0.00000041,-0.00000034,-0.00151567,
 0.00000005,0.00000164,0.00533044,0.00000064,-0.00000008,0.00186726,-0.
 00000007,0.00000051,-0.00036605,-0.00000005,-0.00000017,0.00002506,-0.
 00000002,-0.00000013,-0.00016753,-0.00000004,-0.00000017,-0.00016203,0
 .00000585,-0.00000179,-0.00437222,-0.00000008,-0.00000001,-0.00444352,
 -0.00003853,0.00002387,-0.00473605,0.00000016,0.00000007,0.00034189,-0
 .00000004,0.,0.00022721,0.,-0.00000001,0.00008707,0.00000001,0.,0.0000
 0781,0.00000004,0.00000003,-0.00005991,-0.00000025,-0.00000039,0.00237
 074,0.00003273,-0.00002293,0.00552428,0.00531441,-0.04086485,-0.000000
 32,-0.00393401,-0.00299460,0.00000014,0.00053868,-0.00072054,0.0000000
 3,0.00036332,-0.00015961,0.,-0.00027084,0.00071762,-0.00000002,0.00069
 675,-0.00390579,-0.00000004,-0.00014135,0.00025151,-0.00000002,-0.0015
 9577,-0.00078793,0.00000005,0.00021624,0.00009618,-0.00000009,-0.00062
 253,0.00123362,0.00000016,-0.08401495,0.16133390,0.00000172,-0.0002730
 6,-0.00013635,0.00000003,0.00010452,0.00006459,0.00000002,-0.00115470,
 0.00198022,0.,-0.00008432,-0.00012658,0.00000002,-0.00001561,-0.000113
 42,0.,0.00011569,0.00067229,-0.00000002,0.08475751,0.00458523,-0.03154
 680,-0.00000021,-0.00612182,0.00240701,0.00000012,0.00282138,-0.000949
 73,-0.00000007,-0.00219192,0.00135394,0.,-0.00032975,-0.00257232,0.000
 00003,0.00571512,0.00563059,-0.00000009,0.00104504,0.00041306,0.000000
 04,0.00290636,-0.00080490,-0.00000008,-0.00039217,0.00134676,-0.000000
 12,-0.00110791,-0.00123560,0.00000014,0.11055765,-0.42545516,-0.000003
 79,-0.00031311,-0.00012089,0.,0.00023379,0.00017057,0.,-0.00109211,-0.
 00001048,0.,-0.00016865,-0.00000122,-0.00000001,0.00022575,-0.00018368
 ,0.00000007,0.00016738,-0.00001630,-0.00000008,-0.11654025,0.45157514,
 0.00000003,0.00000055,-0.00246221,-0.00000008,0.00000014,0.00335008,-0
 .00000001,-0.00000003,0.00113813,0.,-0.00000004,-0.00017423,0.,0.,-0.0
 0056129,-0.00000001,0.00000007,-0.00220649,0.,0.,-0.00005436,0.0000001
 5,0.00000004,-0.00007270,-0.00000005,0.00000018,-0.00044585,0.00000021
 ,-0.00000017,0.00036001,0.00000143,-0.00000477,-0.00741576,-0.00000001
 ,0.00000002,0.00045254,0.,0.,0.00026512,0.00000001,-0.00000003,0.00059
 406,0.,0.,0.00001966,0.00000005,-0.00000003,-0.00012059,-0.00000005,0.
 ,0.00004122,-0.00000166,0.00000407,0.00729265\\0.00003450,-0.00009222,
 -0.00000003,-0.00015050,0.00006212,-0.00000006,0.00002764,0.00002752,0
 .00000020,0.00003002,-0.00001522,0.00000046,0.00005865,0.00007143,-0.0
 0000031,-0.00008862,-0.00006918,0.00000004,0.00001781,-0.00003983,-0.0
 0000100,0.00003110,-0.00004076,-0.00000007,-0.00006188,0.00000808,0.,-
 0.00003881,0.00004315,0.00000001,0.00007476,-0.00000348,0.00000004,-0.
 00000401,0.00001095,0.00000007,-0.00000172,-0.00000550,0.,0.00001997,0
 .00001327,0.00000001,-0.00006575,0.00003511,0.00000065,0.00007273,-0.0
 0002575,0.00000001,0.00006770,-0.00004092,0.,-0.00002359,0.00006120,-0
 .00000003\\\@


 CHINESE FORTUNE COOKIE OF JAN 1 1967 SAY....
 ALL THINGS ARE DIFFICULT BEFORE THEY ARE EASY.
 WE LEARN SO LITTLE AND FORGET SO MUCH.
 YOU WILL OVERCOME OBSTACLES TO ACHIEVE SUCCESS.
 AH SO.
 Job cpu time:       0 days  0 hours 23 minutes 31.6 seconds.
 File lengths (MBytes):  RWF=    115 Int=      0 D2E=      0 Chk=      6 Scr=      1
 Normal termination of Gaussian 09 at Mon May 20 13:37:57 2024.
