 Entering Gaussian System, Link 0=g09
 Input=lwpbeDHB.gjf
 Output=lwpbeDHB.log
 Initial command:
 /home/phzd/g09E/g09/l1.exe "/home/phzd/g09E/scratch/Gau-535676.inp" -scrdir="/home/phzd/g09E/scratch/"
 Default is to use a total of  18 processors:
                               18 via shared-memory
                                1 via Linda
 Entering Link 1 = /home/phzd/g09E/g09/l1.exe PID=    535678.
  
 Copyright (c) 1988,1990,1992,1993,1995,1998,2003,2009,2015,
            Gaussian, Inc.  All Rights Reserved.
  
 This is part of the Gaussian(R) 09 program.  It is based on
 the Gaussian(R) 03 system (copyright 2003, Gaussian, Inc.),
 the Gaussian(R) 98 system (copyright 1998, Gaussian, Inc.),
 the Gaussian(R) 94 system (copyright 1995, Gaussian, Inc.),
 the Gaussian 92(TM) system (copyright 1992, Gaussian, Inc.),
 the Gaussian 90(TM) system (copyright 1990, Gaussian, Inc.),
 the Gaussian 88(TM) system (copyright 1988, Gaussian, Inc.),
 the Gaussian 86(TM) system (copyright 1986, Carnegie Mellon
 University), and the Gaussian 82(TM) system (copyright 1983,
 Carnegie Mellon University). Gaussian is a federally registered
 trademark of Gaussian, Inc.
  
 This software contains proprietary and confidential information,
 including trade secrets, belonging to Gaussian, Inc.
  
 This software is provided under written license and may be
 used, copied, transmitted, or stored only in accord with that
 written license.
  
 The following legend is applicable only to US Government
 contracts under FAR:
  
                    RESTRICTED RIGHTS LEGEND
  
 Use, reproduction and disclosure by the US Government is
 subject to restrictions as set forth in subparagraphs (a)
 and (c) of the Commercial Computer Software - Restricted
 Rights clause in FAR 52.227-19.
  
 Gaussian, Inc.
 340 Quinnipiac St., Bldg. 40, Wallingford CT 06492
  
  
 ---------------------------------------------------------------
 Warning -- This program may not be used in any manner that
 competes with the business of Gaussian, Inc. or will provide
 assistance to any competitor of Gaussian, Inc.  The licensee
 of this program is prohibited from giving any competitor of
 Gaussian, Inc. access to this program.  By using this program,
 the user acknowledges that Gaussian, Inc. is engaged in the
 business of creating and licensing software in the field of
 computational chemistry and represents and warrants to the
 licensee that it is not a competitor of Gaussian, Inc. and that
 it will not use this program in any manner prohibited above.
 ---------------------------------------------------------------
  

 Cite this work as:
 Gaussian 09, Revision E.01,
 M. J. Frisch, G. W. Trucks, H. B. Schlegel, G. E. Scuseria, 
 M. A. Robb, J. R. Cheeseman, G. Scalmani, V. Barone, B. Mennucci, 
 G. A. Petersson, H. Nakatsuji, M. Caricato, X. Li, H. P. Hratchian, 
 A. F. Izmaylov, J. Bloino, G. Zheng, J. L. Sonnenberg, M. Hada, 
 M. Ehara, K. Toyota, R. Fukuda, J. Hasegawa, M. Ishida, T. Nakajima, 
 Y. Honda, O. Kitao, H. Nakai, T. Vreven, J. A. Montgomery, Jr., 
 J. E. Peralta, F. Ogliaro, M. Bearpark, J. J. Heyd, E. Brothers, 
 K. N. Kudin, V. N. Staroverov, T. Keith, R. Kobayashi, J. Normand, 
 K. Raghavachari, A. Rendell, J. C. Burant, S. S. Iyengar, J. Tomasi, 
 M. Cossi, N. Rega, J. M. Millam, M. Klene, J. E. Knox, J. B. Cross, 
 V. Bakken, C. Adamo, J. Jaramillo, R. Gomperts, R. E. Stratmann, 
 O. Yazyev, A. J. Austin, R. Cammi, C. Pomelli, J. W. Ochterski, 
 R. L. Martin, K. Morokuma, V. G. Zakrzewski, G. A. Voth, 
 P. Salvador, J. J. Dannenberg, S. Dapprich, A. D. Daniels, 
 O. Farkas, J. B. Foresman, J. V. Ortiz, J. Cioslowski, 
 and D. J. Fox, Gaussian, Inc., Wallingford CT, 2013.
 
 ******************************************
 Gaussian 09:  ES64L-G09RevE.01 30-Nov-2015
                20-May-2024 
 ******************************************
 %chk=lwpbeDHB.chk
 -----------------------------
 # opt freq pbepbe/6-31+g(d,p)
 -----------------------------
 1/14=-1,18=20,19=15,26=3,38=1/1,3;
 2/9=110,12=2,17=6,18=5,40=1/2;
 3/5=1,6=6,7=111,11=2,16=1,25=1,30=1,71=1,74=1009/1,2,3;
 4//1;
 5/5=2,38=5/2;
 6/7=2,8=2,9=2,10=2,28=1/1;
 7//1,2,3,16;
 1/14=-1,18=20,19=15,26=3/3(2);
 2/9=110/2;
 99//99;
 2/9=110/2;
 3/5=1,6=6,7=111,11=2,16=1,25=1,30=1,71=1,74=1009/1,2,3;
 4/5=5,16=3,69=1/1;
 5/5=2,38=5/2;
 7//1,2,3,16;
 1/14=-1,18=20,19=15,26=3/3(-5);
 2/9=110/2;
 6/7=2,8=2,9=2,10=2,19=2,28=1/1;
 99/9=1/99;
 ----------
 [No Title]
 ----------
 Symbolic Z-matrix:
 Charge =  0 Multiplicity = 1
 C                     0.23182   1.26855   0.00005 
 C                     0.46365  -0.11791   0.00005 
 C                    -0.62657  -0.99348   0.00003 
 C                    -1.92784  -0.51946  -0.00002 
 C                    -2.15553   0.85313  -0.00004 
 C                    -1.08277   1.73286   0.00001 
 O                    -2.93835  -1.44224  -0.00012 
 C                     1.84098  -0.67091   0.00007 
 O                     1.84971  -2.02788   0.00016 
 O                     2.87126  -0.04028  -0.0003 
 O                     1.27885   2.12974   0.00009 
 H                    -0.45475  -2.06166   0.00005 
 H                    -3.17002   1.24272  -0.00011 
 H                    -1.26786   2.80354   0.00001 
 H                    -3.7959   -1.00249   0.00036 
 H                     2.78295  -2.29048  0. 
 H                     0.95138   3.03697   0.00012 
 

 GradGradGradGradGradGradGradGradGradGradGradGradGradGradGradGradGradGrad
 Berny optimization.
 Initialization pass.
                           ----------------------------
                           !    Initial Parameters    !
                           ! (Angstroms and Degrees)  !
 --------------------------                            --------------------------
 ! Name  Definition              Value          Derivative Info.                !
 --------------------------------------------------------------------------------
 ! R1    R(1,2)                  1.4057         estimate D2E/DX2                !
 ! R2    R(1,6)                  1.3942         estimate D2E/DX2                !
 ! R3    R(1,11)                 1.3557         estimate D2E/DX2                !
 ! R4    R(2,3)                  1.3983         estimate D2E/DX2                !
 ! R5    R(2,8)                  1.4842         estimate D2E/DX2                !
 ! R6    R(3,4)                  1.3849         estimate D2E/DX2                !
 ! R7    R(3,12)                 1.0819         estimate D2E/DX2                !
 ! R8    R(4,5)                  1.3913         estimate D2E/DX2                !
 ! R9    R(4,7)                  1.3684         estimate D2E/DX2                !
 ! R10   R(5,6)                  1.3874         estimate D2E/DX2                !
 ! R11   R(5,13)                 1.0867         estimate D2E/DX2                !
 ! R12   R(6,14)                 1.0866         estimate D2E/DX2                !
 ! R13   R(7,15)                 0.9637         estimate D2E/DX2                !
 ! R14   R(8,9)                  1.357          estimate D2E/DX2                !
 ! R15   R(8,10)                 1.208          estimate D2E/DX2                !
 ! R16   R(9,16)                 0.9695         estimate D2E/DX2                !
 ! R17   R(11,17)                0.9645         estimate D2E/DX2                !
 ! A1    A(2,1,6)              118.9457         estimate D2E/DX2                !
 ! A2    A(2,1,11)             119.9454         estimate D2E/DX2                !
 ! A3    A(6,1,11)             121.1089         estimate D2E/DX2                !
 ! A4    A(1,2,3)              119.276          estimate D2E/DX2                !
 ! A5    A(1,2,8)              121.3682         estimate D2E/DX2                !
 ! A6    A(3,2,8)              119.3558         estimate D2E/DX2                !
 ! A7    A(2,3,4)              121.2162         estimate D2E/DX2                !
 ! A8    A(2,3,12)             119.6309         estimate D2E/DX2                !
 ! A9    A(4,3,12)             119.1529         estimate D2E/DX2                !
 ! A10   A(3,4,5)              119.4339         estimate D2E/DX2                !
 ! A11   A(3,4,7)              117.5826         estimate D2E/DX2                !
 ! A12   A(5,4,7)              122.9835         estimate D2E/DX2                !
 ! A13   A(4,5,6)              119.9354         estimate D2E/DX2                !
 ! A14   A(4,5,13)             120.4265         estimate D2E/DX2                !
 ! A15   A(6,5,13)             119.6381         estimate D2E/DX2                !
 ! A16   A(1,6,5)              121.1929         estimate D2E/DX2                !
 ! A17   A(1,6,14)             119.2609         estimate D2E/DX2                !
 ! A18   A(5,6,14)             119.5462         estimate D2E/DX2                !
 ! A19   A(4,7,15)             110.4493         estimate D2E/DX2                !
 ! A20   A(2,8,9)              112.2441         estimate D2E/DX2                !
 ! A21   A(2,8,10)             126.6536         estimate D2E/DX2                !
 ! A22   A(9,8,10)             121.1023         estimate D2E/DX2                !
 ! A23   A(8,9,16)             106.0845         estimate D2E/DX2                !
 ! A24   A(1,11,17)            109.5906         estimate D2E/DX2                !
 ! D1    D(6,1,2,3)             -0.0003         estimate D2E/DX2                !
 ! D2    D(6,1,2,8)            179.9994         estimate D2E/DX2                !
 ! D3    D(11,1,2,3)           179.9988         estimate D2E/DX2                !
 ! D4    D(11,1,2,8)            -0.0015         estimate D2E/DX2                !
 ! D5    D(2,1,6,5)             -0.0012         estimate D2E/DX2                !
 ! D6    D(2,1,6,14)           179.9999         estimate D2E/DX2                !
 ! D7    D(11,1,6,5)           179.9998         estimate D2E/DX2                !
 ! D8    D(11,1,6,14)            0.0008         estimate D2E/DX2                !
 ! D9    D(2,1,11,17)         -179.9976         estimate D2E/DX2                !
 ! D10   D(6,1,11,17)            0.0014         estimate D2E/DX2                !
 ! D11   D(1,2,3,4)              0.001          estimate D2E/DX2                !
 ! D12   D(1,2,3,12)          -179.9989         estimate D2E/DX2                !
 ! D13   D(8,2,3,4)           -179.9987         estimate D2E/DX2                !
 ! D14   D(8,2,3,12)             0.0014         estimate D2E/DX2                !
 ! D15   D(1,2,8,9)            179.996          estimate D2E/DX2                !
 ! D16   D(1,2,8,10)            -0.0229         estimate D2E/DX2                !
 ! D17   D(3,2,8,9)             -0.0042         estimate D2E/DX2                !
 ! D18   D(3,2,8,10)           179.9768         estimate D2E/DX2                !
 ! D19   D(2,3,4,5)             -0.0003         estimate D2E/DX2                !
 ! D20   D(2,3,4,7)            179.9967         estimate D2E/DX2                !
 ! D21   D(12,3,4,5)           179.9996         estimate D2E/DX2                !
 ! D22   D(12,3,4,7)            -0.0034         estimate D2E/DX2                !
 ! D23   D(3,4,5,6)             -0.0011         estimate D2E/DX2                !
 ! D24   D(3,4,5,13)           179.9985         estimate D2E/DX2                !
 ! D25   D(7,4,5,6)           -179.998          estimate D2E/DX2                !
 ! D26   D(7,4,5,13)             0.0017         estimate D2E/DX2                !
 ! D27   D(3,4,7,15)           179.9682         estimate D2E/DX2                !
 ! D28   D(5,4,7,15)            -0.035          estimate D2E/DX2                !
 ! D29   D(4,5,6,1)              0.0019         estimate D2E/DX2                !
 ! D30   D(4,5,6,14)          -179.9992         estimate D2E/DX2                !
 ! D31   D(13,5,6,1)          -179.9978         estimate D2E/DX2                !
 ! D32   D(13,5,6,14)            0.0012         estimate D2E/DX2                !
 ! D33   D(2,8,9,16)           179.9892         estimate D2E/DX2                !
 ! D34   D(10,8,9,16)            0.007          estimate D2E/DX2                !
 --------------------------------------------------------------------------------
 Trust Radius=3.00D-01 FncErr=1.00D-07 GrdErr=1.00D-06
 Number of steps in this run=     85 maximum allowed number of steps=    102.
 GradGradGradGradGradGradGradGradGradGradGradGradGradGradGradGradGradGrad

                          Input orientation:                          
 ---------------------------------------------------------------------
 Center     Atomic      Atomic             Coordinates (Angstroms)
 Number     Number       Type             X           Y           Z
 ---------------------------------------------------------------------
      1          6           0        0.231821    1.268546    0.000045
      2          6           0        0.463648   -0.117907    0.000050
      3          6           0       -0.626567   -0.993476    0.000026
      4          6           0       -1.927841   -0.519457   -0.000024
      5          6           0       -2.155527    0.853126   -0.000044
      6          6           0       -1.082767    1.732857    0.000010
      7          8           0       -2.938346   -1.442241   -0.000115
      8          6           0        1.840981   -0.670913    0.000074
      9          8           0        1.849706   -2.027878    0.000162
     10          8           0        2.871257   -0.040283   -0.000296
     11          8           0        1.278848    2.129744    0.000093
     12          1           0       -0.454754   -2.061655    0.000048
     13          1           0       -3.170023    1.242717   -0.000107
     14          1           0       -1.267855    2.803539    0.000008
     15          1           0       -3.795901   -1.002488    0.000359
     16          1           0        2.782945   -2.290483   -0.000004
     17          1           0        0.951379    3.036972    0.000120
 ---------------------------------------------------------------------
                    Distance matrix (angstroms):
                    1          2          3          4          5
     1  C    0.000000
     2  C    1.405701   0.000000
     3  C    2.419416   1.398281   0.000000
     4  C    2.803764   2.424966   1.384922   0.000000
     5  C    2.423222   2.793382   2.397427   1.391339   0.000000
     6  C    1.394176   2.411789   2.764238   2.405633   1.387350
     7  O    4.171130   3.650674   2.354934   1.368448   2.425184
     8  C    2.520099   1.484204   2.488542   3.771864   4.277239
     9  O    3.672052   2.359904   2.683638   4.067579   4.933769
    10  O    2.946126   2.408860   3.625376   4.822961   5.105559
    11  O    1.355702   2.390917   3.658567   4.159462   3.663971
    12  H    3.400239   2.149795   1.081909   2.132688   3.374697
    13  H    3.401942   3.880060   3.386699   2.155985   1.086731
    14  H    2.145980   3.396020   3.850789   3.387903   2.142912
    15  H    4.623866   4.350430   3.169347   1.929499   2.476718
    16  H    4.378918   3.177928   3.647876   5.032697   5.854125
    17  H    1.909213   3.192357   4.328328   4.575816   3.797637
                    6          7          8          9         10
     6  C    0.000000
     7  O    3.677556   0.000000
     8  C    3.785025   4.841169   0.000000
     9  O    4.768912   4.823734   1.356993   0.000000
    10  O    4.333397   5.976368   1.207958   2.234748   0.000000
    11  O    2.394733   5.526645   2.856514   4.196630   2.691614
    12  H    3.846131   2.559669   2.684132   2.304708   3.892081
    13  H    2.144032   2.694935   5.363967   5.991199   6.176014
    14  H    1.086562   4.562586   4.662261   5.749937   5.021909
    15  H    3.852688   0.963734   5.646626   5.737970   6.736233
    16  H    5.579516   5.783830   1.873580   0.969483   2.251932
    17  H    2.416292   5.932395   3.813109   5.143899   3.627042
                   11         12         13         14         15
    11  O    0.000000
    12  H    4.535769   0.000000
    13  H    4.536438   4.276863   0.000000
    14  H    2.634330   4.932671   2.460571   0.000000
    15  H    5.963552   3.505010   2.330809   4.569120   0.000000
    16  H    4.669124   3.245775   6.922523   6.508306   6.703741
    17  H    0.964520   5.288970   4.495031   2.231477   6.233290
                   16         17
    16  H    0.000000
    17  H    5.633508   0.000000
 Stoichiometry    C7H6O4
 Framework group  C1[X(C7H6O4)]
 Deg. of freedom    45
 Full point group                 C1      NOp   1
 Largest Abelian subgroup         C1      NOp   1
 Largest concise Abelian subgroup C1      NOp   1
                         Standard orientation:                         
 ---------------------------------------------------------------------
 Center     Atomic      Atomic             Coordinates (Angstroms)
 Number     Number       Type             X           Y           Z
 ---------------------------------------------------------------------
      1          6           0        0.231821    1.268546    0.000045
      2          6           0        0.463648   -0.117907    0.000050
      3          6           0       -0.626567   -0.993476    0.000026
      4          6           0       -1.927841   -0.519457   -0.000024
      5          6           0       -2.155527    0.853126   -0.000044
      6          6           0       -1.082767    1.732857    0.000010
      7          8           0       -2.938346   -1.442240   -0.000115
      8          6           0        1.840981   -0.670913    0.000074
      9          8           0        1.849706   -2.027878    0.000162
     10          8           0        2.871257   -0.040283   -0.000296
     11          8           0        1.278848    2.129744    0.000093
     12          1           0       -0.454754   -2.061655    0.000048
     13          1           0       -3.170023    1.242718   -0.000107
     14          1           0       -1.267855    2.803539    0.000008
     15          1           0       -3.795901   -1.002487    0.000359
     16          1           0        2.782945   -2.290483   -0.000004
     17          1           0        0.951379    3.036972    0.000120
 ---------------------------------------------------------------------
 Rotational constants (GHZ):      1.7698998      0.9204408      0.6055322
 Standard basis: 6-31+G(d,p) (6D, 7F)
 There are   239 symmetry adapted cartesian basis functions of A   symmetry.
 There are   239 symmetry adapted basis functions of A   symmetry.
   239 basis functions,   394 primitive gaussians,   239 cartesian basis functions
    40 alpha electrons       40 beta electrons
       nuclear repulsion energy       591.8166198815 Hartrees.
 NAtoms=   17 NActive=   17 NUniq=   17 SFac= 1.00D+00 NAtFMM=   60 NAOKFM=F Big=F
 Integral buffers will be    131072 words long.
 Raffenetti 2 integral format.
 Two-electron integral symmetry is turned on.
 One-electron integrals computed using PRISM.
 NBasis=   239 RedAO= T EigKep=  3.11D-06  NBF=   239
 NBsUse=   239 1.00D-06 EigRej= -1.00D+00 NBFU=   239
 ExpMin= 4.38D-02 ExpMax= 5.48D+03 ExpMxC= 8.25D+02 IAcc=2 IRadAn=         4 AccDes= 0.00D+00
 Harris functional with IExCor= 1009 and IRadAn=       4 diagonalized for initial guess.
 HarFok:  IExCor= 1009 AccDes= 0.00D+00 IRadAn=         4 IDoV= 1 UseB2=F ITyADJ=14
 ICtDFT=  3500011 ScaDFX=  1.000000  1.000000  1.000000  1.000000
 FoFCou: FMM=F IPFlag=           0 FMFlag=      100000 FMFlg1=           0
         NFxFlg=           0 DoJE=T BraDBF=F KetDBF=T FulRan=T
         wScrn=  0.000000 ICntrl=     500 IOpCl=  0 I1Cent=   200000004 NGrid=           0
         NMat0=    1 NMatS0=      1 NMatT0=    0 NMatD0=    1 NMtDS0=    0 NMtDT0=    0
 Petite list used in FoFCou.
 Keep J ints in memory in canonical form, NReq=418393415.
 Requested convergence on RMS density matrix=1.00D-08 within 128 cycles.
 Requested convergence on MAX density matrix=1.00D-06.
 Requested convergence on             energy=1.00D-06.
 No special actions if energy rises.
 EnCoef did     2 forward-backward iterations
 SCF Done:  E(RPBE-PBE) =  -570.658707350     A.U. after   15 cycles
            NFock= 15  Conv=0.75D-08     -V/T= 2.0085

 **********************************************************************

            Population analysis using the SCF density.

 **********************************************************************

 Orbital symmetries:
       Occupied  (A) (A) (A) (A) (A) (A) (A) (A) (A) (A) (A) (A)
                 (A) (A) (A) (A) (A) (A) (A) (A) (A) (A) (A) (A)
                 (A) (A) (A) (A) (A) (A) (A) (A) (A) (A) (A) (A)
                 (A) (A) (A) (A)
       Virtual   (A) (A) (A) (A) (A) (A) (A) (A) (A) (A) (A) (A)
                 (A) (A) (A) (A) (A) (A) (A) (A) (A) (A) (A) (A)
                 (A) (A) (A) (A) (A) (A) (A) (A) (A) (A) (A) (A)
                 (A) (A) (A) (A) (A) (A) (A) (A) (A) (A) (A) (A)
                 (A) (A) (A) (A) (A) (A) (A) (A) (A) (A) (A) (A)
                 (A) (A) (A) (A) (A) (A) (A) (A) (A) (A) (A) (A)
                 (A) (A) (A) (A) (A) (A) (A) (A) (A) (A) (A) (A)
                 (A) (A) (A) (A) (A) (A) (A) (A) (A) (A) (A) (A)
                 (A) (A) (A) (A) (A) (A) (A) (A) (A) (A) (A) (A)
                 (A) (A) (A) (A) (A) (A) (A) (A) (A) (A) (A) (A)
                 (A) (A) (A) (A) (A) (A) (A) (A) (A) (A) (A) (A)
                 (A) (A) (A) (A) (A) (A) (A) (A) (A) (A) (A) (A)
                 (A) (A) (A) (A) (A) (A) (A) (A) (A) (A) (A) (A)
                 (A) (A) (A) (A) (A) (A) (A) (A) (A) (A) (A) (A)
                 (A) (A) (A) (A) (A) (A) (A) (A) (A) (A) (A) (A)
                 (A) (A) (A) (A) (A) (A) (A) (A) (A) (A) (A) (A)
                 (A) (A) (A) (A) (A) (A) (A)
 The electronic state is 1-A.
 Alpha  occ. eigenvalues --  -18.82316 -18.82219 -18.82174 -18.76420 -10.02521
 Alpha  occ. eigenvalues --   -9.97933  -9.97167  -9.92935  -9.92754  -9.92417
 Alpha  occ. eigenvalues --   -9.91563  -1.01971  -0.99265  -0.98825  -0.92868
 Alpha  occ. eigenvalues --   -0.79658  -0.71438  -0.68571  -0.61505  -0.58678
 Alpha  occ. eigenvalues --   -0.55914  -0.51022  -0.50435  -0.45525  -0.43949
 Alpha  occ. eigenvalues --   -0.42205  -0.40848  -0.40277  -0.38723  -0.37852
 Alpha  occ. eigenvalues --   -0.36749  -0.35646  -0.34467  -0.32637  -0.31841
 Alpha  occ. eigenvalues --   -0.28164  -0.27698  -0.24811  -0.22551  -0.19411
 Alpha virt. eigenvalues --   -0.08304  -0.03335  -0.02721  -0.02229  -0.00586
 Alpha virt. eigenvalues --    0.00569   0.01262   0.03026   0.03908   0.04154
 Alpha virt. eigenvalues --    0.05153   0.06704   0.07068   0.07400   0.07956
 Alpha virt. eigenvalues --    0.09428   0.10941   0.10966   0.12164   0.12267
 Alpha virt. eigenvalues --    0.12860   0.13052   0.13878   0.14527   0.15389
 Alpha virt. eigenvalues --    0.15702   0.16666   0.16720   0.17138   0.17599
 Alpha virt. eigenvalues --    0.18478   0.19087   0.20400   0.20925   0.21298
 Alpha virt. eigenvalues --    0.21668   0.22795   0.23186   0.23902   0.24774
 Alpha virt. eigenvalues --    0.24916   0.25365   0.25713   0.27208   0.27290
 Alpha virt. eigenvalues --    0.28214   0.28616   0.28903   0.29436   0.30232
 Alpha virt. eigenvalues --    0.31019   0.31819   0.33641   0.34535   0.35788
 Alpha virt. eigenvalues --    0.36704   0.37540   0.38784   0.40068   0.41640
 Alpha virt. eigenvalues --    0.43963   0.47396   0.48535   0.55740   0.57948
 Alpha virt. eigenvalues --    0.60605   0.62992   0.64200   0.66388   0.67929
 Alpha virt. eigenvalues --    0.68966   0.69885   0.70769   0.72015   0.73605
 Alpha virt. eigenvalues --    0.75200   0.79136   0.79873   0.81147   0.81979
 Alpha virt. eigenvalues --    0.88905   0.89433   0.94115   0.95249   0.96767
 Alpha virt. eigenvalues --    0.99058   1.01090   1.03530   1.04539   1.09163
 Alpha virt. eigenvalues --    1.09863   1.12150   1.12187   1.12246   1.14564
 Alpha virt. eigenvalues --    1.14803   1.16240   1.17873   1.18196   1.19448
 Alpha virt. eigenvalues --    1.20941   1.22653   1.24764   1.25243   1.26753
 Alpha virt. eigenvalues --    1.27175   1.29250   1.31216   1.31457   1.31952
 Alpha virt. eigenvalues --    1.32761   1.34353   1.35108   1.36645   1.38988
 Alpha virt. eigenvalues --    1.42004   1.44623   1.50477   1.51051   1.52750
 Alpha virt. eigenvalues --    1.53530   1.62675   1.64621   1.67181   1.69417
 Alpha virt. eigenvalues --    1.71117   1.73580   1.77595   1.79953   1.80147
 Alpha virt. eigenvalues --    1.81481   1.82586   1.82621   1.84067   1.86369
 Alpha virt. eigenvalues --    1.87182   1.92175   1.94694   1.97790   1.98675
 Alpha virt. eigenvalues --    2.00186   2.03131   2.06830   2.15423   2.16831
 Alpha virt. eigenvalues --    2.18423   2.24082   2.25392   2.26771   2.28992
 Alpha virt. eigenvalues --    2.31568   2.32558   2.34478   2.38358   2.40473
 Alpha virt. eigenvalues --    2.41954   2.43442   2.45006   2.47284   2.47974
 Alpha virt. eigenvalues --    2.51033   2.52431   2.53117   2.55694   2.57235
 Alpha virt. eigenvalues --    2.59787   2.61882   2.64920   2.67826   2.68072
 Alpha virt. eigenvalues --    2.71130   2.76262   2.80957   2.88512   2.94549
 Alpha virt. eigenvalues --    2.96979   3.01447   3.05506   3.08498   3.13826
 Alpha virt. eigenvalues --    3.17949   3.23078   3.32168   3.39069   3.42573
 Alpha virt. eigenvalues --    3.44696   3.45825   3.72464   4.10418   4.16084
 Alpha virt. eigenvalues --    4.20555   4.24602   4.25607   4.36674   4.41089
 Alpha virt. eigenvalues --    4.46915   4.51354   4.74331   4.85350
          Condensed to atoms (all electrons):
               1          2          3          4          5          6
     1  C   17.996855  -5.315618  -4.640242   0.632556   0.848983  -1.009447
     2  C   -5.315618  15.469568  -2.219291   0.381956  -0.862688  -1.434771
     3  C   -4.640242  -2.219291  17.604711  -4.105856  -1.099162  -0.522501
     4  C    0.632556   0.381956  -4.105856  10.090032  -0.159682   0.125565
     5  C    0.848983  -0.862688  -1.099162  -0.159682   6.993337  -0.282509
     6  C   -1.009447  -1.434771  -0.522501   0.125565  -0.282509   9.072785
     7  O   -0.026200   0.063684  -0.060961  -0.037723  -0.058038   0.045938
     8  C   -1.436633  -0.192938   0.828406  -0.858550   0.102901  -0.466875
     9  O   -0.105841  -0.267173   0.106768   0.122603   0.006456  -0.020686
    10  O    0.016064  -0.210410  -0.081612   0.056351   0.011826   0.031397
    11  O    0.195270  -0.435273   0.087320  -0.016202   0.053901   0.235240
    12  H    0.012595   0.023417   0.155097   0.097407   0.037329  -0.013489
    13  H   -0.004466   0.001771  -0.010362   0.033371   0.196173   0.093704
    14  H    0.048264   0.004067  -0.021568   0.001797   0.108418   0.161645
    15  H   -0.007776  -0.014176   0.151358  -0.036454  -0.092807   0.010307
    16  H    0.000251   0.082391  -0.019524  -0.012709  -0.000978   0.007369
    17  H   -0.038611   0.231828  -0.002791   0.003316   0.002665  -0.211019
               7          8          9         10         11         12
     1  C   -0.026200  -1.436633  -0.105841   0.016064   0.195270   0.012595
     2  C    0.063684  -0.192938  -0.267173  -0.210410  -0.435273   0.023417
     3  C   -0.060961   0.828406   0.106768  -0.081612   0.087320   0.155097
     4  C   -0.037723  -0.858550   0.122603   0.056351  -0.016202   0.097407
     5  C   -0.058038   0.102901   0.006456   0.011826   0.053901   0.037329
     6  C    0.045938  -0.466875  -0.020686   0.031397   0.235240  -0.013489
     7  O    8.406491  -0.002740   0.000385   0.000090   0.000417  -0.007365
     8  C   -0.002740   6.817467   0.118133   0.420651  -0.188740  -0.005361
     9  O    0.000385   0.118133   8.481969  -0.184080   0.000935   0.002811
    10  O    0.000090   0.420651  -0.184080   8.355054  -0.006546  -0.000281
    11  O    0.000417  -0.188740   0.000935  -0.006546   8.381686  -0.000459
    12  H   -0.007365  -0.005361   0.002811  -0.000281  -0.000459   0.521721
    13  H   -0.016511   0.000513   0.000002   0.000010  -0.000575  -0.000170
    14  H   -0.000660   0.010987   0.000022  -0.000013  -0.020282   0.000012
    15  H    0.189146   0.002718   0.000019  -0.000001  -0.000011  -0.000074
    16  H   -0.000004  -0.008925   0.171130   0.008909   0.000085   0.000087
    17  H   -0.000008   0.034534   0.000089   0.000937   0.151210   0.000005
              13         14         15         16         17
     1  C   -0.004466   0.048264  -0.007776   0.000251  -0.038611
     2  C    0.001771   0.004067  -0.014176   0.082391   0.231828
     3  C   -0.010362  -0.021568   0.151358  -0.019524  -0.002791
     4  C    0.033371   0.001797  -0.036454  -0.012709   0.003316
     5  C    0.196173   0.108418  -0.092807  -0.000978   0.002665
     6  C    0.093704   0.161645   0.010307   0.007369  -0.211019
     7  O   -0.016511  -0.000660   0.189146  -0.000004  -0.000008
     8  C    0.000513   0.010987   0.002718  -0.008925   0.034534
     9  O    0.000002   0.000022   0.000019   0.171130   0.000089
    10  O    0.000010  -0.000013  -0.000001   0.008909   0.000937
    11  O   -0.000575  -0.020282  -0.000011   0.000085   0.151210
    12  H   -0.000170   0.000012  -0.000074   0.000087   0.000005
    13  H    0.578687  -0.006468   0.007282  -0.000000  -0.000029
    14  H   -0.006468   0.578520  -0.000014  -0.000000   0.010343
    15  H    0.007282  -0.000014   0.434837   0.000000   0.000000
    16  H   -0.000000  -0.000000   0.000000   0.391535  -0.000001
    17  H   -0.000029   0.010343   0.000000  -0.000001   0.452222
 Mulliken charges:
               1
     1  C   -1.166002
     2  C    0.693656
     3  C   -0.149792
     4  C   -0.317778
     5  C    0.193874
     6  C    0.177346
     7  O   -0.495943
     8  C    0.824452
     9  O   -0.433542
    10  O   -0.418347
    11  O   -0.437974
    12  H    0.176715
    13  H    0.127067
    14  H    0.124931
    15  H    0.355644
    16  H    0.380384
    17  H    0.365309
 Sum of Mulliken charges =  -0.00000
 Mulliken charges with hydrogens summed into heavy atoms:
               1
     1  C   -1.166002
     2  C    0.693656
     3  C    0.026923
     4  C   -0.317778
     5  C    0.320942
     6  C    0.302277
     7  O   -0.140299
     8  C    0.824452
     9  O   -0.053158
    10  O   -0.418347
    11  O   -0.072665
 Electronic spatial extent (au):  <R**2>=           1735.7414
 Charge=              0.0000 electrons
 Dipole moment (field-independent basis, Debye):
    X=             -3.6347    Y=              1.7559    Z=              0.0011  Tot=              4.0367
 Quadrupole moment (field-independent basis, Debye-Ang):
   XX=            -58.0586   YY=            -53.2260   ZZ=            -65.5220
   XY=             -9.3654   XZ=             -0.0019   YZ=              0.0001
 Traceless Quadrupole moment (field-independent basis, Debye-Ang):
   XX=              0.8769   YY=              5.7095   ZZ=             -6.5864
   XY=             -9.3654   XZ=             -0.0019   YZ=              0.0001
 Octapole moment (field-independent basis, Debye-Ang**2):
  XXX=            -60.4217  YYY=             33.1609  ZZZ=             -0.0006  XYY=             23.6696
  XXY=            -20.2476  XXZ=              0.0164  XZZ=              7.8217  YZZ=             -2.9380
  YYZ=             -0.0002  XYZ=              0.0057
 Hexadecapole moment (field-independent basis, Debye-Ang**3):
 XXXX=          -1147.8298 YYYY=           -606.5420 ZZZZ=            -69.3293 XXXY=            -67.7893
 XXXZ=             -0.0361 YYYX=            -22.5590 YYYZ=              0.0084 ZZZX=             -0.0023
 ZZZY=              0.0004 XXYY=           -317.7330 XXZZ=           -245.5455 YYZZ=           -145.7579
 XXYZ=             -0.0130 YYXZ=             -0.0071 ZZXY=              4.2759
 N-N= 5.918166198815D+02 E-N=-2.518711440093D+03  KE= 5.658213683062D+02
 Calling FoFJK, ICntrl=      2527 FMM=F ISym2X=0 I1Cent= 0 IOpClX= 0 NMat=1 NMatS=1 NMatT=0.
 ***** Axes restored to original set *****
 -------------------------------------------------------------------
 Center     Atomic                   Forces (Hartrees/Bohr)
 Number     Number              X              Y              Z
 -------------------------------------------------------------------
      1        6           0.002076339    0.005713747    0.000000800
      2        6           0.007891328   -0.006085535    0.000012129
      3        6           0.001098051   -0.004594522    0.000000964
      4        6          -0.006149543   -0.003478956   -0.000001434
      5        6          -0.004914031    0.004616994    0.000001054
      6        6          -0.002777050    0.004306967   -0.000000721
      7        8           0.003089141   -0.012144852   -0.000002280
      8        6          -0.017019746   -0.002451404   -0.000035303
      9        8          -0.011921793   -0.015103350    0.000016035
     10        8           0.025164579    0.017306413    0.000007211
     11        8           0.013067524   -0.004195023    0.000000892
     12        1           0.001174941   -0.006252030    0.000000287
     13        1          -0.005969598    0.002391746   -0.000000164
     14        1          -0.001173259    0.006375853   -0.000000129
     15        1          -0.008263110    0.005740125    0.000002085
     16        1           0.009524049   -0.001363543   -0.000001519
     17        1          -0.004897820    0.009217371    0.000000093
 -------------------------------------------------------------------
 Cartesian Forces:  Max     0.025164579 RMS     0.007209624

 GradGradGradGradGradGradGradGradGradGradGradGradGradGradGradGradGradGrad
 Berny optimization.
 FormGI is forming the generalized inverse of G from B-inverse, IUseBI=4.
 Internal  Forces:  Max     0.030495361 RMS     0.006247350
 Search for a local minimum.
 Step number   1 out of a maximum of   85
 All quantities printed in internal units (Hartrees-Bohrs-Radians)
 Mixed Optimization -- RFO/linear search
 Second derivative matrix not updated -- first step.
 ITU=  0
     Eigenvalues ---    0.00975   0.01367   0.01733   0.02070   0.02109
     Eigenvalues ---    0.02129   0.02186   0.02197   0.02207   0.02220
     Eigenvalues ---    0.02232   0.02248   0.02261   0.02278   0.16000
     Eigenvalues ---    0.16000   0.16000   0.16000   0.16000   0.16000
     Eigenvalues ---    0.22369   0.23488   0.24602   0.25000   0.25000
     Eigenvalues ---    0.25000   0.25000   0.25000   0.34093   0.35193
     Eigenvalues ---    0.35213   0.35765   0.42034   0.42646   0.45660
     Eigenvalues ---    0.46576   0.47256   0.47870   0.51276   0.53483
     Eigenvalues ---    0.53560   0.53826   0.54512   0.54678   1.00924
 RFO step:  Lambda=-5.16935516D-03 EMin= 9.74896829D-03
 Linear search not attempted -- first point.
 Iteration  1 RMS(Cart)=  0.02058781 RMS(Int)=  0.00005044
 Iteration  2 RMS(Cart)=  0.00006519 RMS(Int)=  0.00000232
 Iteration  3 RMS(Cart)=  0.00000001 RMS(Int)=  0.00000232
 Variable       Old X    -DE/DX   Delta X   Delta X   Delta X     New X
                                 (Linear)    (Quad)   (Total)
    R1        2.65639   0.01484   0.00000   0.03280   0.03281   2.68920
    R2        2.63461   0.01355   0.00000   0.02869   0.02869   2.66330
    R3        2.56191   0.00950   0.00000   0.01749   0.01749   2.57939
    R4        2.64237   0.01278   0.00000   0.02758   0.02758   2.66995
    R5        2.80474   0.00593   0.00000   0.01714   0.01714   2.82188
    R6        2.61712   0.01371   0.00000   0.02820   0.02820   2.64532
    R7        2.04451   0.00636   0.00000   0.01753   0.01753   2.06204
    R8        2.62925   0.01396   0.00000   0.02934   0.02934   2.65859
    R9        2.58599   0.00814   0.00000   0.01571   0.01571   2.60170
   R10        2.62171   0.01135   0.00000   0.02344   0.02343   2.64514
   R11        2.05362   0.00643   0.00000   0.01801   0.01801   2.07163
   R12        2.05331   0.00648   0.00000   0.01815   0.01815   2.07145
   R13        1.82119   0.00998   0.00000   0.01807   0.01807   1.83927
   R14        2.56435   0.01646   0.00000   0.03044   0.03044   2.59478
   R15        2.28271   0.03050   0.00000   0.03006   0.03006   2.31277
   R16        1.83206   0.00954   0.00000   0.01766   0.01766   1.84971
   R17        1.82268   0.01033   0.00000   0.01877   0.01877   1.84145
    A1        2.07599  -0.00022   0.00000  -0.00115  -0.00115   2.07484
    A2        2.09344  -0.00024   0.00000  -0.00078  -0.00078   2.09266
    A3        2.11375   0.00046   0.00000   0.00193   0.00193   2.11568
    A4        2.08176  -0.00098   0.00000  -0.00393  -0.00392   2.07784
    A5        2.11828  -0.00017   0.00000  -0.00064  -0.00065   2.11763
    A6        2.08315   0.00116   0.00000   0.00457   0.00457   2.08772
    A7        2.11562   0.00103   0.00000   0.00464   0.00465   2.12027
    A8        2.08795  -0.00068   0.00000  -0.00334  -0.00334   2.08462
    A9        2.07961  -0.00035   0.00000  -0.00131  -0.00131   2.07830
   A10        2.08451  -0.00066   0.00000  -0.00257  -0.00258   2.08194
   A11        2.05220  -0.00004   0.00000  -0.00016  -0.00016   2.05204
   A12        2.14647   0.00070   0.00000   0.00274   0.00274   2.14921
   A13        2.09327   0.00000   0.00000  -0.00026  -0.00026   2.09300
   A14        2.10184   0.00010   0.00000   0.00073   0.00074   2.10258
   A15        2.08808  -0.00010   0.00000  -0.00048  -0.00047   2.08761
   A16        2.11522   0.00083   0.00000   0.00327   0.00327   2.11848
   A17        2.08150  -0.00035   0.00000  -0.00123  -0.00122   2.08027
   A18        2.08647  -0.00048   0.00000  -0.00204  -0.00204   2.08443
   A19        1.92770  -0.00244   0.00000  -0.01479  -0.01479   1.91292
   A20        1.95903  -0.00152   0.00000  -0.00595  -0.00595   1.95308
   A21        2.21052  -0.00109   0.00000  -0.00427  -0.00427   2.20625
   A22        2.11363   0.00261   0.00000   0.01022   0.01022   2.12385
   A23        1.85152  -0.00231   0.00000  -0.01399  -0.01399   1.83753
   A24        1.91272  -0.00269   0.00000  -0.01627  -0.01627   1.89645
    D1       -0.00001  -0.00000   0.00000  -0.00003  -0.00003  -0.00003
    D2        3.14158  -0.00000   0.00000  -0.00003  -0.00003   3.14155
    D3        3.14157  -0.00000   0.00000  -0.00002  -0.00002   3.14155
    D4       -0.00003  -0.00000   0.00000  -0.00003  -0.00003  -0.00005
    D5       -0.00002   0.00000   0.00000   0.00001   0.00001  -0.00001
    D6        3.14159   0.00000   0.00000   0.00001   0.00001  -3.14159
    D7        3.14159   0.00000   0.00000   0.00001   0.00001  -3.14159
    D8        0.00001   0.00000   0.00000   0.00000   0.00000   0.00002
    D9       -3.14155  -0.00000   0.00000  -0.00001  -0.00001  -3.14156
   D10        0.00003  -0.00000   0.00000  -0.00000  -0.00000   0.00002
   D11        0.00002   0.00000   0.00000   0.00003   0.00003   0.00005
   D12       -3.14157   0.00000   0.00000   0.00001   0.00001  -3.14156
   D13       -3.14157   0.00000   0.00000   0.00003   0.00003  -3.14154
   D14        0.00002   0.00000   0.00000   0.00001   0.00001   0.00004
   D15        3.14152  -0.00001   0.00000  -0.00057  -0.00057   3.14095
   D16       -0.00040   0.00001   0.00000   0.00056   0.00056   0.00016
   D17       -0.00007  -0.00001   0.00000  -0.00057  -0.00057  -0.00065
   D18        3.14119   0.00001   0.00000   0.00056   0.00056  -3.14144
   D19       -0.00001  -0.00000   0.00000  -0.00002  -0.00002  -0.00002
   D20        3.14153  -0.00000   0.00000  -0.00001  -0.00001   3.14152
   D21        3.14159   0.00000   0.00000   0.00000   0.00000   3.14159
   D22       -0.00006   0.00000   0.00000   0.00001   0.00001  -0.00005
   D23       -0.00002   0.00000   0.00000   0.00000   0.00000  -0.00002
   D24        3.14157   0.00000   0.00000   0.00001   0.00001   3.14157
   D25       -3.14156  -0.00000   0.00000  -0.00000  -0.00000  -3.14156
   D26        0.00003   0.00000   0.00000   0.00000   0.00000   0.00003
   D27        3.14104   0.00000   0.00000   0.00010   0.00010   3.14114
   D28       -0.00061   0.00000   0.00000   0.00010   0.00010  -0.00051
   D29        0.00003   0.00000   0.00000   0.00000   0.00000   0.00003
   D30       -3.14158   0.00000   0.00000   0.00000   0.00000  -3.14157
   D31       -3.14155  -0.00000   0.00000  -0.00000  -0.00000  -3.14156
   D32        0.00002  -0.00000   0.00000  -0.00000  -0.00000   0.00002
   D33        3.14140   0.00001   0.00000   0.00054   0.00054  -3.14124
   D34        0.00012  -0.00001   0.00000  -0.00052  -0.00052  -0.00040
         Item               Value     Threshold  Converged?
 Maximum Force            0.030495     0.000450     NO 
 RMS     Force            0.006247     0.000300     NO 
 Maximum Displacement     0.058707     0.001800     NO 
 RMS     Displacement     0.020560     0.001200     NO 
 Predicted change in Energy=-2.611659D-03
 GradGradGradGradGradGradGradGradGradGradGradGradGradGradGradGradGradGrad

                          Input orientation:                          
 ---------------------------------------------------------------------
 Center     Atomic      Atomic             Coordinates (Angstroms)
 Number     Number       Type             X           Y           Z
 ---------------------------------------------------------------------
      1          6           0        0.240186    1.279351   -0.000041
      2          6           0        0.475565   -0.124110   -0.000172
      3          6           0       -0.629058   -1.005036   -0.000146
      4          6           0       -1.944936   -0.527509   -0.000050
      5          6           0       -2.173275    0.860702    0.000048
      6          6           0       -1.089486    1.746537    0.000073
      7          8           0       -2.960299   -1.457300   -0.000118
      8          6           0        1.861947   -0.678920   -0.000348
      9          8           0        1.864164   -2.052017    0.000358
     10          8           0        2.902323   -0.034353   -0.000238
     11          8           0        1.294612    2.146120   -0.000013
     12          1           0       -0.455872   -2.082388   -0.000219
     13          1           0       -3.195840    1.255854    0.000106
     14          1           0       -1.276660    2.826602    0.000168
     15          1           0       -3.820331   -1.001609    0.000376
     16          1           0        2.808792   -2.308492    0.000509
     17          1           0        0.949172    3.057289    0.000112
 ---------------------------------------------------------------------
                    Distance matrix (angstroms):
                    1          2          3          4          5
     1  C    0.000000
     2  C    1.423062   0.000000
     3  C    2.444178   1.412878   0.000000
     4  C    2.835401   2.453886   1.399845   0.000000
     5  C    2.449502   2.825988   2.421897   1.406865   0.000000
     6  C    1.409358   2.438997   2.789829   2.429625   1.399750
     7  O    4.210980   3.685452   2.374705   1.376761   2.447966
     8  C    2.542623   1.493274   2.512262   3.809893   4.318964
     9  O    3.706119   2.375928   2.704132   4.102849   4.978438
    10  O    2.968635   2.428417   3.662360   4.872282   5.153913
    11  O    1.364956   2.413459   3.691923   4.200353   3.698451
    12  H    3.433042   2.168508   1.091183   2.152896   3.407528
    13  H    3.436106   3.922183   3.420525   2.178335   1.096259
    14  H    2.166751   3.431763   3.885980   3.420037   2.160713
    15  H    4.657314   4.384602   3.191275   1.934393   2.486161
    16  H    4.412523   3.196165   3.676658   5.076400   5.904641
    17  H    1.914087   3.216459   4.358131   4.607238   3.817679
                    6          7          8          9         10
     6  C    0.000000
     7  O    3.710055   0.000000
     8  C    3.820183   4.884663   0.000000
     9  O    4.811763   4.860981   1.373099   0.000000
    10  O    4.371054   6.032836   1.223866   2.269084   0.000000
    11  O    2.417352   5.575742   2.881444   4.236596   2.709096
    12  H    3.880996   2.581257   2.709614   2.320235   3.933436
    13  H    2.162751   2.723359   5.415216   6.045300   6.233156
    14  H    1.096164   4.602875   4.705268   5.802216   5.064481
    15  H    3.874251   0.973298   5.691434   5.780731   6.791883
    16  H    5.624930   5.831547   1.884681   0.978827   2.276062
    17  H    2.423675   5.972058   3.846091   5.190590   3.656919
                   11         12         13         14         15
    11  O    0.000000
    12  H    4.576513   0.000000
    13  H    4.577852   4.318713   0.000000
    14  H    2.659793   4.977135   2.480020   0.000000
    15  H    6.005901   3.533790   2.342249   4.596245   0.000000
    16  H    4.704924   3.272485   6.982849   6.562021   6.756717
    17  H    0.974453   5.328267   4.519546   2.237755   6.262813
                   16         17
    16  H    0.000000
    17  H    5.678891   0.000000
 Stoichiometry    C7H6O4
 Framework group  C1[X(C7H6O4)]
 Deg. of freedom    45
 Full point group                 C1      NOp   1
 Largest Abelian subgroup         C1      NOp   1
 Largest concise Abelian subgroup C1      NOp   1
                         Standard orientation:                         
 ---------------------------------------------------------------------
 Center     Atomic      Atomic             Coordinates (Angstroms)
 Number     Number       Type             X           Y           Z
 ---------------------------------------------------------------------
      1          6           0        0.238091    1.280722   -0.000005
      2          6           0        0.472187   -0.122954   -0.000136
      3          6           0       -0.633242   -1.002869   -0.000110
      4          6           0       -1.948683   -0.524139   -0.000015
      5          6           0       -2.175752    0.864280    0.000084
      6          6           0       -1.091154    1.749124    0.000108
      7          8           0       -2.964895   -1.453000   -0.000083
      8          6           0        1.858060   -0.679031   -0.000312
      9          8           0        1.859022   -2.052130    0.000394
     10          8           0        2.899026   -0.035416   -0.000203
     11          8           0        1.293309    2.146526    0.000022
     12          1           0       -0.461041   -2.080379   -0.000183
     13          1           0       -3.197955    1.260368    0.000141
     14          1           0       -1.277340    2.829360    0.000204
     15          1           0       -3.824511   -0.996524    0.000412
     16          1           0        2.803415   -2.309469    0.000545
     17          1           0        0.948703    3.058011    0.000148
 ---------------------------------------------------------------------
 Rotational constants (GHZ):      1.7370435      0.9039923      0.5945675
 Standard basis: 6-31+G(d,p) (6D, 7F)
 There are   239 symmetry adapted cartesian basis functions of A   symmetry.
 There are   239 symmetry adapted basis functions of A   symmetry.
   239 basis functions,   394 primitive gaussians,   239 cartesian basis functions
    40 alpha electrons       40 beta electrons
       nuclear repulsion energy       586.2723175849 Hartrees.
 NAtoms=   17 NActive=   17 NUniq=   17 SFac= 1.00D+00 NAtFMM=   60 NAOKFM=F Big=F
 Integral buffers will be    131072 words long.
 Raffenetti 2 integral format.
 Two-electron integral symmetry is turned on.
 One-electron integrals computed using PRISM.
 NBasis=   239 RedAO= T EigKep=  3.41D-06  NBF=   239
 NBsUse=   239 1.00D-06 EigRej= -1.00D+00 NBFU=   239
 Initial guess from the checkpoint file:  "lwpbeDHB.chk"
 B after Tr=     0.000000    0.000000   -0.000000
         Rot=    1.000000    0.000005   -0.000004    0.000452 Ang=   0.05 deg.
 ExpMin= 4.38D-02 ExpMax= 5.48D+03 ExpMxC= 8.25D+02 IAcc=2 IRadAn=         4 AccDes= 0.00D+00
 Harris functional with IExCor= 1009 and IRadAn=       4 diagonalized for initial guess.
 HarFok:  IExCor= 1009 AccDes= 0.00D+00 IRadAn=         4 IDoV= 1 UseB2=F ITyADJ=14
 ICtDFT=  3500011 ScaDFX=  1.000000  1.000000  1.000000  1.000000
 FoFCou: FMM=F IPFlag=           0 FMFlag=      100000 FMFlg1=           0
         NFxFlg=           0 DoJE=T BraDBF=F KetDBF=T FulRan=T
         wScrn=  0.000000 ICntrl=     500 IOpCl=  0 I1Cent=   200000004 NGrid=           0
         NMat0=    1 NMatS0=      1 NMatT0=    0 NMatD0=    1 NMtDS0=    0 NMtDT0=    0
 Petite list used in FoFCou.
 Keep J ints in memory in canonical form, NReq=418393415.
 Requested convergence on RMS density matrix=1.00D-08 within 128 cycles.
 Requested convergence on MAX density matrix=1.00D-06.
 Requested convergence on             energy=1.00D-06.
 No special actions if energy rises.
 EnCoef did     6 forward-backward iterations
 SCF Done:  E(RPBE-PBE) =  -570.661268224     A.U. after   13 cycles
            NFock= 13  Conv=0.59D-08     -V/T= 2.0094
 Calling FoFJK, ICntrl=      2527 FMM=F ISym2X=0 I1Cent= 0 IOpClX= 0 NMat=1 NMatS=1 NMatT=0.
 ***** Axes restored to original set *****
 -------------------------------------------------------------------
 Center     Atomic                   Forces (Hartrees/Bohr)
 Number     Number              X              Y              Z
 -------------------------------------------------------------------
      1        6          -0.002017270   -0.000284390   -0.000002874
      2        6           0.001215706   -0.001244012   -0.000028896
      3        6          -0.000433101    0.000791087   -0.000003885
      4        6           0.001125776    0.001288569    0.000000699
      5        6           0.000635035    0.000091941    0.000000958
      6        6           0.000293364   -0.001001699    0.000001792
      7        8           0.000724113   -0.001785563    0.000002690
      8        6          -0.004292961    0.003217698    0.000102906
      9        8          -0.001135165   -0.002584399   -0.000029636
     10        8           0.001887275    0.000190655   -0.000038813
     11        8           0.001980384   -0.001002213   -0.000001708
     12        1           0.000141225    0.000029415   -0.000000839
     13        1           0.000133373    0.000022493   -0.000000155
     14        1          -0.000003082   -0.000034155    0.000000172
     15        1          -0.000574276    0.001042264   -0.000001681
     16        1           0.001364654    0.000371279   -0.000000992
     17        1          -0.001045051    0.000891029    0.000000261
 -------------------------------------------------------------------
 Cartesian Forces:  Max     0.004292961 RMS     0.001144145

 GradGradGradGradGradGradGradGradGradGradGradGradGradGradGradGradGradGrad
 Berny optimization.
 Using GEDIIS/GDIIS optimizer.
 FormGI is forming the generalized inverse of G from B-inverse, IUseBI=4.
 Internal  Forces:  Max     0.002466197 RMS     0.000658907
 Search for a local minimum.
 Step number   2 out of a maximum of   85
 All quantities printed in internal units (Hartrees-Bohrs-Radians)
 Mixed Optimization -- En-DIIS/RFO-DIIS
 Update second derivatives using D2CorX and points    1    2
 DE= -2.56D-03 DEPred=-2.61D-03 R= 9.81D-01
 TightC=F SS=  1.41D+00  RLast= 1.02D-01 DXNew= 5.0454D-01 3.0654D-01
 Trust test= 9.81D-01 RLast= 1.02D-01 DXMaxT set to 3.07D-01
 ITU=  1  0
 Use linear search instead of GDIIS.
     Eigenvalues ---    0.00975   0.01372   0.01732   0.02070   0.02109
     Eigenvalues ---    0.02130   0.02186   0.02197   0.02207   0.02220
     Eigenvalues ---    0.02232   0.02248   0.02261   0.02278   0.15634
     Eigenvalues ---    0.16000   0.16000   0.16000   0.16000   0.16001
     Eigenvalues ---    0.22371   0.23508   0.24597   0.24960   0.25000
     Eigenvalues ---    0.25000   0.25000   0.25145   0.34227   0.35203
     Eigenvalues ---    0.35392   0.35859   0.42225   0.42711   0.45615
     Eigenvalues ---    0.47242   0.47344   0.50571   0.50736   0.51954
     Eigenvalues ---    0.53501   0.53859   0.54345   0.54630   0.99230
 RFO step:  Lambda=-9.49836773D-05 EMin= 9.74896835D-03
 Quartic linear search produced a step of  0.00504.
 Iteration  1 RMS(Cart)=  0.00371899 RMS(Int)=  0.00001770
 Iteration  2 RMS(Cart)=  0.00001920 RMS(Int)=  0.00000126
 Iteration  3 RMS(Cart)=  0.00000000 RMS(Int)=  0.00000126
 Variable       Old X    -DE/DX   Delta X   Delta X   Delta X     New X
                                 (Linear)    (Quad)   (Total)
    R1        2.68920  -0.00074   0.00017  -0.00125  -0.00108   2.68812
    R2        2.66330  -0.00119   0.00014  -0.00219  -0.00204   2.66126
    R3        2.57939   0.00065   0.00009   0.00146   0.00155   2.58094
    R4        2.66995  -0.00121   0.00014  -0.00228  -0.00214   2.66781
    R5        2.82188  -0.00247   0.00009  -0.00704  -0.00695   2.81493
    R6        2.64532  -0.00113   0.00014  -0.00197  -0.00183   2.64350
    R7        2.06204  -0.00001   0.00009   0.00022   0.00030   2.06234
    R8        2.65859  -0.00055   0.00015  -0.00077  -0.00062   2.65797
    R9        2.60170   0.00039   0.00008   0.00097   0.00105   2.60275
   R10        2.64514  -0.00109   0.00012  -0.00197  -0.00186   2.64329
   R11        2.07163  -0.00012   0.00009  -0.00009   0.00000   2.07163
   R12        2.07145  -0.00003   0.00009   0.00015   0.00024   2.07169
   R13        1.83927   0.00100   0.00009   0.00208   0.00217   1.84144
   R14        2.59478   0.00222   0.00015   0.00458   0.00473   2.59951
   R15        2.31277   0.00170   0.00015   0.00210   0.00225   2.31502
   R16        1.84971   0.00122   0.00009   0.00252   0.00261   1.85233
   R17        1.84145   0.00120   0.00009   0.00246   0.00256   1.84401
    A1        2.07484   0.00018  -0.00001   0.00071   0.00071   2.07555
    A2        2.09266  -0.00037  -0.00000  -0.00150  -0.00151   2.09115
    A3        2.11568   0.00019   0.00001   0.00079   0.00080   2.11648
    A4        2.07784   0.00002  -0.00002   0.00003   0.00001   2.07784
    A5        2.11763  -0.00039  -0.00000  -0.00156  -0.00156   2.11607
    A6        2.08772   0.00036   0.00002   0.00153   0.00156   2.08927
    A7        2.12027  -0.00020   0.00002  -0.00081  -0.00079   2.11948
    A8        2.08462  -0.00005  -0.00002  -0.00052  -0.00054   2.08408
    A9        2.07830   0.00025  -0.00001   0.00133   0.00133   2.07963
   A10        2.08194   0.00025  -0.00001   0.00104   0.00102   2.08296
   A11        2.05204  -0.00035  -0.00000  -0.00146  -0.00146   2.05058
   A12        2.14921   0.00011   0.00001   0.00042   0.00044   2.14964
   A13        2.09300  -0.00015  -0.00000  -0.00059  -0.00059   2.09241
   A14        2.10258   0.00015   0.00000   0.00078   0.00079   2.10336
   A15        2.08761  -0.00000  -0.00000  -0.00019  -0.00019   2.08741
   A16        2.11848  -0.00010   0.00002  -0.00037  -0.00035   2.11813
   A17        2.08027   0.00006  -0.00001   0.00022   0.00022   2.08049
   A18        2.08443   0.00005  -0.00001   0.00015   0.00014   2.08457
   A19        1.91292  -0.00121  -0.00007  -0.00778  -0.00785   1.90506
   A20        1.95308   0.00061  -0.00003   0.00238   0.00234   1.95542
   A21        2.20625   0.00066  -0.00002   0.00260   0.00257   2.20883
   A22        2.12385  -0.00127   0.00005  -0.00497  -0.00492   2.11893
   A23        1.83753  -0.00131  -0.00007  -0.00844  -0.00851   1.82901
   A24        1.89645  -0.00121  -0.00008  -0.00783  -0.00791   1.88854
    D1       -0.00003   0.00000  -0.00000   0.00008   0.00008   0.00005
    D2        3.14155   0.00000  -0.00000   0.00009   0.00009  -3.14155
    D3        3.14155   0.00000  -0.00000   0.00006   0.00006  -3.14157
    D4       -0.00005   0.00000  -0.00000   0.00007   0.00007   0.00002
    D5       -0.00001  -0.00000   0.00000  -0.00004  -0.00004  -0.00004
    D6       -3.14159  -0.00000   0.00000  -0.00003  -0.00003   3.14157
    D7       -3.14159  -0.00000   0.00000  -0.00002  -0.00002   3.14158
    D8        0.00002  -0.00000   0.00000  -0.00001  -0.00001   0.00001
    D9       -3.14156   0.00000  -0.00000   0.00001   0.00001  -3.14155
   D10        0.00002  -0.00000  -0.00000  -0.00001  -0.00001   0.00002
   D11        0.00005  -0.00000   0.00000  -0.00009  -0.00009  -0.00004
   D12       -3.14156  -0.00000   0.00000  -0.00004  -0.00004   3.14158
   D13       -3.14154  -0.00000   0.00000  -0.00009  -0.00009   3.14156
   D14        0.00004  -0.00000   0.00000  -0.00004  -0.00004  -0.00000
   D15        3.14095   0.00003  -0.00000   0.00197   0.00197  -3.14026
   D16        0.00016  -0.00003   0.00000  -0.00180  -0.00180  -0.00164
   D17       -0.00065   0.00003  -0.00000   0.00198   0.00198   0.00133
   D18       -3.14144  -0.00003   0.00000  -0.00180  -0.00180   3.13995
   D19       -0.00002   0.00000  -0.00000   0.00004   0.00004   0.00002
   D20        3.14152   0.00000  -0.00000   0.00005   0.00005   3.14157
   D21        3.14159  -0.00000   0.00000  -0.00001  -0.00001   3.14158
   D22       -0.00005   0.00000   0.00000  -0.00000  -0.00000  -0.00005
   D23       -0.00002   0.00000   0.00000   0.00001   0.00001  -0.00001
   D24        3.14157  -0.00000   0.00000  -0.00000  -0.00000   3.14157
   D25       -3.14156  -0.00000  -0.00000   0.00000   0.00000  -3.14156
   D26        0.00003  -0.00000   0.00000  -0.00001  -0.00001   0.00002
   D27        3.14114   0.00000   0.00000   0.00009   0.00009   3.14123
   D28       -0.00051   0.00000   0.00000   0.00010   0.00010  -0.00040
   D29        0.00003  -0.00000   0.00000  -0.00001  -0.00001   0.00002
   D30       -3.14157  -0.00000   0.00000  -0.00002  -0.00002  -3.14159
   D31       -3.14156   0.00000  -0.00000   0.00000   0.00000  -3.14156
   D32        0.00002  -0.00000  -0.00000  -0.00001  -0.00001   0.00001
   D33       -3.14124  -0.00003   0.00000  -0.00182  -0.00181   3.14014
   D34       -0.00040   0.00002  -0.00000   0.00175   0.00174   0.00134
         Item               Value     Threshold  Converged?
 Maximum Force            0.002466     0.000450     NO 
 RMS     Force            0.000659     0.000300     NO 
 Maximum Displacement     0.017856     0.001800     NO 
 RMS     Displacement     0.003726     0.001200     NO 
 Predicted change in Energy=-4.754418D-05
 GradGradGradGradGradGradGradGradGradGradGradGradGradGradGradGradGradGrad

                          Input orientation:                          
 ---------------------------------------------------------------------
 Center     Atomic      Atomic             Coordinates (Angstroms)
 Number     Number       Type             X           Y           Z
 ---------------------------------------------------------------------
      1          6           0        0.239396    1.276890    0.000249
      2          6           0        0.474078   -0.126107    0.000599
      3          6           0       -0.630032   -1.005860    0.000494
      4          6           0       -1.944422   -0.527068    0.000100
      5          6           0       -2.172445    0.860864   -0.000218
      6          6           0       -1.088724    1.745229   -0.000128
      7          8           0       -2.959963   -1.457486   -0.000004
      8          6           0        1.857671   -0.677985    0.001066
      9          8           0        1.864674   -2.053568   -0.000350
     10          8           0        2.899988   -0.034297   -0.000414
     11          8           0        1.296133    2.142133    0.000320
     12          1           0       -0.456698   -2.083350    0.000751
     13          1           0       -3.194624    1.257014   -0.000550
     14          1           0       -1.274925    2.825594   -0.000377
     15          1           0       -3.817518   -0.994726    0.000049
     16          1           0        2.813648   -2.299043   -0.001272
     17          1           0        0.944768    3.052486    0.000089
 ---------------------------------------------------------------------
                    Distance matrix (angstroms):
                    1          2          3          4          5
     1  C    0.000000
     2  C    1.422490   0.000000
     3  C    2.442714   1.411745   0.000000
     4  C    2.832547   2.451513   1.398879   0.000000
     5  C    2.447459   2.824570   2.421506   1.406538   0.000000
     6  C    1.408277   2.438083   2.789065   2.428075   1.398768
     7  O    4.208648   3.683098   2.373298   1.377317   2.448455
     8  C    2.537785   1.489596   2.509217   3.805087   4.313918
     9  O    3.705872   2.376734   2.705782   4.103586   4.979181
    10  O    2.966136   2.427647   3.661281   4.869408   5.150814
    11  O    1.365773   2.412610   3.690524   4.198312   3.697659
    12  H    3.431583   2.167290   1.091344   2.152984   3.407665
    13  H    3.434078   3.920766   3.420195   2.178521   1.096260
    14  H    2.166021   3.430969   3.885347   3.418854   2.160025
    15  H    4.649600   4.378618   3.187505   1.930593   2.479814
    16  H    4.406141   3.192999   3.678487   5.077316   5.903062
    17  H    1.910573   3.213254   4.353179   4.600068   3.810541
                    6          7          8          9         10
     6  C    0.000000
     7  O    3.709302   0.000000
     8  C    3.814867   4.880289   0.000000
     9  O    4.811800   4.861321   1.375602   0.000000
    10  O    4.367669   6.030298   1.225056   2.269214   0.000000
    11  O    2.417659   5.574191   2.875481   4.234046   2.703553
    12  H    3.880396   2.580319   2.707647   2.321564   3.932679
    13  H    2.161752   2.724625   5.410167   6.046194   6.229910
    14  H    1.096293   4.602622   4.699810   5.802008   5.060520
    15  H    3.866997   0.974447   5.684020   5.780004   6.785816
    16  H    5.620022   5.834622   1.881948   0.980210   2.266392
    17  H    2.417439   5.965466   3.840547   5.188257   3.653917
                   11         12         13         14         15
    11  O    0.000000
    12  H    4.574617   0.000000
    13  H    4.577153   4.319060   0.000000
    14  H    2.660348   4.976668   2.479050   0.000000
    15  H    5.999108   3.532734   2.336307   4.589076   0.000000
    16  H    4.693283   3.277452   6.981754   6.555786   6.758225
    17  H    0.975807   5.323619   4.512016   2.231259   6.249743
                   16         17
    16  H    0.000000
    17  H    5.668472   0.000000
 Stoichiometry    C7H6O4
 Framework group  C1[X(C7H6O4)]
 Deg. of freedom    45
 Full point group                 C1      NOp   1
 Largest Abelian subgroup         C1      NOp   1
 Largest concise Abelian subgroup C1      NOp   1
                         Standard orientation:                         
 ---------------------------------------------------------------------
 Center     Atomic      Atomic             Coordinates (Angstroms)
 Number     Number       Type             X           Y           Z
 ---------------------------------------------------------------------
      1          6           0        0.237307    1.279134    0.000148
      2          6           0        0.471066   -0.124018    0.000498
      3          6           0       -0.633623   -1.003043    0.000393
      4          6           0       -1.947697   -0.523386   -0.000001
      5          6           0       -2.174807    0.864695   -0.000319
      6          6           0       -1.090504    1.748347   -0.000229
      7          8           0       -2.963851   -1.453136   -0.000105
      8          6           0        1.854295   -0.676806    0.000965
      9          8           0        1.860393   -2.052393   -0.000451
     10          8           0        2.897036   -0.033804   -0.000515
     11          8           0        1.294614    2.143681    0.000219
     12          1           0       -0.460998   -2.080647    0.000650
     13          1           0       -3.196725    1.261519   -0.000651
     14          1           0       -1.275993    2.828834   -0.000478
     15          1           0       -3.821100   -0.989810   -0.000052
     16          1           0        2.809205   -2.298493   -0.001373
     17          1           0        0.943849    3.054265   -0.000012
 ---------------------------------------------------------------------
 Rotational constants (GHZ):      1.7392714      0.9047235      0.5951448
 Standard basis: 6-31+G(d,p) (6D, 7F)
 There are   239 symmetry adapted cartesian basis functions of A   symmetry.
 There are   239 symmetry adapted basis functions of A   symmetry.
   239 basis functions,   394 primitive gaussians,   239 cartesian basis functions
    40 alpha electrons       40 beta electrons
       nuclear repulsion energy       586.4859102473 Hartrees.
 NAtoms=   17 NActive=   17 NUniq=   17 SFac= 1.00D+00 NAtFMM=   60 NAOKFM=F Big=F
 Integral buffers will be    131072 words long.
 Raffenetti 2 integral format.
 Two-electron integral symmetry is turned on.
 One-electron integrals computed using PRISM.
 NBasis=   239 RedAO= T EigKep=  3.39D-06  NBF=   239
 NBsUse=   239 1.00D-06 EigRej= -1.00D+00 NBFU=   239
 Initial guess from the checkpoint file:  "lwpbeDHB.chk"
 B after Tr=    -0.000000   -0.000000    0.000000
         Rot=    1.000000   -0.000013    0.000006   -0.000037 Ang=  -0.00 deg.
 Keep J ints in memory in canonical form, NReq=418393415.
 Requested convergence on RMS density matrix=1.00D-08 within 128 cycles.
 Requested convergence on MAX density matrix=1.00D-06.
 Requested convergence on             energy=1.00D-06.
 No special actions if energy rises.
 SCF Done:  E(RPBE-PBE) =  -570.661325498     A.U. after   11 cycles
            NFock= 11  Conv=0.70D-08     -V/T= 2.0094
 Calling FoFJK, ICntrl=      2527 FMM=F ISym2X=0 I1Cent= 0 IOpClX= 0 NMat=1 NMatS=1 NMatT=0.
 ***** Axes restored to original set *****
 -------------------------------------------------------------------
 Center     Atomic                   Forces (Hartrees/Bohr)
 Number     Number              X              Y              Z
 -------------------------------------------------------------------
      1        6          -0.000707942   -0.000248187    0.000010435
      2        6           0.000749042   -0.000465848    0.000105698
      3        6          -0.000160137    0.000084890    0.000011724
      4        6           0.000677365    0.000434919   -0.000007737
      5        6           0.000003579   -0.000183555    0.000001109
      6        6           0.000277486   -0.000081222   -0.000007150
      7        8          -0.000337000   -0.000234178    0.000001913
      8        6          -0.001330899    0.001621541   -0.000377880
      9        8          -0.000019545   -0.001224374    0.000110705
     10        8           0.000394201   -0.000229024    0.000143277
     11        8           0.000301543    0.000269309    0.000005354
     12        1           0.000016293    0.000102831    0.000002056
     13        1           0.000101282   -0.000040734    0.000001095
     14        1          -0.000004466   -0.000087384   -0.000000755
     15        1          -0.000092087   -0.000023598   -0.000002046
     16        1           0.000146153    0.000170553    0.000002908
     17        1          -0.000014869    0.000134061   -0.000000705
 -------------------------------------------------------------------
 Cartesian Forces:  Max     0.001621541 RMS     0.000417136

 GradGradGradGradGradGradGradGradGradGradGradGradGradGradGradGradGradGrad
 Berny optimization.
 Using GEDIIS/GDIIS optimizer.
 FormGI is forming the generalized inverse of G from B-inverse, IUseBI=4.
 Internal  Forces:  Max     0.001061336 RMS     0.000218531
 Search for a local minimum.
 Step number   3 out of a maximum of   85
 All quantities printed in internal units (Hartrees-Bohrs-Radians)
 Mixed Optimization -- En-DIIS/RFO-DIIS
 Swapping is turned off.
 Update second derivatives using D2CorX and points    1    2    3
 DE= -5.73D-05 DEPred=-4.75D-05 R= 1.20D+00
 TightC=F SS=  1.41D+00  RLast= 1.96D-02 DXNew= 5.1553D-01 5.8772D-02
 Trust test= 1.20D+00 RLast= 1.96D-02 DXMaxT set to 3.07D-01
 ITU=  1  1  0
     Eigenvalues ---    0.00975   0.01403   0.01732   0.02070   0.02109
     Eigenvalues ---    0.02130   0.02186   0.02197   0.02207   0.02220
     Eigenvalues ---    0.02232   0.02248   0.02261   0.02278   0.14298
     Eigenvalues ---    0.16000   0.16000   0.16000   0.16000   0.16896
     Eigenvalues ---    0.22370   0.22937   0.23574   0.24613   0.25000
     Eigenvalues ---    0.25000   0.25002   0.25969   0.31178   0.35201
     Eigenvalues ---    0.35305   0.35839   0.42397   0.42711   0.45004
     Eigenvalues ---    0.46285   0.47308   0.47505   0.50670   0.51772
     Eigenvalues ---    0.53694   0.53940   0.54604   0.55608   0.99658
 En-DIIS/RFO-DIIS IScMMF=        0 using points:     3    2
 RFO step:  Lambda=-7.43517579D-06.
 DidBck=F Rises=F RFO-DIIS coefs:    1.25370   -0.25370
 Iteration  1 RMS(Cart)=  0.00310631 RMS(Int)=  0.00001756
 Iteration  2 RMS(Cart)=  0.00001949 RMS(Int)=  0.00000915
 Iteration  3 RMS(Cart)=  0.00000000 RMS(Int)=  0.00000915
 Variable       Old X    -DE/DX   Delta X   Delta X   Delta X     New X
                                 (Linear)    (Quad)   (Total)
    R1        2.68812   0.00006  -0.00027   0.00054   0.00027   2.68838
    R2        2.66126  -0.00038  -0.00052  -0.00062  -0.00113   2.66012
    R3        2.58094   0.00048   0.00039   0.00108   0.00148   2.58241
    R4        2.66781  -0.00014  -0.00054   0.00005  -0.00050   2.66731
    R5        2.81493  -0.00088  -0.00176  -0.00242  -0.00418   2.81075
    R6        2.64350  -0.00028  -0.00046  -0.00035  -0.00081   2.64268
    R7        2.06234  -0.00010   0.00008  -0.00026  -0.00018   2.06216
    R8        2.65797  -0.00029  -0.00016  -0.00053  -0.00069   2.65728
    R9        2.60275   0.00049   0.00027   0.00120   0.00146   2.60421
   R10        2.64329  -0.00012  -0.00047   0.00002  -0.00045   2.64284
   R11        2.07163  -0.00011   0.00000  -0.00026  -0.00026   2.07137
   R12        2.07169  -0.00008   0.00006  -0.00020  -0.00014   2.07156
   R13        1.84144   0.00007   0.00055   0.00008   0.00063   1.84206
   R14        2.59951   0.00106   0.00120   0.00222   0.00342   2.60293
   R15        2.31502   0.00021   0.00057   0.00025   0.00082   2.31584
   R16        1.85233   0.00010   0.00066   0.00009   0.00075   1.85308
   R17        1.84401   0.00013   0.00065   0.00017   0.00082   1.84483
    A1        2.07555  -0.00001   0.00018  -0.00010   0.00008   2.07564
    A2        2.09115   0.00013  -0.00038   0.00078   0.00040   2.09155
    A3        2.11648  -0.00012   0.00020  -0.00068  -0.00048   2.11600
    A4        2.07784  -0.00006   0.00000  -0.00025  -0.00025   2.07759
    A5        2.11607   0.00017  -0.00040   0.00096   0.00057   2.11664
    A6        2.08927  -0.00011   0.00039  -0.00071  -0.00032   2.08896
    A7        2.11948   0.00001  -0.00020   0.00017  -0.00003   2.11945
    A8        2.08408  -0.00003  -0.00014  -0.00024  -0.00038   2.08370
    A9        2.07963   0.00003   0.00034   0.00007   0.00040   2.08003
   A10        2.08296   0.00003   0.00026  -0.00005   0.00021   2.08317
   A11        2.05058   0.00007  -0.00037   0.00053   0.00016   2.05074
   A12        2.14964  -0.00010   0.00011  -0.00048  -0.00037   2.14927
   A13        2.09241   0.00003  -0.00015   0.00011  -0.00004   2.09237
   A14        2.10336  -0.00001   0.00020  -0.00008   0.00012   2.10348
   A15        2.08741  -0.00002  -0.00005  -0.00003  -0.00008   2.08733
   A16        2.11813   0.00001  -0.00009   0.00011   0.00002   2.11815
   A17        2.08049   0.00001   0.00005   0.00007   0.00012   2.08061
   A18        2.08457  -0.00002   0.00004  -0.00018  -0.00015   2.08443
   A19        1.90506   0.00011  -0.00199   0.00156  -0.00043   1.90463
   A20        1.95542   0.00013   0.00059   0.00039   0.00094   1.95636
   A21        2.20883   0.00040   0.00065   0.00175   0.00237   2.21120
   A22        2.11893  -0.00053  -0.00125  -0.00210  -0.00339   2.11554
   A23        1.82901  -0.00036  -0.00216  -0.00210  -0.00426   1.82475
   A24        1.88854   0.00007  -0.00201   0.00122  -0.00079   1.88775
    D1        0.00005  -0.00001   0.00002  -0.00037  -0.00035  -0.00030
    D2       -3.14155  -0.00001   0.00002  -0.00039  -0.00037   3.14127
    D3       -3.14157  -0.00000   0.00002  -0.00028  -0.00026   3.14135
    D4        0.00002  -0.00000   0.00002  -0.00030  -0.00028  -0.00027
    D5       -0.00004   0.00000  -0.00001   0.00018   0.00017   0.00013
    D6        3.14157   0.00000  -0.00001   0.00013   0.00012  -3.14149
    D7        3.14158   0.00000  -0.00000   0.00008   0.00008  -3.14153
    D8        0.00001   0.00000  -0.00000   0.00003   0.00003   0.00004
    D9       -3.14155  -0.00000   0.00000  -0.00008  -0.00008   3.14156
   D10        0.00002   0.00000  -0.00000   0.00002   0.00002   0.00003
   D11       -0.00004   0.00001  -0.00002   0.00038   0.00036   0.00032
   D12        3.14158   0.00000  -0.00001   0.00016   0.00015  -3.14146
   D13        3.14156   0.00001  -0.00002   0.00040   0.00038  -3.14125
   D14       -0.00000   0.00000  -0.00001   0.00018   0.00017   0.00016
   D15       -3.14026  -0.00010   0.00050  -0.00917  -0.00868   3.13425
   D16       -0.00164   0.00009  -0.00046   0.00860   0.00815   0.00651
   D17        0.00133  -0.00010   0.00050  -0.00919  -0.00870  -0.00737
   D18        3.13995   0.00009  -0.00046   0.00858   0.00813  -3.13510
   D19        0.00002  -0.00000   0.00001  -0.00018  -0.00017  -0.00015
   D20        3.14157  -0.00000   0.00001  -0.00017  -0.00015   3.14142
   D21        3.14158   0.00000  -0.00000   0.00004   0.00004  -3.14156
   D22       -0.00005   0.00000  -0.00000   0.00006   0.00006   0.00001
   D23       -0.00001  -0.00000   0.00000  -0.00002  -0.00002  -0.00003
   D24        3.14157   0.00000  -0.00000   0.00004   0.00004  -3.14157
   D25       -3.14156  -0.00000   0.00000  -0.00004  -0.00004   3.14159
   D26        0.00002   0.00000  -0.00000   0.00003   0.00003   0.00005
   D27        3.14123   0.00000   0.00002   0.00009   0.00011   3.14135
   D28       -0.00040   0.00000   0.00003   0.00010   0.00013  -0.00027
   D29        0.00002   0.00000  -0.00000   0.00002   0.00002   0.00004
   D30       -3.14159   0.00000  -0.00000   0.00007   0.00007  -3.14152
   D31       -3.14156  -0.00000   0.00000  -0.00004  -0.00004   3.14159
   D32        0.00001   0.00000  -0.00000   0.00001   0.00000   0.00002
   D33        3.14014   0.00009  -0.00046   0.00851   0.00803  -3.13502
   D34        0.00134  -0.00009   0.00044  -0.00822  -0.00776  -0.00642
         Item               Value     Threshold  Converged?
 Maximum Force            0.001061     0.000450     NO 
 RMS     Force            0.000219     0.000300     YES
 Maximum Displacement     0.014774     0.001800     NO 
 RMS     Displacement     0.003106     0.001200     NO 
 Predicted change in Energy=-9.749137D-06
 GradGradGradGradGradGradGradGradGradGradGradGradGradGradGradGradGradGrad

                          Input orientation:                          
 ---------------------------------------------------------------------
 Center     Atomic      Atomic             Coordinates (Angstroms)
 Number     Number       Type             X           Y           Z
 ---------------------------------------------------------------------
      1          6           0        0.239342    1.276840   -0.001055
      2          6           0        0.474289   -0.126256   -0.002815
      3          6           0       -0.629686   -1.005757   -0.002310
      4          6           0       -1.943619   -0.526975   -0.000505
      5          6           0       -2.171729    0.860573    0.001025
      6          6           0       -1.088252    1.744859    0.000767
      7          8           0       -2.959980   -1.457643   -0.000351
      8          6           0        1.855607   -0.677858   -0.005196
      9          8           0        1.863398   -2.055225    0.002745
     10          8           0        2.900066   -0.036847    0.000501
     11          8           0        1.296192    2.143178   -0.001227
     12          1           0       -0.456048   -2.083101   -0.003521
     13          1           0       -3.193771    1.256689    0.002470
     14          1           0       -1.274668    2.825112    0.002033
     15          1           0       -3.817502   -0.994127    0.001199
     16          1           0        2.813929   -2.296196    0.006546
     17          1           0        0.943436    3.053455    0.000097
 ---------------------------------------------------------------------
                    Distance matrix (angstroms):
                    1          2          3          4          5
     1  C    0.000000
     2  C    1.422632   0.000000
     3  C    2.442429   1.411482   0.000000
     4  C    2.831796   2.450889   1.398448   0.000000
     5  C    2.446742   2.824049   2.420970   1.406174   0.000000
     6  C    1.407676   2.437749   2.788581   2.427526   1.398529
     7  O    4.208689   3.683314   2.373706   1.378091   2.448565
     8  C    2.536369   1.487383   2.506832   3.802224   4.311176
     9  O    3.706781   2.377094   2.704972   4.102309   4.978366
    10  O    2.967360   2.427427   3.660320   4.868420   5.150579
    11  O    1.366555   2.413681   3.691178   4.198343   3.697506
    12  H    3.431148   2.166742   1.091248   2.152768   3.407169
    13  H    3.433174   3.920106   3.419535   2.178152   1.096121
    14  H    2.165499   3.430663   3.884789   3.418185   2.159661
    15  H    4.649224   4.378663   3.187840   1.931236   2.479614
    16  H    4.403991   3.191025   3.677471   5.075870   5.901017
    17  H    1.911050   3.214136   4.353380   4.599409   3.809591
                    6          7          8          9         10
     6  C    0.000000
     7  O    3.709366   0.000000
     8  C    3.812597   4.878316   0.000000
     9  O    4.811744   4.860257   1.377412   0.000000
    10  O    4.368199   6.029827   1.225488   2.269038   0.000000
    11  O    2.417485   5.575026   2.875970   4.236546   2.706460
    12  H    3.879818   2.580870   2.705265   2.319622   3.930734
    13  H    2.161371   2.724384   5.407287   6.045141   6.229614
    14  H    1.096221   4.602421   4.697816   5.802168   5.061544
    15  H    3.866634   0.974779   5.681922   5.779149   6.785434
    16  H    5.617577   5.834487   1.880834   0.980607   2.260998
    17  H    2.416646   5.965457   3.841195   5.190852   3.657646
                   11         12         13         14         15
    11  O    0.000000
    12  H    4.575126   0.000000
    13  H    4.576641   4.318491   0.000000
    14  H    2.659768   4.976016   2.478489   0.000000
    15  H    5.999379   3.533449   2.335640   4.588311   0.000000
    16  H    4.691655   3.276928   6.979647   6.553201   6.758054
    17  H    0.976239   5.323794   4.510528   2.229828   6.248957
                   16         17
    16  H    0.000000
    17  H    5.667235   0.000000
 Stoichiometry    C7H6O4
 Framework group  C1[X(C7H6O4)]
 Deg. of freedom    45
 Full point group                 C1      NOp   1
 Largest Abelian subgroup         C1      NOp   1
 Largest concise Abelian subgroup C1      NOp   1
                         Standard orientation:                         
 ---------------------------------------------------------------------
 Center     Atomic      Atomic             Coordinates (Angstroms)
 Number     Number       Type             X           Y           Z
 ---------------------------------------------------------------------
      1          6           0        0.237089    1.279452   -0.000576
      2          6           0        0.471374   -0.123754   -0.002336
      3          6           0       -0.633014   -1.002735   -0.001830
      4          6           0       -1.946722   -0.523334   -0.000025
      5          6           0       -2.174178    0.864321    0.001505
      6          6           0       -1.090285    1.748097    0.001247
      7          8           0       -2.963522   -1.453524    0.000128
      8          6           0        1.852432   -0.676006   -0.004716
      9          8           0        1.859575   -2.053377    0.003225
[...]
   D31       -3.14157  -0.00000   0.00000  -0.00002  -0.00002  -3.14159
   D32        0.00001   0.00000   0.00000  -0.00001  -0.00001   0.00000
   D33        3.14058   0.00006   0.00000   0.00101   0.00101  -3.14159
   D34        0.00094  -0.00006   0.00000  -0.00094  -0.00094   0.00000
         Item               Value     Threshold  Converged?
 Maximum Force            0.000304     0.000450     YES
 RMS     Force            0.000081     0.000300     YES
 Maximum Displacement     0.001801     0.001800     NO 
 RMS     Displacement     0.000518     0.001200     YES
 Predicted change in Energy=-8.344358D-07
 GradGradGradGradGradGradGradGradGradGradGradGradGradGradGradGradGradGrad

 1\1\ WCSS.PL-BEM-QINLAB\Freq\RPBEPBE\6-31+G(d,p)\C7H6O4\PHZD\20-May-20
 24\0\\#N Geom=AllCheck Guess=TCheck SCRF=Check GenChk RPBEPBE/6-31+G(d
 ,p) Freq\\[No Title]\\0,1\C,0.2393097093,1.2768768898,0.0001773511\C,0
 .4743542199,-0.1262287572,0.0004214168\C,-0.6296622283,-1.0057365828,0
 .0003526091\C,-1.9435471698,-0.5269521194,0.0000838548\C,-2.1716900123
 ,0.8605321672,-0.0001364861\C,-1.0882253873,1.7448621447,-0.0000795867
 \O,-2.9600579473,-1.4576207452,0.0000191952\C,1.8553788172,-0.67777381
 34,0.0007363513\O,1.8633237996,-2.0554995491,-0.0002174306\O,2.9000679
 48,-0.0371013402,-0.0003314465\O,1.2961986612,2.1433114428,0.000223757
 9\H,-0.4559864922,-2.0830370511,0.0005316532\H,-3.1937126452,1.2566056
 685,-0.0003615209\H,-1.274705941,2.8250724657,-0.0002513\H,-3.81764454
 86,-0.9942872601,0.0000312882\H,2.8139757253,-2.2959362104,-0.00086312
 6\H,0.9436274915,3.0536326502,0.0000684191\\Version=ES64L-G09RevE.01\S
 tate=1-A\HF=-570.6613325\RMSD=7.310e-09\RMSF=1.330e-04\ZeroPoint=0.119
 842\Thermal=0.1297283\Dipole=-1.4746322,0.7272751,0.0000351\DipoleDeri
 v=0.6725221,0.8395824,0.0000532,0.4475383,0.6344732,0.0000265,-0.00019
 36,0.0001549,0.0591136,-0.6092767,0.4516704,-0.0000001,-0.0037128,-0.1
 505699,-0.0000339,-0.0000582,-0.0000358,-0.0007077,0.0560504,-0.448756
 4,0.0000752,0.1992294,-0.0546439,-0.0000002,-0.000173,0.0000603,-0.126
 5867,0.8429037,0.8971091,0.0000254,0.9273215,0.3605575,0.0000574,0.000
 0525,0.0001496,0.0544821,-0.0355558,0.1513432,0.000029,-0.3928865,0.10
 0914,-0.0000703,0.0000249,0.0000053,-0.1429509,-0.1302569,-0.4417322,0
 .0000371,0.1251334,0.0494194,-0.0000145,0.0000602,-0.0001649,-0.166910
 2,-1.0678098,-0.67832,-0.0000347,-0.7620969,-0.6159737,-0.0000178,-0.0
 001147,-0.0000848,-0.3446926,1.8753617,-0.3333644,0.0000333,-0.2804404
 ,1.6966415,0.0002642,-0.0004182,0.0005356,0.2308924,-0.4464942,0.22152
 47,0.0000036,0.2887517,-1.3478792,-0.0000869,0.0001232,-0.0008313,-0.3
 447328,-1.2523953,-0.1218889,-0.0001496,-0.0991717,-0.6121511,-0.00018
 07,0.0006621,0.0001891,-0.3212951,-0.6820686,-0.7661542,-0.0000174,-0.
 605846,-0.8169367,-0.000056,-0.0000095,-0.0000632,-0.300733,0.1243779,
 -0.004591,-0.0000212,-0.0104656,0.0333709,0.0000254,-0.0000069,0.00000
 71,0.1417693,-0.1105839,0.0305716,-0.0000411,0.026152,0.0673393,0.0000
 158,-0.0000622,0.0000197,0.1434173,0.0566722,-0.0214164,-0.0000081,0.0
 00173,-0.1165588,0.00003,0.0000191,0.0000495,0.1470236,0.3004717,0.087
 1121,-0.0000011,0.140939,0.1794491,-0.0000039,0.0000533,0.0000027,0.32
 76658,0.1862911,-0.0328191,0.0000462,-0.1021923,0.3379405,0.0000218,0.
 000052,-0.0000104,0.3250609,0.2197903,0.1701292,-0.0000297,0.1015739,0
 .2546077,0.000023,-0.0000111,0.0000168,0.3191839\Polar=138.7332736,-1.
 3440144,118.5949052,0.0010548,-0.0037521,53.5088453\PG=C01 [X(C7H6O4)]
 \NImag=0\\0.65141586,0.00423373,0.66197876,0.00008250,-0.00007638,0.13
 731900,-0.12681864,0.05558670,-0.00002681,0.61043648,0.01513579,-0.268
 40524,0.00003948,0.02512216,0.65251595,-0.00002714,0.00004590,-0.05745
 524,0.00004441,-0.00005444,0.12252812,0.04594593,-0.05040974,0.0000168
 1,-0.22596882,-0.08394526,-0.00003338,0.67205809,-0.01875626,-0.035077
 93,0.00000391,-0.12035437,-0.19633060,0.00000477,-0.01253623,0.7036090
 8,0.00000674,-0.00000567,-0.00137492,-0.00002177,0.00000705,-0.0456604
 9,0.00009715,-0.00008425,0.11284926,-0.03105235,0.02978308,-0.00000946
 ,-0.04832290,-0.03154163,-0.00000264,-0.28988624,0.10820189,-0.0000507
 6,0.67814282,0.03270450,-0.03644416,0.00001068,0.00613761,0.04632607,-
 0.00001175,0.04727815,-0.14670583,0.00002059,-0.01632616,0.65761767,-0
 .00001105,0.00001274,0.00190214,-0.00001232,-0.00001155,-0.00251453,-0
 .00003850,0.00002984,-0.05538403,0.00008243,-0.00006049,0.12512369,-0.
 04927514,0.00004628,-0.00000793,-0.00787582,-0.01290464,0.00000097,0.0
 1071885,0.02947374,-0.00000472,-0.12637573,0.07556319,-0.00002380,0.70
 108229,-0.03946808,0.05156052,-0.00001404,-0.01633661,-0.03958669,0.00
 000313,0.06467097,-0.01017877,0.00001205,0.00830219,-0.30079614,0.0000
 2968,-0.00239289,0.65252901,-0.00000165,-0.00000774,-0.00354129,0.0000
 0166,0.00000242,0.00285510,-0.00000706,0.00000735,0.00171420,-0.000014
 71,0.00004421,-0.05118359,0.00009969,-0.00007112,0.10447863,-0.2719629
 5,0.03809560,-0.00003922,0.00904107,0.05785869,-0.00000268,-0.05004145
 ,-0.00515440,-0.00000688,0.04686827,-0.05454462,0.00001877,-0.25274878
 ,-0.09193144,-0.00002315,0.65398447,0.10206958,-0.14483186,0.00002655,
 0.02557141,-0.00674559,0.00001123,-0.00505883,-0.00359606,-0.00000027,
 -0.01631492,-0.03881428,0.00000065,-0.14176682,-0.20480186,-0.00000045
 ,0.01624503,0.69726740,-0.00004030,0.00001302,-0.05462782,-0.00000572,
 0.00001405,0.00330039,-0.00000867,-0.00000121,0.00281428,0.00001175,-0
 .00000358,-0.00209394,-0.00001463,0.00000956,-0.04132348,0.00007883,-0
 .00007747,0.10101426,0.00614612,-0.00063186,0.00000106,-0.00051463,0.0
 0598830,-0.00000255,-0.05024630,-0.03211493,-0.00000562,-0.19723969,-0
 .12101137,-0.00000908,-0.00018131,-0.00428682,-0.00000126,-0.00581560,
 0.00033691,-0.00000147,0.62293310,-0.00057476,0.00419052,-0.00000111,0
 .00032748,-0.00594203,0.00000288,0.00394768,0.01538883,0.00000008,-0.0
 6952776,-0.18538808,-0.00000423,-0.04205624,-0.03577098,-0.00000273,0.
 00687111,-0.00253586,0.00000210,-0.06183075,0.36126863,0.00000267,-0.0
 0000126,-0.00157532,0.00000023,0.00000175,0.00433005,-0.00000966,-0.00
 000464,0.00537828,-0.00000720,-0.00000415,-0.03327758,0.00000571,0.000
 00577,0.00557488,-0.00000457,0.00000158,0.00648305,0.00000863,0.000006
 03,0.02102748,0.01254924,0.03024053,0.00000263,-0.16272897,0.03460822,
 -0.00005509,-0.03815840,-0.00243114,-0.00000601,0.00308051,-0.01200424
 ,0.00000417,0.00286715,0.00418008,-0.00000045,-0.00144510,-0.00064460,
 0.00000351,0.00270633,0.00370296,0.00000038,0.82993632,0.03108254,-0.0
 0886746,0.00000852,0.04888951,-0.11234326,0.00002464,-0.01126150,0.018
 54066,-0.00001012,-0.00487412,0.00116317,-0.00000297,-0.00238186,-0.00
 402787,0.00000086,0.00154746,-0.00610067,0.00000245,-0.00389540,-0.002
 08254,0.00000004,0.14659488,0.59590714,-0.00000308,-0.00001314,0.00137
 698,-0.00000384,0.00000251,-0.07191624,0.00000679,0.00000767,-0.001071
 70,-0.00000255,0.00000356,0.00778293,0.00000309,-0.00000274,-0.0010727
 8,-0.00000219,0.00000102,0.00541849,-0.00000245,-0.00000186,0.00043108
 ,-0.00045175,-0.00010846,0.19018673,-0.00814900,-0.00424416,-0.0000004
 2,-0.00640153,0.04025905,0.00001764,-0.00553978,0.00273618,0.00000315,
 0.00182989,0.00158472,0.00000060,-0.00045437,0.00042569,-0.00000027,-0
 .00002865,0.00215396,-0.00000190,-0.00091709,-0.00065651,-0.00000017,-
 0.11400715,0.02754011,0.00005148,0.56837624,0.00170650,0.00418384,-0.0
 0000151,0.01810419,-0.02918944,-0.00002824,-0.00181731,-0.00428547,0.0
 0000312,0.00018829,-0.00301865,0.00000138,0.00070587,0.00110717,-0.000
 00020,0.00015646,-0.00031519,0.00000094,0.00203414,0.00189521,0.000000
 03,-0.00610258,-0.21399857,-0.00006894,-0.08153965,0.37655346,0.000001
 55,0.00000374,0.00174633,-0.00000310,-0.00001483,0.00943498,0.00000104
 ,-0.00000310,0.00072955,0.00000048,-0.00000241,-0.00081899,0.00000035,
 0.00000105,0.00003948,-0.00000010,-0.00000054,-0.00061181,0.00000173,0
 .00000138,0.00012009,0.00001571,-0.00012012,-0.05711121,-0.00032319,0.
 00019208,0.03287474,-0.00588726,-0.01191431,-0.00000280,-0.05626317,-0
 .01851765,0.00005084,0.00061218,0.00839145,0.00000119,-0.00223175,0.00
 349619,-0.00000486,-0.00149734,-0.00301834,0.00000093,0.00225731,-0.00
 024479,-0.00000038,-0.00244807,-0.00144444,-0.00000029,-0.51874666,-0.
 24221862,0.00040473,0.00714945,-0.04773465,0.00000930,0.57579388,-0.00
 584966,-0.00674158,-0.00000269,-0.00997576,0.01802283,0.00000388,0.004
 56017,-0.00113627,0.00000149,-0.00130999,0.00237088,-0.00000078,-0.000
 16077,-0.00088149,-0.00000010,0.00100102,0.00045626,-0.00000049,0.0007
 9330,0.00013530,0.00000015,-0.24167364,-0.24678200,0.00022218,-0.06056
 006,-0.07039202,0.00002364,0.30969381,0.30022045,0.00000366,0.00001253
 ,-0.00094557,0.00002111,0.00001529,0.01801208,-0.00000064,-0.00000800,
 0.00278272,0.00000129,-0.00000142,-0.00151253,-0.00000080,0.00000177,0
 .00021774,0.00000049,-0.00000041,-0.00070211,0.00000208,0.00000093,-0.
 00017922,0.00044188,0.00023324,-0.07010804,-0.00001042,-0.00000280,0.0
 2688614,-0.00045497,-0.00025580,0.02908268,-0.22279580,-0.07320260,-0.
 00001799,0.01651686,-0.00748990,0.00000301,-0.00942756,0.00266310,-0.0
 0000018,0.00679352,-0.00279004,0.00000283,0.00038295,0.00848239,-0.000
 00242,-0.05032329,-0.03544283,-0.00000615,-0.00531708,-0.00357218,-0.0
 0000135,-0.01240990,0.00130000,0.00000303,0.00182985,-0.00029122,-0.00
 000020,0.00537758,0.00648752,-0.00000559,0.36904549,-0.12416418,-0.176
 24620,-0.00000035,-0.03011712,-0.03986185,0.00000219,0.00312638,-0.002
 87190,0.00000265,0.00217640,0.00307064,0.00000009,0.00146152,-0.003535
 33,0.00000128,-0.00374303,0.00548584,-0.00000064,-0.00517276,-0.003491
 10,-0.00000114,-0.01380853,0.00133800,0.00000283,0.00138991,-0.0014116
 0,-0.00000180,0.00940361,-0.00166130,-0.00000623,-0.02448994,0.6274230
 2,-0.00001486,0.00000968,-0.03655597,0.00000824,0.00000127,0.00328861,
 -0.00000205,0.00000201,0.00369184,0.00000047,-0.00000052,-0.00123769,-
 0.00000162,0.00000173,0.00704875,-0.00000757,-0.00000520,0.00881780,-0
 .00000033,-0.00000025,-0.00038851,-0.00000200,-0.00000008,-0.00289542,
 0.00000058,-0.00000114,0.00036689,0.00000072,0.00000001,0.00114489,0.0
 0005486,-0.00007168,0.02475990,-0.00363337,-0.00156949,-0.00000138,0.0
 0668915,-0.02240908,0.00000554,-0.05933654,0.04593332,-0.00001265,-0.0
 0002507,0.02774852,-0.00000593,-0.00517058,0.00111648,-0.00000167,-0.0
 0091903,-0.00074915,-0.00000017,0.00219262,-0.00016722,0.00000075,0.00
 161158,-0.00359459,-0.00000140,-0.00379818,0.00186746,0.00000267,0.000
 59047,0.00111297,-0.00000031,0.00031486,-0.00157705,0.00000021,0.06136
 526,-0.00312980,0.00106714,-0.00000061,0.00334292,-0.01380706,0.000002
 44,0.04468501,-0.32736253,0.00005079,-0.00096531,-0.00616554,0.0000014
 8,0.00142165,0.00031239,0.00000081,0.00029937,0.00063393,0.,-0.0005277
 7,0.00045729,-0.00000057,0.00049291,-0.00174778,-0.00000119,0.00280540
 ,0.00023149,-0.00000061,0.00002554,0.00037566,0.00000013,0.00051924,-0
 .00077225,0.00000025,-0.04896600,0.34652135,-0.00000048,-0.00000076,0.
 00536656,0.00000516,0.00000031,0.00186422,-0.00001611,0.00004600,-0.03
 299122,0.00000021,0.00000563,0.00609916,-0.00000154,0.00000238,0.00475
 650,-0.00000167,-0.00000024,-0.00065933,0.00000099,-0.00000005,-0.0031
 1770,-0.00000316,0.00000109,-0.00398469,0.00000174,-0.00000145,0.00055
 981,0.00000171,0.00000006,0.00074019,-0.00000039,-0.00000001,0.0004581
 2,0.00001377,-0.00005333,0.02258390,-0.00008680,-0.00395960,-0.0000006
 3,0.00024669,-0.00030697,0.00000004,0.00175959,0.00128525,-0.00000071,
 -0.00527198,-0.00299738,-0.00000109,-0.28318747,0.09114796,-0.00005457
 ,-0.01771310,0.01046057,-0.00000439,0.00330575,0.00005907,0.00000092,0
 .00024108,-0.00015923,-0.00000012,-0.00012938,0.00021396,0.00000017,-0
 .00017290,0.00004177,0.00000015,-0.00166705,0.00012430,-0.00000033,-0.
 00020467,-0.00001629,0.00000002,0.30188104,-0.00279445,-0.00205174,0.0
 0000052,-0.00119816,-0.00079236,-0.00000001,0.00018997,-0.00615224,0.0
 0000154,0.02743908,-0.00463186,0.00000537,0.09204919,-0.09088269,0.000
 02287,-0.01844601,0.00980123,-0.00000368,0.00122305,0.00268327,-0.0000
 0072,0.00012942,-0.00036414,-0.00000031,0.00013283,0.00014943,0.000000
 07,0.00000621,0.00007509,0.,-0.00121214,0.00020857,-0.00000017,0.00145
 088,-0.00013088,0.00000031,-0.09774887,0.09199076,-0.00000184,0.000001
 85,0.00674489,0.00000070,0.00000015,-0.00063320,-0.00000205,0.00000066
 ,0.00461726,-0.00000352,0.00000009,0.00409051,-0.00005530,0.00002207,-
 0.03008452,0.00000095,0.00000129,0.00213939,0.00000025,-0.00000042,-0.
 00313392,-0.00000033,-0.00000028,-0.00074743,0.00000004,0.00000005,0.0
 0018131,-0.00000020,0.00000011,0.00006953,0.00000026,0.00000003,0.0000
 5417,0.00000014,-0.00000013,-0.00034385,0.00006004,-0.00002564,0.02036
 640,-0.00194980,0.02666341,-0.00000403,-0.00481315,0.00067320,-0.00000
 291,-0.00125583,-0.00058323,-0.00000002,-0.00326516,-0.00208475,-0.000
 00114,0.00692896,-0.02378435,0.00000430,-0.06151820,0.04755408,-0.0000
 1064,-0.00011869,-0.00167195,0.00000018,0.00069755,0.00124007,0.000000
 04,-0.00057834,0.00027964,0.00000026,-0.00004456,-0.00012283,0.0000000
 7,0.00267979,0.00210527,0.00000062,0.00007318,0.00003600,0.,0.00089887
 ,0.00014333,0.00000059,0.06298273,-0.00397442,-0.01030132,0.00000126,0
 .00275926,0.00093187,0.00000155,-0.00003715,0.00058934,-0.00000011,-0.
 00354097,0.00108329,-0.00000037,0.00523825,-0.01539501,0.00000316,0.04
 715481,-0.31052678,0.00004466,-0.00002637,-0.00137445,0.00000040,-0.00
 134537,-0.00040046,0.00000039,0.00043281,-0.00021596,-0.00000028,0.000
 51254,0.00025546,-0.00000055,-0.00040703,0.00351517,-0.00000095,0.0000
 2696,-0.00007425,0.,-0.00006377,0.00087549,-0.00000047,-0.04916636,0.3
 3099765,-0.00000136,0.00000476,0.00352656,-0.00000114,0.00000166,0.004
 01175,-0.00000006,-0.00000034,-0.00080759,-0.00000132,0.00000049,0.006
 05146,0.00000007,-0.00000168,0.00159500,-0.00000997,0.00004497,-0.0279
 4324,-0.00000023,-0.00000002,0.00048809,-0.00000034,-0.00000016,0.0003
 2931,0.,0.00000012,-0.00009030,0.00000005,-0.00000004,-0.00000734,0.00
 000146,0.00000015,-0.00359520,0.00000009,-0.00000005,-0.00027068,0.000
 00075,-0.00000061,-0.00371548,0.00001260,-0.00004890,0.01992189,-0.000
 01360,-0.00049273,0.00000013,-0.00030888,0.00167575,-0.00000149,-0.002
 21344,-0.00586331,0.00000095,-0.03321383,0.01722692,-0.00000120,0.0054
 2806,0.00262713,0.00000067,-0.00077016,0.00034102,-0.00000053,-0.37439
 795,0.16634484,0.00000383,-0.00072910,-0.00004812,0.00000017,0.0001402
 3,-0.00025172,-0.00000017,0.00010834,0.00005178,0.,0.00068973,0.000554
 89,0.00000014,0.00037041,-0.00008212,0.00000028,-0.00006301,-0.0014178
 2,0.00000039,0.00024673,0.00026389,0.00000001,0.40482767,0.00037112,0.
 00010203,0.00000040,-0.00008757,0.00086418,-0.00000088,-0.00416248,-0.
 00322913,0.00000017,-0.03075372,0.00878160,0.00000015,-0.00388598,0.00
 198364,-0.00000086,-0.00005366,-0.00071395,-0.00000014,0.21855747,-0.1
 4976254,-0.00000353,-0.00050824,0.00000869,0.00000016,0.00008813,-0.00
 017899,-0.00000010,0.00010139,0.00003823,-0.00000003,-0.00004734,-0.00
 028133,0.00000001,-0.00033606,0.00011075,-0.00000011,0.00167009,-0.000
 99560,0.00000067,0.00002475,0.00009395,-0.00000011,-0.18083895,0.14315
 568,-0.00000021,0.00000013,0.00028689,-0.00000117,-0.00000019,0.001652
 22,0.00000003,-0.00000079,0.00163475,-0.00000504,-0.00000103,-0.003430
 84,0.00000063,-0.00000039,-0.00017325,0.00000037,0.00000003,-0.0008111
 2,0.00000847,-0.00000264,-0.00206545,-0.00000013,0.00000020,0.00004724
 ,-0.00000006,-0.00000007,-0.00004042,0.00000014,0.00000002,-0.00007081
 ,0.00000017,0.00000028,-0.00009857,0.00000026,-0.00000007,-0.00072040,
 -0.00000024,0.00000041,0.00043644,-0.00000004,-0.00000007,-0.00005988,
 -0.00000323,0.00000420,0.00335475,-0.00026418,0.00013724,0.00000107,0.
 00156928,-0.00052204,0.00000655,0.00006802,-0.00019215,-0.00000015,0.0
 0017441,-0.00011557,0.00000013,0.00002241,0.00003658,0.00000005,0.0001
 0046,0.00019014,-0.00000035,0.00004557,0.00005176,0.00000002,-0.003382
 67,0.01148988,-0.00000230,-0.43966842,0.11175330,0.00029290,-0.0043156
 2,-0.00644769,0.00000228,-0.00003011,-0.00011407,0.00000008,0.00014965
 ,0.00023949,-0.00000048,0.00001213,0.00001858,-0.00000007,-0.00001238,
 -0.00000047,-0.00000010,-0.00003192,-0.00001330,0.00000001,0.44555225,
 0.00194001,0.00023926,0.00000046,-0.00197516,-0.00722450,-0.00000692,-
 0.00148729,-0.00006229,0.00000055,0.00021410,0.00080613,-0.00000049,-0
 .00033182,-0.00020021,0.00000013,0.00001707,-0.00058262,0.00000036,-0.
 00029388,-0.00026624,0.00000004,0.05619321,-0.02048479,-0.00004261,0.0
 6780231,-0.06121113,-0.00007827,-0.00593484,0.00687070,0.00001043,-0.0
 0006174,0.00022099,-0.00000026,0.00048594,0.00047648,0.00000010,-0.000
 03906,0.00004849,-0.00000003,0.00015195,-0.00005907,0.00000007,0.00004
 247,0.00003312,-0.00000002,-0.11656433,0.08138885,0.00000204,0.0000002
 4,0.00076851,-0.00000607,-0.00000269,0.00410627,-0.00000246,-0.0000000
 2,-0.00020786,0.00000020,0.00000049,0.00024473,-0.00000034,0.00000027,
 0.00002022,-0.00000048,-0.00000089,-0.00031409,-0.00000007,-0.00000011
 ,-0.00007795,0.00005204,-0.00002901,0.00356872,0.00026142,-0.00009333,
 -0.01390444,-0.00000698,0.00000761,-0.00571211,0.00000008,0.00000051,0
 .00009296,0.00000004,0.00000054,-0.00035307,0.,0.00000005,-0.00004539,
 0.00000014,-0.00000005,-0.00005626,0.00000003,0.00000002,0.00004463,-0
 .00029954,0.00011643,0.01183957,0.00583172,-0.03836207,0.00000645,-0.0
 0448301,-0.00368399,-0.00000114,0.00091170,-0.00069891,0.00000030,-0.0
 0000470,0.00013432,0.00000002,-0.00066414,0.00022906,-0.00000009,0.001
 03473,-0.00470075,0.00000122,-0.00013308,0.00019691,-0.00000010,-0.002
 08182,-0.00125098,0.00000037,0.00034625,0.00072733,0.00000059,-0.00028
 187,0.00235805,-0.00000027,-0.10165983,0.18284442,-0.00003715,-0.00026
 974,-0.00018026,-0.00000004,0.00015122,0.00003492,-0.00000007,-0.00095
 170,0.00217341,-0.00000051,-0.00006927,-0.00012565,0.00000003,0.000011
 12,-0.00015894,-0.00000004,0.10231243,0.00946785,-0.03435458,0.0000049
 1,-0.00579648,0.00156774,-0.00000037,0.00225745,-0.00113889,0.00000034
 ,-0.00115046,0.00074510,-0.00000050,-0.00007865,-0.00143569,0.00000011
 ,0.00462654,0.00592005,0.00000008,0.00085873,0.00059478,0.00000021,0.0
 0237613,0.00024188,-0.00000107,-0.00035071,0.00009641,0.00000011,-0.00
 060308,-0.00122620,0.00000093,0.12955471,-0.41112937,0.00006531,-0.000
 37386,-0.00012620,0.00000006,0.00028821,0.00016917,0.,-0.00145823,0.00
 000508,-0.00000029,-0.00013393,-0.00001035,-0.00000002,0.00005265,0.00
 000682,-0.00000006,-0.13953686,0.44007426,0.00000281,0.00000035,-0.002
 96174,0.00000045,-0.00000225,0.00279591,-0.00000118,0.00000016,0.00128
 565,0.00000036,-0.00000038,0.00015910,0.00000018,0.00000052,-0.0009216
 0,-0.00000093,-0.00000186,-0.00090073,-0.00000014,0.00000002,-0.000017
 35,-0.00000107,0.00000018,-0.00023398,-0.00000023,-0.00000003,-0.00036
 216,0.00000087,0.00000074,0.00030173,-0.00003144,0.00007185,-0.0049525
 8,0.00000002,0.00000012,0.00001246,0.,0.,0.00000389,-0.00000002,0.0000
 0032,0.00062190,0.,-0.00000002,0.00001381,-0.00000011,0.00000002,-0.00
 001445,0.00003043,-0.00006975,0.00517014\\-0.00014160,-0.00006154,-0.0
 0000745,-0.00005194,-0.00019222,-0.00007325,0.00009626,0.00014997,-0.0
 0000836,0.00011664,0.00010391,0.00000533,0.00011396,0.00003640,-0.0000
 0066,-0.00000712,-0.00014150,0.00000502,0.00008315,-0.00022174,-0.0000
 0114,-0.00048749,-0.00010075,0.00026449,-0.00018534,0.00007620,-0.0000
 7801,0.00031449,0.00006366,-0.00010060,0.00023466,-0.00006847,-0.00000
 362,-0.00000091,-0.00001562,-0.00000143,0.00000101,0.00000704,-0.00000
 073,0.00000824,0.00002081,0.00000056,-0.00017400,0.00013072,0.00000127
 ,0.00020230,-0.00000019,-0.00000185,-0.00012230,0.00021333,0.00000044\
 \\@


 Children are likely to live up to what you believe of them.
 -- Lady Bird Johnson
 Job cpu time:       0 days  0 hours 23 minutes 55.1 seconds.
 File lengths (MBytes):  RWF=    107 Int=      0 D2E=      0 Chk=      5 Scr=      1
 Normal termination of Gaussian 09 at Mon May 20 13:03:16 2024.
