 Entering Gaussian System, Link 0=g09
 Input=2WB97XDDHB21.gjf
 Output=2WB97XDDHB21.log
 Initial command:
 /home/phzd/g09E/g09/l1.exe "/home/phzd/g09E/scratch/Gau-542911.inp" -scrdir="/home/phzd/g09E/scratch/"
 Default is to use a total of  18 processors:
                               18 via shared-memory
                                1 via Linda
 Entering Link 1 = /home/phzd/g09E/g09/l1.exe PID=    542913.
  
 Copyright (c) 1988,1990,1992,1993,1995,1998,2003,2009,2015,
            Gaussian, Inc.  All Rights Reserved.
  
 This is part of the Gaussian(R) 09 program.  It is based on
 the Gaussian(R) 03 system (copyright 2003, Gaussian, Inc.),
 the Gaussian(R) 98 system (copyright 1998, Gaussian, Inc.),
 the Gaussian(R) 94 system (copyright 1995, Gaussian, Inc.),
 the Gaussian 92(TM) system (copyright 1992, Gaussian, Inc.),
 the Gaussian 90(TM) system (copyright 1990, Gaussian, Inc.),
 the Gaussian 88(TM) system (copyright 1988, Gaussian, Inc.),
 the Gaussian 86(TM) system (copyright 1986, Carnegie Mellon
 University), and the Gaussian 82(TM) system (copyright 1983,
 Carnegie Mellon University). Gaussian is a federally registered
 trademark of Gaussian, Inc.
  
 This software contains proprietary and confidential information,
 including trade secrets, belonging to Gaussian, Inc.
  
 This software is provided under written license and may be
 used, copied, transmitted, or stored only in accord with that
 written license.
  
 The following legend is applicable only to US Government
 contracts under FAR:
  
                    RESTRICTED RIGHTS LEGEND
  
 Use, reproduction and disclosure by the US Government is
 subject to restrictions as set forth in subparagraphs (a)
 and (c) of the Commercial Computer Software - Restricted
 Rights clause in FAR 52.227-19.
  
 Gaussian, Inc.
 340 Quinnipiac St., Bldg. 40, Wallingford CT 06492
  
  
 ---------------------------------------------------------------
 Warning -- This program may not be used in any manner that
 competes with the business of Gaussian, Inc. or will provide
 assistance to any competitor of Gaussian, Inc.  The licensee
 of this program is prohibited from giving any competitor of
 Gaussian, Inc. access to this program.  By using this program,
 the user acknowledges that Gaussian, Inc. is engaged in the
 business of creating and licensing software in the field of
 computational chemistry and represents and warrants to the
 licensee that it is not a competitor of Gaussian, Inc. and that
 it will not use this program in any manner prohibited above.
 ---------------------------------------------------------------
  

 Cite this work as:
 Gaussian 09, Revision E.01,
 M. J. Frisch, G. W. Trucks, H. B. Schlegel, G. E. Scuseria, 
 M. A. Robb, J. R. Cheeseman, G. Scalmani, V. Barone, B. Mennucci, 
 G. A. Petersson, H. Nakatsuji, M. Caricato, X. Li, H. P. Hratchian, 
 A. F. Izmaylov, J. Bloino, G. Zheng, J. L. Sonnenberg, M. Hada, 
 M. Ehara, K. Toyota, R. Fukuda, J. Hasegawa, M. Ishida, T. Nakajima, 
 Y. Honda, O. Kitao, H. Nakai, T. Vreven, J. A. Montgomery, Jr., 
 J. E. Peralta, F. Ogliaro, M. Bearpark, J. J. Heyd, E. Brothers, 
 K. N. Kudin, V. N. Staroverov, T. Keith, R. Kobayashi, J. Normand, 
 K. Raghavachari, A. Rendell, J. C. Burant, S. S. Iyengar, J. Tomasi, 
 M. Cossi, N. Rega, J. M. Millam, M. Klene, J. E. Knox, J. B. Cross, 
 V. Bakken, C. Adamo, J. Jaramillo, R. Gomperts, R. E. Stratmann, 
 O. Yazyev, A. J. Austin, R. Cammi, C. Pomelli, J. W. Ochterski, 
 R. L. Martin, K. Morokuma, V. G. Zakrzewski, G. A. Voth, 
 P. Salvador, J. J. Dannenberg, S. Dapprich, A. D. Daniels, 
 O. Farkas, J. B. Foresman, J. V. Ortiz, J. Cioslowski, 
 and D. J. Fox, Gaussian, Inc., Wallingford CT, 2013.
 
 ******************************************
 Gaussian 09:  ES64L-G09RevE.01 30-Nov-2015
                20-May-2024 
 ******************************************
 %chk=2WB97XDDHB21.chk
 -----------------------------
 # opt freq wb97xd/6-31+g(d,p)
 -----------------------------
 1/14=-1,18=20,19=15,26=3,38=1/1,3;
 2/9=110,12=2,17=6,18=5,40=1/2;
 3/5=1,6=6,7=111,11=2,16=1,25=1,30=1,71=1,74=-58/1,2,3;
 4//1;
 5/5=2,38=5/2;
 6/7=2,8=2,9=2,10=2,28=1/1;
 7//1,2,3,16;
 1/14=-1,18=20,19=15,26=3/3(2);
 2/9=110/2;
 99//99;
 2/9=110/2;
 3/5=1,6=6,7=111,11=2,16=1,25=1,30=1,71=1,74=-58/1,2,3;
 4/5=5,16=3,69=1/1;
 5/5=2,38=5/2;
 7//1,2,3,16;
 1/14=-1,18=20,19=15,26=3/3(-5);
 2/9=110/2;
 6/7=2,8=2,9=2,10=2,19=2,28=1/1;
 99/9=1/99;
 ----------
 [No Title]
 ----------
 Symbolic Z-matrix:
 Charge =  1 Multiplicity = 1
 C                     0.21852   1.26844  0. 
 C                     0.42184  -0.13647  0. 
 C                    -0.69451  -1.01156   0.00001 
 C                    -1.97506  -0.51302   0.00001 
 C                    -2.16451   0.88094   0.00001 
 C                    -1.09213   1.74959   0.00001 
 O                    -2.99465  -1.39891  -0.00002 
 C                     1.71744  -0.71434  -0.00001 
 O                     1.80384  -2.01682   0.00008 
 O                     2.7786    0.03169  -0.00011 
 O                     1.27713   2.08563  0. 
 H                    -0.54928  -2.08394   0.00001 
 H                    -3.17195   1.28772  0. 
 H                    -1.26638   2.82088   0.00001 
 H                    -3.8585   -0.96817   0.00022 
 H                     2.69877  -2.39207  -0.00002 
 H                     3.63127  -0.43339  -0.00002 
 H                     1.00728   3.01476   0. 
 

 GradGradGradGradGradGradGradGradGradGradGradGradGradGradGradGradGradGrad
 Berny optimization.
 Initialization pass.
                           ----------------------------
                           !    Initial Parameters    !
                           ! (Angstroms and Degrees)  !
 --------------------------                            --------------------------
 ! Name  Definition              Value          Derivative Info.                !
 --------------------------------------------------------------------------------
 ! R1    R(1,2)                  1.4195         estimate D2E/DX2                !
 ! R2    R(1,6)                  1.3962         estimate D2E/DX2                !
 ! R3    R(1,11)                 1.3373         estimate D2E/DX2                !
 ! R4    R(2,3)                  1.4185         estimate D2E/DX2                !
 ! R5    R(2,8)                  1.4186         estimate D2E/DX2                !
 ! R6    R(3,4)                  1.3742         estimate D2E/DX2                !
 ! R7    R(3,12)                 1.0822         estimate D2E/DX2                !
 ! R8    R(4,5)                  1.4068         estimate D2E/DX2                !
 ! R9    R(4,7)                  1.3507         estimate D2E/DX2                !
 ! R10   R(5,6)                  1.3801         estimate D2E/DX2                !
 ! R11   R(5,13)                 1.0865         estimate D2E/DX2                !
 ! R12   R(6,14)                 1.0854         estimate D2E/DX2                !
 ! R13   R(7,15)                 0.9653         estimate D2E/DX2                !
 ! R14   R(8,9)                  1.3053         estimate D2E/DX2                !
 ! R15   R(8,10)                 1.2972         estimate D2E/DX2                !
 ! R16   R(9,16)                 0.9704         estimate D2E/DX2                !
 ! R17   R(10,17)                0.9713         estimate D2E/DX2                !
 ! R18   R(11,18)                0.9675         estimate D2E/DX2                !
 ! A1    A(2,1,6)              118.3932         estimate D2E/DX2                !
 ! A2    A(2,1,11)             119.4315         estimate D2E/DX2                !
 ! A3    A(6,1,11)             122.1752         estimate D2E/DX2                !
 ! A4    A(1,2,3)              119.8577         estimate D2E/DX2                !
 ! A5    A(1,2,8)              122.2728         estimate D2E/DX2                !
 ! A6    A(3,2,8)              117.8695         estimate D2E/DX2                !
 ! A7    A(2,3,4)              120.6356         estimate D2E/DX2                !
 ! A8    A(2,3,12)             120.3796         estimate D2E/DX2                !
 ! A9    A(4,3,12)             118.9848         estimate D2E/DX2                !
 ! A10   A(3,4,5)              119.0116         estimate D2E/DX2                !
 ! A11   A(3,4,7)              117.7416         estimate D2E/DX2                !
 ! A12   A(5,4,7)              123.2468         estimate D2E/DX2                !
 ! A13   A(4,5,6)              121.2684         estimate D2E/DX2                !
 ! A14   A(4,5,13)             119.7274         estimate D2E/DX2                !
 ! A15   A(6,5,13)             119.0042         estimate D2E/DX2                !
 ! A16   A(1,6,5)              120.8334         estimate D2E/DX2                !
 ! A17   A(1,6,14)             119.397          estimate D2E/DX2                !
 ! A18   A(5,6,14)             119.7697         estimate D2E/DX2                !
 ! A19   A(4,7,15)             112.5114         estimate D2E/DX2                !
 ! A20   A(2,8,9)              117.8332         estimate D2E/DX2                !
 ! A21   A(2,8,10)             120.8535         estimate D2E/DX2                !
 ! A22   A(9,8,10)             121.3133         estimate D2E/DX2                !
 ! A23   A(8,9,16)             116.5438         estimate D2E/DX2                !
 ! A24   A(8,10,17)            116.2819         estimate D2E/DX2                !
 ! A25   A(1,11,18)            111.4713         estimate D2E/DX2                !
 ! D1    D(6,1,2,3)             -0.0004         estimate D2E/DX2                !
 ! D2    D(6,1,2,8)           -179.9998         estimate D2E/DX2                !
 ! D3    D(11,1,2,3)           179.9993         estimate D2E/DX2                !
 ! D4    D(11,1,2,8)            -0.0001         estimate D2E/DX2                !
 ! D5    D(2,1,6,5)             -0.0005         estimate D2E/DX2                !
 ! D6    D(2,1,6,14)          -179.9999         estimate D2E/DX2                !
 ! D7    D(11,1,6,5)           179.9999         estimate D2E/DX2                !
 ! D8    D(11,1,6,14)            0.0005         estimate D2E/DX2                !
 ! D9    D(2,1,11,18)          180.0            estimate D2E/DX2                !
 ! D10   D(6,1,11,18)           -0.0004         estimate D2E/DX2                !
 ! D11   D(1,2,3,4)              0.0007         estimate D2E/DX2                !
 ! D12   D(1,2,3,12)          -179.9997         estimate D2E/DX2                !
 ! D13   D(8,2,3,4)           -179.9998         estimate D2E/DX2                !
 ! D14   D(8,2,3,12)            -0.0003         estimate D2E/DX2                !
 ! D15   D(1,2,8,9)            179.9953         estimate D2E/DX2                !
 ! D16   D(1,2,8,10)            -0.0049         estimate D2E/DX2                !
 ! D17   D(3,2,8,9)             -0.0041         estimate D2E/DX2                !
 ! D18   D(3,2,8,10)           179.9957         estimate D2E/DX2                !
 ! D19   D(2,3,4,5)             -0.0003         estimate D2E/DX2                !
 ! D20   D(2,3,4,7)            179.9977         estimate D2E/DX2                !
 ! D21   D(12,3,4,5)          -179.9999         estimate D2E/DX2                !
 ! D22   D(12,3,4,7)            -0.0019         estimate D2E/DX2                !
 ! D23   D(3,4,5,6)             -0.0006         estimate D2E/DX2                !
 ! D24   D(3,4,5,13)           179.9994         estimate D2E/DX2                !
 ! D25   D(7,4,5,6)           -179.9984         estimate D2E/DX2                !
 ! D26   D(7,4,5,13)             0.0015         estimate D2E/DX2                !
 ! D27   D(3,4,7,15)           179.9849         estimate D2E/DX2                !
 ! D28   D(5,4,7,15)            -0.0172         estimate D2E/DX2                !
 ! D29   D(4,5,6,1)              0.001          estimate D2E/DX2                !
 ! D30   D(4,5,6,14)          -179.9997         estimate D2E/DX2                !
 ! D31   D(13,5,6,1)          -179.999          estimate D2E/DX2                !
 ! D32   D(13,5,6,14)            0.0004         estimate D2E/DX2                !
 ! D33   D(2,8,9,16)           179.9937         estimate D2E/DX2                !
 ! D34   D(10,8,9,16)           -0.0061         estimate D2E/DX2                !
 ! D35   D(2,8,10,17)          179.9945         estimate D2E/DX2                !
 ! D36   D(9,8,10,17)           -0.0057         estimate D2E/DX2                !
 --------------------------------------------------------------------------------
 Trust Radius=3.00D-01 FncErr=1.00D-07 GrdErr=1.00D-06
 Number of steps in this run=     89 maximum allowed number of steps=    108.
 GradGradGradGradGradGradGradGradGradGradGradGradGradGradGradGradGradGrad

                          Input orientation:                          
 ---------------------------------------------------------------------
 Center     Atomic      Atomic             Coordinates (Angstroms)
 Number     Number       Type             X           Y           Z
 ---------------------------------------------------------------------
      1          6           0        0.218520    1.268441   -0.000001
      2          6           0        0.421840   -0.136467   -0.000004
      3          6           0       -0.694512   -1.011562    0.000011
      4          6           0       -1.975059   -0.513021    0.000013
      5          6           0       -2.164514    0.880938    0.000006
      6          6           0       -1.092132    1.749589    0.000009
      7          8           0       -2.994648   -1.398914   -0.000021
      8          6           0        1.717439   -0.714336   -0.000009
      9          8           0        1.803839   -2.016818    0.000084
     10          8           0        2.778597    0.031693   -0.000107
     11          8           0        1.277125    2.085629   -0.000001
     12          1           0       -0.549276   -2.083938    0.000014
     13          1           0       -3.171953    1.287717   -0.000003
     14          1           0       -1.266382    2.820881    0.000009
     15          1           0       -3.858502   -0.968172    0.000218
     16          1           0        2.698772   -2.392069   -0.000016
     17          1           0        3.631270   -0.433385   -0.000020
     18          1           0        1.007276    3.014760    0.000001
 ---------------------------------------------------------------------
                    Distance matrix (angstroms):
                    1          2          3          4          5
     1  C    0.000000
     2  C    1.419544   0.000000
     3  C    2.456021   1.418462   0.000000
     4  C    2.825844   2.426297   1.374170   0.000000
     5  C    2.414334   2.779270   2.396343   1.406775   0.000000
     6  C    1.396178   2.418536   2.789634   2.428778   1.380057
     7  O    4.176031   3.642274   2.332524   1.350692   2.426283
     8  C    2.485591   1.418629   2.430196   3.697982   4.196958
     9  O    3.647761   2.333590   2.693009   4.067121   4.913737
    10  O    2.843157   2.362749   3.626412   4.784763   5.015532
    11  O    1.337326   2.381013   3.671504   4.162894   3.646390
    12  H    3.439180   2.176169   1.082166   2.121471   3.376312
    13  H    3.390528   3.865702   3.380000   2.162224   1.086463
    14  H    2.148256   3.405290   3.874875   3.408390   2.137760
    15  H    4.650220   4.360397   3.164288   1.937658   2.507749
    16  H    4.421649   3.205021   3.663356   5.037412   5.862092
    17  H    3.813538   3.223135   4.364250   5.606895   5.942942
    18  H    1.916185   3.205147   4.371196   4.619476   3.822754
                    6          7          8          9         10
     6  C    0.000000
     7  O    3.678673   0.000000
     8  C    3.736926   4.761556   0.000000
     9  O    4.751049   4.838107   1.305345   0.000000
    10  O    4.234821   5.947856   1.297157   2.268601   0.000000
    11  O    2.392969   5.512720   2.834375   4.136121   2.544223
    12  H    3.871772   2.539508   2.648359   2.354072   3.943429
    13  H    2.130488   2.692475   5.283405   5.973145   6.081664
    14  H    1.085371   4.559997   4.626116   5.729711   4.913392
    15  H    3.878019   0.965289   5.581716   5.758625   6.711990
    16  H    5.614649   5.779393   1.943657   0.970422   2.425076
    17  H    5.203451   6.695897   1.934343   2.418008   0.971261
    18  H    2.451157   5.957845   3.796115   5.094241   3.469332
                   11         12         13         14         15
    11  O    0.000000
    12  H    4.552036   0.000000
    13  H    4.520062   4.271591   0.000000
    14  H    2.647645   4.956964   2.445770   0.000000
    15  H    5.974978   3.492264   2.358047   4.590861   0.000000
    16  H    4.697963   3.262631   6.928653   6.549603   6.710091
    17  H    3.447815   4.494585   7.017552   5.880242   7.508840
    18  H    0.967524   5.331001   4.522016   2.281909   6.288048
                   16         17         18
    16  H    0.000000
    17  H    2.169331   0.000000
    18  H    5.665241   4.333018   0.000000
 Stoichiometry    C7H7O4(1+)
 Framework group  C1[X(C7H7O4)]
 Deg. of freedom    48
 Full point group                 C1      NOp   1
 Largest Abelian subgroup         C1      NOp   1
 Largest concise Abelian subgroup C1      NOp   1
                         Standard orientation:                         
 ---------------------------------------------------------------------
 Center     Atomic      Atomic             Coordinates (Angstroms)
 Number     Number       Type             X           Y           Z
 ---------------------------------------------------------------------
      1          6           0        0.218520    1.268441   -0.000001
      2          6           0        0.421840   -0.136467   -0.000004
      3          6           0       -0.694512   -1.011562    0.000011
      4          6           0       -1.975059   -0.513021    0.000013
      5          6           0       -2.164514    0.880938    0.000006
      6          6           0       -1.092132    1.749589    0.000009
      7          8           0       -2.994648   -1.398914   -0.000021
      8          6           0        1.717439   -0.714336   -0.000009
      9          8           0        1.803839   -2.016818    0.000084
     10          8           0        2.778597    0.031693   -0.000107
     11          8           0        1.277125    2.085629   -0.000001
     12          1           0       -0.549276   -2.083938    0.000014
     13          1           0       -3.171953    1.287717   -0.000003
     14          1           0       -1.266382    2.820881    0.000009
     15          1           0       -3.858502   -0.968172    0.000218
     16          1           0        2.698772   -2.392069   -0.000016
     17          1           0        3.631270   -0.433385   -0.000020
     18          1           0        1.007276    3.014760    0.000001
 ---------------------------------------------------------------------
 Rotational constants (GHZ):      1.7858526      0.9102282      0.6029246
 Standard basis: 6-31+G(d,p) (6D, 7F)
 There are   244 symmetry adapted cartesian basis functions of A   symmetry.
 There are   244 symmetry adapted basis functions of A   symmetry.
   244 basis functions,   401 primitive gaussians,   244 cartesian basis functions
    40 alpha electrons       40 beta electrons
       nuclear repulsion energy       608.3935479087 Hartrees.
 NAtoms=   18 NActive=   18 NUniq=   18 SFac= 1.00D+00 NAtFMM=   60 NAOKFM=F Big=F
 Integral buffers will be    131072 words long.
 Raffenetti 2 integral format.
 Two-electron integral symmetry is turned on.
 Nuclear repulsion after empirical dispersion term =      608.3852366408 Hartrees.
 One-electron integrals computed using PRISM.
 NBasis=   244 RedAO= T EigKep=  3.15D-06  NBF=   244
 NBsUse=   244 1.00D-06 EigRej= -1.00D+00 NBFU=   244
 ExpMin= 4.38D-02 ExpMax= 5.48D+03 ExpMxC= 8.25D+02 IAcc=2 IRadAn=         4 AccDes= 0.00D+00
 Harris functional with IExCor= 4639 and IRadAn=       4 diagonalized for initial guess.
 HarFok:  IExCor= 4639 AccDes= 0.00D+00 IRadAn=         4 IDoV= 1 UseB2=F ITyADJ=14
 ICtDFT=  3500011 ScaDFX=  1.000000  1.000000  1.000000  1.000000
 FoFCou: FMM=F IPFlag=           0 FMFlag=      100000 FMFlg1=           0
         NFxFlg=           0 DoJE=T BraDBF=F KetDBF=T FulRan=T
         wScrn=  0.000000 ICntrl=     500 IOpCl=  0 I1Cent=   200000004 NGrid=           0
         NMat0=    1 NMatS0=      1 NMatT0=    0 NMatD0=    1 NMtDS0=    0 NMtDT0=    0
 Petite list used in FoFCou.
 Keep R1 ints in memory in canonical form, NReq=900998300.
 Requested convergence on RMS density matrix=1.00D-08 within 128 cycles.
 Requested convergence on MAX density matrix=1.00D-06.
 Requested convergence on             energy=1.00D-06.
 No special actions if energy rises.
 SCF Done:  E(RwB97XD) =  -571.441506107     A.U. after   16 cycles
            NFock= 16  Conv=0.78D-08     -V/T= 2.0087

 **********************************************************************

            Population analysis using the SCF density.

 **********************************************************************

 Orbital symmetries:
       Occupied  (A) (A) (A) (A) (A) (A) (A) (A) (A) (A) (A) (A)
                 (A) (A) (A) (A) (A) (A) (A) (A) (A) (A) (A) (A)
                 (A) (A) (A) (A) (A) (A) (A) (A) (A) (A) (A) (A)
                 (A) (A) (A) (A)
       Virtual   (A) (A) (A) (A) (A) (A) (A) (A) (A) (A) (A) (A)
                 (A) (A) (A) (A) (A) (A) (A) (A) (A) (A) (A) (A)
                 (A) (A) (A) (A) (A) (A) (A) (A) (A) (A) (A) (A)
                 (A) (A) (A) (A) (A) (A) (A) (A) (A) (A) (A) (A)
                 (A) (A) (A) (A) (A) (A) (A) (A) (A) (A) (A) (A)
                 (A) (A) (A) (A) (A) (A) (A) (A) (A) (A) (A) (A)
                 (A) (A) (A) (A) (A) (A) (A) (A) (A) (A) (A) (A)
                 (A) (A) (A) (A) (A) (A) (A) (A) (A) (A) (A) (A)
                 (A) (A) (A) (A) (A) (A) (A) (A) (A) (A) (A) (A)
                 (A) (A) (A) (A) (A) (A) (A) (A) (A) (A) (A) (A)
                 (A) (A) (A) (A) (A) (A) (A) (A) (A) (A) (A) (A)
                 (A) (A) (A) (A) (A) (A) (A) (A) (A) (A) (A) (A)
                 (A) (A) (A) (A) (A) (A) (A) (A) (A) (A) (A) (A)
                 (A) (A) (A) (A) (A) (A) (A) (A) (A) (A) (A) (A)
                 (A) (A) (A) (A) (A) (A) (A) (A) (A) (A) (A) (A)
                 (A) (A) (A) (A) (A) (A) (A) (A) (A) (A) (A) (A)
                 (A) (A) (A) (A) (A) (A) (A) (A) (A) (A) (A) (A)
 The electronic state is 1-A.
 Alpha  occ. eigenvalues --  -19.55036 -19.55034 -19.47904 -19.44555 -10.67656
 Alpha  occ. eigenvalues --  -10.55369 -10.52023 -10.49910 -10.48223 -10.47226
 Alpha  occ. eigenvalues --  -10.47060  -1.46304  -1.38039  -1.34495  -1.30934
 Alpha  occ. eigenvalues --   -1.13575  -1.06924  -1.00892  -0.97803  -0.93529
 Alpha  occ. eigenvalues --   -0.89313  -0.87803  -0.82655  -0.80297  -0.77310
 Alpha  occ. eigenvalues --   -0.76973  -0.75363  -0.71779  -0.68573  -0.67703
 Alpha  occ. eigenvalues --   -0.67117  -0.66590  -0.65347  -0.65074  -0.63842
 Alpha  occ. eigenvalues --   -0.60275  -0.58422  -0.55983  -0.51168  -0.44271
 Alpha virt. eigenvalues --   -0.18977  -0.10890  -0.08422  -0.05676  -0.05057
 Alpha virt. eigenvalues --   -0.04826  -0.03779  -0.03056  -0.02285  -0.01565
 Alpha virt. eigenvalues --    0.00092   0.01218   0.02017   0.02580   0.03321
 Alpha virt. eigenvalues --    0.03779   0.05972   0.06827   0.06920   0.07662
 Alpha virt. eigenvalues --    0.07824   0.08308   0.08974   0.09789   0.09989
 Alpha virt. eigenvalues --    0.10177   0.11125   0.11830   0.12720   0.12859
 Alpha virt. eigenvalues --    0.13457   0.14318   0.14622   0.15331   0.15812
 Alpha virt. eigenvalues --    0.16481   0.16964   0.17840   0.18696   0.19584
 Alpha virt. eigenvalues --    0.20013   0.20110   0.20682   0.21781   0.22121
 Alpha virt. eigenvalues --    0.22892   0.24491   0.24603   0.25345   0.25862
 Alpha virt. eigenvalues --    0.26206   0.27140   0.27884   0.29938   0.30853
 Alpha virt. eigenvalues --    0.30998   0.34064   0.34198   0.35506   0.36608
 Alpha virt. eigenvalues --    0.37694   0.40334   0.41883   0.43821   0.53846
 Alpha virt. eigenvalues --    0.55221   0.58315   0.59813   0.61762   0.63244
 Alpha virt. eigenvalues --    0.64838   0.66335   0.66731   0.67832   0.69212
 Alpha virt. eigenvalues --    0.70829   0.72524   0.77171   0.77306   0.80209
 Alpha virt. eigenvalues --    0.81938   0.87633   0.88222   0.91878   0.92967
 Alpha virt. eigenvalues --    0.94605   0.97467   0.99013   1.00841   1.02370
 Alpha virt. eigenvalues --    1.03150   1.04619   1.07016   1.09193   1.09521
 Alpha virt. eigenvalues --    1.11234   1.12599   1.13629   1.13795   1.15592
 Alpha virt. eigenvalues --    1.16069   1.17952   1.18417   1.19417   1.19961
 Alpha virt. eigenvalues --    1.21307   1.21561   1.25162   1.25514   1.25706
 Alpha virt. eigenvalues --    1.29774   1.29802   1.31734   1.32340   1.33864
 Alpha virt. eigenvalues --    1.35777   1.39823   1.43909   1.44229   1.49078
 Alpha virt. eigenvalues --    1.50914   1.52242   1.53384   1.55391   1.57520
 Alpha virt. eigenvalues --    1.62532   1.64993   1.68826   1.69478   1.70545
 Alpha virt. eigenvalues --    1.79612   1.81362   1.83525   1.84286   1.85802
 Alpha virt. eigenvalues --    1.87250   1.88379   1.88456   1.91435   1.95533
 Alpha virt. eigenvalues --    1.96436   1.97289   2.00107   2.07604   2.13992
 Alpha virt. eigenvalues --    2.14669   2.17070   2.19356   2.21719   2.24736
 Alpha virt. eigenvalues --    2.27348   2.29569   2.30243   2.32594   2.34137
 Alpha virt. eigenvalues --    2.35183   2.38863   2.40447   2.42599   2.43385
 Alpha virt. eigenvalues --    2.45140   2.47611   2.50337   2.51274   2.53624
 Alpha virt. eigenvalues --    2.54350   2.55875   2.57375   2.59801   2.62027
 Alpha virt. eigenvalues --    2.65877   2.66762   2.68773   2.68845   2.72146
 Alpha virt. eigenvalues --    2.74884   2.82138   2.88020   2.90592   2.97723
 Alpha virt. eigenvalues --    3.00574   3.04735   3.10365   3.14416   3.18750
 Alpha virt. eigenvalues --    3.26711   3.33099   3.41754   3.42811   3.47511
 Alpha virt. eigenvalues --    3.49988   3.51995   3.75318   4.16603   4.20289
 Alpha virt. eigenvalues --    4.24623   4.28240   4.28868   4.40621   4.45230
 Alpha virt. eigenvalues --    4.52244   4.56498   4.77366   4.91640
          Condensed to atoms (all electrons):
               1          2          3          4          5          6
     1  C   16.235560  -3.495621  -2.806639   0.210102   0.821320  -3.632754
     2  C   -3.495621  10.142505  -1.602676   1.029098  -0.671983   0.483582
     3  C   -2.806639  -1.602676  13.465296  -3.669585   0.021258  -0.096572
     4  C    0.210102   1.029098  -3.669585   9.115398  -0.539555   0.800053
     5  C    0.821320  -0.671983   0.021258  -0.539555   6.364472  -0.595780
     6  C   -3.632754   0.483582  -0.096572   0.800053  -0.595780   8.822952
     7  O   -0.025330   0.036885   0.064012  -0.016957  -0.100129   0.042136
     8  C   -0.741987  -0.258764   0.513509  -0.734426   0.098065  -0.313148
     9  O   -0.039643   0.099020  -0.068107   0.045466  -0.007723   0.031808
    10  O   -0.129269   0.092476  -0.053374   0.018043   0.004801   0.077076
    11  O    0.206913  -0.220063   0.080943  -0.008645   0.038455   0.068864
    12  H   -0.000508   0.059729   0.092687   0.135726   0.011405   0.009734
    13  H    0.000915   0.017585  -0.041515   0.064926   0.197927   0.092150
    14  H    0.068074  -0.031595  -0.005792  -0.011595   0.142210   0.164586
    15  H    0.002298  -0.005893   0.067537  -0.041593  -0.019530  -0.003249
    16  H   -0.007300  -0.029752   0.022980  -0.001862   0.000348   0.004211
    17  H   -0.004872  -0.006664   0.006047   0.005632  -0.000396  -0.010319
    18  H   -0.002104   0.092115  -0.009342   0.002739  -0.000974  -0.100896
               7          8          9         10         11         12
     1  C   -0.025330  -0.741987  -0.039643  -0.129269   0.206913  -0.000508
     2  C    0.036885  -0.258764   0.099020   0.092476  -0.220063   0.059729
     3  C    0.064012   0.513509  -0.068107  -0.053374   0.080943   0.092687
     4  C   -0.016957  -0.734426   0.045466   0.018043  -0.008645   0.135726
     5  C   -0.100129   0.098065  -0.007723   0.004801   0.038455   0.011405
     6  C    0.042136  -0.313148   0.031808   0.077076   0.068864   0.009734
     7  O    8.306858  -0.006213   0.000065   0.000111   0.000251  -0.006749
     8  C   -0.006213   6.334996   0.080547   0.142570  -0.181151   0.018218
     9  O    0.000065   0.080547   8.160388  -0.106166   0.001609   0.000284
    10  O    0.000111   0.142570  -0.106166   8.176160  -0.015955   0.000531
    11  O    0.000251  -0.181151   0.001609  -0.015955   8.322401  -0.000166
    12  H   -0.006749   0.018218   0.000284   0.000531  -0.000166   0.464753
    13  H   -0.011061   0.001663   0.000001   0.000018  -0.000455  -0.000107
    14  H   -0.000419   0.011169  -0.000001   0.000015  -0.013791   0.000007
    15  H    0.229523   0.002648   0.000006   0.000002  -0.000007  -0.000026
    16  H    0.000007   0.037310   0.218303  -0.013319   0.000127   0.000346
    17  H    0.000002   0.036626  -0.014070   0.201349   0.004424   0.000009
    18  H   -0.000006   0.020972  -0.000041   0.000905   0.216832   0.000003
              13         14         15         16         17         18
     1  C    0.000915   0.068074   0.002298  -0.007300  -0.004872  -0.002104
     2  C    0.017585  -0.031595  -0.005893  -0.029752  -0.006664   0.092115
     3  C   -0.041515  -0.005792   0.067537   0.022980   0.006047  -0.009342
     4  C    0.064926  -0.011595  -0.041593  -0.001862   0.005632   0.002739
     5  C    0.197927   0.142210  -0.019530   0.000348  -0.000396  -0.000974
     6  C    0.092150   0.164586  -0.003249   0.004211  -0.010319  -0.100896
     7  O   -0.011061  -0.000419   0.229523   0.000007   0.000002  -0.000006
     8  C    0.001663   0.011169   0.002648   0.037310   0.036626   0.020972
     9  O    0.000001  -0.000001   0.000006   0.218303  -0.014070  -0.000041
    10  O    0.000018   0.000015   0.000002  -0.013319   0.201349   0.000905
    11  O   -0.000455  -0.013791  -0.000007   0.000127   0.004424   0.216832
    12  H   -0.000107   0.000007  -0.000026   0.000346   0.000009   0.000003
    13  H    0.486252  -0.003661   0.004343  -0.000000   0.000000  -0.000013
    14  H   -0.003661   0.489047  -0.000003  -0.000000  -0.000000   0.006274
    15  H    0.004343  -0.000003   0.375843   0.000000   0.000000  -0.000000
    16  H   -0.000000  -0.000000   0.000000   0.344268   0.006735  -0.000000
    17  H    0.000000  -0.000000   0.000000   0.006735   0.341214   0.000004
    18  H   -0.000013   0.006274  -0.000000  -0.000000   0.000004   0.348856
 Mulliken charges:
               1
     1  C   -0.659154
     2  C    0.270017
     3  C    0.019332
     4  C   -0.402962
     5  C    0.235809
     6  C    0.155565
     7  O   -0.512986
     8  C    0.937396
     9  O   -0.401746
    10  O   -0.395973
    11  O   -0.500587
    12  H    0.214124
    13  H    0.191034
    14  H    0.185474
    15  H    0.388101
    16  H    0.417598
    17  H    0.434281
    18  H    0.424676
 Sum of Mulliken charges =   1.00000
 Mulliken charges with hydrogens summed into heavy atoms:
               1
     1  C   -0.659154
     2  C    0.270017
     3  C    0.233457
     4  C   -0.402962
     5  C    0.426843
     6  C    0.341040
     7  O   -0.124885
     8  C    0.937396
     9  O    0.015852
    10  O    0.038308
    11  O   -0.075910
 Electronic spatial extent (au):  <R**2>=           1722.4799
 Charge=              1.0000 electrons
 Dipole moment (field-independent basis, Debye):
    X=              4.1266    Y=              0.3021    Z=              0.0004  Tot=              4.1376
 Quadrupole moment (field-independent basis, Debye-Ang):
   XX=            -13.4074   YY=            -40.0748   ZZ=            -63.3965
   XY=            -17.3084   XZ=             -0.0019   YZ=              0.0000
 Traceless Quadrupole moment (field-independent basis, Debye-Ang):
   XX=             25.5522   YY=             -1.1152   ZZ=            -24.4369
   XY=            -17.3084   XZ=             -0.0019   YZ=              0.0000
 Octapole moment (field-independent basis, Debye-Ang**2):
  XXX=             44.8591  YYY=             30.2964  ZZZ=             -0.0001  XYY=             34.8518
  XXY=            -39.1701  XXZ=              0.0078  XZZ=              8.9116  YZZ=             -3.1962
  YYZ=             -0.0007  XYZ=              0.0029
 Hexadecapole moment (field-independent basis, Debye-Ang**3):
 XXXX=           -555.6164 YYYY=           -487.4591 ZZZZ=            -61.4576 XXXY=           -145.4333
 XXXZ=             -0.0257 YYYX=            -51.8136 YYYZ=              0.0043 ZZZX=              0.0037
 ZZZY=              0.0025 XXYY=           -256.4072 XXZZ=           -234.1017 YYZZ=           -135.3189
 XXYZ=             -0.0047 YYXZ=             -0.0025 ZZXY=              0.8236
 N-N= 6.083852366408D+02 E-N=-2.538701138230D+03  KE= 5.664913220595D+02
 Calling FoFJK, ICntrl=      2127 FMM=F ISym2X=0 I1Cent= 0 IOpClX= 0 NMat=1 NMatS=1 NMatT=0.
 ***** Axes restored to original set *****
 -------------------------------------------------------------------
 Center     Atomic                   Forces (Hartrees/Bohr)
 Number     Number              X              Y              Z
 -------------------------------------------------------------------
      1        6           0.002650187    0.002336549    0.000000113
      2        6          -0.000401318    0.000449292    0.000000124
      3        6           0.000784845   -0.001526384   -0.000000365
      4        6          -0.003982010   -0.001356464   -0.000000719
      5        6          -0.001124495    0.000467680    0.000000647
      6        6          -0.000751015    0.001409304   -0.000000165
      7        8          -0.001005039    0.001524052    0.000002532
      8        6           0.003804310   -0.002095288   -0.000000378
      9        8           0.002152280   -0.001107732   -0.000000299
     10        8           0.002256550   -0.001056982    0.000000710
     11        8          -0.001229896    0.002008301   -0.000000145
     12        1           0.000042528   -0.000485802   -0.000000086
     13        1          -0.000025514    0.000362116   -0.000000021
     14        1          -0.000306791    0.000136455    0.000000024
     15        1           0.003030374   -0.000855257   -0.000002002
     16        1          -0.003067230    0.001713882    0.000000494
     17        1          -0.003256053    0.001375887   -0.000000562
     18        1           0.000428287   -0.003299611    0.000000098
 -------------------------------------------------------------------
 Cartesian Forces:  Max     0.003982010 RMS     0.001513152

 GradGradGradGradGradGradGradGradGradGradGradGradGradGradGradGradGradGrad
 Berny optimization.
 FormGI is forming the generalized inverse of G from B-inverse, IUseBI=4.
 Internal  Forces:  Max     0.003521809 RMS     0.001023761
 Search for a local minimum.
 Step number   1 out of a maximum of   89
 All quantities printed in internal units (Hartrees-Bohrs-Radians)
 Mixed Optimization -- RFO/linear search
 Second derivative matrix not updated -- first step.
 ITU=  0
     Eigenvalues ---    0.01838   0.01842   0.01905   0.02057   0.02106
     Eigenvalues ---    0.02141   0.02186   0.02219   0.02253   0.02293
     Eigenvalues ---    0.02344   0.02432   0.02521   0.02944   0.03052
     Eigenvalues ---    0.16000   0.16000   0.16000   0.16000   0.16000
     Eigenvalues ---    0.16000   0.16000   0.22358   0.23489   0.24600
     Eigenvalues ---    0.25000   0.25000   0.25000   0.25000   0.25000
     Eigenvalues ---    0.35225   0.35353   0.35734   0.40043   0.41318
     Eigenvalues ---    0.42667   0.43734   0.44929   0.47965   0.49405
     Eigenvalues ---    0.53120   0.53291   0.53886   0.54351   0.54874
     Eigenvalues ---    0.57808   0.65730   0.67989
 RFO step:  Lambda=-1.81882699D-04 EMin= 1.83808510D-02
 Linear search not attempted -- first point.
 Iteration  1 RMS(Cart)=  0.00287827 RMS(Int)=  0.00000523
 Iteration  2 RMS(Cart)=  0.00000590 RMS(Int)=  0.00000005
 Iteration  3 RMS(Cart)=  0.00000000 RMS(Int)=  0.00000005
 Variable       Old X    -DE/DX   Delta X   Delta X   Delta X     New X
                                 (Linear)    (Quad)   (Total)
    R1        2.68255   0.00178   0.00000   0.00416   0.00416   2.68671
    R2        2.63839   0.00226   0.00000   0.00488   0.00488   2.64327
    R3        2.52718  -0.00143   0.00000  -0.00248  -0.00248   2.52470
    R4        2.68050   0.00159   0.00000   0.00373   0.00373   2.68423
    R5        2.68082   0.00220   0.00000   0.00516   0.00516   2.68598
    R6        2.59681   0.00222   0.00000   0.00444   0.00444   2.60124
    R7        2.04500   0.00049   0.00000   0.00137   0.00137   2.04637
    R8        2.65842   0.00165   0.00000   0.00372   0.00372   2.66214
    R9        2.55244  -0.00196   0.00000  -0.00357  -0.00357   2.54887
   R10        2.60793   0.00138   0.00000   0.00280   0.00280   2.61073
   R11        2.05312   0.00016   0.00000   0.00045   0.00045   2.05357
   R12        2.05105   0.00018   0.00000   0.00051   0.00051   2.05157
   R13        1.82413  -0.00310   0.00000  -0.00571  -0.00571   1.81843
   R14        2.46674  -0.00068   0.00000  -0.00103  -0.00103   2.46571
   R15        2.45127  -0.00062   0.00000  -0.00091  -0.00091   2.45036
   R16        1.83383  -0.00349   0.00000  -0.00654  -0.00654   1.82729
   R17        1.83542  -0.00352   0.00000  -0.00663  -0.00663   1.82879
   R18        1.82836  -0.00328   0.00000  -0.00609  -0.00609   1.82227
    A1        2.06635  -0.00014   0.00000  -0.00061  -0.00061   2.06574
    A2        2.08447  -0.00011   0.00000  -0.00041  -0.00041   2.08407
    A3        2.13236   0.00025   0.00000   0.00102   0.00102   2.13338
    A4        2.09191   0.00003   0.00000   0.00011   0.00011   2.09202
    A5        2.13406   0.00027   0.00000   0.00109   0.00109   2.13515
    A6        2.05721  -0.00030   0.00000  -0.00120  -0.00120   2.05601
    A7        2.10549   0.00003   0.00000   0.00015   0.00015   2.10564
    A8        2.10102   0.00000   0.00000   0.00003   0.00003   2.10105
    A9        2.07668  -0.00003   0.00000  -0.00018  -0.00018   2.07650
   A10        2.07714  -0.00007   0.00000  -0.00027  -0.00027   2.07688
   A11        2.05498  -0.00052   0.00000  -0.00208  -0.00207   2.05290
   A12        2.15106   0.00059   0.00000   0.00234   0.00234   2.15341
   A13        2.11653   0.00005   0.00000   0.00020   0.00020   2.11673
   A14        2.08964   0.00030   0.00000   0.00192   0.00192   2.09156
   A15        2.07701  -0.00035   0.00000  -0.00212  -0.00212   2.07490
   A16        2.10894   0.00011   0.00000   0.00043   0.00043   2.10937
   A17        2.08387   0.00025   0.00000   0.00165   0.00165   2.08552
   A18        2.09038  -0.00035   0.00000  -0.00207  -0.00207   2.08830
   A19        1.96369  -0.00105   0.00000  -0.00657  -0.00657   1.95712
   A20        2.05658  -0.00042   0.00000  -0.00169  -0.00169   2.05489
   A21        2.10929  -0.00052   0.00000  -0.00209  -0.00209   2.10720
   A22        2.11732   0.00095   0.00000   0.00378   0.00378   2.12109
   A23        2.03407  -0.00075   0.00000  -0.00465  -0.00465   2.02942
   A24        2.02950  -0.00062   0.00000  -0.00389  -0.00389   2.02561
   A25        1.94554  -0.00095   0.00000  -0.00590  -0.00590   1.93964
    D1       -0.00001  -0.00000   0.00000   0.00000   0.00000  -0.00001
    D2       -3.14159  -0.00000   0.00000   0.00000   0.00000  -3.14159
    D3        3.14158   0.00000   0.00000   0.00000   0.00000   3.14158
    D4       -0.00000   0.00000   0.00000   0.00000   0.00000  -0.00000
    D5       -0.00001   0.00000   0.00000   0.00000   0.00000  -0.00001
    D6       -3.14159  -0.00000   0.00000  -0.00000  -0.00000  -3.14159
    D7        3.14159   0.00000   0.00000   0.00000   0.00000   3.14159
    D8        0.00001  -0.00000   0.00000  -0.00000  -0.00000   0.00001
    D9        3.14159   0.00000   0.00000   0.00000   0.00000  -3.14159
   D10       -0.00001   0.00000   0.00000   0.00000   0.00000  -0.00000
   D11        0.00001  -0.00000   0.00000  -0.00000  -0.00000   0.00001
   D12       -3.14159  -0.00000   0.00000  -0.00000  -0.00000  -3.14159
   D13       -3.14159  -0.00000   0.00000  -0.00000  -0.00000  -3.14159
   D14       -0.00000  -0.00000   0.00000  -0.00000  -0.00000  -0.00001
   D15        3.14151  -0.00000   0.00000  -0.00000  -0.00000   3.14151
   D16       -0.00009   0.00000   0.00000   0.00000   0.00000  -0.00008
   D17       -0.00007  -0.00000   0.00000  -0.00000  -0.00000  -0.00007
   D18        3.14152   0.00000   0.00000   0.00000   0.00000   3.14152
   D19       -0.00000   0.00000   0.00000   0.00000   0.00000  -0.00000
   D20        3.14155   0.00000   0.00000   0.00000   0.00000   3.14156
   D21       -3.14159   0.00000   0.00000   0.00000   0.00000  -3.14159
   D22       -0.00003   0.00000   0.00000   0.00000   0.00000  -0.00003
   D23       -0.00001   0.00000   0.00000   0.00000   0.00000  -0.00001
   D24        3.14158   0.00000   0.00000   0.00000   0.00000   3.14158
   D25       -3.14156  -0.00000   0.00000  -0.00000  -0.00000  -3.14157
   D26        0.00003  -0.00000   0.00000  -0.00000  -0.00000   0.00002
   D27        3.14133   0.00000   0.00000   0.00004   0.00004   3.14137
   D28       -0.00030   0.00000   0.00000   0.00005   0.00005  -0.00025
   D29        0.00002  -0.00000   0.00000  -0.00000  -0.00000   0.00001
   D30       -3.14159  -0.00000   0.00000  -0.00000  -0.00000  -3.14159
   D31       -3.14157  -0.00000   0.00000  -0.00000  -0.00000  -3.14158
   D32        0.00001   0.00000   0.00000   0.00000   0.00000   0.00001
   D33        3.14148   0.00000   0.00000   0.00001   0.00001   3.14149
   D34       -0.00011   0.00000   0.00000   0.00000   0.00000  -0.00010
   D35        3.14150   0.00000   0.00000   0.00001   0.00001   3.14150
   D36       -0.00010   0.00000   0.00000   0.00001   0.00001  -0.00009
         Item               Value     Threshold  Converged?
 Maximum Force            0.003522     0.000450     NO 
 RMS     Force            0.001024     0.000300     NO 
 Maximum Displacement     0.011488     0.001800     NO 
 RMS     Displacement     0.002877     0.001200     NO 
 Predicted change in Energy=-9.098397D-05
 GradGradGradGradGradGradGradGradGradGradGradGradGradGradGradGradGradGrad

                          Input orientation:                          
 ---------------------------------------------------------------------
 Center     Atomic      Atomic             Coordinates (Angstroms)
 Number     Number       Type             X           Y           Z
 ---------------------------------------------------------------------
      1          6           0        0.219958    1.270957   -0.000002
      2          6           0        0.423640   -0.136126   -0.000004
      3          6           0       -0.694137   -1.012599    0.000013
      4          6           0       -1.977019   -0.513581    0.000017
      5          6           0       -2.166772    0.882326    0.000011
      6          6           0       -1.093430    1.752145    0.000010
      7          8           0       -2.993085   -1.400643   -0.000009
      8          6           0        1.721122   -0.716475   -0.000011
      9          8           0        1.803913   -2.018643    0.000085
     10          8           0        2.781114    0.030372   -0.000108
     11          8           0        1.277831    2.086949   -0.000004
     12          1           0       -0.548679   -2.085676    0.000015
     13          1           0       -3.173658    1.291107    0.000005
     14          1           0       -1.270181    2.823303    0.000010
     15          1           0       -3.852423   -0.967630    0.000192
     16          1           0        2.696365   -2.390853   -0.000009
     17          1           0        3.629381   -0.435451   -0.000027
     18          1           0        1.003762    3.011484    0.000000
 ---------------------------------------------------------------------
                    Distance matrix (angstroms):
                    1          2          3          4          5
     1  C    0.000000
     2  C    1.421748   0.000000
     3  C    2.459714   1.420433   0.000000
     4  C    2.830420   2.430151   1.376519   0.000000
     5  C    2.418163   2.783429   2.399874   1.408745   0.000000
     6  C    1.398760   2.422203   2.793428   2.431921   1.381538
     7  O    4.178646   3.643214   2.331467   1.348803   2.427908
     8  C    2.490658   1.421360   2.433344   3.703702   4.203794
     9  O    3.651079   2.334315   2.693024   4.069478   4.917516
    10  O    2.845799   2.363346   3.628382   4.789124   5.020697
    11  O    1.336016   2.381534   3.673670   4.166149   3.649165
    12  H    3.443513   2.178566   1.082891   2.124061   3.380423
    13  H    3.393676   3.870084   3.384537   2.165374   1.086702
    14  H    2.151811   3.409875   3.878913   3.410925   2.138052
    15  H    4.647101   4.356158   3.158606   1.929585   2.502749
    16  H    4.420571   3.201418   3.659930   5.036335   5.862065
    17  H    3.812610   3.219685   4.361869   5.606944   5.944067
    18  H    1.908870   3.200623   4.367620   4.616399   3.819111
                    6          7          8          9         10
     6  C    0.000000
     7  O    3.680864   0.000000
     8  C    3.743767   4.763594   0.000000
     9  O    4.755359   4.836642   1.304797   0.000000
    10  O    4.239881   5.948880   1.296674   2.270107   0.000000
    11  O    2.394780   5.513983   2.838255   4.139160   2.547424
    12  H    3.876290   2.538580   2.650793   2.353547   3.945273
    13  H    2.130705   2.697800   5.290488   5.977513   6.086770
    14  H    1.085642   4.561810   4.634428   5.735372   4.920716
    15  H    3.874173   0.962269   5.579200   5.753152   6.708190
    16  H    5.614889   5.774976   1.937690   0.966960   2.422708
    17  H    5.204855   6.692432   1.928841   2.416368   0.967754
    18  H    2.446253   5.953289   3.796352   5.093370   3.470736
                   11         12         13         14         15
    11  O    0.000000
    12  H    4.554880   0.000000
    13  H    4.522070   4.277053   0.000000
    14  H    2.652278   4.961717   2.443532   0.000000
    15  H    5.970758   3.487800   2.358519   4.586844   0.000000
    16  H    4.697122   3.259363   6.929214   6.551405   6.701655
    17  H    3.448520   4.492152   7.018714   5.884316   7.500706
    18  H    0.964302   5.328331   4.517803   2.281716   6.278207
                   16         17         18
    16  H    0.000000
    17  H    2.166591   0.000000
    18  H    5.661285   4.333040   0.000000
 Stoichiometry    C7H7O4(1+)
 Framework group  C1[X(C7H7O4)]
 Deg. of freedom    48
 Full point group                 C1      NOp   1
 Largest Abelian subgroup         C1      NOp   1
 Largest concise Abelian subgroup C1      NOp   1
                         Standard orientation:                         
 ---------------------------------------------------------------------
 Center     Atomic      Atomic             Coordinates (Angstroms)
 Number     Number       Type             X           Y           Z
 ---------------------------------------------------------------------
      1          6           0        0.218345    1.271261   -0.000003
      2          6           0        0.423226   -0.135647   -0.000006
      3          6           0       -0.693804   -1.013072    0.000011
      4          6           0       -1.977110   -0.515148    0.000016
      5          6           0       -2.168053    0.880597    0.000010
      6          6           0       -1.095453    1.751330    0.000009
      7          8           0       -2.992420   -1.403075   -0.000011
      8          6           0        1.721202   -0.714891   -0.000012
      9          8           0        1.805102   -2.016988    0.000084
     10          8           0        2.780557    0.032859   -0.000109
     11          8           0        1.275522    2.088154   -0.000006
     12          1           0       -0.547432   -2.086025    0.000014
     13          1           0       -3.175287    1.288520    0.000004
     14          1           0       -1.273116    2.822337    0.000009
     15          1           0       -3.852127   -0.970794    0.000190
     16          1           0        2.697871   -2.388437   -0.000011
     17          1           0        3.629221   -0.432241   -0.000028
     18          1           0        1.000666    3.012456   -0.000001
 ---------------------------------------------------------------------
 Rotational constants (GHZ):      1.7822076      0.9094930      0.6021864
 Standard basis: 6-31+G(d,p) (6D, 7F)
 There are   244 symmetry adapted cartesian basis functions of A   symmetry.
 There are   244 symmetry adapted basis functions of A   symmetry.
   244 basis functions,   401 primitive gaussians,   244 cartesian basis functions
    40 alpha electrons       40 beta electrons
       nuclear repulsion energy       608.0884956295 Hartrees.
 NAtoms=   18 NActive=   18 NUniq=   18 SFac= 1.00D+00 NAtFMM=   60 NAOKFM=F Big=F
 Integral buffers will be    131072 words long.
 Raffenetti 2 integral format.
 Two-electron integral symmetry is turned on.
 Nuclear repulsion after empirical dispersion term =      608.0801853403 Hartrees.
 One-electron integrals computed using PRISM.
 NBasis=   244 RedAO= T EigKep=  3.19D-06  NBF=   244
 NBsUse=   244 1.00D-06 EigRej= -1.00D+00 NBFU=   244
 Initial guess from the checkpoint file:  "2WB97XDDHB21.chk"
 B after Tr=     0.000000   -0.000000   -0.000000
         Rot=    1.000000    0.000001   -0.000001   -0.000419 Ang=   0.05 deg.
 Keep R1 ints in memory in canonical form, NReq=900998300.
 Requested convergence on RMS density matrix=1.00D-08 within 128 cycles.
 Requested convergence on MAX density matrix=1.00D-06.
 Requested convergence on             energy=1.00D-06.
 No special actions if energy rises.
 SCF Done:  E(RwB97XD) =  -571.441589871     A.U. after   11 cycles
            NFock= 11  Conv=0.70D-08     -V/T= 2.0087
 Calling FoFJK, ICntrl=      2127 FMM=F ISym2X=0 I1Cent= 0 IOpClX= 0 NMat=1 NMatS=1 NMatT=0.
 ***** Axes restored to original set *****
 -------------------------------------------------------------------
 Center     Atomic                   Forces (Hartrees/Bohr)
 Number     Number              X              Y              Z
 -------------------------------------------------------------------
      1        6           0.000382713   -0.000143833   -0.000000012
      2        6          -0.000550702    0.000142162    0.000000025
      3        6           0.000408392    0.000249043   -0.000000339
      4        6          -0.000266950   -0.000260364   -0.000000827
      5        6           0.000196649   -0.000208448    0.000000502
      6        6           0.000071098   -0.000207850   -0.000000061
      7        8           0.000209501    0.000419132    0.000001702
      8        6          -0.000241556   -0.000050954    0.000000386
      9        8           0.000166975    0.000315966   -0.000000286
     10        8          -0.000129717   -0.000206116    0.000000207
     11        8          -0.000331073   -0.000129245   -0.000000104
     12        1          -0.000080598    0.000054483   -0.000000088
     13        1           0.000042661    0.000088715    0.000000019
     14        1          -0.000038215   -0.000010660   -0.000000003
     15        1          -0.000237459   -0.000116785   -0.000001082
     16        1           0.000057157   -0.000168730    0.000000147
     17        1           0.000163800    0.000073625   -0.000000256
     18        1           0.000177323    0.000159860    0.000000070
 -------------------------------------------------------------------
 Cartesian Forces:  Max     0.000550702 RMS     0.000182294

 GradGradGradGradGradGradGradGradGradGradGradGradGradGradGradGradGradGrad
 Berny optimization.
 Using GEDIIS/GDIIS optimizer.
 FormGI is forming the generalized inverse of G from B-inverse, IUseBI=4.
 Internal  Forces:  Max     0.000401411 RMS     0.000126233
 Search for a local minimum.
 Step number   2 out of a maximum of   89
 All quantities printed in internal units (Hartrees-Bohrs-Radians)
 Mixed Optimization -- En-DIIS/RFO-DIIS
 Update second derivatives using D2CorX and points    1    2
 DE= -8.38D-05 DEPred=-9.10D-05 R= 9.21D-01
 TightC=F SS=  1.41D+00  RLast= 2.16D-02 DXNew= 5.0454D-01 6.4929D-02
 Trust test= 9.21D-01 RLast= 2.16D-02 DXMaxT set to 3.00D-01
 ITU=  1  0
 Use linear search instead of GDIIS.
     Eigenvalues ---    0.01838   0.01842   0.01905   0.02057   0.02106
     Eigenvalues ---    0.02141   0.02186   0.02219   0.02253   0.02293
     Eigenvalues ---    0.02344   0.02434   0.02521   0.02944   0.03052
     Eigenvalues ---    0.15865   0.16000   0.16000   0.16000   0.16000
     Eigenvalues ---    0.16000   0.16966   0.22358   0.23454   0.24344
     Eigenvalues ---    0.24884   0.25000   0.25000   0.25000   0.25545
     Eigenvalues ---    0.35225   0.35353   0.35756   0.40243   0.41313
     Eigenvalues ---    0.42432   0.43975   0.45725   0.47936   0.49170
     Eigenvalues ---    0.53039   0.53285   0.53792   0.54285   0.55227
     Eigenvalues ---    0.57686   0.65668   0.67961
 RFO step:  Lambda=-3.85898347D-06 EMin= 1.83807752D-02
 Quartic linear search produced a step of -0.06885.
 Iteration  1 RMS(Cart)=  0.00135926 RMS(Int)=  0.00000105
 Iteration  2 RMS(Cart)=  0.00000119 RMS(Int)=  0.00000001
 Iteration  3 RMS(Cart)=  0.00000000 RMS(Int)=  0.00000001
 Variable       Old X    -DE/DX   Delta X   Delta X   Delta X     New X
                                 (Linear)    (Quad)   (Total)
    R1        2.68671  -0.00033  -0.00029  -0.00036  -0.00064   2.68607
    R2        2.64327  -0.00016  -0.00034   0.00009  -0.00025   2.64303
    R3        2.52470  -0.00011   0.00017  -0.00040  -0.00023   2.52448
    R4        2.68423  -0.00024  -0.00026  -0.00018  -0.00043   2.68379
    R5        2.68598   0.00003  -0.00036   0.00052   0.00017   2.68615
    R6        2.60124   0.00007  -0.00031   0.00054   0.00024   2.60148
    R7        2.04637  -0.00006  -0.00009  -0.00004  -0.00014   2.04623
    R8        2.66214  -0.00020  -0.00026  -0.00007  -0.00033   2.66181
    R9        2.54887  -0.00017   0.00025  -0.00061  -0.00036   2.54851
   R10        2.61073  -0.00010  -0.00019   0.00006  -0.00013   2.61060
   R11        2.05357  -0.00001  -0.00003   0.00002  -0.00001   2.05356
   R12        2.05157  -0.00001  -0.00004   0.00003  -0.00001   2.05156
   R13        1.81843   0.00015   0.00039  -0.00025   0.00014   1.81857
   R14        2.46571  -0.00015   0.00007  -0.00030  -0.00023   2.46548
   R15        2.45036  -0.00003   0.00006  -0.00013  -0.00007   2.45029
   R16        1.82729   0.00012   0.00045  -0.00037   0.00008   1.82737
   R17        1.82879   0.00010   0.00046  -0.00041   0.00005   1.82884
   R18        1.82227   0.00011   0.00042  -0.00035   0.00006   1.82233
    A1        2.06574  -0.00017   0.00004  -0.00076  -0.00071   2.06502
    A2        2.08407   0.00007   0.00003   0.00025   0.00028   2.08434
    A3        2.13338   0.00010  -0.00007   0.00051   0.00044   2.13382
    A4        2.09202   0.00018  -0.00001   0.00064   0.00063   2.09265
    A5        2.13515  -0.00032  -0.00007  -0.00108  -0.00116   2.13399
    A6        2.05601   0.00014   0.00008   0.00045   0.00053   2.05654
    A7        2.10564   0.00004  -0.00001   0.00019   0.00018   2.10581
    A8        2.10105   0.00005  -0.00000   0.00031   0.00030   2.10135
    A9        2.07650  -0.00009   0.00001  -0.00049  -0.00048   2.07602
   A10        2.07688  -0.00022   0.00002  -0.00083  -0.00081   2.07607
   A11        2.05290   0.00020   0.00014   0.00053   0.00068   2.05358
   A12        2.15341   0.00003  -0.00016   0.00029   0.00013   2.15354
   A13        2.11673   0.00010  -0.00001   0.00043   0.00041   2.11714
   A14        2.09156   0.00004  -0.00013   0.00048   0.00035   2.09191
   A15        2.07490  -0.00014   0.00015  -0.00091  -0.00076   2.07413
   A16        2.10937   0.00008  -0.00003   0.00033   0.00030   2.10967
   A17        2.08552   0.00001  -0.00011   0.00029   0.00018   2.08569
   A18        2.08830  -0.00009   0.00014  -0.00062  -0.00048   2.08782
   A19        1.95712   0.00040   0.00045   0.00176   0.00222   1.95934
   A20        2.05489   0.00027   0.00012   0.00084   0.00096   2.05584
   A21        2.10720  -0.00014   0.00014  -0.00070  -0.00056   2.10664
   A22        2.12109  -0.00013  -0.00026  -0.00014  -0.00040   2.12070
   A23        2.02942   0.00022   0.00032   0.00089   0.00121   2.03063
   A24        2.02561   0.00028   0.00027   0.00131   0.00158   2.02719
   A25        1.93964   0.00038   0.00041   0.00168   0.00209   1.94172
    D1       -0.00001   0.00000  -0.00000   0.00000   0.00000  -0.00000
    D2       -3.14159   0.00000  -0.00000   0.00000   0.00000  -3.14159
    D3        3.14158   0.00000  -0.00000   0.00000   0.00000   3.14158
    D4       -0.00000   0.00000  -0.00000   0.00000   0.00000  -0.00000
    D5       -0.00001   0.00000  -0.00000   0.00000   0.00000  -0.00001
    D6       -3.14159  -0.00000   0.00000  -0.00000  -0.00000  -3.14159
    D7        3.14159   0.00000  -0.00000   0.00000   0.00000   3.14159
    D8        0.00001  -0.00000   0.00000  -0.00000  -0.00000   0.00001
    D9       -3.14159   0.00000  -0.00000   0.00000   0.00000  -3.14159
   D10       -0.00000   0.00000  -0.00000   0.00000   0.00000  -0.00000
   D11        0.00001  -0.00000   0.00000  -0.00000  -0.00000   0.00001
   D12       -3.14159  -0.00000   0.00000  -0.00000  -0.00000  -3.14159
   D13       -3.14159  -0.00000   0.00000  -0.00000  -0.00000  -3.14159
   D14       -0.00001  -0.00000   0.00000  -0.00000  -0.00000  -0.00001
   D15        3.14151   0.00000   0.00000   0.00000   0.00000   3.14151
   D16       -0.00008  -0.00000  -0.00000  -0.00000  -0.00000  -0.00008
   D17       -0.00007   0.00000   0.00000   0.00000   0.00000  -0.00007
   D18        3.14152  -0.00000  -0.00000  -0.00000  -0.00000   3.14152
   D19       -0.00000   0.00000  -0.00000   0.00000   0.00000  -0.00000
   D20        3.14156   0.00000  -0.00000   0.00001   0.00001   3.14156
   D21       -3.14159  -0.00000  -0.00000  -0.00000  -0.00000  -3.14159
   D22       -0.00003   0.00000  -0.00000   0.00001   0.00001  -0.00002
   D23       -0.00001   0.00000  -0.00000   0.00000   0.00000  -0.00001
   D24        3.14158   0.00000  -0.00000   0.00000   0.00000   3.14158
   D25       -3.14157  -0.00000   0.00000  -0.00000  -0.00000  -3.14157
   D26        0.00002  -0.00000   0.00000  -0.00000  -0.00000   0.00002
   D27        3.14137   0.00000  -0.00000   0.00004   0.00003   3.14141
   D28       -0.00025   0.00000  -0.00000   0.00004   0.00004  -0.00021
   D29        0.00001  -0.00000   0.00000  -0.00000  -0.00000   0.00001
   D30       -3.14159  -0.00000   0.00000  -0.00000  -0.00000  -3.14159
   D31       -3.14158  -0.00000   0.00000  -0.00000  -0.00000  -3.14158
   D32        0.00001  -0.00000  -0.00000  -0.00000  -0.00000   0.00001
   D33        3.14149   0.00000  -0.00000   0.00000   0.00000   3.14149
   D34       -0.00010   0.00000  -0.00000   0.00001   0.00001  -0.00010
   D35        3.14150   0.00000  -0.00000   0.00001   0.00001   3.14151
   D36       -0.00009   0.00000  -0.00000   0.00000   0.00000  -0.00009
         Item               Value     Threshold  Converged?
 Maximum Force            0.000401     0.000450     YES
 RMS     Force            0.000126     0.000300     YES
 Maximum Displacement     0.005965     0.001800     NO 
 RMS     Displacement     0.001359     0.001200     NO 
 Predicted change in Energy=-2.371413D-06
 GradGradGradGradGradGradGradGradGradGradGradGradGradGradGradGradGradGrad

                          Input orientation:                          
 ---------------------------------------------------------------------
 Center     Atomic      Atomic             Coordinates (Angstroms)
 Number     Number       Type             X           Y           Z
 ---------------------------------------------------------------------
      1          6           0        0.220289    1.270276   -0.000002
      2          6           0        0.422869   -0.136621   -0.000003
      3          6           0       -0.694833   -1.012816    0.000014
      4          6           0       -1.977860   -0.513823    0.000020
      5          6           0       -2.166541    0.882054    0.000014
      6          6           0       -1.092959    1.751464    0.000010
      7          8           0       -2.994332   -1.400129    0.000001
      8          6           0        1.720670   -0.716476   -0.000008
      9          8           0        1.805231   -2.018408    0.000084
     10          8           0        2.779910    0.031377   -0.000107
     11          8           0        1.278452    2.085694   -0.000006
     12          1           0       -0.549842   -2.085883    0.000017
     13          1           0       -3.172972    1.291944    0.000010
     14          1           0       -1.269861    2.822593    0.000010
     15          1           0       -3.854427   -0.968453    0.000172
     16          1           0        2.697781   -2.390495   -0.000009
     17          1           0        3.629384   -0.432294   -0.000033
     18          1           0        1.006743    3.010961   -0.000001
 ---------------------------------------------------------------------
                    Distance matrix (angstroms):
                    1          2          3          4          5
     1  C    0.000000
     2  C    1.421407   0.000000
     3  C    2.459666   1.420203   0.000000
     4  C    2.831054   2.430181   1.376645   0.000000
     5  C    2.418196   2.782578   2.399261   1.408571   0.000000
     6  C    1.398629   2.421280   2.792803   2.431990   1.381467
     7  O    4.179097   3.643311   2.331889   1.348612   2.427673
     8  C    2.489644   1.421450   2.433613   3.704078   4.203059
     9  O    3.650683   2.334963   2.694724   4.071309   4.918094
    10  O    2.843683   2.363021   3.628248   4.788906   5.019067
    11  O    1.335895   2.381324   3.673502   4.166660   3.649209
    12  H    3.443386   2.178484   1.082819   2.123820   3.379699
    13  H    3.393330   3.869220   3.384241   2.165430   1.086698
    14  H    2.151798   3.409146   3.878275   3.410709   2.137693
    15  H    4.649217   4.357431   3.159905   1.930853   2.504662
    16  H    4.420318   3.202370   3.661670   5.038206   5.862695
    17  H    3.810600   3.220118   4.363010   5.607836   5.943084
    18  H    1.910103   3.201277   4.368768   4.618653   3.821253
                    6          7          8          9         10
     6  C    0.000000
     7  O    3.680728   0.000000
     8  C    3.742624   4.764307   0.000000
     9  O    4.755149   4.839223   1.304675   0.000000
    10  O    4.237667   5.949041   1.296640   2.269717   0.000000
    11  O    2.394849   5.514313   2.836849   4.137771   2.544522
    12  H    3.875592   2.538857   2.651509   2.356040   3.945889
    13  H    2.130167   2.697994   5.289752   5.978373   6.084886
    14  H    1.085639   4.561270   4.633388   5.735110   4.918489
    15  H    3.876036   0.962345   5.580788   5.756226   6.709254
    16  H    5.614760   5.777627   1.938320   0.967002   2.423264
    17  H    5.202819   6.694051   1.929753   2.417289   0.967779
    18  H    2.448485   5.955360   3.795191   5.092360   3.467282
                   11         12         13         14         15
    11  O    0.000000
    12  H    4.554636   0.000000
    13  H    4.521638   4.276743   0.000000
    14  H    2.652719   4.961005   2.442277   0.000000
    15  H    5.972793   3.488400   2.360885   4.588247   0.000000
    16  H    4.695823   3.261877   6.930086   6.551218   6.704747
    17  H    3.444872   4.494472   7.017481   5.881912   7.502992
    18  H    0.964337   5.329238   4.519406   2.284383   6.282253
                   16         17         18
    16  H    0.000000
    17  H    2.168509   0.000000
    18  H    5.659976   4.328308   0.000000
 Stoichiometry    C7H7O4(1+)
 Framework group  C1[X(C7H7O4)]
 Deg. of freedom    48
 Full point group                 C1      NOp   1
 Largest Abelian subgroup         C1      NOp   1
 Largest concise Abelian subgroup C1      NOp   1
                         Standard orientation:                         
 ---------------------------------------------------------------------
 Center     Atomic      Atomic             Coordinates (Angstroms)
 Number     Number       Type             X           Y           Z
 ---------------------------------------------------------------------
      1          6           0        0.219321    1.270613   -0.000005
      2          6           0        0.422553   -0.136190   -0.000005
      3          6           0       -0.694743   -1.012903    0.000012
      4          6           0       -1.978001   -0.514505    0.000017
      5          6           0       -2.167329    0.881284    0.000011
      6          6           0       -1.094150    1.751192    0.000008
      7          8           0       -2.994062   -1.401282   -0.000002
      8          6           0        1.720622   -0.715444   -0.000011
      9          8           0        1.805788   -2.017336    0.000082
     10          8           0        2.779516    0.032900   -0.000110
     11          8           0        1.277106    2.086520   -0.000009
     12          1           0       -0.549254   -2.085904    0.000014
     13          1           0       -3.173949    1.290708    0.000008
     14          1           0       -1.271548    2.822239    0.000007
     15          1           0       -3.854357   -0.970005    0.000169
     16          1           0        2.698509   -2.389010   -0.000011
     17          1           0        3.629205   -0.430378   -0.000036
     18          1           0        1.004968    3.011661   -0.000003
 ---------------------------------------------------------------------
 Rotational constants (GHZ):      1.7833286      0.9092526      0.6022088
 Standard basis: 6-31+G(d,p) (6D, 7F)
 There are   244 symmetry adapted cartesian basis functions of A   symmetry.
 There are   244 symmetry adapted basis functions of A   symmetry.
   244 basis functions,   401 primitive gaussians,   244 cartesian basis functions
    40 alpha electrons       40 beta electrons
       nuclear repulsion energy       608.1239200935 Hartrees.
 NAtoms=   18 NActive=   18 NUniq=   18 SFac= 1.00D+00 NAtFMM=   60 NAOKFM=F Big=F
 Integral buffers will be    131072 words long.
 Raffenetti 2 integral format.
 Two-electron integral symmetry is turned on.
 Nuclear repulsion after empirical dispersion term =      608.1156082734 Hartrees.
 One-electron integrals computed using PRISM.
 NBasis=   244 RedAO= T EigKep=  3.19D-06  NBF=   244
 NBsUse=   244 1.00D-06 EigRej= -1.00D+00 NBFU=   244
 Initial guess from the checkpoint file:  "2WB97XDDHB21.chk"
 B after Tr=    -0.000000    0.000000    0.000000
         Rot=    1.000000    0.000000   -0.000000    0.000204 Ang=   0.02 deg.
 Keep R1 ints in memory in canonical form, NReq=900998300.
 Requested convergence on RMS density matrix=1.00D-08 within 128 cycles.
 Requested convergence on MAX density matrix=1.00D-06.
 Requested convergence on             energy=1.00D-06.
 No special actions if energy rises.
 SCF Done:  E(RwB97XD) =  -571.441592436     A.U. after   10 cycles
            NFock= 10  Conv=0.67D-08     -V/T= 2.0087
 Calling FoFJK, ICntrl=      2127 FMM=F ISym2X=0 I1Cent= 0 IOpClX= 0 NMat=1 NMatS=1 NMatT=0.
 ***** Axes restored to original set *****
 -------------------------------------------------------------------
 Center     Atomic                   Forces (Hartrees/Bohr)
 Number     Number              X              Y              Z
 -------------------------------------------------------------------
      1        6           0.000145788    0.000107923    0.000000058
      2        6          -0.000185383   -0.000055875    0.000000187
      3        6           0.000133374    0.000081581   -0.000000226
      4        6          -0.000191265   -0.000099537   -0.000000613
      5        6           0.000046608   -0.000041415    0.000000421
      6        6           0.000033145   -0.000020343   -0.000000084
      7        8           0.000182516    0.000112968    0.000001378
      8        6           0.000063935   -0.000122321   -0.000000427
      9        8          -0.000107586    0.000158342   -0.000000063
     10        8          -0.000055504   -0.000077319    0.000000353
     11        8          -0.000130066   -0.000047181   -0.000000057
     12        1           0.000020011   -0.000016591   -0.000000063
     13        1           0.000014886    0.000032153    0.000000019
     14        1          -0.000005719   -0.000002164   -0.000000013
     15        1          -0.000034201    0.000029436   -0.000000926
     16        1           0.000040161   -0.000034056    0.000000177
     17        1           0.000046083   -0.000036996   -0.000000167
     18        1          -0.000016783    0.000031394    0.000000046
 -------------------------------------------------------------------
 Cartesian Forces:  Max     0.000191265 RMS     0.000073060

 GradGradGradGradGradGradGradGradGradGradGradGradGradGradGradGradGradGrad
 Berny optimization.
 Using GEDIIS/GDIIS optimizer.
 FormGI is forming the generalized inverse of G from B-inverse, IUseBI=4.
 Internal  Forces:  Max     0.000240800 RMS     0.000063887
 Search for a local minimum.
 Step number   3 out of a maximum of   89
 All quantities printed in internal units (Hartrees-Bohrs-Radians)
 Mixed Optimization -- En-DIIS/RFO-DIIS
 Swapping is turned off.
 Update second derivatives using D2CorX and points    1    2    3
 DE= -2.57D-06 DEPred=-2.37D-06 R= 1.08D+00
 TightC=F SS=  1.41D+00  RLast= 4.61D-03 DXNew= 5.0454D-01 1.3844D-02
 Trust test= 1.08D+00 RLast= 4.61D-03 DXMaxT set to 3.00D-01
 ITU=  1  1  0
     Eigenvalues ---    0.01838   0.01842   0.01905   0.02057   0.02106
     Eigenvalues ---    0.02141   0.02186   0.02219   0.02253   0.02293
     Eigenvalues ---    0.02344   0.02434   0.02521   0.02944   0.03052
     Eigenvalues ---    0.13577   0.16000   0.16000   0.16000   0.16000
     Eigenvalues ---    0.16001   0.16256   0.22220   0.22382   0.23743
     Eigenvalues ---    0.24959   0.25000   0.25000   0.25004   0.34200
     Eigenvalues ---    0.35225   0.35353   0.36016   0.39796   0.42268
     Eigenvalues ---    0.42719   0.44648   0.45889   0.47865   0.49174
     Eigenvalues ---    0.53054   0.53288   0.53874   0.54362   0.54994
     Eigenvalues ---    0.57685   0.65399   0.67981
 En-DIIS/RFO-DIIS IScMMF=        0 using points:     3    2
 RFO step:  Lambda=-5.27979944D-07.
 DidBck=F Rises=F RFO-DIIS coefs:    0.94691    0.05309
 Iteration  1 RMS(Cart)=  0.00092920 RMS(Int)=  0.00000024
 Iteration  2 RMS(Cart)=  0.00000038 RMS(Int)=  0.00000000
 Variable       Old X    -DE/DX   Delta X   Delta X   Delta X     New X
                                 (Linear)    (Quad)   (Total)
    R1        2.68607   0.00009   0.00003   0.00004   0.00008   2.68615
    R2        2.64303  -0.00004   0.00001  -0.00011  -0.00010   2.64293
    R3        2.52448  -0.00013   0.00001  -0.00029  -0.00028   2.52420
    R4        2.68379  -0.00015   0.00002  -0.00043  -0.00041   2.68338
    R5        2.68615   0.00003  -0.00001   0.00014   0.00013   2.68628
    R6        2.60148  -0.00001  -0.00001   0.00006   0.00004   2.60153
    R7        2.04623   0.00002   0.00001   0.00003   0.00003   2.04627
    R8        2.66181  -0.00005   0.00002  -0.00017  -0.00015   2.66166
    R9        2.54851  -0.00020   0.00002  -0.00045  -0.00043   2.54808
   R10        2.61060  -0.00003   0.00001  -0.00007  -0.00007   2.61053
   R11        2.05356  -0.00000   0.00000  -0.00000  -0.00000   2.05356
   R12        2.05156  -0.00000   0.00000  -0.00001  -0.00001   2.05155
   R13        1.81857   0.00004  -0.00001   0.00007   0.00007   1.81863
   R14        2.46548  -0.00014   0.00001  -0.00027  -0.00026   2.46522
   R15        2.45029  -0.00006   0.00000  -0.00010  -0.00010   2.45019
   R16        1.82737   0.00005  -0.00000   0.00009   0.00008   1.82745
   R17        1.82884   0.00005  -0.00000   0.00008   0.00008   1.82891
   R18        1.82233   0.00004  -0.00000   0.00006   0.00006   1.82239
    A1        2.06502  -0.00007   0.00004  -0.00046  -0.00042   2.06460
    A2        2.08434   0.00017  -0.00001   0.00070   0.00069   2.08503
    A3        2.13382  -0.00010  -0.00002  -0.00025  -0.00027   2.13355
    A4        2.09265   0.00003  -0.00003   0.00029   0.00025   2.09290
    A5        2.13399   0.00021   0.00006   0.00049   0.00055   2.13454
    A6        2.05654  -0.00024  -0.00003  -0.00078  -0.00080   2.05574
    A7        2.10581   0.00003  -0.00001   0.00016   0.00015   2.10597
    A8        2.10135  -0.00004  -0.00002  -0.00013  -0.00014   2.10121
    A9        2.07602   0.00001   0.00003  -0.00004  -0.00001   2.07601
   A10        2.07607  -0.00004   0.00004  -0.00037  -0.00033   2.07574
   A11        2.05358   0.00000  -0.00004   0.00020   0.00016   2.05374
   A12        2.15354   0.00003  -0.00001   0.00018   0.00017   2.15371
   A13        2.11714   0.00002  -0.00002   0.00018   0.00016   2.11730
   A14        2.09191   0.00002  -0.00002   0.00021   0.00019   2.09210
   A15        2.07413  -0.00004   0.00004  -0.00040  -0.00035   2.07378
   A16        2.10967   0.00003  -0.00002   0.00020   0.00018   2.10985
   A17        2.08569   0.00000  -0.00001   0.00009   0.00008   2.08577
   A18        2.08782  -0.00003   0.00003  -0.00029  -0.00026   2.08756
   A19        1.95934  -0.00000  -0.00012   0.00053   0.00041   1.95975
   A20        2.05584  -0.00013  -0.00005  -0.00026  -0.00031   2.05553
   A21        2.10664   0.00015   0.00003   0.00042   0.00045   2.10710
   A22        2.12070  -0.00002   0.00002  -0.00016  -0.00014   2.12056
   A23        2.03063   0.00001  -0.00006   0.00034   0.00028   2.03091
   A24        2.02719   0.00000  -0.00008   0.00041   0.00032   2.02752
   A25        1.94172  -0.00003  -0.00011   0.00035   0.00024   1.94197
    D1       -0.00000  -0.00000  -0.00000   0.00000   0.00000  -0.00000
    D2       -3.14159  -0.00000  -0.00000   0.00000   0.00000  -3.14159
    D3        3.14158   0.00000  -0.00000   0.00000   0.00000   3.14158
    D4       -0.00000   0.00000  -0.00000   0.00000   0.00000   0.00000
    D5       -0.00001   0.00000  -0.00000   0.00000   0.00000  -0.00000
    D6       -3.14159   0.00000   0.00000  -0.00000  -0.00000  -3.14159
    D7        3.14159   0.00000  -0.00000   0.00000   0.00000  -3.14159
    D8        0.00001  -0.00000   0.00000  -0.00000  -0.00000   0.00001
    D9       -3.14159   0.00000  -0.00000   0.00000   0.00000  -3.14159
   D10       -0.00000   0.00000  -0.00000   0.00000   0.00000   0.00000
   D11        0.00001  -0.00000   0.00000  -0.00000  -0.00000   0.00001
   D12       -3.14159  -0.00000   0.00000  -0.00000  -0.00000  -3.14159
   D13       -3.14159  -0.00000   0.00000  -0.00000  -0.00000   3.14159
   D14       -0.00001  -0.00000   0.00000  -0.00000  -0.00000  -0.00001
   D15        3.14151  -0.00000  -0.00000  -0.00000  -0.00000   3.14151
   D16       -0.00008   0.00000   0.00000   0.00000   0.00000  -0.00008
   D17       -0.00007  -0.00000  -0.00000  -0.00000  -0.00000  -0.00007
   D18        3.14152   0.00000   0.00000   0.00000   0.00000   3.14152
   D19       -0.00000   0.00000  -0.00000   0.00000   0.00000  -0.00000
   D20        3.14156   0.00000  -0.00000   0.00001   0.00001   3.14157
   D21       -3.14159   0.00000   0.00000  -0.00000  -0.00000  -3.14159
   D22       -0.00002   0.00000  -0.00000   0.00000   0.00000  -0.00002
   D23       -0.00001   0.00000  -0.00000   0.00000   0.00000  -0.00001
   D24        3.14158   0.00000  -0.00000   0.00000   0.00000   3.14159
   D25       -3.14157  -0.00000   0.00000  -0.00000  -0.00000  -3.14158
   D26        0.00002  -0.00000   0.00000  -0.00000  -0.00000   0.00002
   D27        3.14141   0.00000  -0.00000   0.00004   0.00004   3.14144
   D28       -0.00021   0.00000  -0.00000   0.00004   0.00004  -0.00017
   D29        0.00001  -0.00000   0.00000  -0.00000  -0.00000   0.00001
   D30       -3.14159  -0.00000   0.00000  -0.00000  -0.00000  -3.14159
   D31       -3.14158  -0.00000   0.00000  -0.00000  -0.00000  -3.14158
   D32        0.00001  -0.00000   0.00000  -0.00000  -0.00000   0.00001
   D33        3.14149   0.00000  -0.00000   0.00001   0.00001   3.14150
   D34       -0.00010   0.00000  -0.00000   0.00000   0.00000  -0.00009
   D35        3.14151   0.00000  -0.00000   0.00000   0.00000   3.14151
   D36       -0.00009   0.00000  -0.00000   0.00001   0.00001  -0.00008
         Item               Value     Threshold  Converged?
 Maximum Force            0.000241     0.000450     YES
 RMS     Force            0.000064     0.000300     YES
 Maximum Displacement     0.003126     0.001800     NO 
 RMS     Displacement     0.000929     0.001200     YES
 Predicted change in Energy=-4.616750D-07
 GradGradGradGradGradGradGradGradGradGradGradGradGradGradGradGradGradGrad

                          Input orientation:                          
 ---------------------------------------------------------------------
 Center     Atomic      Atomic             Coordinates (Angstroms)
 Number     Number       Type             X           Y           Z
 ---------------------------------------------------------------------
      1          6           0        0.220411    1.270977   -0.000003
      2          6           0        0.423046   -0.135954   -0.000003
      3          6           0       -0.694232   -1.012338    0.000015
      4          6           0       -1.977501   -0.513904    0.000023
      5          6           0       -2.166325    0.881870    0.000018
      6          6           0       -1.093006    1.751550    0.000011
      7          8           0       -2.993552   -1.400347    0.000011
      8          6           0        1.720612   -0.716507   -0.000011
      9          8           0        1.804085   -2.018372    0.000083
     10          8           0        2.780533    0.030290   -0.000106
     11          8           0        1.277868    2.087070   -0.000010
     12          1           0       -0.548775   -2.085361    0.000017
     13          1           0       -3.172719    1.291843    0.000018
     14          1           0       -1.270477    2.822580    0.000011
     15          1           0       -3.853978   -0.969253    0.000151
     16          1           0        2.696264   -2.391464   -0.000004
     17          1           0        3.629743   -0.433948   -0.000036
     18          1           0        1.005703    3.012236   -0.000002
 ---------------------------------------------------------------------
                    Distance matrix (angstroms):
                    1          2          3          4          5
     1  C    0.000000
     2  C    1.421448   0.000000
     3  C    2.459695   1.419985   0.000000
     4  C    2.831363   2.430117   1.376668   0.000000
     5  C    2.418245   2.782230   2.398975   1.408489   0.000000
     6  C    1.398576   2.420968   2.792508   2.431998   1.381433
     7  O    4.179178   3.643053   2.331828   1.348385   2.427513
     8  C    2.490120   1.421520   2.432897   3.703658   4.202747
     9  O    3.650732   2.334688   2.693268   4.069867   4.916865
    10  O    2.844913   2.363341   3.627818   4.789053   5.019620
    11  O    1.335748   2.381713   3.673623   4.166832   3.648968
    12  H    3.443349   2.178216   1.082837   2.123849   3.379486
[...]
 570063,-0.0000016,-0.0000017,0.00002,-0.1141447,0.9435703,1.2294219,0.
 0000039,1.2028609,-0.0897617,-0.0000139,0.0000055,-0.000001,0.1318236,
 0.1122859,0.2012563,0.0000023,-0.3775015,0.5350337,-0.0000011,-0.00000
 66,-0.0000047,-0.0513327,-0.4389048,-0.7395914,0.0000026,0.0064788,0.0
 501149,0.,0.0000049,0.0000051,-0.14493,-1.237184,-0.6343834,-0.0000102
 ,-0.8082276,-0.5221255,0.000036,-0.000046,0.0000066,-0.37607,2.8447113
 ,-0.7955444,-0.0000577,-0.5894402,1.9842191,-0.000085,-0.0000624,-0.00
 00884,0.4064243,-0.5857394,0.3612738,-0.0000288,0.7822664,-1.5396069,0
 .0000465,-0.0000848,0.0000995,-0.2957382,-1.7081206,0.0182913,0.000068
 9,-0.5207295,-0.2789462,0.000013,0.0001434,-0.0000097,-0.276741,-0.707
 6911,-0.94094,0.0000013,-0.4656914,-1.0854437,0.0000048,-0.0000117,-0.
 0000021,-0.3290003,0.0949037,0.016911,0.0000001,-0.0108431,0.0924611,-
 0.0000002,0.0000039,-0.0000014,0.1542407,0.0007178,0.009524,0.0000018,
 -0.0022985,0.1058512,0.0000012,0.0000022,0.,0.141019,0.0792215,-0.0366
 728,0.0000007,-0.0153466,-0.0105225,0.,0.0000018,-0.0000009,0.1621512,
 0.4458242,0.0766633,0.0000036,0.1142961,0.2110216,-0.0000261,0.0000255
 ,-0.0000097,0.3638365,0.355119,-0.1487556,0.0000175,-0.177984,0.486936
 2,0.0000093,0.0000432,-0.0000164,0.3875092,0.5814529,0.0041471,-0.0000
 062,0.0462264,0.2537667,0.0000162,-0.0000432,0.0000263,0.3847555,0.276
 0399,0.1285326,0.0000014,0.0994904,0.4522902,-0.0000016,0.0000037,0.00
 00021,0.3595367\Polar=133.5857507,-8.6147289,111.2617872,-0.0011201,-0
 .000518,46.3495746\PG=C01 [X(C7H7O4)]\NImag=0\\0.71981489,0.03266701,0
 .72106467,-0.00000508,0.00000058,0.16528621,-0.14523937,0.03261215,0.0
 0000172,0.68002985,0.01218170,-0.28006341,-0.00000081,0.00281573,0.707
 74776,0.00000152,-0.00000011,-0.06456198,-0.00000632,-0.00000553,0.133
 27302,0.06228070,-0.04566064,-0.00000062,-0.21121745,-0.08663584,0.000
 00236,0.73318344,-0.01915838,-0.03435488,0.00000042,-0.11111992,-0.201
 72077,0.00000250,-0.03613475,0.75336239,-0.00000090,0.00000075,0.00110
 235,0.00000106,0.00000235,-0.04912923,-0.00000513,-0.00000256,0.123779
 17,-0.04426039,0.02968561,0.00000036,-0.05508834,-0.02295197,0.0000006
 5,-0.33308861,0.12534890,0.00000221,0.77805742,0.04967473,-0.03854738,
 -0.00000048,0.01733784,0.04163180,-0.00000086,0.05714514,-0.16936972,-
 0.00000003,0.00910733,0.69703988,-0.00000011,-0.00000035,0.00010088,0.
 00000016,0.00000046,-0.00226096,0.00000261,-0.00000154,-0.06214541,-0.
 00000816,0.00000374,0.14149645,-0.05812257,-0.00444163,0.00000040,-0.0
 1280897,-0.01167289,0.00000031,0.02137190,0.03444095,-0.00000066,-0.14
 534808,0.07436578,0.00000021,0.77003714,-0.06045108,0.06090964,0.00000
 048,-0.02119330,-0.03819898,0.00000067,0.07553251,-0.01124183,-0.00000
 093,-0.00919793,-0.29395963,0.00000051,0.00644134,0.68659583,0.0000004
 1,0.00000018,-0.00284521,0.00000061,0.00000004,0.00058347,-0.00000086,
 0.00000008,0.00119163,0.00000109,0.00000050,-0.06075282,-0.00000180,-0
 .00000160,0.13297765,-0.26710825,0.04267714,0.00000230,0.01143160,0.05
 693845,-0.00000065,-0.06413720,-0.00800869,0.00000123,0.06299883,-0.07
 099810,0.00000026,-0.28336905,-0.08723257,0.00000112,0.69270910,0.1134
 7254,-0.17026428,-0.00000121,0.02320195,-0.00494305,-0.00000018,-0.000
 14058,-0.00336852,-0.00000019,-0.02326193,-0.03363975,-0.00000003,-0.1
 5983629,-0.23568470,0.00000139,0.02128873,0.77264424,0.00000230,-0.000
 00080,-0.06847010,-0.00000008,0.,0.00637467,0.00000043,0.00000002,0.00
 238477,-0.00000021,0.00000089,-0.00095525,0.00000162,0.00000068,-0.052
 48885,-0.00000471,-0.00000037,0.11945465,0.00531932,0.00215228,0.00000
 013,0.00042146,0.00505468,0.00000017,-0.06118207,-0.03401277,-0.000000
 14,-0.25023628,-0.15040365,0.00000086,0.00078265,-0.00554691,-0.000000
 56,-0.00444680,0.00208962,0.00000014,0.74102672,-0.00359071,0.00564314
 ,0.00000004,-0.00091415,-0.00491971,0.00000061,0.00512268,0.01856444,0
 .00000006,-0.09754975,-0.21148820,-0.00000806,-0.04556949,-0.04027104,
 -0.00000065,0.01027540,-0.00275897,-0.00000032,-0.04493142,0.39174355,
 0.00000047,-0.00000008,-0.00134686,0.00000127,-0.00000015,0.00530130,-
 0.00000007,0.00000136,0.00753520,0.00000818,-0.00000321,-0.03804131,0.
 00000041,0.00000054,0.00645171,-0.00000066,0.00000027,0.00641750,-0.00
 007546,0.00004429,0.02158375,0.02005196,0.05119561,-0.00000121,-0.2317
 6351,0.05931796,0.00000086,-0.06086582,-0.00274334,0.00000128,0.006960
 02,-0.02542500,0.00000044,0.00558940,0.00821806,-0.00000030,-0.0012642
 3,0.00386553,0.00000021,0.00314215,0.00635873,-0.00000013,0.81711278,0
 .03280220,-0.02019144,0.00000005,0.06101677,-0.13708884,0.00000024,-0.
 00126597,0.02296024,-0.00000079,-0.00838862,0.00846461,-0.00000004,-0.
 00338814,-0.00757581,0.00000013,0.00172343,-0.00920140,-0.00000006,-0.
 00445034,-0.00368768,0.00000023,0.01700563,0.79570414,-0.00000145,-0.0
 0000048,-0.00226280,0.00000095,0.00000043,-0.07633627,0.00000088,-0.00
 000046,-0.00353823,-0.00000023,0.00000079,0.00674665,-0.00000023,-0.00
 000056,-0.00113444,0.00000057,0.00000001,0.00619141,-0.00000002,0.,0.0
 0029959,-0.00002353,-0.00003898,0.20529505,-0.00848666,-0.00839754,-0.
 00000004,-0.00677781,0.04880145,-0.00000326,-0.00103174,0.00342913,-0.
 00000027,0.00178043,0.00218556,0.00000021,-0.00026562,0.00078538,0.000
 00008,-0.00116176,0.00190178,0.00000013,-0.00120281,-0.00092102,0.,-0.
 13905314,0.05948469,0.00000269,0.60790039,0.00323620,0.01882218,-0.000
 00021,0.04089982,-0.04841638,0.00000177,-0.01200914,-0.00668051,0.0000
 0079,0.00154586,-0.00843152,0.00000003,0.00087059,0.00220894,-0.000000
 14,0.00205946,0.00150329,0.00000005,0.00270645,0.00329642,-0.00000006,
 -0.00880633,-0.41200035,0.00002685,-0.19468922,0.61538815,0.00000060,-
 0.00000185,0.00336240,-0.00000304,0.00000190,0.01137536,0.00000075,0.0
 0000059,0.00085867,0.00000020,0.00000033,-0.00124787,0.00000003,0.0000
 0027,0.00002218,-0.00000063,-0.00000030,-0.00103992,-0.00000017,-0.000
 00016,0.00019150,0.00000746,0.00001899,-0.06021444,-0.00005284,-0.0000
 1824,0.02817793,-0.01235115,-0.02067244,0.00000053,-0.06847562,-0.0143
 8930,0.00000387,0.00914584,0.00984091,-0.00000034,-0.00520937,0.011557
 28,-0.00000028,-0.00303796,-0.00768988,0.00000011,0.00470989,-0.001835
 49,-0.00000015,-0.00333641,-0.00326700,0.00000013,-0.34818577,-0.17640
 746,0.00002231,0.00456104,-0.02424072,0.00000331,0.80572872,-0.0057487
 4,-0.00937753,0.00000008,-0.00958805,0.02367976,-0.00000086,0.00839063
 ,-0.00152410,-0.00000023,-0.00236318,0.00649614,0.,-0.00132487,-0.0035
 7516,0.00000005,0.00278913,-0.00052576,-0.00000018,-0.00012737,-0.0012
 7014,0.,-0.10615833,-0.22893070,0.00001898,-0.05472317,-0.05888249,0.0
 0000862,-0.02422411,0.43041940,0.00000120,0.00000142,0.00014436,0.0000
 0323,-0.00000141,0.00874967,-0.00000142,-0.00000030,0.00323556,0.00000
 033,-0.00000124,-0.00008975,0.00000023,0.00000064,0.00024361,-0.000000
 20,0.00000022,-0.00028789,0.00000019,0.00000028,-0.00016972,0.00001405
 ,0.00001819,-0.06086726,0.00000459,0.00000815,0.02825236,0.00000635,-0
 .00004791,0.03116415,-0.27284663,-0.09782156,0.00000180,0.03065879,-0.
 01342677,-0.00000043,-0.02146549,0.00139658,0.00000063,0.01674726,-0.0
 1261719,0.00000033,0.00399435,0.01926854,-0.00000014,-0.06385116,-0.03
 751147,0.00000056,-0.00678187,-0.00256392,-0.00000055,-0.02639632,0.00
 505785,0.00000073,0.00325007,-0.00505877,0.00000029,0.00991066,0.01260
 189,-0.00000059,0.41448731,-0.14837341,-0.21255663,0.00000081,-0.02320
 534,-0.04365649,-0.00000013,-0.00566325,-0.00445626,0.00000039,0.00953
 312,-0.00341579,0.00000033,0.00581857,0.00277212,-0.00000027,-0.008938
 70,0.01085945,0.00000016,-0.00669583,-0.00292616,-0.00000046,-0.023530
 52,0.00813466,0.00000013,0.00255484,-0.00778237,0.00000068,0.01707646,
 -0.00331995,-0.00000085,0.01268809,0.73690285,0.00000150,0.00000021,-0
 .04555310,-0.00000017,0.00000003,0.00495658,0.00000026,0.00000009,0.00
 297863,-0.00000006,0.00000015,-0.00085246,0.00000002,-0.00000023,0.007
 37732,0.00000065,0.00000036,0.01412313,-0.00000008,0.00000003,-0.00033
 114,0.00000010,-0.00000002,-0.00337181,-0.00000001,-0.00000029,0.00030
 946,0.00000025,-0.00000020,0.00103295,-0.00000385,0.00000350,0.0306689
 0,-0.00451127,-0.00121851,0.00000018,0.00679297,-0.02377505,0.00000003
 ,-0.06788139,0.04259636,0.00000034,0.00270829,0.03069320,-0.00000016,-
 0.00607516,0.00129193,0.00000012,-0.00047743,-0.00062456,-0.00000005,0
 .00199659,-0.00065470,-0.00000008,0.00154764,-0.00365217,0.00000010,-0
 .00748238,0.00256173,-0.00000045,0.00040222,0.00047737,-0.00000004,0.0
 0046121,-0.00165108,0.,0.07242358,-0.00355877,0.00169835,0.,0.00286576
 ,-0.01159677,0.00000003,0.04237974,-0.35343700,0.00000070,-0.00120483,
 -0.00507318,0.00000011,0.00120094,-0.00089981,0.00000001,0.00136450,0.
 00070173,-0.00000001,-0.00116700,0.00001070,-0.00000004,0.00065431,-0.
 00221909,0.00000003,0.00397685,0.00026908,-0.00000003,-0.00018132,0.00
 004563,0.00000001,0.00072554,-0.00052095,0.00000001,-0.04720829,0.3706
 8350,0.00000004,0.00000013,0.00385490,0.00000015,0.00000022,0.00148837
 ,0.00000038,0.00000070,-0.03584365,-0.00000043,-0.00000038,0.00912052,
 0.00000013,-0.00000009,0.00649601,0.00000010,-0.00000002,-0.00050313,-
 0.00000001,0.00000007,-0.00385462,-0.00000008,0.00000013,-0.00272944,-
 0.00000055,-0.00000004,0.00058899,0.00000011,0.,-0.00007515,0.00000001
 ,0.00000003,0.00070317,-0.00000003,-0.00000089,0.02280866,-0.00129327,
 -0.00348034,-0.00000002,0.00060927,-0.00038050,-0.00000001,0.00100420,
 0.00033242,0.,-0.00120846,-0.00258321,0.,-0.30621269,0.10147591,0.0000
 0013,-0.01679816,0.01078121,0.00000003,0.00252092,-0.00002467,-0.00000
 014,-0.00011530,-0.00000936,0.,-0.00003138,0.00004416,0.,0.00001340,0.
 00001870,0.,-0.00130400,0.00030831,0.00000003,0.00001317,-0.00004537,0
 .00000001,0.32189317,-0.00396884,-0.00255070,0.00000005,-0.00167960,-0
 .00050637,0.00000007,0.00076557,-0.00633634,0.,0.02914665,-0.00376931,
 -0.00000006,0.10300659,-0.10512097,0.00000015,-0.01953485,0.01163467,0
 .00000004,0.00026073,0.00252958,-0.00000010,0.00059429,-0.00060510,-0.
 00000002,0.00003515,0.00035097,-0.00000002,-0.00026495,-0.00010234,0.0
 0000002,-0.00096978,0.00059227,0.00000004,0.00148910,-0.00021964,-0.00
 000004,-0.10770165,0.10498118,0.00000004,0.00000012,0.00870713,0.,-0.0
 0000011,-0.00032111,0.00000012,0.00000002,0.00518157,0.00000003,0.0000
 0041,0.00700506,-0.00000016,-0.00000015,-0.04118686,0.00000028,-0.0000
 0003,0.00597966,-0.00000037,0.00000008,-0.00278438,-0.00000002,0.00000
 001,-0.00079665,-0.00000006,0.,0.00028804,0.00000002,0.00000002,-0.000
 08804,0.00000003,0.,-0.00105304,0.,-0.00000004,-0.00138552,-0.00000014
 ,-0.00000041,0.02437620,-0.00139004,0.02991594,0.00000005,-0.00468300,
 0.00045848,0.00000010,-0.00121876,-0.00060112,0.,-0.00382402,-0.002453
 27,0.00000002,0.00817318,-0.02629656,0.00000009,-0.06922092,0.04905801
 ,0.00000016,0.00008117,-0.00152078,0.00000005,0.00036035,0.00141084,0.
 00000001,-0.00058462,0.00027774,0.00000002,0.00004257,0.00000286,-0.00
 000002,0.00271707,0.00065901,-0.00000007,0.00009366,0.00005471,0.,0.00
 073532,-0.00013277,-0.00000002,0.07021218,-0.00331638,-0.00753228,0.00
 000005,0.00179286,0.00065069,0.,-0.00007101,0.00055953,-0.00000002,-0.
 00312124,0.00084968,-0.00000002,0.00466066,-0.01447394,0.00000003,0.04
 885033,-0.34156513,0.00000005,0.00003000,-0.00105682,0.00000005,-0.000
 75854,-0.00021775,0.00000002,0.00022957,-0.00017492,0.,0.00029788,0.00
 015964,-0.00000003,-0.00045197,0.00301746,0.,0.00002729,-0.00004967,0.
 ,0.00007175,0.00071422,0.,-0.05010726,0.35900935,0.00000027,-0.0000004
 2,0.00425548,0.00000009,0.00000003,0.00453647,-0.00000005,0.00000002,-
 0.00111317,0.00000016,-0.00000003,0.00760384,-0.00000003,0.00000033,0.
 00348610,-0.00000004,0.00000014,-0.03365004,-0.00000005,0.00000007,-0.
 00004980,0.,0.,0.00057886,0.,0.,-0.00014718,0.00000001,0.,-0.00001769,
 -0.00000008,0.,-0.00396162,0.,0.,-0.00027892,0.00000002,-0.00000003,-0
 .00462684,-0.00000032,-0.00000009,0.02268288,-0.00013376,-0.00050104,-
 0.00000003,0.00033154,0.00082319,-0.00000012,-0.00172996,-0.00468199,0
 .00000043,-0.03180801,0.01584260,0.00000363,0.00487287,0.00276850,-0.0
 0000004,-0.00064716,0.00051347,-0.00000032,-0.42872760,0.17849950,0.00
 006663,-0.00170297,0.00061843,0.00000003,0.00029423,-0.00073430,0.0000
 0005,0.00081175,0.00031537,-0.00000008,0.00078022,0.00068394,0.0000000
 5,0.00024410,-0.00003854,0.00000006,0.00007265,-0.00121324,0.00000024,
 0.00025472,0.00020274,0.,0.45747692,0.00011314,0.00067296,0.00000010,0
 .00068012,0.00046676,-0.00000033,-0.00499958,-0.00339923,-0.00000002,-
 0.03345177,0.00945186,0.00000501,-0.00362768,0.00231382,0.00000008,0.0
 0032963,-0.00032306,-0.00000003,0.23449672,-0.15326173,-0.00004273,-0.
 00114651,0.00025775,-0.00000007,0.00016510,-0.00045262,0.00000003,0.00
 030453,0.00016884,-0.00000002,-0.00021751,-0.00049399,-0.00000003,-0.0
 0031238,0.00007318,0.00000008,0.00096471,-0.00174302,0.00000005,0.0000
 4319,0.00004442,-0.00000004,-0.19306224,0.14614144,-0.00000013,0.,0.00
 019483,-0.00000073,0.00000004,0.00204337,-0.00000005,-0.00000060,0.001
 67965,-0.00000398,-0.00000086,-0.00543859,-0.00000043,-0.00000035,0.00
 008546,0.00000020,-0.00000021,-0.00068562,0.00007536,-0.00003626,-0.00
 093073,0.00000011,-0.00000014,0.00030945,-0.00000004,0.00000006,-0.000
 02900,-0.00000008,0.00000001,-0.00015191,0.00000020,0.00000021,-0.0000
 9562,0.00000003,0.00000002,-0.00083470,0.00000011,0.00000029,0.0004386
 0,-0.00000006,-0.00000005,0.00000180,-0.00007054,0.00003787,0.00335682
 ,0.00045775,0.00202040,0.,0.00503977,-0.00311471,0.00000072,-0.0014211
 8,-0.00063496,0.00000003,0.00031792,-0.00112526,-0.00000008,0.00019897
 ,0.00050869,0.,-0.00000817,0.00032837,-0.00000004,0.00033527,0.0003748
 2,0.,-0.00196313,-0.00094985,-0.00000081,-0.45863131,0.18674134,0.0000
 4479,-0.00002627,-0.00512375,0.00000036,-0.00086038,-0.00105297,-0.000
 00006,0.00011892,0.00038903,0.00000011,0.00000342,0.00004893,0.0000000
 1,-0.00000541,-0.00002605,0.,-0.00011814,-0.00005438,0.,0.45558603,0.0
 0121829,-0.00094237,0.00000023,-0.00544864,-0.00357601,0.00000088,-0.0
 0022968,0.00045521,-0.00000028,0.00022571,0.00159490,-0.00000002,-0.00
 037720,-0.00054180,0.,0.00001446,-0.00054863,-0.00000007,-0.00065605,-
 0.00058803,0.,0.05100782,-0.02502234,-0.00000407,0.13567826,-0.1001311
 4,-0.00001097,-0.00134992,0.00557573,0.00000014,0.00031026,0.00092202,
 0.,0.00022979,0.00065801,0.00000009,-0.00001436,0.00001343,0.00000001,
 0.00009576,-0.00000511,0.,0.00014541,0.00005953,0.,-0.17682645,0.12577
 281,-0.00000027,0.00000075,0.00214257,0.00000143,0.00000066,0.00465140
 ,-0.00000028,-0.00000023,-0.00109919,-0.00000003,-0.00000016,0.0003285
 9,0.00000002,-0.00000007,0.00007630,0.00000020,0.00000022,-0.00062604,
 0.00000002,0.00000005,-0.00007580,-0.00000555,0.00000382,-0.00417526,0
 .00004955,-0.00001878,-0.00521841,0.00000007,-0.00000006,-0.00447454,-
 0.00000023,-0.00000032,0.00012034,0.00000006,0.00000005,-0.00020567,0.
 ,0.,-0.00002131,-0.00000003,0.,-0.00006141,-0.00000002,-0.00000001,0.0
 0005454,-0.00004489,0.00001433,0.00612259,0.00104379,0.00261579,-0.000
 00017,0.00491480,-0.00698484,0.00000012,-0.00226060,0.00038692,0.00000
 020,0.00024783,-0.00231037,0.00000005,0.00040457,0.00087847,-0.0000000
 4,-0.00024023,0.00023398,0.00000003,0.00047922,0.00070012,0.,-0.041975
 15,0.02013643,-0.00000203,0.00677496,0.00451041,-0.00000030,-0.3937189
 6,0.18327243,-0.00002830,-0.00132816,-0.00114670,0.00000004,-0.0000993
 1,-0.00006200,-0.00000002,0.00000641,0.00004289,0.,0.00001738,-0.00002
 257,0.,-0.00019178,-0.00008927,0.,0.00096412,-0.00391898,-0.00000005,0
 .42473356,-0.00124498,-0.00096606,0.00000001,-0.00340402,-0.00168726,0
 .00000108,-0.00008190,0.00063763,0.00000010,-0.00030581,0.00033201,-0.
 00000006,-0.00009608,-0.00024997,-0.00000002,0.00019688,-0.00010738,0.
 00000001,-0.00006219,-0.00008826,0.,-0.03307268,0.01256684,-0.00000255
 ,-0.00000686,-0.00044593,0.00000026,0.23681158,-0.15808833,0.00002255,
 0.00092837,-0.00146415,-0.00000011,-0.00004079,-0.00001333,0.00000005,
 0.00000666,-0.00001143,0.,0.00000420,0.00001515,0.,0.00000722,0.000009
 56,0.,-0.00174553,-0.00348532,-0.00000031,-0.19850147,0.15301604,-0.00
 000040,-0.00000036,-0.00140472,-0.00000019,0.00000169,0.00603113,0.000
 00068,-0.00000009,0.00176596,-0.00000010,0.00000049,-0.00047551,-0.000
 00007,-0.00000017,0.00002946,0.,-0.00000011,-0.00018822,-0.00000002,-0
 .00000015,-0.00014473,0.00000618,-0.00000176,-0.00380117,-0.00000015,-
 0.00000009,-0.00514257,-0.00003643,0.00002181,-0.00694875,0.00000016,0
 .00000002,0.00027159,-0.00000003,0.,0.00024199,0.,0.,0.00006956,0.,0.,
 0.00002347,0.00000003,0.00000003,-0.00002714,-0.00000019,-0.00000025,0
 .00253318,0.00003051,-0.00002100,0.00709213,0.00677493,-0.04334824,-0.
 00000030,-0.00417597,-0.00305978,0.00000009,0.00051417,-0.00067623,0.0
 0000003,0.00025354,0.00000660,0.00000001,-0.00018494,0.00043888,-0.000
 00003,0.00088110,-0.00352488,-0.00000004,-0.00019163,0.00017636,-0.000
 00003,-0.00147895,-0.00074435,0.00000003,0.00014810,0.00008473,-0.0000
 0007,-0.00098458,0.00151317,0.00000014,-0.08817295,0.17093547,0.000001
 41,-0.00027544,-0.00014526,0.00000002,0.00009133,0.00007578,0.,-0.0017
 6084,0.00171197,0.,-0.00007963,-0.00013580,0.00000003,0.00001183,-0.00
 010447,0.,0.00022755,0.00060740,0.,0.08840238,0.00404547,-0.03146400,-
 0.00000019,-0.00666998,0.00219725,0.00000014,0.00355607,-0.00065028,-0
 .00000010,-0.00279613,0.00183360,-0.00000003,-0.00047114,-0.00300671,0
 .00000003,0.00620537,0.00558726,-0.00000006,0.00126306,0.00052889,0.00
 000008,0.00342331,-0.00134774,-0.00000006,-0.00048993,0.00155920,-0.00
 000011,-0.00136603,-0.00094863,0.00000012,0.11766184,-0.48260808,-0.00
 000356,-0.00022924,-0.00011073,0.,0.00023563,0.00014888,0.,-0.00086899
 ,0.00005549,0.,-0.00018903,0.00001351,-0.00000003,0.00024233,-0.000210
 88,0.00000005,0.00025876,0.00003020,-0.00000006,-0.12381136,0.50839278
 ,0.,0.00000029,-0.00270634,-0.00000013,0.00000016,0.00324475,0.0000000
 2,-0.00000004,0.00117571,0.,-0.00000004,-0.00014205,0.,0.00000001,-0.0
 0061271,-0.00000001,0.00000005,-0.00203072,0.,0.00000001,-0.00005146,0
 .00000013,0.,-0.00019325,-0.00000004,0.00000016,-0.00038751,0.00000021
 ,-0.00000013,0.00034804,0.00000114,-0.00000421,-0.00732328,-0.00000001
 ,0.00000001,0.00040819,0.,0.,0.00021794,0.,-0.00000002,0.00073777,0.,0
 .,0.00002881,0.00000003,-0.00000001,-0.00007188,-0.00000002,-0.0000000
 2,0.00007435,-0.00000132,0.00000378,0.00728364\\0.00000785,-0.00006118
 ,0.00000003,-0.00004030,-0.00001497,-0.00000002,0.00003574,0.00001955,
 0.00000023,0.00006061,-0.00000960,0.00000049,0.00002468,-0.00001488,-0
 .00000035,-0.00000596,-0.00000661,0.00000004,-0.00002636,0.00002317,-0
 .00000112,-0.00006628,0.00004206,-0.00000029,0.00001760,0.00003216,0.0
 0000026,0.00005761,-0.00008151,-0.00000011,-0.00008338,0.00008976,0.00
 000004,0.00001868,-0.00001022,0.00000006,0.00000219,-0.00000495,-0.000
 00001,-0.00001166,-0.00000705,0.00000001,-0.00001901,-0.00003997,0.000
 00075,-0.00000191,-0.00000377,-0.00000014,0.00000986,0.00003087,0.0000
 0016,0.00002007,0.00001711,-0.00000002\\\@


 LORD, MAN... WERE YE BUT WHYLES WHERE I AM, 
 THE GENTILES YE WAD NE'ER ENVY 'EM.        
 IT'S TRUE, THEY NEEDNA STARVE OR SWEAT,     
 THRO' WINTER'S CAULD OR SIMMER'S HEAT...  
 THEY'VE NAE SAIR WARK TO CRAZE THEIR BANES, 
 AND FILL AULD AGE WITH GRIPS AN' GRANES...  
                                             
 BUT HUMAN BODIES ARE SIC FOOLS              
 FOR A' THEIR COLLEGES AND SCHOOLS,           
 THAT WHEN NAE REAL ILLS PERPLEX THEM,       
 THEY MAK ENOW THEMSELVES TO VEX THEM,       
 AN' AYE THE LESS THEY HAE TO STURT THEM,    
 IN LIKE PROPORTION LESS WILL HURT THEM....  
                                             
                (ROBERT BURNS 'THE TWA DOGS')
 Job cpu time:       0 days  0 hours 34 minutes 23.8 seconds.
 File lengths (MBytes):  RWF=    115 Int=      0 D2E=      0 Chk=      6 Scr=      1
 Normal termination of Gaussian 09 at Mon May 20 13:41:57 2024.
