 Entering Gaussian System, Link 0=g09
 Input=lwWB97XDDHB.gjf
 Output=lwWB97XDDHB.log
 Initial command:
 /home/phzd/g09E/g09/l1.exe "/home/phzd/g09E/scratch/Gau-537094.inp" -scrdir="/home/phzd/g09E/scratch/"
 Default is to use a total of  18 processors:
                               18 via shared-memory
                                1 via Linda
 Entering Link 1 = /home/phzd/g09E/g09/l1.exe PID=    537096.
  
 Copyright (c) 1988,1990,1992,1993,1995,1998,2003,2009,2015,
            Gaussian, Inc.  All Rights Reserved.
  
 This is part of the Gaussian(R) 09 program.  It is based on
 the Gaussian(R) 03 system (copyright 2003, Gaussian, Inc.),
 the Gaussian(R) 98 system (copyright 1998, Gaussian, Inc.),
 the Gaussian(R) 94 system (copyright 1995, Gaussian, Inc.),
 the Gaussian 92(TM) system (copyright 1992, Gaussian, Inc.),
 the Gaussian 90(TM) system (copyright 1990, Gaussian, Inc.),
 the Gaussian 88(TM) system (copyright 1988, Gaussian, Inc.),
 the Gaussian 86(TM) system (copyright 1986, Carnegie Mellon
 University), and the Gaussian 82(TM) system (copyright 1983,
 Carnegie Mellon University). Gaussian is a federally registered
 trademark of Gaussian, Inc.
  
 This software contains proprietary and confidential information,
 including trade secrets, belonging to Gaussian, Inc.
  
 This software is provided under written license and may be
 used, copied, transmitted, or stored only in accord with that
 written license.
  
 The following legend is applicable only to US Government
 contracts under FAR:
  
                    RESTRICTED RIGHTS LEGEND
  
 Use, reproduction and disclosure by the US Government is
 subject to restrictions as set forth in subparagraphs (a)
 and (c) of the Commercial Computer Software - Restricted
 Rights clause in FAR 52.227-19.
  
 Gaussian, Inc.
 340 Quinnipiac St., Bldg. 40, Wallingford CT 06492
  
  
 ---------------------------------------------------------------
 Warning -- This program may not be used in any manner that
 competes with the business of Gaussian, Inc. or will provide
 assistance to any competitor of Gaussian, Inc.  The licensee
 of this program is prohibited from giving any competitor of
 Gaussian, Inc. access to this program.  By using this program,
 the user acknowledges that Gaussian, Inc. is engaged in the
 business of creating and licensing software in the field of
 computational chemistry and represents and warrants to the
 licensee that it is not a competitor of Gaussian, Inc. and that
 it will not use this program in any manner prohibited above.
 ---------------------------------------------------------------
  

 Cite this work as:
 Gaussian 09, Revision E.01,
 M. J. Frisch, G. W. Trucks, H. B. Schlegel, G. E. Scuseria, 
 M. A. Robb, J. R. Cheeseman, G. Scalmani, V. Barone, B. Mennucci, 
 G. A. Petersson, H. Nakatsuji, M. Caricato, X. Li, H. P. Hratchian, 
 A. F. Izmaylov, J. Bloino, G. Zheng, J. L. Sonnenberg, M. Hada, 
 M. Ehara, K. Toyota, R. Fukuda, J. Hasegawa, M. Ishida, T. Nakajima, 
 Y. Honda, O. Kitao, H. Nakai, T. Vreven, J. A. Montgomery, Jr., 
 J. E. Peralta, F. Ogliaro, M. Bearpark, J. J. Heyd, E. Brothers, 
 K. N. Kudin, V. N. Staroverov, T. Keith, R. Kobayashi, J. Normand, 
 K. Raghavachari, A. Rendell, J. C. Burant, S. S. Iyengar, J. Tomasi, 
 M. Cossi, N. Rega, J. M. Millam, M. Klene, J. E. Knox, J. B. Cross, 
 V. Bakken, C. Adamo, J. Jaramillo, R. Gomperts, R. E. Stratmann, 
 O. Yazyev, A. J. Austin, R. Cammi, C. Pomelli, J. W. Ochterski, 
 R. L. Martin, K. Morokuma, V. G. Zakrzewski, G. A. Voth, 
 P. Salvador, J. J. Dannenberg, S. Dapprich, A. D. Daniels, 
 O. Farkas, J. B. Foresman, J. V. Ortiz, J. Cioslowski, 
 and D. J. Fox, Gaussian, Inc., Wallingford CT, 2013.
 
 ******************************************
 Gaussian 09:  ES64L-G09RevE.01 30-Nov-2015
                20-May-2024 
 ******************************************
 %chk=lwWB97XDDHB.chk
 -----------------------------
 # opt freq wb97xd/6-31+g(d,p)
 -----------------------------
 1/14=-1,18=20,19=15,26=3,38=1/1,3;
 2/9=110,12=2,17=6,18=5,40=1/2;
 3/5=1,6=6,7=111,11=2,16=1,25=1,30=1,71=1,74=-58/1,2,3;
 4//1;
 5/5=2,38=5/2;
 6/7=2,8=2,9=2,10=2,28=1/1;
 7//1,2,3,16;
 1/14=-1,18=20,19=15,26=3/3(2);
 2/9=110/2;
 99//99;
 2/9=110/2;
 3/5=1,6=6,7=111,11=2,16=1,25=1,30=1,71=1,74=-58/1,2,3;
 4/5=5,16=3,69=1/1;
 5/5=2,38=5/2;
 7//1,2,3,16;
 1/14=-1,18=20,19=15,26=3/3(-5);
 2/9=110/2;
 6/7=2,8=2,9=2,10=2,19=2,28=1/1;
 99/9=1/99;
 ----------
 [No Title]
 ----------
 Symbolic Z-matrix:
 Charge =  0 Multiplicity = 1
 C                     0.23182   1.26855   0.00005 
 C                     0.46365  -0.11791   0.00005 
 C                    -0.62657  -0.99348   0.00003 
 C                    -1.92784  -0.51946  -0.00002 
 C                    -2.15553   0.85313  -0.00004 
 C                    -1.08277   1.73286   0.00001 
 O                    -2.93835  -1.44224  -0.00012 
 C                     1.84098  -0.67091   0.00007 
 O                     1.84971  -2.02788   0.00016 
 O                     2.87126  -0.04028  -0.0003 
 O                     1.27885   2.12974   0.00009 
 H                    -0.45475  -2.06166   0.00005 
 H                    -3.17002   1.24272  -0.00011 
 H                    -1.26786   2.80354   0.00001 
 H                    -3.7959   -1.00249   0.00036 
 H                     2.78295  -2.29048  0. 
 H                     0.95138   3.03697   0.00012 
 

 GradGradGradGradGradGradGradGradGradGradGradGradGradGradGradGradGradGrad
 Berny optimization.
 Initialization pass.
                           ----------------------------
                           !    Initial Parameters    !
                           ! (Angstroms and Degrees)  !
 --------------------------                            --------------------------
 ! Name  Definition              Value          Derivative Info.                !
 --------------------------------------------------------------------------------
 ! R1    R(1,2)                  1.4057         estimate D2E/DX2                !
 ! R2    R(1,6)                  1.3942         estimate D2E/DX2                !
 ! R3    R(1,11)                 1.3557         estimate D2E/DX2                !
 ! R4    R(2,3)                  1.3983         estimate D2E/DX2                !
 ! R5    R(2,8)                  1.4842         estimate D2E/DX2                !
 ! R6    R(3,4)                  1.3849         estimate D2E/DX2                !
 ! R7    R(3,12)                 1.0819         estimate D2E/DX2                !
 ! R8    R(4,5)                  1.3913         estimate D2E/DX2                !
 ! R9    R(4,7)                  1.3684         estimate D2E/DX2                !
 ! R10   R(5,6)                  1.3874         estimate D2E/DX2                !
 ! R11   R(5,13)                 1.0867         estimate D2E/DX2                !
 ! R12   R(6,14)                 1.0866         estimate D2E/DX2                !
 ! R13   R(7,15)                 0.9637         estimate D2E/DX2                !
 ! R14   R(8,9)                  1.357          estimate D2E/DX2                !
 ! R15   R(8,10)                 1.208          estimate D2E/DX2                !
 ! R16   R(9,16)                 0.9695         estimate D2E/DX2                !
 ! R17   R(11,17)                0.9645         estimate D2E/DX2                !
 ! A1    A(2,1,6)              118.9457         estimate D2E/DX2                !
 ! A2    A(2,1,11)             119.9454         estimate D2E/DX2                !
 ! A3    A(6,1,11)             121.1089         estimate D2E/DX2                !
 ! A4    A(1,2,3)              119.276          estimate D2E/DX2                !
 ! A5    A(1,2,8)              121.3682         estimate D2E/DX2                !
 ! A6    A(3,2,8)              119.3558         estimate D2E/DX2                !
 ! A7    A(2,3,4)              121.2162         estimate D2E/DX2                !
 ! A8    A(2,3,12)             119.6309         estimate D2E/DX2                !
 ! A9    A(4,3,12)             119.1529         estimate D2E/DX2                !
 ! A10   A(3,4,5)              119.4339         estimate D2E/DX2                !
 ! A11   A(3,4,7)              117.5826         estimate D2E/DX2                !
 ! A12   A(5,4,7)              122.9835         estimate D2E/DX2                !
 ! A13   A(4,5,6)              119.9354         estimate D2E/DX2                !
 ! A14   A(4,5,13)             120.4265         estimate D2E/DX2                !
 ! A15   A(6,5,13)             119.6381         estimate D2E/DX2                !
 ! A16   A(1,6,5)              121.1929         estimate D2E/DX2                !
 ! A17   A(1,6,14)             119.2609         estimate D2E/DX2                !
 ! A18   A(5,6,14)             119.5462         estimate D2E/DX2                !
 ! A19   A(4,7,15)             110.4493         estimate D2E/DX2                !
 ! A20   A(2,8,9)              112.2441         estimate D2E/DX2                !
 ! A21   A(2,8,10)             126.6536         estimate D2E/DX2                !
 ! A22   A(9,8,10)             121.1023         estimate D2E/DX2                !
 ! A23   A(8,9,16)             106.0845         estimate D2E/DX2                !
 ! A24   A(1,11,17)            109.5906         estimate D2E/DX2                !
 ! D1    D(6,1,2,3)             -0.0003         estimate D2E/DX2                !
 ! D2    D(6,1,2,8)            179.9994         estimate D2E/DX2                !
 ! D3    D(11,1,2,3)           179.9988         estimate D2E/DX2                !
 ! D4    D(11,1,2,8)            -0.0015         estimate D2E/DX2                !
 ! D5    D(2,1,6,5)             -0.0012         estimate D2E/DX2                !
 ! D6    D(2,1,6,14)           179.9999         estimate D2E/DX2                !
 ! D7    D(11,1,6,5)           179.9998         estimate D2E/DX2                !
 ! D8    D(11,1,6,14)            0.0008         estimate D2E/DX2                !
 ! D9    D(2,1,11,17)         -179.9976         estimate D2E/DX2                !
 ! D10   D(6,1,11,17)            0.0014         estimate D2E/DX2                !
 ! D11   D(1,2,3,4)              0.001          estimate D2E/DX2                !
 ! D12   D(1,2,3,12)          -179.9989         estimate D2E/DX2                !
 ! D13   D(8,2,3,4)           -179.9987         estimate D2E/DX2                !
 ! D14   D(8,2,3,12)             0.0014         estimate D2E/DX2                !
 ! D15   D(1,2,8,9)            179.996          estimate D2E/DX2                !
 ! D16   D(1,2,8,10)            -0.0229         estimate D2E/DX2                !
 ! D17   D(3,2,8,9)             -0.0042         estimate D2E/DX2                !
 ! D18   D(3,2,8,10)           179.9768         estimate D2E/DX2                !
 ! D19   D(2,3,4,5)             -0.0003         estimate D2E/DX2                !
 ! D20   D(2,3,4,7)            179.9967         estimate D2E/DX2                !
 ! D21   D(12,3,4,5)           179.9996         estimate D2E/DX2                !
 ! D22   D(12,3,4,7)            -0.0034         estimate D2E/DX2                !
 ! D23   D(3,4,5,6)             -0.0011         estimate D2E/DX2                !
 ! D24   D(3,4,5,13)           179.9985         estimate D2E/DX2                !
 ! D25   D(7,4,5,6)           -179.998          estimate D2E/DX2                !
 ! D26   D(7,4,5,13)             0.0017         estimate D2E/DX2                !
 ! D27   D(3,4,7,15)           179.9682         estimate D2E/DX2                !
 ! D28   D(5,4,7,15)            -0.035          estimate D2E/DX2                !
 ! D29   D(4,5,6,1)              0.0019         estimate D2E/DX2                !
 ! D30   D(4,5,6,14)          -179.9992         estimate D2E/DX2                !
 ! D31   D(13,5,6,1)          -179.9978         estimate D2E/DX2                !
 ! D32   D(13,5,6,14)            0.0012         estimate D2E/DX2                !
 ! D33   D(2,8,9,16)           179.9892         estimate D2E/DX2                !
 ! D34   D(10,8,9,16)            0.007          estimate D2E/DX2                !
 --------------------------------------------------------------------------------
 Trust Radius=3.00D-01 FncErr=1.00D-07 GrdErr=1.00D-06
 Number of steps in this run=     85 maximum allowed number of steps=    102.
 GradGradGradGradGradGradGradGradGradGradGradGradGradGradGradGradGradGrad

                          Input orientation:                          
 ---------------------------------------------------------------------
 Center     Atomic      Atomic             Coordinates (Angstroms)
 Number     Number       Type             X           Y           Z
 ---------------------------------------------------------------------
      1          6           0        0.231821    1.268546    0.000045
      2          6           0        0.463648   -0.117907    0.000050
      3          6           0       -0.626567   -0.993476    0.000026
      4          6           0       -1.927841   -0.519457   -0.000024
      5          6           0       -2.155527    0.853126   -0.000044
      6          6           0       -1.082767    1.732857    0.000010
      7          8           0       -2.938346   -1.442241   -0.000115
      8          6           0        1.840981   -0.670913    0.000074
      9          8           0        1.849706   -2.027878    0.000162
     10          8           0        2.871257   -0.040283   -0.000296
     11          8           0        1.278848    2.129744    0.000093
     12          1           0       -0.454754   -2.061655    0.000048
     13          1           0       -3.170023    1.242717   -0.000107
     14          1           0       -1.267855    2.803539    0.000008
     15          1           0       -3.795901   -1.002488    0.000359
     16          1           0        2.782945   -2.290483   -0.000004
     17          1           0        0.951379    3.036972    0.000120
 ---------------------------------------------------------------------
                    Distance matrix (angstroms):
                    1          2          3          4          5
     1  C    0.000000
     2  C    1.405701   0.000000
     3  C    2.419416   1.398281   0.000000
     4  C    2.803764   2.424966   1.384922   0.000000
     5  C    2.423222   2.793382   2.397427   1.391339   0.000000
     6  C    1.394176   2.411789   2.764238   2.405633   1.387350
     7  O    4.171130   3.650674   2.354934   1.368448   2.425184
     8  C    2.520099   1.484204   2.488542   3.771864   4.277239
     9  O    3.672052   2.359904   2.683638   4.067579   4.933769
    10  O    2.946126   2.408860   3.625376   4.822961   5.105559
    11  O    1.355702   2.390917   3.658567   4.159462   3.663971
    12  H    3.400239   2.149795   1.081909   2.132688   3.374697
    13  H    3.401942   3.880060   3.386699   2.155985   1.086731
    14  H    2.145980   3.396020   3.850789   3.387903   2.142912
    15  H    4.623866   4.350430   3.169347   1.929499   2.476718
    16  H    4.378918   3.177928   3.647876   5.032697   5.854125
    17  H    1.909213   3.192357   4.328328   4.575816   3.797637
                    6          7          8          9         10
     6  C    0.000000
     7  O    3.677556   0.000000
     8  C    3.785025   4.841169   0.000000
     9  O    4.768912   4.823734   1.356993   0.000000
    10  O    4.333397   5.976368   1.207958   2.234748   0.000000
    11  O    2.394733   5.526645   2.856514   4.196630   2.691614
    12  H    3.846131   2.559669   2.684132   2.304708   3.892081
    13  H    2.144032   2.694935   5.363967   5.991199   6.176014
    14  H    1.086562   4.562586   4.662261   5.749937   5.021909
    15  H    3.852688   0.963734   5.646626   5.737970   6.736233
    16  H    5.579516   5.783830   1.873580   0.969483   2.251932
    17  H    2.416292   5.932395   3.813109   5.143899   3.627042
                   11         12         13         14         15
    11  O    0.000000
    12  H    4.535769   0.000000
    13  H    4.536438   4.276863   0.000000
    14  H    2.634330   4.932671   2.460571   0.000000
    15  H    5.963552   3.505010   2.330809   4.569120   0.000000
    16  H    4.669124   3.245775   6.922523   6.508306   6.703741
    17  H    0.964520   5.288970   4.495031   2.231477   6.233290
                   16         17
    16  H    0.000000
    17  H    5.633508   0.000000
 Stoichiometry    C7H6O4
 Framework group  C1[X(C7H6O4)]
 Deg. of freedom    45
 Full point group                 C1      NOp   1
 Largest Abelian subgroup         C1      NOp   1
 Largest concise Abelian subgroup C1      NOp   1
                         Standard orientation:                         
 ---------------------------------------------------------------------
 Center     Atomic      Atomic             Coordinates (Angstroms)
 Number     Number       Type             X           Y           Z
 ---------------------------------------------------------------------
      1          6           0        0.231821    1.268546    0.000045
      2          6           0        0.463648   -0.117907    0.000050
      3          6           0       -0.626567   -0.993476    0.000026
      4          6           0       -1.927841   -0.519457   -0.000024
      5          6           0       -2.155527    0.853126   -0.000044
      6          6           0       -1.082767    1.732857    0.000010
      7          8           0       -2.938346   -1.442240   -0.000115
      8          6           0        1.840981   -0.670913    0.000074
      9          8           0        1.849706   -2.027878    0.000162
     10          8           0        2.871257   -0.040283   -0.000296
     11          8           0        1.278848    2.129744    0.000093
     12          1           0       -0.454754   -2.061655    0.000048
     13          1           0       -3.170023    1.242718   -0.000107
     14          1           0       -1.267855    2.803539    0.000008
     15          1           0       -3.795901   -1.002487    0.000359
     16          1           0        2.782945   -2.290483   -0.000004
     17          1           0        0.951379    3.036972    0.000120
 ---------------------------------------------------------------------
 Rotational constants (GHZ):      1.7698998      0.9204408      0.6055322
 Standard basis: 6-31+G(d,p) (6D, 7F)
 There are   239 symmetry adapted cartesian basis functions of A   symmetry.
 There are   239 symmetry adapted basis functions of A   symmetry.
   239 basis functions,   394 primitive gaussians,   239 cartesian basis functions
    40 alpha electrons       40 beta electrons
       nuclear repulsion energy       591.8166198815 Hartrees.
 NAtoms=   17 NActive=   17 NUniq=   17 SFac= 1.00D+00 NAtFMM=   60 NAOKFM=F Big=F
 Integral buffers will be    131072 words long.
 Raffenetti 2 integral format.
 Two-electron integral symmetry is turned on.
 Nuclear repulsion after empirical dispersion term =      591.8089983459 Hartrees.
 One-electron integrals computed using PRISM.
 NBasis=   239 RedAO= T EigKep=  3.11D-06  NBF=   239
 NBsUse=   239 1.00D-06 EigRej= -1.00D+00 NBFU=   239
 ExpMin= 4.38D-02 ExpMax= 5.48D+03 ExpMxC= 8.25D+02 IAcc=2 IRadAn=         4 AccDes= 0.00D+00
 Harris functional with IExCor= 4639 and IRadAn=       4 diagonalized for initial guess.
 HarFok:  IExCor= 4639 AccDes= 0.00D+00 IRadAn=         4 IDoV= 1 UseB2=F ITyADJ=14
 ICtDFT=  3500011 ScaDFX=  1.000000  1.000000  1.000000  1.000000
 FoFCou: FMM=F IPFlag=           0 FMFlag=      100000 FMFlg1=           0
         NFxFlg=           0 DoJE=T BraDBF=F KetDBF=T FulRan=T
         wScrn=  0.000000 ICntrl=     500 IOpCl=  0 I1Cent=   200000004 NGrid=           0
         NMat0=    1 NMatS0=      1 NMatT0=    0 NMatD0=    1 NMtDS0=    0 NMtDT0=    0
 Petite list used in FoFCou.
 Keep R1 ints in memory in canonical form, NReq=829678955.
 Requested convergence on RMS density matrix=1.00D-08 within 128 cycles.
 Requested convergence on MAX density matrix=1.00D-06.
 Requested convergence on             energy=1.00D-06.
 No special actions if energy rises.
 SCF Done:  E(RwB97XD) =  -571.107443977     A.U. after   16 cycles
            NFock= 16  Conv=0.51D-08     -V/T= 2.0088

 **********************************************************************

            Population analysis using the SCF density.

 **********************************************************************

 Orbital symmetries:
       Occupied  (A) (A) (A) (A) (A) (A) (A) (A) (A) (A) (A) (A)
                 (A) (A) (A) (A) (A) (A) (A) (A) (A) (A) (A) (A)
                 (A) (A) (A) (A) (A) (A) (A) (A) (A) (A) (A) (A)
                 (A) (A) (A) (A)
       Virtual   (A) (A) (A) (A) (A) (A) (A) (A) (A) (A) (A) (A)
                 (A) (A) (A) (A) (A) (A) (A) (A) (A) (A) (A) (A)
                 (A) (A) (A) (A) (A) (A) (A) (A) (A) (A) (A) (A)
                 (A) (A) (A) (A) (A) (A) (A) (A) (A) (A) (A) (A)
                 (A) (A) (A) (A) (A) (A) (A) (A) (A) (A) (A) (A)
                 (A) (A) (A) (A) (A) (A) (A) (A) (A) (A) (A) (A)
                 (A) (A) (A) (A) (A) (A) (A) (A) (A) (A) (A) (A)
                 (A) (A) (A) (A) (A) (A) (A) (A) (A) (A) (A) (A)
                 (A) (A) (A) (A) (A) (A) (A) (A) (A) (A) (A) (A)
                 (A) (A) (A) (A) (A) (A) (A) (A) (A) (A) (A) (A)
                 (A) (A) (A) (A) (A) (A) (A) (A) (A) (A) (A) (A)
                 (A) (A) (A) (A) (A) (A) (A) (A) (A) (A) (A) (A)
                 (A) (A) (A) (A) (A) (A) (A) (A) (A) (A) (A) (A)
                 (A) (A) (A) (A) (A) (A) (A) (A) (A) (A) (A) (A)
                 (A) (A) (A) (A) (A) (A) (A) (A) (A) (A) (A) (A)
                 (A) (A) (A) (A) (A) (A) (A) (A) (A) (A) (A) (A)
                 (A) (A) (A) (A) (A) (A) (A)
 The electronic state is 1-A.
 Alpha  occ. eigenvalues --  -19.32573 -19.31971 -19.31884 -19.26538 -10.44135
 Alpha  occ. eigenvalues --  -10.38610 -10.37659 -10.33217 -10.33148 -10.32652
 Alpha  occ. eigenvalues --  -10.31990  -1.21600  -1.18174  -1.17731  -1.11940
 Alpha  occ. eigenvalues --   -0.97685  -0.88861  -0.85524  -0.77519  -0.74250
 Alpha  occ. eigenvalues --   -0.70788  -0.65671  -0.64644  -0.60048  -0.58247
 Alpha  occ. eigenvalues --   -0.57247  -0.55124  -0.54261  -0.52167  -0.51751
 Alpha  occ. eigenvalues --   -0.50714  -0.49497  -0.48458  -0.46218  -0.44958
 Alpha  occ. eigenvalues --   -0.41291  -0.40836  -0.36028  -0.35383  -0.29715
 Alpha virt. eigenvalues --    0.00785   0.05174   0.05892   0.06243   0.07255
 Alpha virt. eigenvalues --    0.08173   0.10437   0.10728   0.11063   0.12062
 Alpha virt. eigenvalues --    0.12136   0.13436   0.13691   0.15151   0.15552
 Alpha virt. eigenvalues --    0.16967   0.17973   0.18669   0.19400   0.20311
 Alpha virt. eigenvalues --    0.20803   0.21155   0.21600   0.22653   0.22922
 Alpha virt. eigenvalues --    0.23528   0.25457   0.25763   0.25939   0.26522
 Alpha virt. eigenvalues --    0.26533   0.26947   0.27771   0.28470   0.30353
 Alpha virt. eigenvalues --    0.31060   0.31650   0.32243   0.33078   0.33695
 Alpha virt. eigenvalues --    0.33761   0.34298   0.35399   0.36093   0.36752
 Alpha virt. eigenvalues --    0.37862   0.38237   0.38312   0.38936   0.39177
 Alpha virt. eigenvalues --    0.41101   0.41684   0.43557   0.43943   0.45722
 Alpha virt. eigenvalues --    0.46697   0.47970   0.49417   0.50857   0.53105
 Alpha virt. eigenvalues --    0.54432   0.57772   0.61400   0.68705   0.71823
 Alpha virt. eigenvalues --    0.72817   0.76620   0.77138   0.78835   0.80406
 Alpha virt. eigenvalues --    0.81456   0.82433   0.83587   0.85230   0.86378
 Alpha virt. eigenvalues --    0.88477   0.92131   0.93023   0.94360   0.95484
 Alpha virt. eigenvalues --    1.02546   1.02821   1.07729   1.08923   1.10220
 Alpha virt. eigenvalues --    1.12258   1.14666   1.17586   1.17862   1.22267
 Alpha virt. eigenvalues --    1.24454   1.25282   1.25849   1.27006   1.29073
 Alpha virt. eigenvalues --    1.29484   1.29622   1.31252   1.32853   1.33227
 Alpha virt. eigenvalues --    1.34689   1.36504   1.39077   1.39286   1.40265
 Alpha virt. eigenvalues --    1.41620   1.44159   1.44942   1.45677   1.46227
 Alpha virt. eigenvalues --    1.47580   1.48706   1.49981   1.50553   1.53380
 Alpha virt. eigenvalues --    1.56288   1.59157   1.65915   1.66580   1.67736
 Alpha virt. eigenvalues --    1.68438   1.77735   1.79454   1.82688   1.84765
 Alpha virt. eigenvalues --    1.86169   1.89308   1.93626   1.95515   1.95844
 Alpha virt. eigenvalues --    1.97526   1.98247   1.98342   1.99732   2.02564
 Alpha virt. eigenvalues --    2.02868   2.08024   2.10485   2.13202   2.14914
 Alpha virt. eigenvalues --    2.16450   2.18669   2.23117   2.31790   2.32843
 Alpha virt. eigenvalues --    2.34844   2.40624   2.41351   2.43413   2.45709
 Alpha virt. eigenvalues --    2.48078   2.48925   2.50808   2.54870   2.57306
 Alpha virt. eigenvalues --    2.58658   2.59685   2.61634   2.63785   2.64048
 Alpha virt. eigenvalues --    2.67607   2.68933   2.69576   2.72054   2.74114
 Alpha virt. eigenvalues --    2.76551   2.78406   2.81923   2.84487   2.84754
 Alpha virt. eigenvalues --    2.87346   2.93112   2.97744   3.05449   3.11552
 Alpha virt. eigenvalues --    3.14381   3.18867   3.22551   3.26083   3.30972
 Alpha virt. eigenvalues --    3.35424   3.40416   3.49737   3.56590   3.60327
 Alpha virt. eigenvalues --    3.62374   3.63617   3.90462   4.29273   4.34577
 Alpha virt. eigenvalues --    4.38859   4.43083   4.44460   4.55060   4.59668
 Alpha virt. eigenvalues --    4.65646   4.69921   4.93224   5.03950
          Condensed to atoms (all electrons):
               1          2          3          4          5          6
     1  C   13.313010  -3.294975  -1.820596   0.035831   0.780456  -1.378953
     2  C   -3.294975  11.777394  -1.756705   0.498841  -0.794557  -0.838213
     3  C   -1.820596  -1.756705  13.519234  -3.523120  -0.294516  -0.658405
     4  C    0.035831   0.498841  -3.523120   9.458418  -0.258859   0.532804
     5  C    0.780456  -0.794557  -0.294516  -0.258859   6.545083  -0.429696
     6  C   -1.378953  -0.838213  -0.658405   0.532804  -0.429696   8.655095
     7  O   -0.021365   0.049142  -0.035986   0.000492  -0.078529   0.054411
     8  C   -0.835292   0.185406   0.334808  -0.685245   0.063942  -0.354883
     9  O    0.002639  -0.157238  -0.007186   0.107586   0.001040  -0.004782
    10  O   -0.129537  -0.143301   0.019234   0.052215   0.000768   0.019782
    11  O    0.213782  -0.379426   0.103834  -0.017659   0.060257   0.172369
    12  H   -0.004091   0.071308   0.117400   0.115521   0.015268   0.002959
    13  H   -0.019399   0.018103  -0.032226   0.061940   0.189049   0.107600
    14  H    0.085969  -0.015791  -0.012321  -0.014649   0.126369   0.147612
    15  H   -0.005107  -0.006282   0.113848  -0.021183  -0.072761  -0.004350
    16  H   -0.002979   0.037127  -0.007963  -0.008538  -0.000520   0.005754
    17  H    0.001465   0.171752  -0.017235   0.004313  -0.007109  -0.171131
               7          8          9         10         11         12
     1  C   -0.021365  -0.835292   0.002639  -0.129537   0.213782  -0.004091
     2  C    0.049142   0.185406  -0.157238  -0.143301  -0.379426   0.071308
     3  C   -0.035986   0.334808  -0.007186   0.019234   0.103834   0.117400
     4  C    0.000492  -0.685245   0.107586   0.052215  -0.017659   0.115521
     5  C   -0.078529   0.063942   0.001040   0.000768   0.060257   0.015268
     6  C    0.054411  -0.354883  -0.004782   0.019782   0.172369   0.002959
     7  O    8.385906  -0.006475   0.000304   0.000072   0.000236  -0.006427
     8  C   -0.006475   6.051527   0.069893   0.492913  -0.173959   0.007966
     9  O    0.000304   0.069893   8.441843  -0.158502   0.000235  -0.000929
    10  O    0.000072   0.492913  -0.158502   8.303304  -0.008477  -0.000169
    11  O    0.000236  -0.173959   0.000235  -0.008477   8.352608  -0.000285
    12  H   -0.006427   0.007966  -0.000929  -0.000169  -0.000285   0.485186
    13  H   -0.012364   0.001289   0.000005   0.000008  -0.000465  -0.000129
    14  H   -0.000497   0.011340   0.000010   0.000011  -0.015715   0.000009
    15  H    0.212786   0.002538   0.000013   0.000001  -0.000006  -0.000035
    16  H    0.000001   0.012012   0.200335   0.006467   0.000129   0.000196
    17  H   -0.000005   0.030108  -0.000018   0.001398   0.180815   0.000003
              13         14         15         16         17
     1  C   -0.019399   0.085969  -0.005107  -0.002979   0.001465
     2  C    0.018103  -0.015791  -0.006282   0.037127   0.171752
     3  C   -0.032226  -0.012321   0.113848  -0.007963  -0.017235
     4  C    0.061940  -0.014649  -0.021183  -0.008538   0.004313
     5  C    0.189049   0.126369  -0.072761  -0.000520  -0.007109
     6  C    0.107600   0.147612  -0.004350   0.005754  -0.171131
     7  O   -0.012364  -0.000497   0.212786   0.000001  -0.000005
     8  C    0.001289   0.011340   0.002538   0.012012   0.030108
     9  O    0.000005   0.000010   0.000013   0.200335  -0.000018
    10  O    0.000008   0.000011   0.000001   0.006467   0.001398
    11  O   -0.000465  -0.015715  -0.000006   0.000129   0.180815
    12  H   -0.000129   0.000009  -0.000035   0.000196   0.000003
    13  H    0.540419  -0.004229   0.005394   0.000000  -0.000014
    14  H   -0.004229   0.543529  -0.000005  -0.000000   0.007904
    15  H    0.005394  -0.000005   0.409635   0.000000   0.000000
    16  H    0.000000  -0.000000   0.000000   0.361328  -0.000000
    17  H   -0.000014   0.007904   0.000000  -0.000000   0.424427
 Mulliken charges:
               1
     1  C   -0.920857
     2  C    0.577414
     3  C   -0.042100
     4  C   -0.338709
     5  C    0.154315
     6  C    0.142027
     7  O   -0.541701
     8  C    0.792109
     9  O   -0.495249
    10  O   -0.456187
    11  O   -0.488273
    12  H    0.196249
    13  H    0.145019
    14  H    0.140453
    15  H    0.365514
    16  H    0.396652
    17  H    0.373325
 Sum of Mulliken charges =  -0.00000
 Mulliken charges with hydrogens summed into heavy atoms:
               1
     1  C   -0.920857
     2  C    0.577414
     3  C    0.154150
     4  C   -0.338709
     5  C    0.299334
     6  C    0.282479
     7  O   -0.176187
     8  C    0.792109
     9  O   -0.098598
    10  O   -0.456187
    11  O   -0.114948
 Electronic spatial extent (au):  <R**2>=           1734.9813
 Charge=             -0.0000 electrons
 Dipole moment (field-independent basis, Debye):
    X=             -3.7434    Y=              1.7792    Z=              0.0011  Tot=              4.1447
 Quadrupole moment (field-independent basis, Debye-Ang):
   XX=            -57.8091   YY=            -52.7168   ZZ=            -65.2585
   XY=            -10.4647   XZ=             -0.0019   YZ=              0.0000
 Traceless Quadrupole moment (field-independent basis, Debye-Ang):
   XX=              0.7857   YY=              5.8780   ZZ=             -6.6637
   XY=            -10.4647   XZ=             -0.0019   YZ=              0.0000
 Octapole moment (field-independent basis, Debye-Ang**2):
  XXX=            -61.7553  YYY=             34.2375  ZZZ=             -0.0005  XYY=             23.9290
  XXY=            -20.1221  XXZ=              0.0172  XZZ=              7.9980  YZZ=             -3.0881
  YYZ=             -0.0002  XYZ=              0.0059
 Hexadecapole moment (field-independent basis, Debye-Ang**3):
 XXXX=          -1126.9683 YYYY=           -590.4577 ZZZZ=            -67.1422 XXXY=            -78.2393
 XXXZ=             -0.0375 YYYX=            -27.4547 YYYZ=              0.0084 ZZZX=             -0.0023
 ZZZY=              0.0003 XXYY=           -313.8650 XXZZ=           -242.9811 YYZZ=           -143.8237
 XXYZ=             -0.0137 YYXZ=             -0.0075 ZZXY=              3.7610
 N-N= 5.918089983459D+02 E-N=-2.519142260883D+03  KE= 5.661435055084D+02
 Calling FoFJK, ICntrl=      2127 FMM=F ISym2X=0 I1Cent= 0 IOpClX= 0 NMat=1 NMatS=1 NMatT=0.
 ***** Axes restored to original set *****
 -------------------------------------------------------------------
 Center     Atomic                   Forces (Hartrees/Bohr)
 Number     Number              X              Y              Z
 -------------------------------------------------------------------
      1        6           0.002612471    0.002766531    0.000001001
      2        6           0.000205747   -0.000210469    0.000012738
      3        6           0.000504872   -0.001152681    0.000001095
      4        6          -0.003816588   -0.001950322   -0.000002178
      5        6          -0.001099941    0.000550231    0.000001030
      6        6          -0.000652450    0.001322201   -0.000000861
      7        8          -0.000967752    0.001672693    0.000004255
      8        6           0.001646711   -0.002571661   -0.000044856
      9        8           0.002422202   -0.000130920    0.000012857
     10        8           0.000932750    0.000597943    0.000016978
     11        8          -0.001637022    0.001719803    0.000000851
     12        1          -0.000063391   -0.000554591    0.000000044
     13        1          -0.000159504    0.000450302    0.000000092
     14        1          -0.000405614    0.000263612   -0.000000156
     15        1           0.002878931   -0.000926839   -0.000003501
     16        1          -0.003002417    0.001156834    0.000000869
     17        1           0.000600993   -0.003002668   -0.000000258
 -------------------------------------------------------------------
 Cartesian Forces:  Max     0.003816588 RMS     0.001355223

 GradGradGradGradGradGradGradGradGradGradGradGradGradGradGradGradGradGrad
 Berny optimization.
 FormGI is forming the generalized inverse of G from B-inverse, IUseBI=4.
 Internal  Forces:  Max     0.003198879 RMS     0.000972596
 Search for a local minimum.
 Step number   1 out of a maximum of   85
 All quantities printed in internal units (Hartrees-Bohrs-Radians)
 Mixed Optimization -- En-DIIS/RFO-DIIS
 Second derivative matrix not updated -- first step.
 ITU=  0
     Eigenvalues ---    0.00975   0.01367   0.01733   0.02070   0.02109
     Eigenvalues ---    0.02129   0.02186   0.02197   0.02207   0.02220
     Eigenvalues ---    0.02232   0.02248   0.02261   0.02278   0.16000
     Eigenvalues ---    0.16000   0.16000   0.16000   0.16000   0.16000
     Eigenvalues ---    0.22369   0.23488   0.24602   0.25000   0.25000
     Eigenvalues ---    0.25000   0.25000   0.25000   0.34093   0.35193
     Eigenvalues ---    0.35213   0.35765   0.42034   0.42646   0.45660
     Eigenvalues ---    0.46576   0.47256   0.47870   0.51276   0.53483
     Eigenvalues ---    0.53560   0.53826   0.54512   0.54678   1.00924
 RFO step:  Lambda=-1.58500583D-04 EMin= 9.74896829D-03
 Linear search not attempted -- first point.
 Iteration  1 RMS(Cart)=  0.00398604 RMS(Int)=  0.00000626
 Iteration  2 RMS(Cart)=  0.00000748 RMS(Int)=  0.00000016
 Iteration  3 RMS(Cart)=  0.00000000 RMS(Int)=  0.00000016
 Variable       Old X    -DE/DX   Delta X   Delta X   Delta X     New X
                                 (Linear)    (Quad)   (Total)
    R1        2.65639   0.00231   0.00000   0.00522   0.00522   2.66161
    R2        2.63461   0.00235   0.00000   0.00505   0.00505   2.63966
    R3        2.56191  -0.00162   0.00000  -0.00301  -0.00301   2.55889
    R4        2.64237   0.00191   0.00000   0.00418   0.00418   2.64654
    R5        2.80474   0.00221   0.00000   0.00649   0.00649   2.81122
    R6        2.61712   0.00209   0.00000   0.00431   0.00431   2.62144
    R7        2.04451   0.00054   0.00000   0.00151   0.00151   2.04602
    R8        2.62925   0.00182   0.00000   0.00382   0.00382   2.63307
    R9        2.58599  -0.00191   0.00000  -0.00372  -0.00372   2.58227
   R10        2.62171   0.00143   0.00000   0.00296   0.00296   2.62467
   R11        2.05362   0.00031   0.00000   0.00088   0.00088   2.05450
   R12        2.05331   0.00033   0.00000   0.00093   0.00093   2.05423
   R13        1.82119  -0.00299   0.00000  -0.00547  -0.00547   1.81572
   R14        2.56435  -0.00105   0.00000  -0.00195  -0.00195   2.56239
   R15        2.28271   0.00111   0.00000   0.00110   0.00110   2.28381
   R16        1.83206  -0.00320   0.00000  -0.00598  -0.00598   1.82608
   R17        1.82268  -0.00302   0.00000  -0.00554  -0.00554   1.81714
    A1        2.07599  -0.00013   0.00000  -0.00048  -0.00048   2.07551
    A2        2.09344   0.00008   0.00000   0.00030   0.00030   2.09375
    A3        2.11375   0.00005   0.00000   0.00018   0.00018   2.11393
    A4        2.08176  -0.00031   0.00000  -0.00116  -0.00116   2.08060
    A5        2.11828   0.00069   0.00000   0.00271   0.00271   2.12098
    A6        2.08315  -0.00038   0.00000  -0.00155  -0.00155   2.08160
    A7        2.11562   0.00033   0.00000   0.00146   0.00146   2.11708
    A8        2.08795  -0.00002   0.00000   0.00019   0.00019   2.08814
    A9        2.07961  -0.00031   0.00000  -0.00165  -0.00165   2.07796
   A10        2.08451  -0.00015   0.00000  -0.00076  -0.00076   2.08376
   A11        2.05220  -0.00047   0.00000  -0.00179  -0.00179   2.05042
   A12        2.14647   0.00062   0.00000   0.00255   0.00255   2.14901
   A13        2.09327   0.00006   0.00000   0.00010   0.00010   2.09336
   A14        2.10184   0.00033   0.00000   0.00222   0.00222   2.10406
   A15        2.08808  -0.00040   0.00000  -0.00231  -0.00231   2.08576
   A16        2.11522   0.00020   0.00000   0.00084   0.00084   2.11606
   A17        2.08150   0.00027   0.00000   0.00191   0.00191   2.08340
   A18        2.08647  -0.00047   0.00000  -0.00275  -0.00275   2.08372
   A19        1.92770  -0.00088   0.00000  -0.00547  -0.00547   1.92224
   A20        1.95903  -0.00055   0.00000  -0.00220  -0.00220   1.95682
   A21        2.21052   0.00024   0.00000   0.00096   0.00096   2.21148
   A22        2.11363   0.00031   0.00000   0.00125   0.00124   2.11488
   A23        1.85152  -0.00057   0.00000  -0.00357  -0.00357   1.84796
   A24        1.91272  -0.00084   0.00000  -0.00525  -0.00525   1.90746
    D1       -0.00001  -0.00000   0.00000  -0.00003  -0.00003  -0.00004
    D2        3.14158  -0.00000   0.00000  -0.00003  -0.00003   3.14155
    D3        3.14157  -0.00000   0.00000  -0.00003  -0.00003   3.14155
    D4       -0.00003  -0.00000   0.00000  -0.00003  -0.00003  -0.00006
    D5       -0.00002   0.00000   0.00000   0.00002   0.00002  -0.00000
    D6        3.14159   0.00000   0.00000   0.00001   0.00001  -3.14159
    D7        3.14159   0.00000   0.00000   0.00001   0.00001  -3.14159
    D8        0.00001   0.00000   0.00000   0.00000   0.00000   0.00002
    D9       -3.14155  -0.00000   0.00000  -0.00001  -0.00001  -3.14156
   D10        0.00003  -0.00000   0.00000  -0.00000  -0.00000   0.00002
   D11        0.00002   0.00000   0.00000   0.00003   0.00003   0.00005
   D12       -3.14157   0.00000   0.00000   0.00001   0.00001  -3.14156
   D13       -3.14157   0.00000   0.00000   0.00004   0.00004  -3.14153
   D14        0.00002   0.00000   0.00000   0.00001   0.00001   0.00004
   D15        3.14152  -0.00001   0.00000  -0.00082  -0.00082   3.14070
   D16       -0.00040   0.00001   0.00000   0.00079   0.00079   0.00039
   D17       -0.00007  -0.00001   0.00000  -0.00083  -0.00083  -0.00090
   D18        3.14119   0.00001   0.00000   0.00079   0.00079  -3.14121
   D19       -0.00001  -0.00000   0.00000  -0.00002  -0.00002  -0.00002
   D20        3.14153  -0.00000   0.00000  -0.00001  -0.00001   3.14153
   D21        3.14159   0.00000   0.00000   0.00000   0.00000   3.14159
   D22       -0.00006   0.00000   0.00000   0.00001   0.00001  -0.00005
   D23       -0.00002   0.00000   0.00000   0.00000   0.00000  -0.00002
   D24        3.14157   0.00000   0.00000   0.00001   0.00001   3.14157
   D25       -3.14156  -0.00000   0.00000  -0.00001  -0.00001  -3.14157
   D26        0.00003  -0.00000   0.00000  -0.00000  -0.00000   0.00003
   D27        3.14104   0.00000   0.00000   0.00008   0.00008   3.14112
   D28       -0.00061   0.00000   0.00000   0.00009   0.00009  -0.00052
   D29        0.00003  -0.00000   0.00000  -0.00000  -0.00000   0.00003
   D30       -3.14158   0.00000   0.00000   0.00000   0.00000  -3.14157
   D31       -3.14155  -0.00000   0.00000  -0.00001  -0.00001  -3.14156
   D32        0.00002  -0.00000   0.00000  -0.00000  -0.00000   0.00002
   D33        3.14140   0.00001   0.00000   0.00077   0.00077  -3.14101
   D34        0.00012  -0.00001   0.00000  -0.00075  -0.00075  -0.00062
         Item               Value     Threshold  Converged?
 Maximum Force            0.003199     0.000450     NO 
 RMS     Force            0.000973     0.000300     NO 
 Maximum Displacement     0.013628     0.001800     NO 
 RMS     Displacement     0.003984     0.001200     NO 
 Predicted change in Energy=-7.928290D-05
 GradGradGradGradGradGradGradGradGradGradGradGradGradGradGradGradGradGrad

                          Input orientation:                          
 ---------------------------------------------------------------------
 Center     Atomic      Atomic             Coordinates (Angstroms)
 Number     Number       Type             X           Y           Z
 ---------------------------------------------------------------------
      1          6           0        0.233198    1.272017   -0.000080
      2          6           0        0.466424   -0.117001   -0.000271
      3          6           0       -0.625937   -0.993427   -0.000234
      4          6           0       -1.929821   -0.519904   -0.000073
      5          6           0       -2.158141    0.854624    0.000083
      6          6           0       -1.084448    1.735689    0.000097
      7          8           0       -2.936318   -1.444150   -0.000129
      8          6           0        1.845814   -0.674087   -0.000521
      9          8           0        1.848791   -2.030043    0.000446
     10          8           0        2.878469   -0.046236   -0.000207
     11          8           0        1.278148    2.133231   -0.000057
     12          1           0       -0.454714   -2.062509   -0.000353
     13          1           0       -3.172292    1.246409    0.000193
     14          1           0       -1.272908    2.806282    0.000238
     15          1           0       -3.790110   -1.003412    0.000423
     16          1           0        2.778809   -2.292412    0.000737
     17          1           0        0.946041    3.035648    0.000112
 ---------------------------------------------------------------------
                    Distance matrix (angstroms):
                    1          2          3          4          5
     1  C    0.000000
     2  C    1.408463   0.000000
     3  C    2.422881   1.400491   0.000000
     4  C    2.808849   2.429880   1.387205   0.000000
     5  C    2.427493   2.798642   2.400613   1.393362   0.000000
     6  C    1.396848   2.416126   2.767365   2.408808   1.388917
     7  O    4.174135   3.652394   2.353936   1.366480   2.426917
     8  C    2.527420   1.487636   2.492294   3.778781   4.285862
     9  O    3.676104   2.360226   2.683067   4.069204   4.937287
    10  O    2.955545   2.413083   3.630156   4.831564   5.116540
    11  O    1.354108   2.392163   3.660811   4.162954   3.666458
    12  H    3.404745   2.152555   1.082706   2.134378   3.378066
    13  H    3.405586   3.885761   3.391281   2.159536   1.087197
    14  H    2.149959   3.401596   3.854395   3.390435   2.143037
    15  H    4.622185   4.347851   3.164189   1.922097   2.472979
    16  H    4.380102   3.174829   3.644127   5.031200   5.854683
    17  H    1.902245   3.188923   4.324877   4.573022   3.793786
                    6          7          8          9         10
     6  C    0.000000
     7  O    3.679783   0.000000
     8  C    3.793871   4.843737   0.000000
     9  O    4.773325   4.820845   1.355960   0.000000
    10  O    4.345108   5.980461   1.208542   2.235113   0.000000
    11  O    2.395809   5.528054   2.864137   4.202200   2.703905
    12  H    3.850048   2.557485   2.687032   2.303734   3.895570
    13  H    2.144408   2.700887   5.373052   5.995533   6.187296
    14  H    1.087054   4.564330   4.673263   5.756304   5.036942
    15  H    3.850102   0.960839   5.645538   5.731595   6.736923
    16  H    5.581251   5.777736   1.868010   0.966318   2.248387
    17  H    2.410971   5.928010   3.817292   5.145501   3.637620
                   11         12         13         14         15
    11  O    0.000000
    12  H    4.539498   0.000000
    13  H    4.537937   4.281841   0.000000
    14  H    2.638348   4.937060   2.457817   0.000000
    15  H    5.960350   3.499508   2.333109   4.566189   0.000000
    16  H    4.673147   3.241686   6.923789   6.512533   6.694193
    17  H    0.961588   5.287089   4.490216   2.230772   6.224559
                   16         17
    16  H    0.000000
    17  H    5.634471   0.000000
 Stoichiometry    C7H6O4
 Framework group  C1[X(C7H6O4)]
 Deg. of freedom    45
 Full point group                 C1      NOp   1
 Largest Abelian subgroup         C1      NOp   1
 Largest concise Abelian subgroup C1      NOp   1
                         Standard orientation:                         
 ---------------------------------------------------------------------
 Center     Atomic      Atomic             Coordinates (Angstroms)
 Number     Number       Type             X           Y           Z
 ---------------------------------------------------------------------
      1          6           0        0.229875    1.272713   -0.000027
      2          6           0        0.465772   -0.115854   -0.000218
      3          6           0       -0.624901   -0.994380   -0.000182
      4          6           0       -1.929693   -0.523366   -0.000021
      5          6           0       -2.160657    0.850721    0.000135
      6          6           0       -1.088662    1.733849    0.000150
      7          8           0       -2.934411   -1.449546   -0.000076
      8          6           0        1.846231   -0.670285   -0.000468
      9          8           0        1.851816   -2.026233    0.000499
     10          8           0        2.877676   -0.040449   -0.000154
     11          8           0        1.273166    2.135936   -0.000004
     12          1           0       -0.451622   -2.063130   -0.000300
     13          1           0       -3.175560    1.240554    0.000245
     14          1           0       -1.279180    2.804078    0.000291
     15          1           0       -3.789049   -1.010452    0.000476
     16          1           0        2.782337   -2.286813    0.000790
     17          1           0        0.939324    3.037712    0.000165
 ---------------------------------------------------------------------
 Rotational constants (GHZ):      1.7647483      0.9190643      0.6043332
 Standard basis: 6-31+G(d,p) (6D, 7F)
 There are   239 symmetry adapted cartesian basis functions of A   symmetry.
 There are   239 symmetry adapted basis functions of A   symmetry.
   239 basis functions,   394 primitive gaussians,   239 cartesian basis functions
    40 alpha electrons       40 beta electrons
       nuclear repulsion energy       591.3225534783 Hartrees.
 NAtoms=   17 NActive=   17 NUniq=   17 SFac= 1.00D+00 NAtFMM=   60 NAOKFM=F Big=F
 Integral buffers will be    131072 words long.
 Raffenetti 2 integral format.
 Two-electron integral symmetry is turned on.
 Nuclear repulsion after empirical dispersion term =      591.3149320290 Hartrees.
 One-electron integrals computed using PRISM.
 NBasis=   239 RedAO= T EigKep=  3.16D-06  NBF=   239
 NBsUse=   239 1.00D-06 EigRej= -1.00D+00 NBFU=   239
 Initial guess from the checkpoint file:  "lwWB97XDDHB.chk"
 B after Tr=     0.000000    0.000000    0.000000
         Rot=    1.000000    0.000007   -0.000004   -0.000879 Ang=   0.10 deg.
 Keep R1 ints in memory in canonical form, NReq=829678955.
 Requested convergence on RMS density matrix=1.00D-08 within 128 cycles.
 Requested convergence on MAX density matrix=1.00D-06.
 Requested convergence on             energy=1.00D-06.
 No special actions if energy rises.
 SCF Done:  E(RwB97XD) =  -571.107514369     A.U. after   12 cycles
            NFock= 12  Conv=0.73D-08     -V/T= 2.0088
 Calling FoFJK, ICntrl=      2127 FMM=F ISym2X=0 I1Cent= 0 IOpClX= 0 NMat=1 NMatS=1 NMatT=0.
 ***** Axes restored to original set *****
 -------------------------------------------------------------------
 Center     Atomic                   Forces (Hartrees/Bohr)
 Number     Number              X              Y              Z
 -------------------------------------------------------------------
      1        6           0.000324089   -0.000033611   -0.000003531
      2        6          -0.000544690    0.000184012   -0.000051375
      3        6           0.000496050    0.000377871   -0.000005447
      4        6          -0.000384691   -0.000377742    0.000001889
      5        6           0.000125155   -0.000235764    0.000000549
      6        6           0.000180086   -0.000243468    0.000002759
      7        8           0.000324000    0.000481017    0.000002907
      8        6          -0.000096203   -0.000502990    0.000182784
      9        8           0.000130567    0.000581820   -0.000054860
     10        8          -0.000217023    0.000237339   -0.000069623
     11        8          -0.000288476   -0.000417640   -0.000002649
     12        1          -0.000109677    0.000031900   -0.000001302
     13        1           0.000053359    0.000104204   -0.000000081
     14        1          -0.000047403   -0.000015561    0.000000507
     15        1          -0.000229205   -0.000110916   -0.000001750
     16        1           0.000074386   -0.000226179   -0.000000791
     17        1           0.000209677    0.000165708    0.000000014
 -------------------------------------------------------------------
 Cartesian Forces:  Max     0.000581820 RMS     0.000236834

 GradGradGradGradGradGradGradGradGradGradGradGradGradGradGradGradGradGrad
 Berny optimization.
 Using GEDIIS/GDIIS optimizer.
 FormGI is forming the generalized inverse of G from B-inverse, IUseBI=4.
 Internal  Forces:  Max     0.000719444 RMS     0.000206394
 Search for a local minimum.
 Step number   2 out of a maximum of   85
 All quantities printed in internal units (Hartrees-Bohrs-Radians)
 Mixed Optimization -- En-DIIS/RFO-DIIS
 Swapping is turned off.
 Update second derivatives using D2CorX and points    1    2
 DE= -7.04D-05 DEPred=-7.93D-05 R= 8.88D-01
 TightC=F SS=  1.41D+00  RLast= 2.03D-02 DXNew= 5.0454D-01 6.0935D-02
 Trust test= 8.88D-01 RLast= 2.03D-02 DXMaxT set to 3.00D-01
 ITU=  1  0
     Eigenvalues ---    0.00975   0.01370   0.01733   0.02070   0.02109
     Eigenvalues ---    0.02129   0.02186   0.02197   0.02207   0.02220
     Eigenvalues ---    0.02232   0.02248   0.02261   0.02278   0.15717
     Eigenvalues ---    0.16000   0.16000   0.16000   0.16000   0.16761
     Eigenvalues ---    0.22371   0.23296   0.24400   0.24719   0.25000
     Eigenvalues ---    0.25000   0.25000   0.26027   0.34359   0.35196
     Eigenvalues ---    0.35215   0.35789   0.42352   0.42698   0.45672
     Eigenvalues ---    0.47115   0.47414   0.48761   0.50110   0.52672
     Eigenvalues ---    0.53733   0.53868   0.54583   0.56533   1.00949
 En-DIIS/RFO-DIIS IScMMF=        0 using points:     2    1
 RFO step:  Lambda=-5.64981955D-06.
 DidBck=F Rises=F RFO-DIIS coefs:    0.91022    0.08978
 Iteration  1 RMS(Cart)=  0.00273177 RMS(Int)=  0.00000422
 Iteration  2 RMS(Cart)=  0.00000555 RMS(Int)=  0.00000124
 Iteration  3 RMS(Cart)=  0.00000000 RMS(Int)=  0.00000124
 Variable       Old X    -DE/DX   Delta X   Delta X   Delta X     New X
                                 (Linear)    (Quad)   (Total)
    R1        2.66161  -0.00061  -0.00047  -0.00050  -0.00097   2.66064
    R2        2.63966  -0.00024  -0.00045   0.00026  -0.00019   2.63947
    R3        2.55889  -0.00023   0.00027  -0.00083  -0.00056   2.55833
    R4        2.64654  -0.00035  -0.00037  -0.00009  -0.00046   2.64608
    R5        2.81122  -0.00013  -0.00058   0.00062   0.00004   2.81126
    R6        2.62144   0.00008  -0.00039   0.00082   0.00043   2.62187
    R7        2.04602  -0.00005  -0.00014   0.00010  -0.00003   2.04599
    R8        2.63307  -0.00015  -0.00034   0.00032  -0.00003   2.63305
    R9        2.58227  -0.00031   0.00033  -0.00111  -0.00078   2.58149
   R10        2.62467  -0.00002  -0.00027   0.00042   0.00016   2.62483
   R11        2.05450  -0.00001  -0.00008   0.00010   0.00002   2.05453
   R12        2.05423  -0.00001  -0.00008   0.00012   0.00003   2.05427
   R13        1.81572   0.00015   0.00049  -0.00058  -0.00008   1.81564
   R14        2.56239  -0.00037   0.00018  -0.00092  -0.00075   2.56165
   R15        2.28381  -0.00006  -0.00010   0.00011   0.00001   2.28383
   R16        1.82608   0.00014   0.00054  -0.00066  -0.00012   1.82595
   R17        1.81714   0.00009   0.00050  -0.00068  -0.00018   1.81696
    A1        2.07551  -0.00011   0.00004  -0.00062  -0.00057   2.07494
    A2        2.09375  -0.00033  -0.00003  -0.00110  -0.00113   2.09262
    A3        2.11393   0.00045  -0.00002   0.00172   0.00170   2.11563
    A4        2.08060   0.00026   0.00010   0.00067   0.00078   2.08137
    A5        2.12098  -0.00072  -0.00024  -0.00216  -0.00240   2.11858
    A6        2.08160   0.00045   0.00014   0.00148   0.00162   2.08323
    A7        2.11708   0.00000  -0.00013   0.00023   0.00009   2.11718
    A8        2.08814   0.00010  -0.00002   0.00059   0.00057   2.08871
    A9        2.07796  -0.00010   0.00015  -0.00082  -0.00067   2.07729
   A10        2.08376  -0.00025   0.00007  -0.00091  -0.00084   2.08292
   A11        2.05042   0.00018   0.00016   0.00033   0.00049   2.05090
   A12        2.14901   0.00007  -0.00023   0.00058   0.00035   2.14937
   A13        2.09336   0.00006  -0.00001   0.00037   0.00037   2.09373
   A14        2.10406   0.00008  -0.00020   0.00078   0.00058   2.10464
   A15        2.08576  -0.00014   0.00021  -0.00115  -0.00095   2.08482
   A16        2.11606   0.00004  -0.00008   0.00025   0.00017   2.11623
   A17        2.08340   0.00004  -0.00017   0.00056   0.00039   2.08379
   A18        2.08372  -0.00008   0.00025  -0.00081  -0.00056   2.08316
   A19        1.92224   0.00038   0.00049   0.00136   0.00185   1.92409
   A20        1.95682   0.00039   0.00020   0.00110   0.00129   1.95812
   A21        2.21148  -0.00057  -0.00009  -0.00191  -0.00200   2.20948
   A22        2.11488   0.00017  -0.00011   0.00082   0.00070   2.11558
   A23        1.84796   0.00034   0.00032   0.00141   0.00173   1.84969
   A24        1.90746   0.00045   0.00047   0.00177   0.00224   1.90971
    D1       -0.00004   0.00000   0.00000   0.00011   0.00011   0.00008
    D2        3.14155   0.00000   0.00000   0.00013   0.00013  -3.14150
    D3        3.14155   0.00000   0.00000   0.00009   0.00009  -3.14155
    D4       -0.00006   0.00000   0.00000   0.00011   0.00011   0.00006
    D5       -0.00000  -0.00000  -0.00000  -0.00005  -0.00005  -0.00006
    D6       -3.14159  -0.00000  -0.00000  -0.00004  -0.00004   3.14156
    D7       -3.14159  -0.00000  -0.00000  -0.00003  -0.00003   3.14157
    D8        0.00002  -0.00000  -0.00000  -0.00002  -0.00002  -0.00000
    D9       -3.14156   0.00000   0.00000   0.00001   0.00001  -3.14155
   D10        0.00002  -0.00000   0.00000  -0.00001  -0.00001   0.00001
   D11        0.00005  -0.00000  -0.00000  -0.00011  -0.00011  -0.00006
   D12       -3.14156  -0.00000  -0.00000  -0.00005  -0.00005   3.14157
   D13       -3.14153  -0.00000  -0.00000  -0.00013  -0.00013   3.14152
   D14        0.00004  -0.00000  -0.00000  -0.00007  -0.00007  -0.00003
   D15        3.14070   0.00005   0.00007   0.00295   0.00302  -3.13946
   D16        0.00039  -0.00004  -0.00007  -0.00281  -0.00288  -0.00249
   D17       -0.00090   0.00005   0.00007   0.00297   0.00304   0.00214
   D18       -3.14121  -0.00004  -0.00007  -0.00280  -0.00287   3.13911
   D19       -0.00002   0.00000   0.00000   0.00005   0.00005   0.00003
   D20        3.14153   0.00000   0.00000   0.00005   0.00005   3.14158
   D21        3.14159  -0.00000  -0.00000  -0.00001  -0.00001   3.14158
   D22       -0.00005  -0.00000  -0.00000  -0.00001  -0.00001  -0.00005
   D23       -0.00002   0.00000  -0.00000   0.00002   0.00002  -0.00000
   D24        3.14157  -0.00000  -0.00000  -0.00000  -0.00000   3.14157
   D25       -3.14157   0.00000   0.00000   0.00001   0.00001  -3.14155
   D26        0.00003  -0.00000   0.00000  -0.00001  -0.00001   0.00002
   D27        3.14112   0.00000  -0.00001   0.00008   0.00007   3.14119
   D28       -0.00052   0.00000  -0.00001   0.00008   0.00007  -0.00045
   D29        0.00003  -0.00000   0.00000  -0.00001  -0.00001   0.00002
   D30       -3.14157  -0.00000  -0.00000  -0.00002  -0.00002   3.14159
   D31       -3.14156   0.00000   0.00000   0.00000   0.00000  -3.14156
   D32        0.00002  -0.00000   0.00000  -0.00000  -0.00000   0.00002
   D33       -3.14101  -0.00004  -0.00007  -0.00273  -0.00280   3.13937
   D34       -0.00062   0.00004   0.00007   0.00267   0.00274   0.00212
         Item               Value     Threshold  Converged?
 Maximum Force            0.000719     0.000450     NO 
 RMS     Force            0.000206     0.000300     YES
 Maximum Displacement     0.010286     0.001800     NO 
 RMS     Displacement     0.002732     0.001200     NO 
 Predicted change in Energy=-5.426905D-06
 GradGradGradGradGradGradGradGradGradGradGradGradGradGradGradGradGradGrad

                          Input orientation:                          
 ---------------------------------------------------------------------
 Center     Atomic      Atomic             Coordinates (Angstroms)
 Number     Number       Type             X           Y           Z
 ---------------------------------------------------------------------
      1          6           0        0.233170    1.270849    0.000371
      2          6           0        0.465009   -0.117880    0.000904
      3          6           0       -0.627301   -0.993978    0.000744
      4          6           0       -1.931367   -0.520291    0.000148
      5          6           0       -2.158442    0.854430   -0.000332
      6          6           0       -1.084212    1.734969   -0.000208
      7          8           0       -2.938072   -1.443702    0.000016
      8          6           0        1.845230   -0.672956    0.001646
      9          8           0        1.851943   -2.028503   -0.000595
     10          8           0        2.875710   -0.041530   -0.000546
     11          8           0        1.279667    2.129713    0.000462
     12          1           0       -0.456865   -2.063168    0.001129
     13          1           0       -3.172021    1.247724   -0.000823
     14          1           0       -1.272699    2.805575   -0.000589
     15          1           0       -3.792397   -1.004097   -0.000043
     16          1           0        2.782167   -2.289898   -0.001970
     17          1           0        0.951485    3.033462    0.000092
 ---------------------------------------------------------------------
                    Distance matrix (angstroms):
                    1          2          3          4          5
     1  C    0.000000
     2  C    1.407948   0.000000
     3  C    2.422778   1.400246   0.000000
     4  C    2.809521   2.429929   1.387432   0.000000
     5  C    2.427595   2.797836   2.400209   1.393348   0.000000
     6  C    1.396747   2.415188   2.766933   2.409122   1.389000
     7  O    4.174394   3.652227   2.354127   1.366068   2.426774
     8  C    2.525296   1.487656   2.493284   3.779682   4.285126
     9  O    3.675072   2.360947   2.686428   4.072855   4.939078
    10  O    2.950484   2.411910   3.630185   4.830859   5.113260
    11  O    1.353810   2.390679   3.659778   4.163323   3.667007
    12  H    3.404676   2.152672   1.082689   2.134158   3.377535
    13  H    3.405270   3.884953   3.391287   2.159884   1.087208
    14  H    2.150122   3.400914   3.853977   3.390461   2.142780
    15  H    4.623913   4.348665   3.165112   1.922888   2.474658
    16  H    4.379076   3.175987   3.647450   5.034771   5.856314
    17  H    1.903360   3.188670   4.325834   4.576024   3.797345
                    6          7          8          9         10
     6  C    0.000000
     7  O    3.679775   0.000000
     8  C    3.792062   4.845000   0.000000
     9  O    4.773335   4.825581   1.355565   0.000000
    10  O    4.340153   5.980480   1.208549   2.235209   0.000000
    11  O    2.396611   5.527985   2.859164   4.197412   2.694746
    12  H    3.849598   2.557367   2.689299   2.309069   3.897829
    13  H    2.143911   2.701575   5.372320   5.997823   6.183625
    14  H    1.087072   4.563969   4.671367   5.756014   5.031432
    15  H    3.851850   0.960794   5.647344   5.736548   6.737224
    16  H    5.581079   5.782489   1.868787   0.966253   2.250313
    17  H    2.414569   5.930738   3.812653   5.141432   3.627427
                   11         12         13         14         15
    11  O    0.000000
    12  H    4.538259   0.000000
    13  H    4.538219   4.281832   0.000000
    14  H    2.640334   4.936622   2.456485   0.000000
    15  H    5.962097   3.499630   2.335716   4.567546   0.000000
    16  H    4.668027   3.246959   6.925830   6.511972   6.699118
    17  H    0.961492   5.287635   4.493568   2.235828   6.229470
                   16         17
    16  H    0.000000
    17  H    5.629349   0.000000
 Stoichiometry    C7H6O4
 Framework group  C1[X(C7H6O4)]
 Deg. of freedom    45
 Full point group                 C1      NOp   1
 Largest Abelian subgroup         C1      NOp   1
 Largest concise Abelian subgroup C1      NOp   1
                         Standard orientation:                         
 ---------------------------------------------------------------------
 Center     Atomic      Atomic             Coordinates (Angstroms)
 Number     Number       Type             X           Y           Z
 ---------------------------------------------------------------------
      1          6           0        0.231481    1.271199    0.000219
      2          6           0        0.464535   -0.117327    0.000753
      3          6           0       -0.627008   -0.994380    0.000592
      4          6           0       -1.931489   -0.521835   -0.000004
      5          6           0       -2.159767    0.852686   -0.000484
      6          6           0       -1.086307    1.734165   -0.000360
      7          8           0       -2.937384   -1.446127   -0.000136
      8          6           0        1.845241   -0.671195    0.001495
      9          8           0        1.853141   -2.026735   -0.000747
     10          8           0        2.875168   -0.038867   -0.000698
     11          8           0        1.277225    2.130979    0.000311
     12          1           0       -0.455636   -2.063421    0.000978
     13          1           0       -3.173689    1.245093   -0.000974
     14          1           0       -1.275732    2.804605   -0.000741
     15          1           0       -3.792094   -1.007270   -0.000195
     16          1           0        2.783593   -2.287316   -0.002122
     17          1           0        0.948252    3.034440   -0.000059
 ---------------------------------------------------------------------
 Rotational constants (GHZ):      1.7676304      0.9185958      0.6044681
 Standard basis: 6-31+G(d,p) (6D, 7F)
 There are   239 symmetry adapted cartesian basis functions of A   symmetry.
 There are   239 symmetry adapted basis functions of A   symmetry.
   239 basis functions,   394 primitive gaussians,   239 cartesian basis functions
    40 alpha electrons       40 beta electrons
       nuclear repulsion energy       591.4122477734 Hartrees.
 NAtoms=   17 NActive=   17 NUniq=   17 SFac= 1.00D+00 NAtFMM=   60 NAOKFM=F Big=F
 Integral buffers will be    131072 words long.
 Raffenetti 2 integral format.
 Two-electron integral symmetry is turned on.
 Nuclear repulsion after empirical dispersion term =      591.4046253429 Hartrees.
 One-electron integrals computed using PRISM.
 NBasis=   239 RedAO= T EigKep=  3.16D-06  NBF=   239
 NBsUse=   239 1.00D-06 EigRej= -1.00D+00 NBFU=   239
 Initial guess from the checkpoint file:  "lwWB97XDDHB.chk"
 B after Tr=    -0.000000   -0.000000   -0.000000
         Rot=    1.000000   -0.000020    0.000009    0.000433 Ang=  -0.05 deg.
 Keep R1 ints in memory in canonical form, NReq=829678955.
 Requested convergence on RMS density matrix=1.00D-08 within 128 cycles.
 Requested convergence on MAX density matrix=1.00D-06.
 Requested convergence on             energy=1.00D-06.
 No special actions if energy rises.
 SCF Done:  E(RwB97XD) =  -571.107517509     A.U. after   11 cycles
            NFock= 11  Conv=0.72D-08     -V/T= 2.0088
 Calling FoFJK, ICntrl=      2127 FMM=F ISym2X=0 I1Cent= 0 IOpClX= 0 NMat=1 NMatS=1 NMatT=0.
 ***** Axes restored to original set *****
 -------------------------------------------------------------------
 Center     Atomic                   Forces (Hartrees/Bohr)
 Number     Number              X              Y              Z
 -------------------------------------------------------------------
      1        6           0.000083249    0.000153106    0.000012515
      2        6          -0.000237470   -0.000192617    0.000183741
      3        6           0.000215242    0.000183820    0.000016876
      4        6          -0.000092812   -0.000057141   -0.000011892
      5        6           0.000102960   -0.000109198    0.000001447
      6        6           0.000125511   -0.000048756   -0.000010344
      7        8           0.000237142    0.000091302    0.000001568
      8        6          -0.000042681   -0.000254201   -0.000649548
      9        8          -0.000191847    0.000330986    0.000194191
     10        8           0.000068457   -0.000152571    0.000248042
     11        8          -0.000241530   -0.000062221    0.000009533
     12        1           0.000002258   -0.000013135    0.000004090
     13        1           0.000031138    0.000026015    0.000000647
     14        1           0.000000823   -0.000019486   -0.000001907
     15        1          -0.000160260    0.000049537   -0.000001775
     16        1           0.000140454   -0.000096634    0.000003321
     17        1          -0.000040632    0.000171197   -0.000000507
 -------------------------------------------------------------------
 Cartesian Forces:  Max     0.000649548 RMS     0.000157813

 GradGradGradGradGradGradGradGradGradGradGradGradGradGradGradGradGradGrad
 Berny optimization.
 Using GEDIIS/GDIIS optimizer.
 FormGI is forming the generalized inverse of G from B-inverse, IUseBI=4.
 Internal  Forces:  Max     0.000466269 RMS     0.000137069
 Search for a local minimum.
 Step number   3 out of a maximum of   85
 All quantities printed in internal units (Hartrees-Bohrs-Radians)
 Mixed Optimization -- En-DIIS/RFO-DIIS
 Swapping is turned off.
 Update second derivatives using D2CorX and points    1    2    3
 DE= -3.14D-06 DEPred=-5.43D-06 R= 5.79D-01
 TightC=F SS=  1.41D+00  RLast= 9.39D-03 DXNew= 5.0454D-01 2.8170D-02
 Trust test= 5.79D-01 RLast= 9.39D-03 DXMaxT set to 3.00D-01
 ITU=  1  1  0
     Eigenvalues ---    0.00975   0.01733   0.01877   0.02077   0.02109
     Eigenvalues ---    0.02130   0.02186   0.02197   0.02207   0.02220
     Eigenvalues ---    0.02232   0.02248   0.02261   0.02278   0.13610
     Eigenvalues ---    0.16000   0.16000   0.16000   0.16017   0.16214
     Eigenvalues ---    0.22250   0.22525   0.23975   0.24947   0.25000
     Eigenvalues ---    0.25000   0.25079   0.33157   0.35196   0.35214
     Eigenvalues ---    0.35656   0.36634   0.42038   0.43162   0.46089
     Eigenvalues ---    0.47295   0.48032   0.48677   0.51419   0.52935
     Eigenvalues ---    0.53756   0.53832   0.54673   0.57456   1.00953
 En-DIIS/RFO-DIIS IScMMF=        0 using points:     3    2    1
 RFO step:  Lambda=-2.45943782D-06.
 DidBck=T Rises=F RFO-DIIS coefs:    0.62357    0.34583    0.03059
 Iteration  1 RMS(Cart)=  0.00203453 RMS(Int)=  0.00000628
 Iteration  2 RMS(Cart)=  0.00000788 RMS(Int)=  0.00000369
 Iteration  3 RMS(Cart)=  0.00000000 RMS(Int)=  0.00000369
 Variable       Old X    -DE/DX   Delta X   Delta X   Delta X     New X
                                 (Linear)    (Quad)   (Total)
    R1        2.66064   0.00026   0.00021  -0.00018   0.00002   2.66066
    R2        2.63947  -0.00018  -0.00008  -0.00012  -0.00020   2.63927
    R3        2.55833  -0.00015   0.00030  -0.00082  -0.00052   2.55781
    R4        2.64608  -0.00027   0.00005  -0.00053  -0.00048   2.64560
    R5        2.81126   0.00004  -0.00021   0.00046   0.00025   2.81151
    R6        2.62187  -0.00008  -0.00029   0.00048   0.00019   2.62206
    R7        2.04599   0.00001  -0.00003   0.00008   0.00005   2.04603
    R8        2.63305  -0.00016  -0.00011  -0.00004  -0.00015   2.63290
    R9        2.58149  -0.00015   0.00041  -0.00104  -0.00063   2.58086
   R10        2.62483  -0.00009  -0.00015   0.00017   0.00002   2.62485
   R11        2.05453  -0.00002  -0.00003   0.00003  -0.00000   2.05452
   R12        2.05427  -0.00002  -0.00004   0.00004   0.00000   2.05427
   R13        1.81564   0.00016   0.00020  -0.00019   0.00001   1.81565
   R14        2.56165  -0.00025   0.00034  -0.00103  -0.00069   2.56096
   R15        2.28383  -0.00002  -0.00004   0.00006   0.00002   2.28385
   R16        1.82595   0.00017   0.00023  -0.00023  -0.00000   1.82595
   R17        1.81696   0.00018   0.00024  -0.00024  -0.00001   1.81695
    A1        2.07494  -0.00011   0.00023  -0.00075  -0.00052   2.07442
    A2        2.09262   0.00040   0.00042   0.00003   0.00044   2.09306
    A3        2.11563  -0.00029  -0.00065   0.00072   0.00008   2.11571
    A4        2.08137  -0.00002  -0.00026   0.00058   0.00032   2.08169
    A5        2.11858   0.00047   0.00082  -0.00076   0.00006   2.11865
    A6        2.08323  -0.00045  -0.00056   0.00018  -0.00038   2.08285
    A7        2.11718   0.00008  -0.00008   0.00035   0.00027   2.11745
    A8        2.08871  -0.00004  -0.00022   0.00038   0.00016   2.08887
    A9        2.07729  -0.00003   0.00030  -0.00073  -0.00043   2.07686
   A10        2.08292  -0.00004   0.00034  -0.00091  -0.00057   2.08235
   A11        2.05090   0.00003  -0.00013   0.00042   0.00029   2.05119
   A12        2.14937   0.00001  -0.00021   0.00049   0.00028   2.14965
   A13        2.09373   0.00004  -0.00014   0.00039   0.00025   2.09398
   A14        2.10464   0.00001  -0.00029   0.00068   0.00040   2.10503
   A15        2.08482  -0.00005   0.00043  -0.00107  -0.00065   2.08417
   A16        2.11623   0.00005  -0.00009   0.00034   0.00025   2.11648
   A17        2.08379  -0.00001  -0.00020   0.00040   0.00020   2.08399
   A18        2.08316  -0.00004   0.00030  -0.00074  -0.00045   2.08271
   A19        1.92409   0.00007  -0.00053   0.00155   0.00102   1.92511
   A20        1.95812  -0.00024  -0.00042   0.00042  -0.00002   1.95810
   A21        2.20948   0.00030   0.00072  -0.00090  -0.00020   2.20928
   A22        2.11558  -0.00006  -0.00030   0.00053   0.00021   2.11579
   A23        1.84969   0.00008  -0.00054   0.00160   0.00106   1.85075
   A24        1.90971   0.00002  -0.00068   0.00173   0.00105   1.91075
    D1        0.00008  -0.00001  -0.00004  -0.00018  -0.00022  -0.00014
    D2       -3.14150  -0.00001  -0.00005  -0.00021  -0.00026   3.14142
    D3       -3.14155  -0.00001  -0.00003  -0.00015  -0.00018   3.14146
    D4        0.00006  -0.00001  -0.00004  -0.00018  -0.00022  -0.00016
    D5       -0.00006   0.00000   0.00002   0.00009   0.00011   0.00005
    D6        3.14156   0.00000   0.00002   0.00006   0.00008  -3.14155
    D7        3.14157   0.00000   0.00001   0.00006   0.00007  -3.14155
    D8       -0.00000   0.00000   0.00001   0.00003   0.00004   0.00004
    D9       -3.14155  -0.00000  -0.00000  -0.00003  -0.00003  -3.14158
   D10        0.00001   0.00000   0.00000   0.00001   0.00001   0.00002
   D11       -0.00006   0.00001   0.00004   0.00018   0.00022   0.00016
   D12        3.14157   0.00000   0.00002   0.00008   0.00010  -3.14152
   D13        3.14152   0.00001   0.00005   0.00021   0.00026  -3.14141
   D14       -0.00003   0.00001   0.00003   0.00011   0.00014   0.00010
   D15       -3.13946  -0.00016  -0.00111  -0.00492  -0.00603   3.13769
   D16       -0.00249   0.00016   0.00106   0.00470   0.00576   0.00327
   D17        0.00214  -0.00016  -0.00112  -0.00495  -0.00607  -0.00393
   D18        3.13911   0.00016   0.00105   0.00467   0.00572  -3.13835
   D19        0.00003  -0.00000  -0.00002  -0.00008  -0.00010  -0.00007
   D20        3.14158  -0.00000  -0.00002  -0.00006  -0.00008   3.14150
   D21        3.14158   0.00000   0.00000   0.00002   0.00003  -3.14158
   D22       -0.00005   0.00000   0.00000   0.00004   0.00004  -0.00001
   D23       -0.00000  -0.00000  -0.00001  -0.00002  -0.00002  -0.00002
   D24        3.14157   0.00000   0.00000   0.00002   0.00002   3.14159
   D25       -3.14155  -0.00000  -0.00000  -0.00003  -0.00004  -3.14159
   D26        0.00002   0.00000   0.00000  -0.00000   0.00000   0.00002
   D27        3.14119   0.00000  -0.00003   0.00010   0.00007   3.14126
   D28       -0.00045   0.00000  -0.00003   0.00011   0.00008  -0.00036
   D29        0.00002   0.00000   0.00001   0.00001   0.00001   0.00003
   D30        3.14159   0.00000   0.00001   0.00003   0.00004  -3.14155
   D31       -3.14156  -0.00000  -0.00000  -0.00002  -0.00002  -3.14158
   D32        0.00002   0.00000   0.00000   0.00000   0.00000   0.00002
   D33        3.13937   0.00015   0.00103   0.00457   0.00560  -3.13821
   D34        0.00212  -0.00015  -0.00101  -0.00446  -0.00547  -0.00335
         Item               Value     Threshold  Converged?
 Maximum Force            0.000466     0.000450     NO 
 RMS     Force            0.000137     0.000300     YES
 Maximum Displacement     0.010218     0.001800     NO 
 RMS     Displacement     0.002035     0.001200     NO 
 Predicted change in Energy=-3.324436D-06
 GradGradGradGradGradGradGradGradGradGradGradGradGradGradGradGradGradGrad

                          Input orientation:                          
 ---------------------------------------------------------------------
 Center     Atomic      Atomic             Coordinates (Angstroms)
 Number     Number       Type             X           Y           Z
 ---------------------------------------------------------------------
      1          6           0        0.233367    1.271205   -0.000532
      2          6           0        0.464949   -0.117580   -0.001438
      3          6           0       -0.627045   -0.993662   -0.001198
      4          6           0       -1.931397   -0.520471   -0.000271
      5          6           0       -2.158233    0.854208    0.000521
      6          6           0       -1.084069    1.734847    0.000407
      7          8           0       -2.937748   -1.443772   -0.000215
      8          6           0        1.845153   -0.673046   -0.002681
      9          8           0        1.851502   -2.028225    0.001480
     10          8           0        2.875675   -0.041670    0.000127
     11          8           0        1.279432    2.130163   -0.000592
     12          1           0       -0.456628   -2.062880   -0.001822
     13          1           0       -3.171588    1.248070    0.001251
     14          1           0       -1.273128    2.805352    0.001068
     15          1           0       -3.792580   -1.005137    0.000761
     16          1           0        2.781376   -2.290851    0.003437
     17          1           0        0.951967    3.034168    0.000102
 ---------------------------------------------------------------------
                    Distance matrix (angstroms):
                    1          2          3          4          5
     1  C    0.000000
     2  C    1.407961   0.000000
     3  C    2.422794   1.399989   0.000000
     4  C    2.810037   2.429979   1.387533   0.000000
     5  C    2.427681   2.797402   2.399826   1.393269   0.000000
     6  C    1.396639   2.414735   2.766521   2.409237   1.389012
     7  O    4.174574   3.652004   2.354135   1.365733   2.426594
     8  C    2.525465   1.487786   2.492901   3.779632   4.284812
     9  O    3.674860   2.360741   2.685799   4.072303   4.938258
    10  O    2.950497   2.411921   3.629784   4.830858   5.113005
    11  O    1.353537   2.390760   3.659636   4.163567   3.666825
    12  H    3.404734   2.152556   1.082713   2.134004   3.377109
    13  H    3.405034   3.884509   3.391176   2.160049   1.087206
    14  H    2.150148   3.400654   3.853562   3.390342   2.142516
    15  H    4.624930   4.349059   3.165557   1.923253   2.475531
    16  H    4.379567   3.176313   3.646924   5.034332   5.855864
    17  H    1.903793   3.189154   4.326280   4.577035   3.798100
                    6          7          8          9         10
     6  C    0.000000
     7  O    3.679640   0.000000
     8  C    3.791872   4.844602   0.000000
     9  O    4.772660   4.824780   1.355199   0.000000
    10  O    4.339998   5.980115   1.208561   2.235024   0.000000
    11  O    2.396333   5.527895   2.859725   4.197554   2.695338
    12  H    3.849210   2.557197   2.688835   2.308392   3.897375
    13  H    2.143523   2.701981   5.372001   5.997128   6.183269
    14  H    1.087072   4.563553   4.671503   5.755586   5.031709
    15  H    3.852732   0.960801   5.647506   5.736058   6.737499
    16  H    5.581032   5.781517   1.869183   0.966252   2.251159
    17  H    2.415300   5.931428   3.813297   5.141691   3.627869
                   11         12         13         14         15
    11  O    0.000000
    12  H    4.538228   0.000000
    13  H    4.537584   4.281753   0.000000
    14  H    2.640350   4.936230   2.455459   0.000000
    15  H    5.962836   3.499629   2.337215   4.568092   0.000000
    16  H    4.669177   3.246024   6.925442   6.512319   6.698505
    17  H    0.961488   5.288104   4.493757   2.236829   6.231108
                   16         17
    16  H    0.000000
    17  H    5.630505   0.000000
 Stoichiometry    C7H6O4
 Framework group  C1[X(C7H6O4)]
 Deg. of freedom    45
 Full point group                 C1      NOp   1
 Largest Abelian subgroup         C1      NOp   1
 Largest concise Abelian subgroup C1      NOp   1
                         Standard orientation:                         
 ---------------------------------------------------------------------
 Center     Atomic      Atomic             Coordinates (Angstroms)
 Number     Number       Type             X           Y           Z
 ---------------------------------------------------------------------
      1          6           0        0.231838    1.271456   -0.000282
      2          6           0        0.464453   -0.117156   -0.001188
      3          6           0       -0.626889   -0.994050   -0.000949
      4          6           0       -1.931593   -0.521829   -0.000022
      5          6           0       -2.159451    0.852681    0.000771
      6          6           0       -1.085942    1.734119    0.000657
      7          8           0       -2.937257   -1.445878    0.000034
      8          6           0        1.845069   -0.671596   -0.002432
      9          8           0        1.852426   -2.026769    0.001729
     10          8           0        2.875122   -0.039453    0.000376
     11          8           0        1.277264    2.131192   -0.000343
     12          1           0       -0.455677   -2.063141   -0.001573
     13          1           0       -3.173099    1.245790    0.001500
     14          1           0       -1.275797    2.804483    0.001317
     15          1           0       -3.792415   -1.007879    0.001011
     16          1           0        2.782496   -2.288703    0.003687
[...]
 ! D32   D(13,5,6,14)            0.0008         -DE/DX =    0.0                 !
 ! D33   D(2,8,9,16)           179.987          -DE/DX =    0.0                 !
 ! D34   D(10,8,9,16)            0.0097         -DE/DX =    0.0                 !
 --------------------------------------------------------------------------------
 GradGradGradGradGradGradGradGradGradGradGradGradGradGradGradGradGradGrad

 1\1\ WCSS.PL-BEM-QINLAB\Freq\RwB97XD\6-31+G(d,p)\C7H6O4\PHZD\20-May-20
 24\0\\#N Geom=AllCheck Guess=TCheck SCRF=Check GenChk RwB97XD/6-31+G(d
 ,p) Freq\\[No Title]\\0,1\C,0.2334497663,1.2717060854,0.0000486269\C,0
 .4653432441,-0.1171725,0.0000721624\C,-0.6264855395,-0.9933213992,0.00
 00576313\C,-1.9308768136,-0.5204109878,0.0000073124\C,-2.1579935582,0.
 8541450041,-0.000020163\C,-1.0840443696,1.7349773521,0.0000122904\O,-2
 .937028146,-1.4439173484,-0.000046292\C,1.8452348844,-0.6734425518,0.0
 001063976\O,1.8502772097,-2.028586084,0.0001416452\O,2.87646381,-0.043
 2170331,-0.0003057164\O,1.2788212926,2.131475722,0.0000807236\H,-0.455
 8135697,-2.0624990821,0.0000838812\H,-3.1714356632,1.2477508794,-0.000
 070343\H,-1.2733087085,2.8054318275,0.0000005265\H,-3.7919677035,-1.00
 53323862,0.0002000737\H,2.7799904727,-2.2920849536,-0.0000496784\H,0.9
 503773922,3.0352174558,0.0000859215\\Version=ES64L-G09RevE.01\State=1-
 A\HF=-571.1075197\RMSD=5.454e-09\RMSF=4.957e-05\ZeroPoint=0.1252881\Th
 ermal=0.1349369\Dipole=-1.4747955,0.6910318,0.0003023\DipoleDeriv=0.69
 72274,0.9165119,0.0000363,0.5330797,0.6137393,0.0000299,-0.0000177,0.0
 000491,0.085698,-0.6188897,0.4308573,0.000014,-0.0641475,-0.0923549,0.
 0000016,-0.0000017,0.0000056,-0.0249309,0.1029746,-0.5173001,0.0000057
 ,0.1980529,-0.0453031,-0.0000015,-0.0000374,0.0000305,-0.1280492,0.831
 0994,0.9818865,0.0000362,0.9383941,0.317385,0.0000065,0.0000492,0.0000
 387,0.0726071,-0.0476994,0.162661,0.0000202,-0.3991158,0.183153,-0.000
 0131,-0.0000108,0.0000003,-0.1471002,-0.1166975,-0.5238424,-0.0000069,
 0.1111719,0.0167256,0.0000013,0.0000181,-0.0000345,-0.1811997,-1.11674
 61,-0.7034274,-0.0000564,-0.7517274,-0.6800891,0.000047,-0.0001274,-0.
 000018,-0.3855316,2.0016098,-0.2847334,-0.000132,-0.2362992,1.8233664,
 -0.0002025,-0.0001591,-0.0001519,0.3162325,-0.5236884,0.251665,-0.0000
 313,0.2514286,-1.4176186,0.000138,-0.0000361,-0.0000076,-0.3847987,-1.
 3454008,-0.1521638,0.0001115,-0.1007528,-0.6863187,0.0000452,0.000226,
 0.0001427,-0.3638994,-0.7566029,-0.7731655,-0.0000331,-0.639032,-0.892
 7512,-0.0000229,-0.0000213,-0.000039,-0.342059,0.1298263,-0.004651,-0.
 0000039,-0.009725,0.0347803,0.0000023,0.0000072,-0.0000018,0.1485192,-
 0.1042637,0.0339544,-0.0000077,0.0320361,0.0720597,0.0000045,-0.000012
 3,0.0000037,0.1493579,0.0604931,-0.0136036,-0.0000019,0.0039902,-0.112
 0582,0.0000005,0.0000054,0.0000024,0.1545031,0.3369057,0.083035,0.0000
 174,0.1367771,0.1990923,-0.0000516,0.0000683,-0.0000141,0.3457598,0.23
 06536,-0.0511798,0.0000323,-0.1035626,0.3633577,0.000013,0.0000525,-0.
 0000095,0.3475805,0.2391987,0.163496,-0.0000004,0.0994316,0.3028344,0.
 0000018,-0.0000029,0.0000034,0.3373107\Polar=124.8052817,-0.1524564,10
 8.2020554,-0.0016903,-0.0012661,51.0285563\PG=C01 [X(C7H6O4)]\NImag=0\
 \0.70695247,0.01777812,0.72221499,0.00001692,-0.00000259,0.15534999,-0
 .14951198,0.06741743,-0.00000326,0.66028876,0.00736461,-0.29121270,0.0
 0000259,0.02459534,0.70821541,-0.00000292,0.00000541,-0.06372056,0.000
 00290,-0.00001142,0.13335570,0.06682599,-0.06877888,0.00000338,-0.2447
 5154,-0.07623860,-0.00000820,0.71712170,-0.01917141,-0.03841377,0.0000
 0037,-0.13215797,-0.21638878,0.00000113,-0.01360432,0.76206706,0.00000
 041,-0.00000173,-0.00099043,-0.00000779,0.00000158,-0.05247929,0.00002
 053,-0.00001308,0.12912297,-0.04525818,0.04381723,-0.00000217,-0.05470
 175,-0.04566897,-0.00000078,-0.30631250,0.12002066,-0.00000941,0.73644
 648,0.04772246,-0.05361114,0.00000184,0.01058749,0.06659608,-0.0000026
 2,0.03673042,-0.16483765,0.00000300,-0.00315443,0.71476366,-0.00000326
 ,0.00000318,0.00074364,-0.00000272,-0.00000182,-0.00121288,-0.00000648
 ,0.00000395,-0.06427595,0.00001066,0.00000360,0.14187792,-0.05567493,0
 .00332515,-0.00000184,-0.01264680,-0.01885783,-0.00000002,0.02046263,0
 .03322913,-0.00000106,-0.14796295,0.08641553,-0.00000476,0.75590305,-0
 .05440122,0.07222864,-0.00000248,-0.02334280,-0.06029490,0.00000073,0.
 08620258,-0.00622186,0.00000223,-0.00195615,-0.32172355,0.00000099,-0.
 00812800,0.70209863,-0.00000093,-0.00000070,-0.00219111,0.00000059,-0.
 00000031,0.00199314,-0.00000113,0.00000194,0.00320798,-0.00000238,0.00
 000559,-0.06013435,0.00002754,-0.00000606,0.12225158,-0.28688742,0.028
 84457,-0.00000591,0.01911594,0.07750301,-0.00000035,-0.07482850,-0.008
 13983,-0.00000091,0.06700477,-0.07321372,0.00000538,-0.26968847,-0.083
 08462,-0.00000875,0.69701415,0.11163117,-0.16451439,0.00000328,0.02860
 803,-0.00261403,0.00000160,-0.00799861,-0.00510498,-0.00000041,-0.0163
 9709,-0.04255682,-0.00000073,-0.15192593,-0.22338067,-0.00000360,0.013
 71689,0.75445709,-0.00000535,-0.00000041,-0.06380338,-0.00000057,0.000
 00443,0.00461322,-0.00000257,-0.00000054,0.00184882,0.00000296,-0.0000
 0141,-0.00046247,-0.00000663,-0.00000121,-0.05050809,0.00001699,-0.000
 00306,0.11722487,0.00833098,-0.00082132,0.00000060,0.00051491,0.006539
 05,-0.00000018,-0.05399605,-0.03600950,-0.00000229,-0.22118510,-0.1363
 2212,-0.00000465,0.00223132,-0.00258427,-0.00000127,-0.00823060,0.0010
 8888,-0.00000004,0.70284631,-0.00057095,0.00598302,-0.00000004,0.00086
 166,-0.00796511,0.00000127,0.00576052,0.01687143,0.00000054,-0.0823931
 1,-0.20739440,-0.00001798,-0.04512848,-0.03844683,-0.00000254,0.007431
 45,-0.00202081,-0.00000020,-0.06229030,0.39295745,0.00000210,-0.000000
 91,-0.00148297,0.00000194,0.00000045,0.00499254,-0.00000256,0.00000084
 ,0.00648102,0.00000854,-0.00000944,-0.03714795,0.00000171,0.00000178,0
 .00623815,-0.00000294,0.00000043,0.00727129,-0.00012503,0.00008524,0.0
 2177068,0.01919781,0.02956590,0.00000001,-0.17690994,0.03722841,-0.000
 01167,-0.03808691,-0.00066706,0.00000099,0.00309011,-0.01280468,0.0000
 0111,0.00479985,0.00476763,-0.00000021,-0.00388213,-0.00078889,0.00000
 115,0.00234574,0.00341232,-0.00000003,0.93036602,0.03339572,-0.0067602
 5,0.00000123,0.05029759,-0.12447520,0.00000301,-0.01177795,0.02084251,
 -0.00000248,-0.00573179,0.00135101,-0.00000075,-0.00308063,-0.00457071
 ,0.00000022,0.00254608,-0.00686077,0.00000023,-0.00368507,-0.00202030,
 0.00000031,0.17580393,0.68933575,-0.00000191,-0.00000405,0.00182165,0.
 00000056,-0.00000342,-0.07904605,0.00000041,0.00000215,-0.00078590,-0.
 00000035,0.00000028,0.00852350,0.00000065,-0.00000045,-0.00111322,-0.0
 0000052,0.00000055,0.00619654,-0.00000059,-0.00000006,0.00024750,-0.00
 019995,-0.00010935,0.21112505,-0.00929718,-0.00448382,-0.00000029,-0.0
 0552294,0.04313595,-0.00000129,-0.00556989,0.00224689,0.,0.00199394,0.
 00199664,0.00000043,-0.00062065,0.00027828,-0.00000002,0.00015962,0.00
 229942,-0.00000006,-0.00107381,-0.00082554,-0.00000008,-0.12814812,0.0
 3191749,0.00001141,0.63185801,0.00248280,0.00391959,0.00000010,0.01603
 350,-0.02993105,-0.00000094,-0.00172048,-0.00471007,0.00000129,-0.0001
 5384,-0.00269128,-0.00000003,0.00097031,0.00090367,-0.00000009,-0.0000
 5879,-0.00035819,0.00000011,0.00202141,0.00188809,0.,-0.00263274,-0.26
 769788,0.00001278,-0.10235667,0.45620646,0.00000096,0.00000004,0.00168
 580,-0.00000208,0.00000026,0.01132740,0.00000034,-0.00000038,0.0009703
 9,0.00000042,-0.00000018,-0.00090117,0.,0.00000040,0.00009951,-0.00000
 035,-0.00000030,-0.00073960,0.00000011,0.00000002,0.00013199,0.0000100
 9,-0.00000147,-0.06448400,-0.00011787,-0.00000803,0.03644322,-0.007889
 47,-0.01170965,-0.00000076,-0.05544391,-0.02263418,0.00002077,0.000145
 76,0.00905124,-0.00000003,-0.00248052,0.00366241,-0.00000163,-0.002332
 01,-0.00343165,0.00000022,0.00348151,0.00000011,-0.00000051,-0.0024713
 0,-0.00127835,0.00000007,-0.59563592,-0.27618280,0.00018944,0.00739642
 ,-0.05534912,0.00001339,0.65552005,-0.00833953,-0.00684670,-0.00000051
 ,-0.00750556,0.01914624,0.00000220,0.00447935,-0.00150408,-0.00000011,
 -0.00133396,0.00233648,-0.00000030,-0.00049148,-0.00110061,-0.00000001
 ,0.00175846,0.00084789,-0.00000032,0.00090749,0.00034478,0.00000007,-0
 .27889836,-0.27664350,0.00011200,-0.06832884,-0.08031675,0.00002938,0.
 34989913,0.34280667,0.00000091,0.00000344,-0.00119070,0.00000963,0.000
 00773,0.02040738,0.00000086,-0.00000286,0.00256994,0.00000019,-0.00000
 003,-0.00156436,-0.00000009,0.00000038,0.00017775,0.00000014,-0.000000
 25,-0.00073991,0.00000072,0.00000010,-0.00013282,0.00019895,0.00011176
 ,-0.07822259,0.00001144,0.00002425,0.03010220,-0.00022342,-0.00014106,
 0.03210051,-0.24886859,-0.08653993,-0.00000576,0.01966172,-0.00724035,
 0.00000034,-0.01221964,0.00314134,0.00000059,0.00904901,-0.00377977,0.
 00000113,0.00131151,0.00986160,-0.00000056,-0.05489436,-0.03806784,-0.
 00000227,-0.00679358,-0.00467291,-0.00000132,-0.01532272,0.00051604,0.
 00000178,0.00239452,-0.00009850,-0.00000014,0.00409067,0.01085881,-0.0
 0000050,0.40579368,-0.13971875,-0.19847757,-0.00000402,-0.03311504,-0.
 04174635,-0.00000056,0.00341899,-0.00276048,0.00000084,0.00232678,0.00
 450980,0.00000043,0.00215264,-0.00505307,-0.00000025,-0.00305254,0.008
 03724,-0.00000025,-0.00644244,-0.00464717,-0.00000107,-0.01484872,0.00
 238712,0.00000079,0.00162076,-0.00164916,-0.00000019,0.01346712,-0.006
 93177,-0.00000381,-0.02226415,0.71464672,-0.00000657,-0.00000245,-0.04
 169247,0.00000136,-0.00000088,0.00449268,-0.00000070,0.00000035,0.0044
 5639,0.00000049,-0.00000026,-0.00122558,-0.00000028,0.00000022,0.00779
 731,-0.00000192,-0.00000122,0.00987227,-0.00000044,-0.00000010,-0.0004
 6934,-0.00000113,-0.00000007,-0.00340873,0.00000007,-0.00000069,0.0003
 4397,0.00000172,-0.00000145,0.00147425,0.00000791,0.00000988,0.0261632
 1,-0.00382943,-0.00199722,-0.00000020,0.00857977,-0.02362445,0.0000008
 8,-0.06779000,0.04789714,-0.00000167,0.00112509,0.02970417,-0.00000111
 ,-0.00551766,0.00160921,-0.00000029,-0.00120984,-0.00078894,-0.0000001
 4,0.00227873,-0.00034320,0.00000013,0.00100936,-0.00374378,0.00000028,
 -0.00469757,0.00227644,-0.00000005,0.00071995,0.00115886,-0.00000048,0
 .00033328,-0.00163578,0.,0.06891958,-0.00316414,0.00097677,-0.00000011
 ,0.00410863,-0.01386550,0.00000037,0.04680886,-0.34946726,0.00000842,-
 0.00143221,-0.00585568,0.00000018,0.00135593,0.00020662,0.00000015,0.0
 0031310,0.00074413,-0.00000001,-0.00051835,0.00056136,-0.00000013,0.00
 015440,-0.00196206,-0.00000012,0.00380763,0.00004079,-0.00000005,0.000
 07141,0.00042040,-0.00000001,0.00040124,-0.00089162,0.00000004,-0.0519
 1396,0.36876206,-0.00000011,-0.00000017,0.00604995,0.00000149,-0.00000
 018,0.00277567,-0.00000260,0.00000745,-0.03709393,-0.00000049,0.000000
 74,0.00719973,-0.00000024,0.00000041,0.00537893,-0.00000031,-0.0000000
 8,-0.00071033,0.00000014,0.00000010,-0.00357751,-0.00000083,0.00000030
 ,-0.00421887,-0.00000048,-0.00000016,0.00040689,0.00000082,0.00000029,
 0.00073279,-0.00000009,0.,0.00030425,0.00000239,-0.00000888,0.02445544
 ,-0.00052028,-0.00391474,-0.00000039,0.00027911,-0.00041806,0.,0.00167
 361,0.00108941,-0.00000023,-0.00445710,-0.00305771,-0.00000039,-0.3036
 4108,0.09705565,-0.00001339,-0.01770183,0.01159072,-0.00000094,0.00326
 329,0.00014181,0.00000010,0.00031788,-0.00020953,0.,-0.00014361,0.0002
 2559,0.,-0.00020942,0.00005351,0.00000005,-0.00169233,0.00008319,-0.00
 000005,-0.00016778,0.00001099,0.00000004,0.32214272,-0.00339116,-0.002
 17720,-0.00000009,-0.00128461,-0.00106692,0.00000004,0.00055486,-0.006
 38872,0.00000013,0.02953823,-0.00352724,0.00000124,0.09791299,-0.09991
 547,0.00000525,-0.01950996,0.01140631,-0.00000083,0.00070209,0.0026664
 6,-0.00000025,0.00008869,-0.00036829,0.,0.00014511,0.00013596,0.,0.000
 02599,0.00007725,-0.00000003,-0.00111509,0.00032856,0.00000003,0.00149
 441,-0.00015619,0.00000002,-0.10406627,0.09959069,-0.00000052,0.000000
 40,0.00726378,0.00000009,-0.00000025,-0.00060259,-0.00000031,-0.000000
 04,0.00537936,-0.00000012,0.00000052,0.00522541,-0.00001417,0.00000453
 ,-0.03477087,0.,0.00000052,0.00322972,-0.00000062,0.00000014,-0.003692
 17,-0.00000009,-0.00000007,-0.00071297,-0.00000005,0.00000005,0.000129
 27,0.00000003,0.00000008,0.00006298,0.00000006,-0.00000001,-0.00004579
 ,0.00000006,-0.00000006,-0.00050610,0.00001484,-0.00000604,0.02275408,
 -0.00063805,0.02892071,-0.00000025,-0.00514872,0.00103820,-0.00000050,
 -0.00155478,-0.00061642,-0.00000002,-0.00345203,-0.00269655,-0.0000003
 8,0.00851979,-0.02524552,0.00000049,-0.07008883,0.05076209,-0.00000130
 ,-0.00002306,-0.00160634,0.00000009,0.00080576,0.00128262,-0.00000003,
 -0.00059998,0.00035412,0.00000007,-0.00011981,-0.00017676,0.00000001,0
 .00264064,0.00145232,0.00000022,0.00006226,0.00004030,0.,0.00077528,0.
 00013792,0.00000018,0.07017907,-0.00425037,-0.00982894,-0.00000004,0.0
 0264125,0.00083448,0.00000019,-0.00011687,0.00061851,-0.00000001,-0.00
 347563,0.00077461,-0.00000025,0.00611511,-0.01532857,0.00000041,0.0506
 0093,-0.33280075,0.00000341,-0.00012947,-0.00142343,0.00000012,-0.0013
 1687,-0.00032973,0.00000014,0.00042082,-0.00024513,-0.00000004,0.00053
 641,0.00024868,-0.00000016,-0.00032329,0.00353751,-0.00000004,0.000018
 92,-0.00006045,0.,-0.00020232,0.00075593,0.00000002,-0.05262122,0.3531
 3711,-0.00000004,0.00000043,0.00453393,-0.00000012,0.00000032,0.004613
 07,-0.00000020,0.00000001,-0.00085417,-0.00000017,-0.00000001,0.006638
 83,0.00000015,-0.00000060,0.00249715,-0.00000150,0.00000356,-0.0314814
 6,-0.00000019,0.,0.00037639,-0.00000013,0.00000003,0.00019535,0.000000
 02,0.,-0.00009914,0.00000008,0.,-0.00000517,0.00000028,0.00000023,-0.0
 0414088,0.00000002,0.,-0.00024383,0.00000026,-0.00000006,-0.00419732,0
 .00000162,-0.00000370,0.02152019,-0.00003333,-0.00075131,-0.00000004,-
 0.00027742,0.00171381,-0.00000052,-0.00243397,-0.00546989,0.00000076,-
 0.03266289,0.01782205,0.00000672,0.00536971,0.00253875,0.00000014,-0.0
 0074563,0.00035968,-0.00000082,-0.42801477,0.18130179,0.00011737,-0.00
 078985,0.00006829,0.,0.00018363,-0.00027675,0.,0.00021894,0.00001431,0
 .,0.00079359,0.00069875,0.00000015,0.00033409,-0.00009065,0.00000019,-
 0.00007240,-0.00128914,0.00000064,0.00023340,0.00026380,0.00000002,0.4
 5799824,0.00064606,-0.00010325,0.00000027,0.00010982,0.00104965,-0.000
 00069,-0.00454021,-0.00370679,0.00000007,-0.03288879,0.01033702,0.0000
 0852,-0.00347526,0.00223629,-0.00000014,-0.00036774,-0.00056975,-0.000
 00005,0.23688898,-0.15777286,-0.00007762,-0.00067717,0.00008098,-0.000
 00009,0.00011685,-0.00021651,0.,0.00015594,0.00003628,0.00000004,-0.00
 012852,-0.00031293,-0.00000006,-0.00028436,0.00010625,0.00000008,0.001
 36582,-0.00155992,0.00000020,0.00003213,0.00007906,-0.00000009,-0.1968
 1249,0.15028711,-0.00000073,0.00000039,0.00025526,-0.00000137,-0.00000
 023,0.00161666,-0.00000023,-0.00000114,0.00143592,-0.00000731,-0.00000
 175,-0.00369904,-0.00000101,-0.00000086,0.00001793,0.00000098,-0.00000
 023,-0.00080541,0.00013372,-0.00006650,-0.00090568,0.00000006,-0.00000
 020,0.00004184,-0.00000003,0.00000006,-0.00002901,-0.00000011,0.000000
 01,-0.00006683,0.00000046,0.00000046,-0.00009176,0.00000009,0.00000002
 ,-0.00069427,0.00000008,0.00000058,0.00051722,-0.00000009,-0.00000010,
 -0.00005547,-0.00012457,0.00006956,0.00240090,-0.00007621,0.00018117,0
 .00000006,0.00147701,-0.00060374,0.00000186,0.00012138,-0.00021992,0.0
 0000003,0.00006842,-0.00013197,-0.00000006,0.00006090,0.00005274,0.000
 00002,0.00002071,0.00011001,-0.00000010,0.00010216,0.00006757,0.,-0.00
 146104,0.00990181,-0.00000161,-0.48853186,0.13764752,0.00009525,-0.004
 33448,-0.00654499,0.00000129,-0.00006094,-0.00020099,-0.00000004,0.000
 11198,0.00022474,0.00000007,0.00001792,0.00000912,0.,0.00000215,-0.000
 01448,0.,-0.00003489,-0.00001738,0.,0.49247913,0.00186069,0.00017588,0
 .00000025,-0.00219810,-0.00720854,0.00000043,-0.00150833,0.00007515,-0
 .00000022,0.00027926,0.00082317,-0.00000007,-0.00033931,-0.00019480,0.
 00000003,0.00004106,-0.00051633,-0.00000004,-0.00034506,-0.00029152,0.
 ,0.05969723,-0.02227561,-0.00001093,0.08830729,-0.07560985,-0.00001953
 ,-0.00561089,0.00764705,0.00000040,-0.00013049,0.00028881,0.00000001,0
 .00045613,0.00054690,0.00000008,-0.00003960,0.00004669,0.,0.00012923,-
 0.00003567,0.,0.00005528,0.00003732,0.,-0.14052084,0.09653064,-0.00000
 006,0.00000047,0.00061851,-0.00000037,0.00000126,0.00431741,-0.0000004
 3,-0.00000014,-0.00030329,-0.00000013,0.00000018,0.00026030,-0.0000000
 3,-0.00000010,-0.00002970,0.00000009,0.00000007,-0.00025945,0.00000003
 ,0.,-0.00006988,0.00000146,-0.00000277,0.00414947,0.00009690,-0.000028
 81,-0.01507224,-0.00000063,0.00000022,-0.00593446,-0.00000014,-0.00000
 017,0.00005599,0.00000011,0.00000016,-0.00026928,0.,0.00000002,-0.0000
 3108,-0.00000001,0.,-0.00003830,0.,0.,0.00004124,-0.00009679,0.0000296
 0,0.01255507,0.00717781,-0.04085341,-0.00000011,-0.00500220,-0.0038322
 0,-0.00000033,0.00119271,-0.00061948,0.00000009,-0.00030479,0.00051977
 ,0.00000003,-0.00057421,-0.00019222,-0.00000006,0.00136091,-0.00419967
 ,0.00000016,-0.00012517,0.00013206,-0.00000007,-0.00169589,-0.00131802
 ,0.00000045,0.00021947,0.00063521,-0.00000016,-0.00065644,0.00248956,0
 .00000028,-0.10621647,0.19605785,-0.00000078,-0.00026181,-0.00017793,0
 .00000002,0.00013603,0.00004682,-0.00000001,-0.00159310,0.00185329,-0.
 00000010,-0.00006645,-0.00012366,0.00000005,0.00003767,-0.00013356,0.0
 0000002,0.10637193,0.01012589,-0.03355299,-0.00000004,-0.00565665,0.00
 092723,-0.00000016,0.00232867,-0.00097023,-0.00000006,-0.00139618,0.00
 070593,-0.00000015,-0.00004986,-0.00144280,0.00000010,0.00467165,0.005
 80482,0.00000015,0.00100000,0.00070983,0.00000018,0.00191600,-0.000033
 07,-0.00000022,-0.00029824,0.00033131,0.00000007,-0.00067313,-0.000568
 32,0.00000010,0.13958180,-0.47126564,-0.00000333,-0.00028360,-0.000106
 51,0.,0.00029153,0.00015210,0.,-0.00118681,0.00006677,-0.00000009,-0.0
 0014629,-0.00000794,-0.00000006,0.00005964,-0.00003928,0.00000001,-0.1
 5028441,0.49928880,0.00000110,-0.00000076,-0.00325090,-0.00000028,-0.0
 0000011,0.00255649,-0.00000011,-0.00000002,0.00131016,0.00000005,-0.00
 000005,0.00015442,0.00000006,0.00000010,-0.00091208,-0.00000012,-0.000
 00015,-0.00074665,-0.00000003,0.,-0.00003124,0.00000021,0.00000006,-0.
 00030858,-0.00000010,0.00000012,-0.00031549,0.00000055,-0.00000047,0.0
 0022905,-0.00000175,-0.00000232,-0.00388576,-0.00000002,0.00000002,0.0
 0001046,0.,0.,-0.00000293,-0.00000010,0.00000004,0.00074084,0.,0.,0.00
 002048,0.00000002,0.,0.00000969,0.00000052,0.00000352,0.00442201\\0.00
 011499,-0.00001926,-0.00000113,-0.00007478,0.00004017,-0.00001664,0.00
 007784,0.00003021,-0.00000122,-0.00006119,-0.00013207,0.00000165,0.000
 00656,-0.00000413,-0.00000056,-0.00001119,0.00000270,0.00000098,-0.000
 01438,0.00012496,-0.00000161,0.00003025,-0.00002880,0.00005845,0.00009
 369,0.00006124,-0.00001738,-0.00002540,0.00000088,-0.00002239,-0.00014
 041,0.00005295,-0.00000085,-0.00000655,-0.00001980,-0.00000032,0.00000
 428,0.00001630,-0.00000009,-0.00002699,-0.00000166,0.00000021,0.000033
 49,-0.00007621,0.00000120,-0.00006540,-0.00001036,-0.00000036,0.000065
 18,-0.00003712,0.00000007\\\@


 THE VALUE OF PHILOSOPHY IS, IN FACT, TO BE SOUGHT LARGELY IN ITS
 VERY UNCERTAINTY.  THE MAN WHO HAS NO TINCTURE OF PHILOSOPHY GOES
 THROUGH LIFE IMPRISONED IN THE PREJUDICES DERIVED FROM COMMON SENSE,
 FROM THE HABITUAL BELIEFS OF HIS AGE OR HIS NATION, AND FROM
 CONVICTIONS WHICH HAVE GROWN UP IN HIS MIND WITHOUT THE CO-OPERATION
 OR CONSENT OF HIS DELIBERATE REASON.  TO SUCH A MAN THE WORLD TENDS
 TO BE DEFINITE, FINITE, OBVIOUS; COMMON OBJECTS ROUSE NO QUESTIONS,
 AND UNFAMILIAR POSSIBILITIES ARE CONTEMPTUOUSLY REJECTED.

                             -- BERTRAND RUSSELL
 Job cpu time:       0 days  0 hours 34 minutes 50.7 seconds.
 File lengths (MBytes):  RWF=    107 Int=      0 D2E=      0 Chk=      5 Scr=      1
 Normal termination of Gaussian 09 at Mon May 20 13:07:28 2024.
