 Entering Gaussian System, Link 0=g09
 Input=B3PW91DMANyang.gjf
 Output=B3PW91DMANyang.log
 Initial command:
 /home/phzd/g09E/g09/l1.exe "/home/phzd/g09E/scratch/Gau-1304729.inp" -scrdir="/home/phzd/g09E/scratch/"
 Default is to use a total of  18 processors:
                               18 via shared-memory
                                1 via Linda
 Entering Link 1 = /home/phzd/g09E/g09/l1.exe PID=   1304731.
  
 Copyright (c) 1988,1990,1992,1993,1995,1998,2003,2009,2015,
            Gaussian, Inc.  All Rights Reserved.
  
 This is part of the Gaussian(R) 09 program.  It is based on
 the Gaussian(R) 03 system (copyright 2003, Gaussian, Inc.),
 the Gaussian(R) 98 system (copyright 1998, Gaussian, Inc.),
 the Gaussian(R) 94 system (copyright 1995, Gaussian, Inc.),
 the Gaussian 92(TM) system (copyright 1992, Gaussian, Inc.),
 the Gaussian 90(TM) system (copyright 1990, Gaussian, Inc.),
 the Gaussian 88(TM) system (copyright 1988, Gaussian, Inc.),
 the Gaussian 86(TM) system (copyright 1986, Carnegie Mellon
 University), and the Gaussian 82(TM) system (copyright 1983,
 Carnegie Mellon University). Gaussian is a federally registered
 trademark of Gaussian, Inc.
  
 This software contains proprietary and confidential information,
 including trade secrets, belonging to Gaussian, Inc.
  
 This software is provided under written license and may be
 used, copied, transmitted, or stored only in accord with that
 written license.
  
 The following legend is applicable only to US Government
 contracts under FAR:
  
                    RESTRICTED RIGHTS LEGEND
  
 Use, reproduction and disclosure by the US Government is
 subject to restrictions as set forth in subparagraphs (a)
 and (c) of the Commercial Computer Software - Restricted
 Rights clause in FAR 52.227-19.
  
 Gaussian, Inc.
 340 Quinnipiac St., Bldg. 40, Wallingford CT 06492
  
  
 ---------------------------------------------------------------
 Warning -- This program may not be used in any manner that
 competes with the business of Gaussian, Inc. or will provide
 assistance to any competitor of Gaussian, Inc.  The licensee
 of this program is prohibited from giving any competitor of
 Gaussian, Inc. access to this program.  By using this program,
 the user acknowledges that Gaussian, Inc. is engaged in the
 business of creating and licensing software in the field of
 computational chemistry and represents and warrants to the
 licensee that it is not a competitor of Gaussian, Inc. and that
 it will not use this program in any manner prohibited above.
 ---------------------------------------------------------------
  

 Cite this work as:
 Gaussian 09, Revision E.01,
 M. J. Frisch, G. W. Trucks, H. B. Schlegel, G. E. Scuseria, 
 M. A. Robb, J. R. Cheeseman, G. Scalmani, V. Barone, B. Mennucci, 
 G. A. Petersson, H. Nakatsuji, M. Caricato, X. Li, H. P. Hratchian, 
 A. F. Izmaylov, J. Bloino, G. Zheng, J. L. Sonnenberg, M. Hada, 
 M. Ehara, K. Toyota, R. Fukuda, J. Hasegawa, M. Ishida, T. Nakajima, 
 Y. Honda, O. Kitao, H. Nakai, T. Vreven, J. A. Montgomery, Jr., 
 J. E. Peralta, F. Ogliaro, M. Bearpark, J. J. Heyd, E. Brothers, 
 K. N. Kudin, V. N. Staroverov, T. Keith, R. Kobayashi, J. Normand, 
 K. Raghavachari, A. Rendell, J. C. Burant, S. S. Iyengar, J. Tomasi, 
 M. Cossi, N. Rega, J. M. Millam, M. Klene, J. E. Knox, J. B. Cross, 
 V. Bakken, C. Adamo, J. Jaramillo, R. Gomperts, R. E. Stratmann, 
 O. Yazyev, A. J. Austin, R. Cammi, C. Pomelli, J. W. Ochterski, 
 R. L. Martin, K. Morokuma, V. G. Zakrzewski, G. A. Voth, 
 P. Salvador, J. J. Dannenberg, S. Dapprich, A. D. Daniels, 
 O. Farkas, J. B. Foresman, J. V. Ortiz, J. Cioslowski, 
 and D. J. Fox, Gaussian, Inc., Wallingford CT, 2013.
 
 ******************************************
 Gaussian 09:  ES64L-G09RevE.01 30-Nov-2015
                15-Dec-2024 
 ******************************************
 %chk=B3PW91DMANyang.chk
 -----------------------------
 # opt freq b3pw91/6-31+g(d,p)
 -----------------------------
 1/14=-1,18=20,19=15,26=3,38=1/1,3;
 2/9=110,12=2,17=6,18=5,40=1/2;
 3/5=1,6=6,7=111,11=2,16=1,25=1,30=1,71=1,74=-6/1,2,3;
 4//1;
 5/5=2,38=5/2;
 6/7=2,8=2,9=2,10=2,28=1/1;
 7//1,2,3,16;
 1/14=-1,18=20,19=15,26=3/3(2);
 2/9=110/2;
 99//99;
 2/9=110/2;
 3/5=1,6=6,7=111,11=2,16=1,25=1,30=1,71=1,74=-6/1,2,3;
 4/5=5,16=3,69=1/1;
 5/5=2,38=5/2;
 7//1,2,3,16;
 1/14=-1,18=20,19=15,26=3/3(-5);
 2/9=110/2;
 6/7=2,8=2,9=2,10=2,19=2,28=1/1;
 99/9=1/99;
 ----------
 [No Title]
 ----------
 Symbolic Z-matrix:
 Charge =  1 Multiplicity = 1
 C                    -0.76651  -2.42908  -0.00006 
 C                    -2.17813  -2.37922  -0.00003 
 C                    -2.814    -1.16497   0. 
 C                    -2.08035   0.05086   0.00002 
 C                    -0.65186   0.02027   0.00001 
 C                    -0.03806  -1.26864  -0.00004 
 C                    -2.75618   1.2989    0.00006 
 C                    -2.05636   2.47697   0.00008 
 C                    -0.64361   2.45568   0.00007 
 C                     0.04738   1.26913   0.00004 
 N                     1.43352  -1.33212  -0.00008 
 N                     1.50476   1.25677   0.00004 
 C                     1.98735  -1.95065   1.23471 
 C                     1.98728  -1.95053  -1.23496 
 C                     2.07354   1.86493  -1.21841 
 C                     2.07352   1.86477   1.21858 
 H                    -0.26464  -3.39285  -0.00009 
 H                    -2.74644  -3.30232  -0.00004 
 H                    -3.8986   -1.11385   0.00002 
 H                    -3.84188   1.3011    0.00007 
 H                    -2.57748   3.42798   0.00011 
 H                    -0.09723   3.3948    0.0001 
 H                     1.69839  -0.24267  -0.00004 
 H                     3.07267  -1.83474   1.22696 
 H                     1.55963  -1.44481   2.10092 
 H                     1.73045  -3.01106   1.26734 
 H                     3.07259  -1.83461  -1.22728 
 H                     1.55949  -1.44462  -2.1011 
 H                     1.73038  -3.01094  -1.26767 
 H                     1.63055   1.3968   -2.10011 
 H                     1.88036   2.94349  -1.26003 
 H                     3.15445   1.70279  -1.22486 
 H                     1.63052   1.39651   2.10021 
 H                     3.15443   1.70264   1.22503 
 H                     1.88032   2.94333   1.26034 
 

 GradGradGradGradGradGradGradGradGradGradGradGradGradGradGradGradGradGrad
 Berny optimization.
 Initialization pass.
                           ----------------------------
                           !    Initial Parameters    !
                           ! (Angstroms and Degrees)  !
 --------------------------                            --------------------------
 ! Name  Definition              Value          Derivative Info.                !
 --------------------------------------------------------------------------------
 ! R1    R(1,2)                  1.4125         estimate D2E/DX2                !
 ! R2    R(1,6)                  1.3701         estimate D2E/DX2                !
 ! R3    R(1,17)                 1.0866         estimate D2E/DX2                !
 ! R4    R(2,3)                  1.3707         estimate D2E/DX2                !
 ! R5    R(2,18)                 1.084          estimate D2E/DX2                !
 ! R6    R(3,4)                  1.42           estimate D2E/DX2                !
 ! R7    R(3,19)                 1.0858         estimate D2E/DX2                !
 ! R8    R(4,5)                  1.4288         estimate D2E/DX2                !
 ! R9    R(4,7)                  1.4193         estimate D2E/DX2                !
 ! R10   R(5,6)                  1.4276         estimate D2E/DX2                !
 ! R11   R(5,10)                 1.4313         estimate D2E/DX2                !
 ! R12   R(6,11)                 1.4729         estimate D2E/DX2                !
 ! R13   R(7,8)                  1.3703         estimate D2E/DX2                !
 ! R14   R(7,20)                 1.0857         estimate D2E/DX2                !
 ! R15   R(8,9)                  1.4129         estimate D2E/DX2                !
 ! R16   R(8,21)                 1.0844         estimate D2E/DX2                !
 ! R17   R(9,10)                 1.3731         estimate D2E/DX2                !
 ! R18   R(9,22)                 1.0865         estimate D2E/DX2                !
 ! R19   R(10,12)                1.4574         estimate D2E/DX2                !
 ! R20   R(11,13)                1.488          estimate D2E/DX2                !
 ! R21   R(11,14)                1.488          estimate D2E/DX2                !
 ! R22   R(11,23)                1.1212         estimate D2E/DX2                !
 ! R23   R(12,15)                1.4758         estimate D2E/DX2                !
 ! R24   R(12,16)                1.4758         estimate D2E/DX2                !
 ! R25   R(13,24)                1.0915         estimate D2E/DX2                !
 ! R26   R(13,25)                1.0905         estimate D2E/DX2                !
 ! R27   R(13,26)                1.0916         estimate D2E/DX2                !
 ! R28   R(14,27)                1.0915         estimate D2E/DX2                !
 ! R29   R(14,28)                1.0905         estimate D2E/DX2                !
 ! R30   R(14,29)                1.0916         estimate D2E/DX2                !
 ! R31   R(15,30)                1.0921         estimate D2E/DX2                !
 ! R32   R(15,31)                1.0965         estimate D2E/DX2                !
 ! R33   R(15,32)                1.093          estimate D2E/DX2                !
 ! R34   R(16,33)                1.0921         estimate D2E/DX2                !
 ! R35   R(16,34)                1.093          estimate D2E/DX2                !
 ! R36   R(16,35)                1.0965         estimate D2E/DX2                !
 ! A1    A(2,1,6)              120.0954         estimate D2E/DX2                !
 ! A2    A(2,1,17)             119.5301         estimate D2E/DX2                !
 ! A3    A(6,1,17)             120.3745         estimate D2E/DX2                !
 ! A4    A(1,2,3)              119.6622         estimate D2E/DX2                !
 ! A5    A(1,2,18)             119.5957         estimate D2E/DX2                !
 ! A6    A(3,2,18)             120.7421         estimate D2E/DX2                !
 ! A7    A(2,3,4)              121.2532         estimate D2E/DX2                !
 ! A8    A(2,3,19)             120.3377         estimate D2E/DX2                !
 ! A9    A(4,3,19)             118.4091         estimate D2E/DX2                !
 ! A10   A(3,4,5)              119.8806         estimate D2E/DX2                !
 ! A11   A(3,4,7)              120.4565         estimate D2E/DX2                !
 ! A12   A(5,4,7)              119.663          estimate D2E/DX2                !
 ! A13   A(4,5,6)              116.6913         estimate D2E/DX2                !
 ! A14   A(4,5,10)             118.0177         estimate D2E/DX2                !
 ! A15   A(6,5,10)             125.291          estimate D2E/DX2                !
 ! A16   A(1,6,5)              122.4174         estimate D2E/DX2                !
 ! A17   A(1,6,11)             119.6484         estimate D2E/DX2                !
 ! A18   A(5,6,11)             117.9343         estimate D2E/DX2                !
 ! A19   A(4,7,8)              120.8518         estimate D2E/DX2                !
 ! A20   A(4,7,20)             118.5527         estimate D2E/DX2                !
 ! A21   A(8,7,20)             120.5955         estimate D2E/DX2                !
 ! A22   A(7,8,9)              119.8485         estimate D2E/DX2                !
 ! A23   A(7,8,21)             120.5672         estimate D2E/DX2                !
 ! A24   A(9,8,21)             119.5843         estimate D2E/DX2                !
 ! A25   A(8,9,10)             121.078          estimate D2E/DX2                !
 ! A26   A(8,9,22)             119.3274         estimate D2E/DX2                !
 ! A27   A(10,9,22)            119.5946         estimate D2E/DX2                !
 ! A28   A(5,10,9)             120.541          estimate D2E/DX2                !
 ! A29   A(5,10,12)            118.7582         estimate D2E/DX2                !
 ! A30   A(9,10,12)            120.7008         estimate D2E/DX2                !
 ! A31   A(6,11,13)            112.9394         estimate D2E/DX2                !
 ! A32   A(6,11,14)            112.9389         estimate D2E/DX2                !
 ! A33   A(6,11,23)            101.1956         estimate D2E/DX2                !
 ! A34   A(13,11,14)           112.1737         estimate D2E/DX2                !
 ! A35   A(13,11,23)           108.4189         estimate D2E/DX2                !
 ! A36   A(14,11,23)           108.4187         estimate D2E/DX2                !
 ! A37   A(10,12,15)           112.4509         estimate D2E/DX2                !
 ! A38   A(10,12,16)           112.4504         estimate D2E/DX2                !
 ! A39   A(15,12,16)           111.3084         estimate D2E/DX2                !
 ! A40   A(11,13,24)           108.6671         estimate D2E/DX2                !
 ! A41   A(11,13,25)           108.685          estimate D2E/DX2                !
 ! A42   A(11,13,26)           109.9398         estimate D2E/DX2                !
 ! A43   A(24,13,25)           110.2664         estimate D2E/DX2                !
 ! A44   A(24,13,26)           109.7175         estimate D2E/DX2                !
 ! A45   A(25,13,26)           109.5462         estimate D2E/DX2                !
 ! A46   A(11,14,27)           108.6672         estimate D2E/DX2                !
 ! A47   A(11,14,28)           108.685          estimate D2E/DX2                !
 ! A48   A(11,14,29)           109.9397         estimate D2E/DX2                !
 ! A49   A(27,14,28)           110.2663         estimate D2E/DX2                !
 ! A50   A(27,14,29)           109.7176         estimate D2E/DX2                !
 ! A51   A(28,14,29)           109.5462         estimate D2E/DX2                !
 ! A52   A(12,15,30)           109.4853         estimate D2E/DX2                !
 ! A53   A(12,15,31)           111.6405         estimate D2E/DX2                !
 ! A54   A(12,15,32)           108.9583         estimate D2E/DX2                !
 ! A55   A(30,15,31)           108.6336         estimate D2E/DX2                !
 ! A56   A(30,15,32)           109.4368         estimate D2E/DX2                !
 ! A57   A(31,15,32)           108.6578         estimate D2E/DX2                !
 ! A58   A(12,16,33)           109.4852         estimate D2E/DX2                !
 ! A59   A(12,16,34)           108.9584         estimate D2E/DX2                !
 ! A60   A(12,16,35)           111.6403         estimate D2E/DX2                !
 ! A61   A(33,16,34)           109.4368         estimate D2E/DX2                !
 ! A62   A(33,16,35)           108.6334         estimate D2E/DX2                !
 ! A63   A(34,16,35)           108.6581         estimate D2E/DX2                !
 ! D1    D(6,1,2,3)              0.0004         estimate D2E/DX2                !
 ! D2    D(6,1,2,18)          -179.9998         estimate D2E/DX2                !
 ! D3    D(17,1,2,3)          -179.9995         estimate D2E/DX2                !
 ! D4    D(17,1,2,18)            0.0004         estimate D2E/DX2                !
 ! D5    D(2,1,6,5)              0.0001         estimate D2E/DX2                !
 ! D6    D(2,1,6,11)          -179.9993         estimate D2E/DX2                !
 ! D7    D(17,1,6,5)           179.9999         estimate D2E/DX2                !
 ! D8    D(17,1,6,11)            0.0005         estimate D2E/DX2                !
 ! D9    D(1,2,3,4)             -0.0004         estimate D2E/DX2                !
 ! D10   D(1,2,3,19)           179.9997         estimate D2E/DX2                !
 ! D11   D(18,2,3,4)           179.9997         estimate D2E/DX2                !
 ! D12   D(18,2,3,19)           -0.0002         estimate D2E/DX2                !
 ! D13   D(2,3,4,5)              0.0            estimate D2E/DX2                !
 ! D14   D(2,3,4,7)           -180.0            estimate D2E/DX2                !
 ! D15   D(19,3,4,5)           179.9999         estimate D2E/DX2                !
 ! D16   D(19,3,4,7)            -0.0001         estimate D2E/DX2                !
 ! D17   D(3,4,5,6)              0.0004         estimate D2E/DX2                !
 ! D18   D(3,4,5,10)          -179.9996         estimate D2E/DX2                !
 ! D19   D(7,4,5,6)           -179.9997         estimate D2E/DX2                !
 ! D20   D(7,4,5,10)             0.0004         estimate D2E/DX2                !
 ! D21   D(3,4,7,8)            179.9997         estimate D2E/DX2                !
 ! D22   D(3,4,7,20)             0.0001         estimate D2E/DX2                !
 ! D23   D(5,4,7,8)             -0.0003         estimate D2E/DX2                !
 ! D24   D(5,4,7,20)          -179.9999         estimate D2E/DX2                !
 ! D25   D(4,5,6,1)             -0.0004         estimate D2E/DX2                !
 ! D26   D(4,5,6,11)           179.999          estimate D2E/DX2                !
 ! D27   D(10,5,6,1)           179.9995         estimate D2E/DX2                !
 ! D28   D(10,5,6,11)           -0.0011         estimate D2E/DX2                !
 ! D29   D(4,5,10,9)            -0.0004         estimate D2E/DX2                !
 ! D30   D(4,5,10,12)          179.999          estimate D2E/DX2                !
 ! D31   D(6,5,10,9)           179.9997         estimate D2E/DX2                !
 ! D32   D(6,5,10,12)           -0.0009         estimate D2E/DX2                !
 ! D33   D(1,6,11,13)          -64.3083         estimate D2E/DX2                !
 ! D34   D(1,6,11,14)           64.3103         estimate D2E/DX2                !
 ! D35   D(1,6,11,23)         -179.9992         estimate D2E/DX2                !
 ! D36   D(5,6,11,13)          115.6923         estimate D2E/DX2                !
 ! D37   D(5,6,11,14)         -115.6891         estimate D2E/DX2                !
 ! D38   D(5,6,11,23)            0.0014         estimate D2E/DX2                !
 ! D39   D(4,7,8,9)              0.0            estimate D2E/DX2                !
 ! D40   D(4,7,8,21)          -179.9997         estimate D2E/DX2                !
 ! D41   D(20,7,8,9)           179.9997         estimate D2E/DX2                !
 ! D42   D(20,7,8,21)           -0.0001         estimate D2E/DX2                !
 ! D43   D(7,8,9,10)             0.0001         estimate D2E/DX2                !
 ! D44   D(7,8,9,22)          -179.9996         estimate D2E/DX2                !
 ! D45   D(21,8,9,10)          179.9998         estimate D2E/DX2                !
 ! D46   D(21,8,9,22)            0.0001         estimate D2E/DX2                !
 ! D47   D(8,9,10,5)             0.0001         estimate D2E/DX2                !
 ! D48   D(8,9,10,12)         -179.9993         estimate D2E/DX2                !
 ! D49   D(22,9,10,5)          179.9998         estimate D2E/DX2                !
 ! D50   D(22,9,10,12)           0.0004         estimate D2E/DX2                !
 ! D51   D(5,10,12,15)         116.7045         estimate D2E/DX2                !
 ! D52   D(5,10,12,16)        -116.6994         estimate D2E/DX2                !
 ! D53   D(9,10,12,15)         -63.2961         estimate D2E/DX2                !
 ! D54   D(9,10,12,16)          63.3            estimate D2E/DX2                !
 ! D55   D(6,11,13,24)        -172.043          estimate D2E/DX2                !
 ! D56   D(6,11,13,25)         -52.0287         estimate D2E/DX2                !
 ! D57   D(6,11,13,26)          67.8651         estimate D2E/DX2                !
 ! D58   D(14,11,13,24)         58.9434         estimate D2E/DX2                !
 ! D59   D(14,11,13,25)        178.9577         estimate D2E/DX2                !
 ! D60   D(14,11,13,26)        -61.1486         estimate D2E/DX2                !
 ! D61   D(23,11,13,24)        -60.7487         estimate D2E/DX2                !
 ! D62   D(23,11,13,25)         59.2656         estimate D2E/DX2                !
 ! D63   D(23,11,13,26)        179.1594         estimate D2E/DX2                !
 ! D64   D(6,11,14,27)         172.0419         estimate D2E/DX2                !
 ! D65   D(6,11,14,28)          52.0276         estimate D2E/DX2                !
 ! D66   D(6,11,14,29)         -67.866          estimate D2E/DX2                !
 ! D67   D(13,11,14,27)        -58.9442         estimate D2E/DX2                !
 ! D68   D(13,11,14,28)       -178.9584         estimate D2E/DX2                !
 ! D69   D(13,11,14,29)         61.1479         estimate D2E/DX2                !
 ! D70   D(23,11,14,27)         60.748          estimate D2E/DX2                !
 ! D71   D(23,11,14,28)        -59.2663         estimate D2E/DX2                !
 ! D72   D(23,11,14,29)       -179.1599         estimate D2E/DX2                !
 ! D73   D(10,12,15,30)        -52.5868         estimate D2E/DX2                !
 ! D74   D(10,12,15,31)         67.745          estimate D2E/DX2                !
 ! D75   D(10,12,15,32)       -172.2417         estimate D2E/DX2                !
 ! D76   D(16,12,15,30)       -179.7937         estimate D2E/DX2                !
 ! D77   D(16,12,15,31)        -59.4619         estimate D2E/DX2                !
 ! D78   D(16,12,15,32)         60.5514         estimate D2E/DX2                !
 ! D79   D(10,12,16,33)         52.5873         estimate D2E/DX2                !
 ! D80   D(10,12,16,34)        172.2422         estimate D2E/DX2                !
 ! D81   D(10,12,16,35)        -67.7442         estimate D2E/DX2                !
 ! D82   D(15,12,16,33)        179.7944         estimate D2E/DX2                !
 ! D83   D(15,12,16,34)        -60.5507         estimate D2E/DX2                !
 ! D84   D(15,12,16,35)         59.4629         estimate D2E/DX2                !
 --------------------------------------------------------------------------------
 Trust Radius=3.00D-01 FncErr=1.00D-07 GrdErr=1.00D-06
 Number of steps in this run=    193 maximum allowed number of steps=    210.
 GradGradGradGradGradGradGradGradGradGradGradGradGradGradGradGradGradGrad

                          Input orientation:                          
 ---------------------------------------------------------------------
 Center     Atomic      Atomic             Coordinates (Angstroms)
 Number     Number       Type             X           Y           Z
 ---------------------------------------------------------------------
      1          6           0       -0.766507   -2.429076   -0.000055
      2          6           0       -2.178133   -2.379221   -0.000031
      3          6           0       -2.813995   -1.164968    0.000002
      4          6           0       -2.080349    0.050860    0.000021
      5          6           0       -0.651861    0.020270    0.000005
      6          6           0       -0.038059   -1.268644   -0.000038
      7          6           0       -2.756180    1.298897    0.000056
      8          6           0       -2.056359    2.476968    0.000080
      9          6           0       -0.643609    2.455676    0.000070
     10          6           0        0.047378    1.269134    0.000035
     11          7           0        1.433515   -1.332115   -0.000079
     12          7           0        1.504760    1.256766    0.000041
     13          6           0        1.987352   -1.950651    1.234706
     14          6           0        1.987276   -1.950532   -1.234958
     15          6           0        2.073542    1.864930   -1.218407
     16          6           0        2.073520    1.864772    1.218578
     17          1           0       -0.264639   -3.392851   -0.000090
     18          1           0       -2.746437   -3.302322   -0.000041
     19          1           0       -3.898604   -1.113853    0.000016
     20          1           0       -3.841875    1.301104    0.000069
     21          1           0       -2.577475    3.427984    0.000111
     22          1           0       -0.097225    3.394801    0.000096
     23          1           0        1.698393   -0.242672   -0.000037
     24          1           0        3.072670   -1.834743    1.226963
     25          1           0        1.559626   -1.444814    2.100922
     26          1           0        1.730452   -3.011060    1.267335
     27          1           0        3.072594   -1.834613   -1.227279
     28          1           0        1.559486   -1.444620   -2.101098
     29          1           0        1.730383   -3.010940   -1.267666
     30          1           0        1.630551    1.396795   -2.100107
     31          1           0        1.880359    2.943493   -1.260028
     32          1           0        3.154450    1.702789   -1.224862
     33          1           0        1.630522    1.396513    2.100209
     34          1           0        3.154430    1.702642    1.225026
     35          1           0        1.880320    2.943326    1.260342
 ---------------------------------------------------------------------
                    Distance matrix (angstroms):
                    1          2          3          4          5
     1  C    0.000000
     2  C    1.412506   0.000000
     3  C    2.406278   1.370668   0.000000
     4  C    2.806468   2.432048   1.420026   0.000000
     5  C    2.452028   2.843776   2.465687   1.428815   0.000000
     6  C    1.370124   2.411078   2.777871   2.431469   1.427604
     7  C    4.225705   3.723263   2.464543   1.419276   2.462325
     8  C    5.072769   4.857716   3.719907   2.426227   2.829837
     9  C    4.886298   5.072573   4.221331   2.801314   2.435420
    10  C    3.786709   4.273569   3.756635   2.451818   1.431292
    11  N    2.458337   3.760377   4.250797   3.776223   2.485506
    12  N    4.329444   5.175336   4.951408   3.782488   2.485948
    13  C    3.055694   4.365720   5.019435   4.698583   3.517735
    14  C    3.055701   4.365713   5.019406   4.698544   3.517704
    15  C    5.290439   6.129763   5.878165   4.693637   3.509291
    16  C    5.290364   6.129685   5.878100   4.693590   3.509246
    17  H    1.086616   2.165388   3.385658   3.893064   3.435016
    18  H    2.163950   1.084013   2.138421   3.418699   3.927705
    19  H    3.397034   2.135691   1.085813   2.159307   3.439124
    20  H    4.834473   4.038914   2.671713   2.160112   3.437546
    21  H    6.130641   5.820920   4.599038   3.413517   3.914142
    22  H    5.862208   6.137549   5.307762   3.887766   3.419807
    23  H    3.294859   4.426318   4.605679   3.790126   2.364917
    24  H    4.074075   5.419677   6.050360   5.622676   4.338045
    25  H    3.285387   4.388389   4.860117   4.460969   3.383932
    26  H    2.860033   4.157219   5.066181   5.050113   4.058387
    27  H    4.074084   5.419674   6.050337   5.622641   4.338016
    28  H    3.285389   4.388366   4.860058   4.460892   3.383872
    29  H    2.860046   4.157218   5.066159   5.050082   4.058363
    30  H    4.979297   5.759747   5.543201   4.471337   3.393331
    31  H    6.120288   6.811038   6.364282   5.063818   4.067561
    32  H    5.826351   6.826380   6.733993   5.624262   4.338107
    33  H    4.979155   5.759603   5.543084   4.471257   3.393254
    34  H    5.826291   6.826317   6.733941   5.624227   4.338076
    35  H    6.120212   6.810953   6.364207   5.063760   4.067511
                    6          7          8          9         10
     6  C    0.000000
     7  C    3.739044   0.000000
     8  C    4.254779   1.370256   0.000000
     9  C    3.773228   2.408546   1.412910   0.000000
    10  C    2.539216   2.803716   2.425814   1.373079   0.000000
    11  N    1.472942   4.947299   5.166075   4.319931   2.947520
    12  N    2.959389   4.261148   3.764367   2.460259   1.457434
    13  C    2.468201   5.880903   6.122067   5.278447   3.956631
    14  C    2.468194   5.880852   6.122014   5.278401   3.956597
    15  C    3.970210   5.013109   4.349182   3.035882   2.438220
    16  C    3.970149   5.013084   4.349186   3.035905   2.438213
    17  H    2.136257   5.312276   6.137185   5.860792   4.672415
    18  H    3.386910   4.601229   5.820344   6.129961   5.357575
    19  H    3.863647   2.669550   4.035822   4.830790   4.609707
    20  H    4.590492   1.085697   2.137925   3.400286   3.889384
    21  H    5.339190   2.136574   1.084432   2.164537   3.398601
    22  H    4.663820   3.385684   2.163475   1.086504   2.130580
    23  H    2.016900   4.713773   4.636227   3.572962   2.238617
    24  H    3.391553   6.730564   6.811977   5.807210   4.504642
    25  H    2.645310   5.528813   5.733172   4.947893   3.750484
    26  H    2.787450   6.349141   6.787070   6.093220   4.770623
    27  H    3.391549   6.730516   6.811923   5.807162   4.504606
    28  H    2.645292   5.528717   5.733074   4.947812   3.750425
    29  H    2.787447   6.349099   6.787027   6.093183   4.770598
    30  H    3.781417   4.864533   4.378455   3.271663   2.633122
    31  H    4.796874   5.078386   4.159720   2.862905   2.784072
    32  H    4.530091   6.049719   5.408546   4.061102   3.367837
    33  H    3.781304   4.864496   4.378472   3.271709   2.633116
    34  H    4.530045   6.049700   5.408548   4.061118   3.367834
    35  H    4.796814   5.078346   4.159711   2.862919   2.784056
                   11         12         13         14         15
    11  N    0.000000
    12  N    2.589861   0.000000
    13  C    1.487957   3.470564   0.000000
    14  C    1.487957   3.470563   2.469664   0.000000
    15  C    3.480669   1.475802   4.536943   3.816473   0.000000
    16  C    3.480635   1.475802   3.816430   4.536940   2.436985
    17  H    2.670273   4.974908   2.945526   2.945557   5.881807
    18  H    4.621008   6.233615   5.075468   5.075470   7.170572
    19  H    5.336584   5.900523   6.071999   6.071966   6.784116
    20  H    5.896065   5.346819   6.788087   6.788036   6.065867
    21  H    6.224675   4.623725   7.161814   7.161758   5.055678
    22  H    4.968591   2.671619   5.868865   5.868823   2.921897
    23  H    1.121181   1.511889   2.127271   2.127268   2.463158
    24  H    2.108340   3.677106   1.091517   2.693054   4.545951
    25  H    2.107797   3.422754   1.090482   3.400990   4.715555
    26  H    2.124468   4.457725   1.091572   2.729862   5.483785
    27  H    2.108342   3.677097   2.693062   1.091518   3.832075
    28  H    2.107797   3.422757   3.400989   1.090481   3.463599
    29  H    2.124467   4.457724   2.729856   1.091572   4.888179
    30  H    3.449042   2.108567   4.738531   3.475677   1.092148
    31  H    4.479728   2.138667   5.494342   4.895257   1.096517
    32  H    3.697614   2.102570   4.556228   3.835251   1.093020
    33  H    3.448976   2.108566   3.475619   4.738494   3.380665
    34  H    3.697591   2.102571   3.835194   4.556254   2.676756
    35  H    4.479698   2.138665   4.895214   5.494343   2.710068
                   16         17         18         19         20
    16  C    0.000000
    17  H    5.881729   0.000000
    18  H    7.170487   2.483449   0.000000
    19  H    6.784052   4.289468   2.473234   0.000000
    20  H    6.065837   5.901680   4.731967   2.415623   0.000000
    21  H    5.055695   7.202291   6.732427   4.730081   2.474333
    22  H    2.921955   6.789716   7.202068   5.897325   4.290218
    23  H    2.463141   3.711755   5.396107   5.664392   5.751331
    24  H    3.832073   3.882137   6.125466   7.115036   7.690887
    25  H    3.463521   3.396622   5.138731   5.857953   6.413257
    26  H    4.888130   2.394268   4.661932   6.073859   7.159019
    27  H    4.545967   3.882167   6.125472   7.115009   7.690838
    28  H    4.715565   3.396656   5.138723   5.857886   6.413159
    29  H    5.483769   2.394309   4.661941   6.073833   7.158976
    30  H    3.380665   5.562601   6.756479   6.425374   5.862367
    31  H    2.710062   6.807181   7.874326   7.172599   6.085166
    32  H    2.676761   6.257458   7.834015   7.692813   7.114097
    33  H    1.092148   5.562454   6.756321   6.425261   5.862322
    34  H    1.093021   6.257395   7.833944   7.692762   7.114073
    35  H    1.096517   6.807105   7.874234   7.172523   6.085121
                   21         22         23         24         25
    21  H    0.000000
    22  H    2.480472   0.000000
    23  H    5.635314   4.056532   0.000000
    24  H    7.818286   6.237112   2.434924   0.000000
    25  H    6.728534   5.529964   2.424547   1.790294   0.000000
    26  H    7.850183   6.780955   3.044870   1.785189   1.782463
    27  H    7.818228   6.237064   2.434918   2.454242   3.676675
    28  H    6.728432   5.529892   2.424548   3.676671   4.202020
    29  H    7.850136   6.780921   3.044867   3.067303   3.718776
    30  H    5.122902   3.374625   2.665098   4.857153   5.072319
    31  H    4.657786   2.387976   3.431084   5.517089   5.536794
    32  H    6.109977   3.864818   2.721234   4.304912   4.848887
    33  H    5.122941   3.374721   2.665064   3.644635   2.842211
    34  H    6.109988   3.864857   2.721226   3.538330   3.635529
    35  H    4.657790   2.388040   3.431069   4.924709   4.479419
                   26         27         28         29         30
    26  H    0.000000
    27  H    3.067323   0.000000
    28  H    3.718777   1.790293   0.000000
    29  H    2.535001   1.785191   1.782463   0.000000
    30  H    5.547867   3.644628   2.842304   4.486764   0.000000
    31  H    6.470451   4.924713   4.479497   5.956326   1.777755
    32  H    5.518984   3.538350   3.635641   4.924331   1.783803
    33  H    4.486688   4.857152   5.072284   5.547810   4.200316
    34  H    4.924276   4.304959   4.848939   5.518993   3.670458
    35  H    5.956276   5.517108   5.536812   6.470440   3.707662
                   31         32         33         34         35
    31  H    0.000000
    32  H    1.778733   0.000000
    33  H    3.707662   3.670458   0.000000
    34  H    3.055890   2.449888   1.783804   0.000000
    35  H    2.520370   3.055909   1.777753   1.778736   0.000000
 Stoichiometry    C14H19N2(1+)
 Framework group  C1[X(C14H19N2)]
 Deg. of freedom    99
 Full point group                 C1      NOp   1
 Largest Abelian subgroup         C1      NOp   1
 Largest concise Abelian subgroup C1      NOp   1
                         Standard orientation:                         
 ---------------------------------------------------------------------
 Center     Atomic      Atomic             Coordinates (Angstroms)
 Number     Number       Type             X           Y           Z
 ---------------------------------------------------------------------
      1          6           0        0.766506   -2.429076    0.000055
      2          6           0        2.178132   -2.379222    0.000031
      3          6           0        2.813995   -1.164969   -0.000002
      4          6           0        2.080349    0.050859   -0.000021
      5          6           0        0.651861    0.020270   -0.000005
      6          6           0        0.038059   -1.268644    0.000038
      7          6           0        2.756180    1.298896   -0.000056
      8          6           0        2.056360    2.476967   -0.000080
      9          6           0        0.643610    2.455676   -0.000070
     10          6           0       -0.047378    1.269134   -0.000035
     11          7           0       -1.433515   -1.332115    0.000079
     12          7           0       -1.504760    1.256766   -0.000041
     13          6           0       -1.987353   -1.950650   -1.234706
     14          6           0       -1.987277   -1.950531    1.234958
     15          6           0       -2.073541    1.864931    1.218407
     16          6           0       -2.073519    1.864773   -1.218578
     17          1           0        0.264638   -3.392851    0.000090
     18          1           0        2.746436   -3.302323    0.000041
     19          1           0        3.898604   -1.113854   -0.000016
     20          1           0        3.841875    1.301103   -0.000069
     21          1           0        2.577476    3.427983   -0.000111
     22          1           0        0.097226    3.394801   -0.000096
     23          1           0       -1.698393   -0.242672    0.000037
     24          1           0       -3.072671   -1.834742   -1.226963
     25          1           0       -1.559626   -1.444814   -2.100922
     26          1           0       -1.730453   -3.011060   -1.267335
     27          1           0       -3.072595   -1.834612    1.227279
     28          1           0       -1.559486   -1.444620    2.101098
     29          1           0       -1.730384   -3.010940    1.267666
     30          1           0       -1.630551    1.396795    2.100107
     31          1           0       -1.880358    2.943493    1.260028
     32          1           0       -3.154449    1.702790    1.224862
     33          1           0       -1.630522    1.396513   -2.100209
     34          1           0       -3.154429    1.702643   -1.225026
     35          1           0       -1.880319    2.943326   -1.260342
 ---------------------------------------------------------------------
 Rotational constants (GHZ):      0.6399133      0.6067131      0.3564759
 Standard basis: 6-31+G(d,p) (6D, 7F)
 There are   399 symmetry adapted cartesian basis functions of A   symmetry.
 There are   399 symmetry adapted basis functions of A   symmetry.
   399 basis functions,   645 primitive gaussians,   399 cartesian basis functions
    58 alpha electrons       58 beta electrons
       nuclear repulsion energy      1140.3326093149 Hartrees.
 NAtoms=   35 NActive=   35 NUniq=   35 SFac= 1.00D+00 NAtFMM=   60 NAOKFM=F Big=F
 Integral buffers will be    131072 words long.
 Raffenetti 2 integral format.
 Two-electron integral symmetry is turned on.
 One-electron integrals computed using PRISM.
 NBasis=   399 RedAO= T EigKep=  1.53D-06  NBF=   399
 NBsUse=   395 1.00D-06 EigRej=  8.33D-07 NBFU=   395
 ExpMin= 4.38D-02 ExpMax= 4.17D+03 ExpMxC= 6.27D+02 IAcc=2 IRadAn=         4 AccDes= 0.00D+00
 Harris functional with IExCor=  408 and IRadAn=       4 diagonalized for initial guess.
 HarFok:  IExCor=  408 AccDes= 0.00D+00 IRadAn=         4 IDoV= 1 UseB2=F ITyADJ=14
 ICtDFT=  3500011 ScaDFX=  1.000000  1.000000  1.000000  1.000000
 FoFCou: FMM=F IPFlag=           0 FMFlag=      100000 FMFlg1=           0
         NFxFlg=           0 DoJE=T BraDBF=F KetDBF=T FulRan=T
         wScrn=  0.000000 ICntrl=     500 IOpCl=  0 I1Cent=   200000004 NGrid=           0
         NMat0=    1 NMatS0=      1 NMatT0=    0 NMatD0=    1 NMtDS0=    0 NMtDT0=    0
 Petite list used in FoFCou.
 Requested convergence on RMS density matrix=1.00D-08 within 128 cycles.
 Requested convergence on MAX density matrix=1.00D-06.
 Requested convergence on             energy=1.00D-06.
 No special actions if energy rises.
 SCF Done:  E(RB3PW91) =  -654.010124663     A.U. after   15 cycles
            NFock= 15  Conv=0.33D-08     -V/T= 2.0095

 **********************************************************************

            Population analysis using the SCF density.

 **********************************************************************

 Orbital symmetries:
       Occupied  (A) (A) (A) (A) (A) (A) (A) (A) (A) (A) (A) (A)
                 (A) (A) (A) (A) (A) (A) (A) (A) (A) (A) (A) (A)
                 (A) (A) (A) (A) (A) (A) (A) (A) (A) (A) (A) (A)
                 (A) (A) (A) (A) (A) (A) (A) (A) (A) (A) (A) (A)
                 (A) (A) (A) (A) (A) (A) (A) (A) (A) (A)
       Virtual   (A) (A) (A) (A) (A) (A) (A) (A) (A) (A) (A) (A)
                 (A) (A) (A) (A) (A) (A) (A) (A) (A) (A) (A) (A)
                 (A) (A) (A) (A) (A) (A) (A) (A) (A) (A) (A) (A)
                 (A) (A) (A) (A) (A) (A) (A) (A) (A) (A) (A) (A)
                 (A) (A) (A) (A) (A) (A) (A) (A) (A) (A) (A) (A)
                 (A) (A) (A) (A) (A) (A) (A) (A) (A) (A) (A) (A)
                 (A) (A) (A) (A) (A) (A) (A) (A) (A) (A) (A) (A)
                 (A) (A) (A) (A) (A) (A) (A) (A) (A) (A) (A) (A)
                 (A) (A) (A) (A) (A) (A) (A) (A) (A) (A) (A) (A)
                 (A) (A) (A) (A) (A) (A) (A) (A) (A) (A) (A) (A)
                 (A) (A) (A) (A) (A) (A) (A) (A) (A) (A) (A) (A)
                 (A) (A) (A) (A) (A) (A) (A) (A) (A) (A) (A) (A)
                 (A) (A) (A) (A) (A) (A) (A) (A) (A) (A) (A) (A)
                 (A) (A) (A) (A) (A) (A) (A) (A) (A) (A) (A) (A)
                 (A) (A) (A) (A) (A) (A) (A) (A) (A) (A) (A) (A)
                 (A) (A) (A) (A) (A) (A) (A) (A) (A) (A) (A) (A)
                 (A) (A) (A) (A) (A) (A) (A) (A) (A) (A) (A) (A)
                 (A) (A) (A) (A) (A) (A) (A) (A) (A) (A) (A) (A)
                 (A) (A) (A) (A) (A) (A) (A) (A) (A) (A) (A) (A)
                 (A) (A) (A) (A) (A) (A) (A) (A) (A) (A) (A) (A)
                 (A) (A) (A) (A) (A) (A) (A) (A) (A) (A) (A) (A)
                 (A) (A) (A) (A) (A) (A) (A) (A) (A) (A) (A) (A)
                 (A) (A) (A) (A) (A) (A) (A) (A) (A) (A) (A) (A)
                 (A) (A) (A) (A) (A) (A) (A) (A) (A) (A) (A) (A)
                 (A) (A) (A) (A) (A) (A) (A) (A) (A) (A) (A) (A)
                 (A) (A) (A) (A) (A) (A) (A) (A) (A) (A) (A) (A)
                 (A) (A) (A) (A) (A) (A) (A) (A) (A) (A) (A) (A)
                 (A) (A) (A) (A) (A) (A) (A) (A) (A) (A) (A) (A)
                 (A)
 The electronic state is 1-A.
 Alpha  occ. eigenvalues --  -14.56361 -14.50310 -10.36879 -10.36215 -10.36215
 Alpha  occ. eigenvalues --  -10.35547 -10.34013 -10.33517 -10.33517 -10.32823
 Alpha  occ. eigenvalues --  -10.32781 -10.31743 -10.31515 -10.31438 -10.31055
 Alpha  occ. eigenvalues --  -10.30987  -1.15027  -1.09447  -1.01583  -0.96390
 Alpha  occ. eigenvalues --   -0.91906  -0.89035  -0.88861  -0.86972  -0.85713
 Alpha  occ. eigenvalues --   -0.82952  -0.79761  -0.77148  -0.75111  -0.72405
 Alpha  occ. eigenvalues --   -0.68630  -0.66972  -0.66141  -0.63945  -0.63767
 Alpha  occ. eigenvalues --   -0.62585  -0.60450  -0.60071  -0.59543  -0.57583
 Alpha  occ. eigenvalues --   -0.56780  -0.56692  -0.55422  -0.54970  -0.54325
 Alpha  occ. eigenvalues --   -0.53938  -0.52970  -0.52713  -0.52329  -0.51316
 Alpha  occ. eigenvalues --   -0.50944  -0.48320  -0.47810  -0.46692  -0.42543
 Alpha  occ. eigenvalues --   -0.39414  -0.38794  -0.35796
 Alpha virt. eigenvalues --   -0.18613  -0.15534  -0.11940  -0.11420  -0.08998
 Alpha virt. eigenvalues --   -0.08348  -0.08224  -0.07950  -0.07348  -0.06252
 Alpha virt. eigenvalues --   -0.06023  -0.05692  -0.05277  -0.04670  -0.04530
 Alpha virt. eigenvalues --   -0.04027  -0.03796  -0.03348  -0.03014  -0.02856
 Alpha virt. eigenvalues --   -0.02344  -0.01417  -0.01152  -0.01092  -0.00385
 Alpha virt. eigenvalues --    0.00426   0.00883   0.01755   0.01829   0.01934
 Alpha virt. eigenvalues --    0.02791   0.03185   0.03379   0.03518   0.03777
 Alpha virt. eigenvalues --    0.03794   0.04699   0.05030   0.05073   0.05986
 Alpha virt. eigenvalues --    0.07037   0.07070   0.07285   0.07928   0.07932
 Alpha virt. eigenvalues --    0.08067   0.08373   0.08536   0.08779   0.09200
 Alpha virt. eigenvalues --    0.09465   0.09767   0.09992   0.11126   0.11703
 Alpha virt. eigenvalues --    0.11753   0.11901   0.12767   0.13058   0.13935
 Alpha virt. eigenvalues --    0.13990   0.14008   0.14780   0.15227   0.15993
 Alpha virt. eigenvalues --    0.16278   0.16470   0.16523   0.16737   0.16812
 Alpha virt. eigenvalues --    0.17404   0.17479   0.17672   0.17698   0.18450
 Alpha virt. eigenvalues --    0.19186   0.20091   0.20612   0.20944   0.22351
 Alpha virt. eigenvalues --    0.22775   0.23415   0.23629   0.23799   0.24013
 Alpha virt. eigenvalues --    0.26151   0.26793   0.27675   0.27706   0.28479
 Alpha virt. eigenvalues --    0.29853   0.30005   0.32640   0.32799   0.33728
 Alpha virt. eigenvalues --    0.36342   0.39627   0.41527   0.43533   0.49457
 Alpha virt. eigenvalues --    0.52091   0.52602   0.52989   0.53871   0.54982
 Alpha virt. eigenvalues --    0.55285   0.56516   0.57136   0.58957   0.59121
 Alpha virt. eigenvalues --    0.59802   0.60381   0.61607   0.61609   0.62600
 Alpha virt. eigenvalues --    0.64089   0.64519   0.64958   0.65578   0.65814
 Alpha virt. eigenvalues --    0.66675   0.66989   0.67232   0.68760   0.68986
 Alpha virt. eigenvalues --    0.71010   0.72427   0.74095   0.74239   0.74641
 Alpha virt. eigenvalues --    0.76162   0.77214   0.78348   0.79086   0.80029
 Alpha virt. eigenvalues --    0.81499   0.82468   0.82941   0.84673   0.85118
 Alpha virt. eigenvalues --    0.85218   0.85774   0.87199   0.87951   0.88480
 Alpha virt. eigenvalues --    0.89610   0.89677   0.90844   0.91523   0.91941
 Alpha virt. eigenvalues --    0.92611   0.93620   0.95107   0.98190   0.98932
 Alpha virt. eigenvalues --    0.99470   1.01551   1.02023   1.04069   1.04298
 Alpha virt. eigenvalues --    1.04406   1.06239   1.06408   1.06883   1.07967
 Alpha virt. eigenvalues --    1.09499   1.09623   1.12960   1.13740   1.15089
 Alpha virt. eigenvalues --    1.15477   1.17056   1.17803   1.19270   1.20553
 Alpha virt. eigenvalues --    1.22593   1.24085   1.26173   1.27407   1.28024
 Alpha virt. eigenvalues --    1.30175   1.30657   1.32438   1.33369   1.36523
 Alpha virt. eigenvalues --    1.36640   1.39328   1.40344   1.41438   1.42203
 Alpha virt. eigenvalues --    1.44236   1.45717   1.46052   1.54792   1.60517
 Alpha virt. eigenvalues --    1.63276   1.64196   1.64517   1.67888   1.68725
 Alpha virt. eigenvalues --    1.70896   1.72166   1.74329   1.76011   1.76402
 Alpha virt. eigenvalues --    1.77814   1.78101   1.78881   1.79061   1.80457
 Alpha virt. eigenvalues --    1.81008   1.82775   1.84154   1.85880   1.86008
 Alpha virt. eigenvalues --    1.86230   1.86789   1.87525   1.88259   1.88810
 Alpha virt. eigenvalues --    1.89368   1.90124   1.90168   1.91881   1.94571
 Alpha virt. eigenvalues --    1.94779   1.95847   1.95967   1.96730   1.98513
 Alpha virt. eigenvalues --    1.99116   1.99271   2.00749   2.01504   2.02567
 Alpha virt. eigenvalues --    2.03799   2.03862   2.10015   2.11591   2.11839
 Alpha virt. eigenvalues --    2.14922   2.15094   2.16774   2.19760   2.20525
 Alpha virt. eigenvalues --    2.22464   2.24191   2.25327   2.25713   2.26712
 Alpha virt. eigenvalues --    2.27326   2.28386   2.29032   2.29716   2.31712
 Alpha virt. eigenvalues --    2.33338   2.37204   2.37233   2.38347   2.39522
 Alpha virt. eigenvalues --    2.43456   2.44300   2.44966   2.45926   2.46569
 Alpha virt. eigenvalues --    2.46790   2.47713   2.48584   2.50651   2.52409
 Alpha virt. eigenvalues --    2.52788   2.55450   2.55478   2.56907   2.57996
 Alpha virt. eigenvalues --    2.58627   2.59469   2.60865   2.60911   2.61022
 Alpha virt. eigenvalues --    2.62776   2.64187   2.66972   2.67903   2.72104
 Alpha virt. eigenvalues --    2.72150   2.73491   2.73788   2.76224   2.76471
 Alpha virt. eigenvalues --    2.77377   2.79548   2.81259   2.85835   2.88426
 Alpha virt. eigenvalues --    2.93222   2.96962   2.99360   3.05773   3.07404
 Alpha virt. eigenvalues --    3.13279   3.13547   3.13928   3.15067   3.15372
 Alpha virt. eigenvalues --    3.16738   3.20169   3.24152   3.25668   3.27227
 Alpha virt. eigenvalues --    3.30578   3.30694   3.31427   3.32541   3.33386
 Alpha virt. eigenvalues --    3.35590   3.37644   3.41345   3.51702   3.64778
 Alpha virt. eigenvalues --    3.73212   4.17013   4.20847   4.22231   4.27701
 Alpha virt. eigenvalues --    4.31033   4.33773   4.35709   4.40893   4.42008
 Alpha virt. eigenvalues --    4.43144   4.46278   4.52819   4.56066   4.58899
 Alpha virt. eigenvalues --    4.60700   4.82038
          Condensed to atoms (all electrons):
               1          2          3          4          5          6
     1  C    7.264462   0.395224  -1.316051   0.483798  -0.599761  -1.444899
     2  C    0.395224   6.514670  -0.735628  -0.358897   0.812241  -0.539417
     3  C   -1.316051  -0.735628  11.757622  -2.197493  -2.716611   1.998783
     4  C    0.483798  -0.358897  -2.197493   9.625170   1.403535  -0.044315
     5  C   -0.599761   0.812241  -2.716611   1.403535   8.604609   0.533105
     6  C   -1.444899  -0.539417   1.998783  -0.044315   0.533105   9.939825
     7  C    0.609968  -0.016844  -0.321210  -2.064771  -2.474148  -1.264234
     8  C   -0.233135  -0.131766  -0.156679  -0.370882   0.988623   0.075470
     9  C    0.274138  -0.218541   0.747457   0.605916  -0.797616   0.194924
    10  C    0.125783   0.057517  -1.187328  -0.087199   0.785771  -1.283283
    11  N   -0.113581   0.055321   0.100087  -0.186292  -0.091354  -0.542195
    12  N    0.035867   0.022313  -0.140469  -0.159877  -0.096627  -0.090425
    13  C    0.134195   0.024815   0.056934  -0.103176  -0.107999  -0.690955
    14  C    0.134192   0.024820   0.056927  -0.103171  -0.107986  -0.690922
    15  C    0.043664   0.004704  -0.068429  -0.089506  -0.084250   0.031894
    16  C    0.043663   0.004701  -0.068428  -0.089505  -0.084244   0.031883
    17  H    0.179411   0.107274   0.072119  -0.045988  -0.011469  -0.041672
    18  H    0.029735   0.192886   0.096435  -0.018040  -0.029315   0.050996
    19  H    0.007698   0.067260   0.173105   0.013696   0.053194  -0.022599
    20  H   -0.000742   0.008925   0.002302   0.015259   0.057260   0.004770
    21  H    0.000984   0.000568   0.002342  -0.009518  -0.030800   0.001106
    22  H   -0.001596   0.001016  -0.003485  -0.040369  -0.002687  -0.010744
    23  H   -0.008649  -0.009878   0.019596   0.038642  -0.037227  -0.017191
    24  H   -0.022262   0.002119  -0.001503  -0.000180   0.011968   0.111766
    25  H    0.025737  -0.002909  -0.000098  -0.001044  -0.008569  -0.074619
    26  H    0.035864  -0.002854   0.003831  -0.006989  -0.012134  -0.085233
    27  H   -0.022260   0.002119  -0.001502  -0.000180   0.011967   0.111767
    28  H    0.025731  -0.002910  -0.000098  -0.001044  -0.008569  -0.074623
    29  H    0.035866  -0.002853   0.003830  -0.006989  -0.012133  -0.085235
    30  H    0.007224  -0.000473   0.000847   0.002208  -0.016111   0.003909
    31  H    0.000271  -0.000163  -0.000710  -0.003942  -0.006288  -0.001040
    32  H   -0.002116   0.000255   0.000012  -0.001635   0.011920  -0.011055
    33  H    0.007224  -0.000473   0.000847   0.002206  -0.016108   0.003912
    34  H   -0.002116   0.000255   0.000012  -0.001634   0.011919  -0.011056
    35  H    0.000271  -0.000163  -0.000710  -0.003943  -0.006287  -0.001041
               7          8          9         10         11         12
     1  C    0.609968  -0.233135   0.274138   0.125783  -0.113581   0.035867
     2  C   -0.016844  -0.131766  -0.218541   0.057517   0.055321   0.022313
     3  C   -0.321210  -0.156679   0.747457  -1.187328   0.100087  -0.140469
     4  C   -2.064771  -0.370882   0.605916  -0.087199  -0.186292  -0.159877
     5  C   -2.474148   0.988623  -0.797616   0.785771  -0.091354  -0.096627
     6  C   -1.264234   0.075470   0.194924  -1.283283  -0.542195  -0.090425
     7  C   11.801562  -0.831049  -1.314246   1.802808  -0.154420   0.129129
     8  C   -0.831049   6.609233   0.209290  -0.409555   0.028486   0.063911
     9  C   -1.314246   0.209290   7.342653  -1.402664   0.041987  -0.151810
    10  C    1.802808  -0.409555  -1.402664   9.606914  -0.076352  -0.513545
    11  N   -0.154420   0.028486   0.041987  -0.076352   7.884098  -0.242650
    12  N    0.129129   0.063911  -0.151810  -0.513545  -0.242650   8.071077
    13  C   -0.070687   0.005274   0.049651   0.034431   0.317561  -0.018239
    14  C   -0.070684   0.005271   0.049647   0.034418   0.317551  -0.018228
    15  C    0.063625   0.022112   0.105107  -0.664274  -0.021355   0.312989
    16  C    0.063624   0.022118   0.105119  -0.664273  -0.021344   0.312989
    17  H   -0.004204   0.001217  -0.001739  -0.010811   0.038524  -0.000217
    18  H   -0.000937   0.000550   0.001194   0.000891   0.000191  -0.000035
    19  H    0.006900   0.009645  -0.000585   0.003615  -0.000137   0.000227
    20  H    0.164687   0.075517   0.005745  -0.021657   0.000231  -0.000154
    21  H    0.086589   0.192557   0.038886   0.041757  -0.000034  -0.000225
    22  H    0.064180   0.101261   0.182517  -0.041181  -0.000076   0.031936
    23  H    0.001517  -0.006937  -0.000826   0.036773   0.161141   0.084443
    24  H    0.000283   0.000235  -0.002596  -0.015090  -0.076248   0.004911
    25  H    0.000550  -0.000158   0.005811   0.004486  -0.022403   0.001459
    26  H   -0.001227  -0.000217   0.000904   0.001209  -0.011350  -0.002181
    27  H    0.000283   0.000235  -0.002596  -0.015090  -0.076248   0.004911
    28  H    0.000550  -0.000158   0.005811   0.004491  -0.022398   0.001457
    29  H   -0.001227  -0.000217   0.000904   0.001208  -0.011351  -0.002180
    30  H    0.002434  -0.004304   0.038001  -0.088100   0.002030  -0.026753
    31  H    0.000778  -0.003138   0.023749  -0.051115  -0.002902  -0.036234
    32  H   -0.001575   0.002063  -0.024165   0.101415   0.006491  -0.084603
    33  H    0.002433  -0.004306   0.037987  -0.088097   0.002031  -0.026749
    34  H   -0.001575   0.002063  -0.024163   0.101420   0.006491  -0.084604
    35  H    0.000778  -0.003136   0.023755  -0.051120  -0.002902  -0.036234
              13         14         15         16         17         18
     1  C    0.134195   0.134192   0.043664   0.043663   0.179411   0.029735
     2  C    0.024815   0.024820   0.004704   0.004701   0.107274   0.192886
     3  C    0.056934   0.056927  -0.068429  -0.068428   0.072119   0.096435
     4  C   -0.103176  -0.103171  -0.089506  -0.089505  -0.045988  -0.018040
     5  C   -0.107999  -0.107986  -0.084250  -0.084244  -0.011469  -0.029315
     6  C   -0.690955  -0.690922   0.031894   0.031883  -0.041672   0.050996
     7  C   -0.070687  -0.070684   0.063625   0.063624  -0.004204  -0.000937
     8  C    0.005274   0.005271   0.022112   0.022118   0.001217   0.000550
     9  C    0.049651   0.049647   0.105107   0.105119  -0.001739   0.001194
    10  C    0.034431   0.034418  -0.664274  -0.664273  -0.010811   0.000891
    11  N    0.317561   0.317551  -0.021355  -0.021344   0.038524   0.000191
    12  N   -0.018239  -0.018228   0.312989   0.312989  -0.000217  -0.000035
    13  C    5.431182  -0.007880  -0.036719  -0.031357   0.016107   0.000366
    14  C   -0.007880   5.431158  -0.031354  -0.036714   0.016108   0.000366
    15  C   -0.036719  -0.031354   5.385348   0.000402  -0.000335  -0.000010
    16  C   -0.031357  -0.036714   0.000402   5.385337  -0.000335  -0.000010
    17  H    0.016107   0.016108  -0.000335  -0.000335   0.522316  -0.003734
    18  H    0.000366   0.000366  -0.000010  -0.000010  -0.003734   0.493218
    19  H   -0.000090  -0.000090   0.000061   0.000061  -0.000156  -0.003695
    20  H    0.000059   0.000059  -0.000115  -0.000115   0.000000  -0.000006
    21  H    0.000001   0.000001   0.000267   0.000267  -0.000000  -0.000000
    22  H   -0.000238  -0.000238   0.016949   0.016950  -0.000000  -0.000000
    23  H   -0.016265  -0.016265  -0.028489  -0.028487  -0.000003   0.000002
    24  H    0.364938  -0.026296   0.003193   0.005074   0.000019  -0.000000
    25  H    0.420413   0.017968  -0.000110  -0.004219   0.000143  -0.000000
    26  H    0.437885  -0.001484  -0.000338  -0.001427   0.000076   0.000005
    27  H   -0.026298   0.364937   0.005074   0.003193   0.000019  -0.000000
    28  H    0.017970   0.420416  -0.004220  -0.000110   0.000143  -0.000000
    29  H   -0.001484   0.437884  -0.001427  -0.000338   0.000076   0.000005
    30  H   -0.000306  -0.005204   0.426674   0.018292   0.000000  -0.000000
    31  H    0.000264  -0.000299   0.433040  -0.005253  -0.000000  -0.000000
    32  H    0.002156   0.003494   0.381051  -0.025226   0.000000   0.000000
    33  H   -0.005205  -0.000306   0.018295   0.426675   0.000000  -0.000000
    34  H    0.003495   0.002156  -0.025227   0.381047   0.000000   0.000000
    35  H   -0.000299   0.000265  -0.005256   0.433042  -0.000000  -0.000000
              19         20         21         22         23         24
     1  C    0.007698  -0.000742   0.000984  -0.001596  -0.008649  -0.022262
     2  C    0.067260   0.008925   0.000568   0.001016  -0.009878   0.002119
     3  C    0.173105   0.002302   0.002342  -0.003485   0.019596  -0.001503
     4  C    0.013696   0.015259  -0.009518  -0.040369   0.038642  -0.000180
     5  C    0.053194   0.057260  -0.030800  -0.002687  -0.037227   0.011968
     6  C   -0.022599   0.004770   0.001106  -0.010744  -0.017191   0.111766
     7  C    0.006900   0.164687   0.086589   0.064180   0.001517   0.000283
     8  C    0.009645   0.075517   0.192557   0.101261  -0.006937   0.000235
     9  C   -0.000585   0.005745   0.038886   0.182517  -0.000826  -0.002596
    10  C    0.003615  -0.021657   0.041757  -0.041181   0.036773  -0.015090
    11  N   -0.000137   0.000231  -0.000034  -0.000076   0.161141  -0.076248
    12  N    0.000227  -0.000154  -0.000225   0.031936   0.084443   0.004911
    13  C   -0.000090   0.000059   0.000001  -0.000238  -0.016265   0.364938
    14  C   -0.000090   0.000059   0.000001  -0.000238  -0.016265  -0.026296
    15  C    0.000061  -0.000115   0.000267   0.016949  -0.028489   0.003193
    16  C    0.000061  -0.000115   0.000267   0.016950  -0.028487   0.005074
    17  H   -0.000156   0.000000  -0.000000  -0.000000  -0.000003   0.000019
    18  H   -0.003695  -0.000006  -0.000000  -0.000000   0.000002  -0.000000
    19  H    0.505377   0.002395  -0.000007   0.000000  -0.000000   0.000000
    20  H    0.002395   0.507034  -0.003662  -0.000155  -0.000000   0.000000
    21  H   -0.000007  -0.003662   0.495382  -0.003775   0.000001   0.000000
    22  H    0.000000  -0.000155  -0.003775   0.520482   0.000010   0.000000
    23  H   -0.000000  -0.000000   0.000001   0.000010   0.343611  -0.003322
    24  H    0.000000   0.000000   0.000000   0.000000  -0.003322   0.486095
    25  H    0.000000  -0.000000  -0.000000   0.000000  -0.003090  -0.020392
    26  H   -0.000000  -0.000000  -0.000000  -0.000000   0.003262  -0.024151
    27  H    0.000000   0.000000   0.000000   0.000000  -0.003322   0.001837
    28  H    0.000000  -0.000000  -0.000000   0.000000  -0.003090   0.000114
    29  H   -0.000000  -0.000000  -0.000000  -0.000000   0.003262  -0.000398
    30  H   -0.000000   0.000000  -0.000000   0.000130  -0.002203   0.000000
    31  H    0.000000  -0.000000   0.000009   0.000622   0.001458   0.000000
    32  H    0.000000   0.000000  -0.000000  -0.000001  -0.002119   0.000005
    33  H   -0.000000   0.000000  -0.000000   0.000130  -0.002203  -0.000036
    34  H    0.000000   0.000000  -0.000000  -0.000001  -0.002119  -0.000058
    35  H    0.000000  -0.000000   0.000009   0.000622   0.001458   0.000006
              25         26         27         28         29         30
     1  C    0.025737   0.035864  -0.022260   0.025731   0.035866   0.007224
     2  C   -0.002909  -0.002854   0.002119  -0.002910  -0.002853  -0.000473
     3  C   -0.000098   0.003831  -0.001502  -0.000098   0.003830   0.000847
     4  C   -0.001044  -0.006989  -0.000180  -0.001044  -0.006989   0.002208
     5  C   -0.008569  -0.012134   0.011967  -0.008569  -0.012133  -0.016111
     6  C   -0.074619  -0.085233   0.111767  -0.074623  -0.085235   0.003909
     7  C    0.000550  -0.001227   0.000283   0.000550  -0.001227   0.002434
     8  C   -0.000158  -0.000217   0.000235  -0.000158  -0.000217  -0.004304
     9  C    0.005811   0.000904  -0.002596   0.005811   0.000904   0.038001
    10  C    0.004486   0.001209  -0.015090   0.004491   0.001208  -0.088100
    11  N   -0.022403  -0.011350  -0.076248  -0.022398  -0.011351   0.002030
    12  N    0.001459  -0.002181   0.004911   0.001457  -0.002180  -0.026753
    13  C    0.420413   0.437885  -0.026298   0.017970  -0.001484  -0.000306
    14  C    0.017968  -0.001484   0.364937   0.420416   0.437884  -0.005204
    15  C   -0.000110  -0.000338   0.005074  -0.004220  -0.001427   0.426674
    16  C   -0.004219  -0.001427   0.003193  -0.000110  -0.000338   0.018292
    17  H    0.000143   0.000076   0.000019   0.000143   0.000076   0.000000
    18  H   -0.000000   0.000005  -0.000000  -0.000000   0.000005  -0.000000
    19  H    0.000000  -0.000000   0.000000   0.000000  -0.000000  -0.000000
    20  H   -0.000000  -0.000000   0.000000  -0.000000  -0.000000   0.000000
    21  H   -0.000000  -0.000000   0.000000  -0.000000  -0.000000  -0.000000
    22  H    0.000000  -0.000000   0.000000   0.000000  -0.000000   0.000130
    23  H   -0.003090   0.003262  -0.003322  -0.003090   0.003262  -0.002203
    24  H   -0.020392  -0.024151   0.001837   0.000114  -0.000398   0.000000
    25  H    0.476945  -0.020666   0.000114  -0.000185  -0.000011  -0.000001
    26  H   -0.020666   0.480204  -0.000398  -0.000011   0.003262   0.000000
    27  H    0.000114  -0.000398   0.486095  -0.020392  -0.024151  -0.000036
    28  H   -0.000185  -0.000011  -0.020392   0.476945  -0.020666   0.000088
    29  H   -0.000011   0.003262  -0.024151  -0.020666   0.480203   0.000014
    30  H   -0.000001   0.000000  -0.000036   0.000088   0.000014   0.508238
    31  H    0.000000  -0.000000   0.000006   0.000016  -0.000001  -0.025418
    32  H    0.000000   0.000000  -0.000058  -0.000046   0.000005  -0.021575
    33  H    0.000088   0.000014   0.000000  -0.000001   0.000000  -0.000199
    34  H   -0.000046   0.000005   0.000005   0.000000   0.000000   0.000163
    35  H    0.000016  -0.000001   0.000000   0.000000  -0.000000  -0.000087
              31         32         33         34         35
     1  C    0.000271  -0.002116   0.007224  -0.002116   0.000271
     2  C   -0.000163   0.000255  -0.000473   0.000255  -0.000163
     3  C   -0.000710   0.000012   0.000847   0.000012  -0.000710
     4  C   -0.003942  -0.001635   0.002206  -0.001634  -0.003943
     5  C   -0.006288   0.011920  -0.016108   0.011919  -0.006287
     6  C   -0.001040  -0.011055   0.003912  -0.011056  -0.001041
     7  C    0.000778  -0.001575   0.002433  -0.001575   0.000778
     8  C   -0.003138   0.002063  -0.004306   0.002063  -0.003136
     9  C    0.023749  -0.024165   0.037987  -0.024163   0.023755
    10  C   -0.051115   0.101415  -0.088097   0.101420  -0.051120
    11  N   -0.002902   0.006491   0.002031   0.006491  -0.002902
    12  N   -0.036234  -0.084603  -0.026749  -0.084604  -0.036234
    13  C    0.000264   0.002156  -0.005205   0.003495  -0.000299
    14  C   -0.000299   0.003494  -0.000306   0.002156   0.000265
    15  C    0.433040   0.381051   0.018295  -0.025227  -0.005256
    16  C   -0.005253  -0.025226   0.426675   0.381047   0.433042
    17  H   -0.000000   0.000000   0.000000   0.000000  -0.000000
    18  H   -0.000000   0.000000  -0.000000   0.000000  -0.000000
    19  H    0.000000   0.000000  -0.000000   0.000000   0.000000
    20  H   -0.000000   0.000000   0.000000   0.000000  -0.000000
    21  H    0.000009  -0.000000  -0.000000  -0.000000   0.000009
    22  H    0.000622  -0.000001   0.000130  -0.000001   0.000622
    23  H    0.001458  -0.002119  -0.002203  -0.002119   0.001458
    24  H    0.000000   0.000005  -0.000036  -0.000058   0.000006
    25  H    0.000000   0.000000   0.000088  -0.000046   0.000016
    26  H   -0.000000   0.000000   0.000014   0.000005  -0.000001
    27  H    0.000006  -0.000058   0.000000   0.000005   0.000000
    28  H    0.000016  -0.000046  -0.000001   0.000000   0.000000
    29  H   -0.000001   0.000005   0.000000   0.000000  -0.000000
    30  H   -0.025418  -0.021575  -0.000199   0.000163  -0.000087
    31  H    0.515109  -0.028692  -0.000087  -0.000857   0.005755
    32  H   -0.028692   0.510067   0.000163   0.002684  -0.000857
    33  H   -0.000087   0.000163   0.508241  -0.021575  -0.025418
    34  H   -0.000857   0.002684  -0.021575   0.510067  -0.028691
    35  H    0.005755  -0.000857  -0.025418  -0.028691   0.515106
 Mulliken charges:
               1
     1  C   -0.133802
     2  C   -0.275232
     3  C   -0.176656
     4  C   -0.193849
     5  C    0.072184
     6  C   -0.067356
     7  C   -0.209639
     8  C   -0.259498
     9  C   -0.149606
    10  C   -0.074172
    11  N   -0.286626
    12  N   -0.345580
    13  C   -0.200498
    14  C   -0.200514
    15  C   -0.193034
    16  C   -0.193050
    17  H    0.167111
    18  H    0.188940
    19  H    0.184124
    20  H    0.182362
    21  H    0.187298
    22  H    0.167742
    23  H    0.496511
    24  H    0.199968
    25  H    0.204790
    26  H    0.204140
    27  H    0.199968
    28  H    0.204790
    29  H    0.204141
    30  H    0.180518
    31  H    0.185059
    32  H    0.181943
    33  H    0.180516
    34  H    0.181943
    35  H    0.185061
 Sum of Mulliken charges =   1.00000
 Mulliken charges with hydrogens summed into heavy atoms:
               1
     1  C    0.033309
     2  C   -0.086292
     3  C    0.007469
     4  C   -0.193849
     5  C    0.072184
     6  C   -0.067356
     7  C   -0.027277
     8  C   -0.072200
     9  C    0.018137
    10  C   -0.074172
    11  N    0.209885
    12  N   -0.345580
    13  C    0.408400
    14  C    0.408385
    15  C    0.354487
    16  C    0.354470
 Electronic spatial extent (au):  <R**2>=           3309.9486
 Charge=              1.0000 electrons
 Dipole moment (field-independent basis, Debye):
    X=             -3.9306    Y=             -1.5978    Z=              0.0001  Tot=              4.2429
 Quadrupole moment (field-independent basis, Debye-Ang):
   XX=            -62.4448   YY=            -63.8441   ZZ=            -91.2776
   XY=              3.0087   XZ=             -0.0004   YZ=             -0.0010
 Traceless Quadrupole moment (field-independent basis, Debye-Ang):
   XX=             10.0774   YY=              8.6781   ZZ=            -18.7554
   XY=              3.0087   XZ=             -0.0004   YZ=             -0.0010
 Octapole moment (field-independent basis, Debye-Ang**2):
  XXX=             -1.4321  YYY=             -9.6391  ZZZ=              0.0015  XYY=             -9.5657
  XXY=             -7.1078  XXZ=             -0.0004  XZZ=            -28.5801  YZZ=             -4.0000
  YYZ=              0.0002  XYZ=             -0.0001
 Hexadecapole moment (field-independent basis, Debye-Ang**3):
 XXXX=          -1731.2932 YYYY=          -1660.7645 ZZZZ=           -385.1032 XXXY=             16.1474
 XXXZ=              0.0034 YYYX=             19.0460 YYYZ=              0.0172 ZZZX=              0.0072
 ZZZY=              0.0249 XXYY=           -543.2647 XXZZ=           -411.7952 YYZZ=           -395.8427
 XXYZ=              0.0056 YYXZ=              0.0006 ZZXY=              6.9683
 N-N= 1.140332609315D+03 E-N=-3.777794828925D+03  KE= 6.478475907188D+02
 Calling FoFJK, ICntrl=      2127 FMM=F ISym2X=0 I1Cent= 0 IOpClX= 0 NMat=1 NMatS=1 NMatT=0.
 ***** Axes restored to original set *****
 -------------------------------------------------------------------
 Center     Atomic                   Forces (Hartrees/Bohr)
 Number     Number              X              Y              Z
 -------------------------------------------------------------------
      1        6          -0.003231561   -0.002421506   -0.000000016
      2        6           0.002623172   -0.002106134   -0.000000105
      3        6          -0.000553246    0.002809479    0.000000226
      4        6          -0.005016650   -0.000017944   -0.000000206
      5        6           0.004428242   -0.000108562    0.000000128
      6        6           0.001268378    0.002964784    0.000000049
      7        6          -0.000703503   -0.002667502    0.000000350
      8        6           0.002736469    0.002020314   -0.000000075
      9        6          -0.003227819    0.002591526    0.000000296
     10        6           0.001111584   -0.003061194    0.000000049
     11        7           0.000270078   -0.001015366   -0.000000258
     12        7           0.000184364   -0.000076635   -0.000000639
     13        6          -0.000501918   -0.000236548   -0.000682641
     14        6          -0.000501091   -0.000236670    0.000682800
     15        6          -0.000436712   -0.000118932    0.000546394
     16        6          -0.000436617   -0.000119104   -0.000546089
     17        1          -0.000668921   -0.000078827    0.000000088
     18        1          -0.000297231   -0.000612345   -0.000000129
     19        1          -0.000274291   -0.000130184    0.000000012
     20        1          -0.000294021    0.000160755   -0.000000111
     21        1          -0.000243065    0.000579513   -0.000000098
     22        1          -0.000617152    0.000111754   -0.000000081
     23        1          -0.000673938    0.001707401    0.000000295
     24        1           0.000329165   -0.000308764    0.000536466
     25        1           0.000480216   -0.000464689    0.000343116
     26        1           0.000459413   -0.000047790    0.000676985
     27        1           0.000328699   -0.000308854   -0.000536378
     28        1           0.000480087   -0.000464451   -0.000343489
     29        1           0.000459341   -0.000047932   -0.000677099
     30        1           0.000416563    0.000384288   -0.000388059
     31        1           0.000438814    0.000211717   -0.000669517
     32        1           0.000403878    0.000256009   -0.000476031
     33        1           0.000416622    0.000384355    0.000388154
     34        1           0.000403692    0.000256075    0.000476100
     35        1           0.000438955    0.000211964    0.000669515
 -------------------------------------------------------------------
 Cartesian Forces:  Max     0.005016650 RMS     0.001209440

 GradGradGradGradGradGradGradGradGradGradGradGradGradGradGradGradGradGrad
 Berny optimization.
 FormGI is forming the generalized inverse of G from B-inverse, IUseBI=4.
 Internal  Forces:  Max     0.005140164 RMS     0.000860547
 Search for a local minimum.
 Step number   1 out of a maximum of  193
 All quantities printed in internal units (Hartrees-Bohrs-Radians)
 Mixed Optimization -- En-DIIS/RFO-DIIS
 Second derivative matrix not updated -- first step.
 ITU=  0
     Eigenvalues ---    0.00528   0.00528   0.00689   0.00689   0.00727
     Eigenvalues ---    0.00932   0.01568   0.01703   0.01736   0.01753
     Eigenvalues ---    0.01781   0.01996   0.02054   0.02081   0.02093
     Eigenvalues ---    0.02184   0.02191   0.02210   0.02240   0.02312
     Eigenvalues ---    0.02331   0.02643   0.03476   0.04821   0.05922
     Eigenvalues ---    0.05922   0.06032   0.06032   0.06249   0.07253
     Eigenvalues ---    0.07253   0.07509   0.07509   0.16000   0.16000
     Eigenvalues ---    0.16000   0.16000   0.16000   0.16000   0.16000
     Eigenvalues ---    0.16000   0.16000   0.16000   0.16000   0.16000
     Eigenvalues ---    0.16000   0.16000   0.16000   0.16000   0.16000
     Eigenvalues ---    0.16000   0.17521   0.17680   0.18944   0.19172
     Eigenvalues ---    0.22061   0.22130   0.23309   0.23708   0.24874
     Eigenvalues ---    0.24944   0.25000   0.25000   0.31444   0.33674
     Eigenvalues ---    0.33674   0.34070   0.34070   0.34466   0.34466
     Eigenvalues ---    0.34566   0.34566   0.34632   0.34632   0.34638
     Eigenvalues ---    0.34638   0.34757   0.34757   0.35055   0.35055
     Eigenvalues ---    0.35207   0.35220   0.35301   0.35315   0.35390
     Eigenvalues ---    0.35464   0.35514   0.36862   0.37287   0.39256
     Eigenvalues ---    0.39667   0.41201   0.41832   0.42831   0.43056
     Eigenvalues ---    0.48671   0.48987   0.50079   0.50298
 RFO step:  Lambda=-4.28090247D-04 EMin= 5.28273629D-03
 Linear search not attempted -- first point.
 Iteration  1 RMS(Cart)=  0.01656986 RMS(Int)=  0.00002600
 Iteration  2 RMS(Cart)=  0.00005099 RMS(Int)=  0.00000510
 Iteration  3 RMS(Cart)=  0.00000000 RMS(Int)=  0.00000510
 Variable       Old X    -DE/DX   Delta X   Delta X   Delta X     New X
                                 (Linear)    (Quad)   (Total)
    R1        2.66925  -0.00155   0.00000  -0.00383  -0.00384   2.66541
    R2        2.58916   0.00400   0.00000   0.00790   0.00790   2.59706
    R3        2.05341  -0.00024   0.00000  -0.00068  -0.00068   2.05273
    R4        2.59019   0.00213   0.00000   0.00390   0.00390   2.59408
    R5        2.04849   0.00068   0.00000   0.00191   0.00191   2.05039
    R6        2.68346  -0.00058   0.00000  -0.00143  -0.00143   2.68203
    R7        2.05189   0.00027   0.00000   0.00076   0.00076   2.05264
    R8        2.70007   0.00514   0.00000   0.01306   0.01307   2.71314
    R9        2.68204  -0.00050   0.00000  -0.00122  -0.00123   2.68082
   R10        2.69778   0.00154   0.00000   0.00407   0.00407   2.70185
   R11        2.70475   0.00185   0.00000   0.00489   0.00489   2.70964
   R12        2.78346   0.00120   0.00000   0.00338   0.00338   2.78684
   R13        2.58941   0.00209   0.00000   0.00381   0.00380   2.59321
   R14        2.05167   0.00029   0.00000   0.00083   0.00083   2.05250
   R15        2.67001  -0.00158   0.00000  -0.00391  -0.00391   2.66611
   R16        2.04928   0.00062   0.00000   0.00176   0.00176   2.05104
   R17        2.59474   0.00408   0.00000   0.00813   0.00813   2.60288
   R18        2.05320  -0.00021   0.00000  -0.00061  -0.00061   2.05259
   R19        2.75415   0.00181   0.00000   0.00485   0.00485   2.75900
   R20        2.81183   0.00145   0.00000   0.00430   0.00430   2.81613
   R21        2.81183   0.00145   0.00000   0.00430   0.00430   2.81613
   R22        2.11872   0.00150   0.00000   0.00477   0.00477   2.12349
   R23        2.78886   0.00143   0.00000   0.00409   0.00409   2.79295
   R24        2.78886   0.00143   0.00000   0.00409   0.00409   2.79295
   R25        2.06267   0.00029   0.00000   0.00084   0.00084   2.06351
   R26        2.06071  -0.00013   0.00000  -0.00038  -0.00038   2.06033
   R27        2.06277  -0.00004   0.00000  -0.00012  -0.00012   2.06265
   R28        2.06267   0.00029   0.00000   0.00084   0.00084   2.06351
   R29        2.06071  -0.00013   0.00000  -0.00038  -0.00038   2.06033
   R30        2.06277  -0.00004   0.00000  -0.00012  -0.00012   2.06265
   R31        2.06386  -0.00002   0.00000  -0.00006  -0.00006   2.06380
   R32        2.07212   0.00016   0.00000   0.00046   0.00046   2.07258
   R33        2.06551   0.00036   0.00000   0.00105   0.00105   2.06656
   R34        2.06386  -0.00002   0.00000  -0.00006  -0.00006   2.06380
   R35        2.06551   0.00036   0.00000   0.00105   0.00105   2.06656
   R36        2.07212   0.00016   0.00000   0.00046   0.00046   2.07258
    A1        2.09606   0.00092   0.00000   0.00380   0.00380   2.09986
    A2        2.08619  -0.00110   0.00000  -0.00592  -0.00592   2.08027
    A3        2.10093   0.00019   0.00000   0.00212   0.00212   2.10305
    A4        2.08850   0.00008   0.00000  -0.00076  -0.00077   2.08773
    A5        2.08734  -0.00011   0.00000  -0.00006  -0.00006   2.08728
    A6        2.10735   0.00003   0.00000   0.00083   0.00083   2.10818
    A7        2.11627   0.00030   0.00000   0.00066   0.00066   2.11693
    A8        2.10029  -0.00030   0.00000  -0.00126  -0.00126   2.09903
    A9        2.06663  -0.00000   0.00000   0.00059   0.00060   2.06723
   A10        2.09231   0.00045   0.00000   0.00203   0.00204   2.09435
   A11        2.10236  -0.00088   0.00000  -0.00395  -0.00395   2.09841
   A12        2.08851   0.00042   0.00000   0.00192   0.00192   2.09043
   A13        2.03665  -0.00121   0.00000  -0.00426  -0.00425   2.03239
   A14        2.05980  -0.00110   0.00000  -0.00378  -0.00378   2.05602
   A15        2.18674   0.00231   0.00000   0.00804   0.00803   2.19477
   A16        2.13659  -0.00055   0.00000  -0.00148  -0.00147   2.13512
   A17        2.08826  -0.00055   0.00000  -0.00255  -0.00255   2.08571
   A18        2.05834   0.00110   0.00000   0.00403   0.00402   2.06236
   A19        2.10926   0.00030   0.00000   0.00059   0.00058   2.10984
   A20        2.06913   0.00001   0.00000   0.00072   0.00072   2.06986
   A21        2.10479  -0.00031   0.00000  -0.00130  -0.00130   2.10349
   A22        2.09175   0.00012   0.00000  -0.00069  -0.00069   2.09106
   A23        2.10429   0.00001   0.00000   0.00075   0.00075   2.10505
   A24        2.08714  -0.00012   0.00000  -0.00006  -0.00006   2.08708
   A25        2.11321   0.00105   0.00000   0.00435   0.00435   2.11756
   A26        2.08266  -0.00113   0.00000  -0.00596  -0.00596   2.07670
   A27        2.08732   0.00008   0.00000   0.00160   0.00160   2.08892
   A28        2.10384  -0.00078   0.00000  -0.00238  -0.00238   2.10146
   A29        2.07272   0.00191   0.00000   0.00727   0.00726   2.07999
   A30        2.10663  -0.00113   0.00000  -0.00488  -0.00489   2.10174
   A31        1.97116   0.00055   0.00000   0.00279   0.00279   1.97395
   A32        1.97116   0.00055   0.00000   0.00279   0.00279   1.97395
   A33        1.76620  -0.00079   0.00000  -0.00922  -0.00922   1.75698
   A34        1.95780  -0.00110   0.00000  -0.00417  -0.00418   1.95362
   A35        1.89227   0.00043   0.00000   0.00386   0.00386   1.89613
   A36        1.89226   0.00043   0.00000   0.00386   0.00386   1.89613
   A37        1.96264   0.00037   0.00000   0.00320   0.00320   1.96584
   A38        1.96263   0.00037   0.00000   0.00320   0.00320   1.96583
   A39        1.94270  -0.00068   0.00000  -0.00237  -0.00238   1.94032
   A40        1.89660   0.00058   0.00000   0.00327   0.00327   1.89987
   A41        1.89691   0.00079   0.00000   0.00511   0.00510   1.90201
   A42        1.91881   0.00092   0.00000   0.00589   0.00587   1.92468
   A43        1.92451  -0.00070   0.00000  -0.00469  -0.00470   1.91982
   A44        1.91493  -0.00078   0.00000  -0.00522  -0.00523   1.90970
   A45        1.91194  -0.00077   0.00000  -0.00416  -0.00418   1.90776
   A46        1.89660   0.00058   0.00000   0.00327   0.00326   1.89987
   A47        1.89691   0.00079   0.00000   0.00511   0.00510   1.90201
   A48        1.91881   0.00092   0.00000   0.00589   0.00587   1.92468
   A49        1.92451  -0.00070   0.00000  -0.00469  -0.00469   1.91982
   A50        1.91493  -0.00078   0.00000  -0.00522  -0.00523   1.90970
   A51        1.91194  -0.00077   0.00000  -0.00416  -0.00418   1.90776
   A52        1.91088   0.00071   0.00000   0.00462   0.00460   1.91548
   A53        1.94849   0.00092   0.00000   0.00588   0.00587   1.95437
   A54        1.90168   0.00046   0.00000   0.00250   0.00250   1.90418
   A55        1.89601  -0.00073   0.00000  -0.00392  -0.00394   1.89208
   A56        1.91003  -0.00064   0.00000  -0.00431  -0.00432   1.90572
   A57        1.89644  -0.00076   0.00000  -0.00505  -0.00506   1.89138
   A58        1.91088   0.00071   0.00000   0.00462   0.00461   1.91548
   A59        1.90168   0.00046   0.00000   0.00250   0.00250   1.90418
   A60        1.94849   0.00092   0.00000   0.00588   0.00587   1.95436
   A61        1.91003  -0.00064   0.00000  -0.00431  -0.00432   1.90572
   A62        1.89601  -0.00073   0.00000  -0.00392  -0.00394   1.89207
   A63        1.89644  -0.00076   0.00000  -0.00505  -0.00506   1.89138
    D1        0.00001  -0.00000   0.00000  -0.00000  -0.00000   0.00000
    D2       -3.14159  -0.00000   0.00000  -0.00000  -0.00000  -3.14159
    D3       -3.14158  -0.00000   0.00000  -0.00000  -0.00000  -3.14159
    D4        0.00001  -0.00000   0.00000  -0.00000  -0.00000   0.00000
    D5        0.00000  -0.00000   0.00000  -0.00000  -0.00000   0.00000
    D6       -3.14158  -0.00000   0.00000  -0.00000  -0.00000  -3.14158
    D7        3.14159   0.00000   0.00000   0.00000   0.00000   3.14159
    D8        0.00001  -0.00000   0.00000  -0.00000  -0.00000   0.00001
    D9       -0.00001   0.00000   0.00000   0.00000   0.00000  -0.00000
   D10        3.14159   0.00000   0.00000   0.00000   0.00000   3.14159
   D11        3.14159   0.00000   0.00000   0.00000   0.00000   3.14159
[...]
 05931,-0.00001042,0.00003332,-0.00000753,0.00001647,0.00000149,0.00003
 420,-0.00001602,0.00000856,0.00006236,0.00008536,-0.00004690,0.0002672
 2,0.00018790,0.00010454,-0.00012385,0.00011808,-0.00003813,-0.00004241
 ,0.00003966,-0.00003384,0.00000075,-0.00013999,-0.00002218,0.00048281,
 -0.00028661,0.00032290,-0.00201007,-0.00041472,0.00022279,0.00020748,0
 .00134513,-0.00017263,-0.01036947,-0.00911597,-0.02587263,-0.00001882,
 0.00002979,-0.00002767,-0.00001223,-0.00014160,-0.00044582,-0.08756178
 ,-0.09475633,-0.22109329,0.00385687,0.00346303,-0.00336488,0.00000010,
 -0.00000065,-0.00001343,0.00000130,-0.00000256,-0.00000234,0.00000015,
 0.00000521,-0.00000209,0.00000205,0.00000095,0.00000787,0.00001967,0.0
 0000155,-0.00000442,-0.00004161,0.00002968,-0.00003802,-0.00020798,-0.
 00185246,-0.00025872,0.00001273,-0.00003212,-0.00001590,-0.00003342,-0
 .00005052,0.00003729,0.00000152,0.00002721,0.00000095,-0.00005866,0.00
 006429,-0.00001447,0.00011932,0.00010965,0.00031978,0.00000776,-0.0000
 7457,0.00019026,0.09529072,0.10096347,0.24704272,-0.00007378,0.0000187
 5,0.00007347,0.00002463,0.00001816,0.00000677,-0.00005818,0.00000464,0
 .00003588,0.00022338,-0.00014624,0.00003245,-0.00052702,-0.00020558,-0
 .00044589,0.00026038,0.00016702,-0.00000729,0.00009292,0.00017326,-0.0
 0005305,-0.00020761,0.00008114,-0.00004039,0.00023829,-0.00013830,0.00
 022558,0.00207666,-0.00167291,-0.00083937,-0.00030968,-0.00123425,-0.0
 0036950,0.00194241,-0.01773259,0.00523903,-0.00012044,0.00004248,-0.00
 009903,-0.00024467,0.00001184,0.00007893,-0.05944105,0.05155016,-0.001
 48860,-0.00019144,0.00072458,-0.00122624,0.00000422,0.00000916,0.00000
 183,-0.00000653,0.00000161,-0.00001609,-0.00000457,-0.00000526,-0.0000
 0078,0.00001137,0.00003766,0.00001619,0.00000428,-0.00000022,0.0000574
 6,-0.00094482,0.00044435,0.00093970,-0.00031162,0.00158031,0.00093890,
 0.00001205,-0.00000120,0.00002025,0.00002413,0.00002030,-0.00000684,0.
 00002727,-0.00002594,0.00001708,0.00007685,-0.00007731,0.00001603,-0.0
 0002538,0.00000817,-0.00000090,0.00010844,-0.00005669,-0.00004176,0.00
 241059,-0.01386256,0.00010090,0.05928543,-0.00007257,0.00001842,-0.000
 00476,0.00001692,0.00006009,0.00000057,-0.00010384,0.00000004,-0.00001
 581,0.00014319,-0.00011640,-0.00001682,-0.00055915,-0.00012536,0.00009
 051,0.00062265,0.00016025,0.00001182,0.00002621,0.00015275,0.00007069,
 -0.00035270,0.00028313,-0.00014142,-0.00049384,-0.00020162,-0.00063107
 ,0.00265465,0.00063574,-0.00002521,-0.00023504,-0.00217679,-0.00034666
 ,-0.00264077,-0.01597292,0.00892372,-0.00020081,0.00007146,-0.00026573
 ,-0.00025211,-0.00023842,0.00010470,0.04947915,-0.30117318,0.00135682,
 -0.00078874,0.00172934,-0.00143182,0.00001985,0.00002889,-0.00000144,-
 0.00001892,-0.00000180,0.00000288,-0.00000915,-0.00000786,0.00000323,0
 .00000880,0.00002956,0.00002139,-0.00005818,-0.00000402,-0.00002030,0.
 00017924,0.00057223,0.00021648,-0.00021476,0.00426507,0.00055583,-0.00
 000522,0.00001838,-0.00000374,0.00002135,0.00000923,0.00001207,0.00003
 212,-0.00007227,0.00006374,-0.00002768,0.00004433,-0.00000187,0.000069
 56,0.00002794,0.00006353,0.00006199,-0.00010695,-0.00005148,0.00385203
 ,-0.01166765,0.00043852,-0.05172105,0.32661771,0.00011994,0.00003026,-
 0.00003282,-0.00004252,0.00002912,-0.00000007,0.00004943,-0.00005285,-
 0.00003973,-0.00010034,0.00019558,0.00002094,0.00048605,0.00002851,0.0
 0036243,-0.00041728,-0.00018404,0.00003190,-0.00009505,-0.00015852,0.0
 0003511,0.00014980,-0.00021036,-0.00004298,-0.00004125,0.00022764,-0.0
 0009308,-0.00250820,-0.00005642,0.00037815,0.00015758,0.00297706,0.000
 46763,-0.00093949,0.03537406,-0.01134062,0.00013276,-0.00007240,0.0003
 1320,0.00017922,0.00004054,-0.00062732,-0.00083845,-0.00120923,-0.0483
 5288,0.00046679,0.00339286,0.00355439,-0.00000647,0.00000143,-0.000010
 49,0.00000966,0.00000199,0.00000885,0.00001112,0.00000815,0.00000011,-
 0.00000512,-0.00002998,-0.00000382,0.00003210,0.00000495,-0.00000244,0
 .00073478,-0.00040888,-0.00018951,0.00069775,-0.00371722,-0.00176617,-
 0.00002433,-0.00000599,-0.00001929,-0.00000489,-0.00003634,0.00002397,
 -0.00002160,0.00004908,-0.00008373,-0.00008438,0.00007942,-0.00002723,
 0.00014770,0.00012565,0.00016738,-0.00003931,0.00001645,0.00027274,0.0
 0576106,-0.02516093,0.00190926,-0.00306604,-0.00955983,0.05462730,0.00
 012279,-0.00002748,0.00000807,-0.00005548,-0.00000388,0.00000161,0.000
 02615,-0.00001973,-0.00001334,-0.00015479,0.00007249,-0.00011073,-0.00
 009111,0.00056216,0.00026981,-0.00020239,-0.00002228,-0.00003366,-0.00
 009314,-0.00005639,0.00002157,0.00000284,-0.00009256,-0.00005321,0.000
 16148,-0.00049817,0.00018996,0.00030831,-0.00045504,0.00258239,-0.0001
 8853,-0.00094201,0.00002323,-0.01246307,-0.00172822,0.00123427,-0.0000
 2782,-0.00000880,-0.00011945,-0.00019282,0.00015408,0.00025838,-0.3128
 8081,0.04326440,-0.00284665,0.00037577,0.00022035,-0.00119322,-0.00000
 587,-0.00003084,0.00000985,0.00000370,-0.00000687,-0.00000174,-0.00000
 647,-0.00000866,-0.00000726,-0.00000093,-0.00001217,0.00000331,-0.0000
 2905,0.00000268,-0.00001291,-0.00000435,-0.00001355,-0.00008976,-0.000
 20343,0.00087553,0.00015031,0.00004901,-0.00003274,0.00003885,-0.00001
 813,0.00000199,-0.00001575,0.00001655,-0.00000167,0.00003231,0.0001964
 2,-0.00012195,0.00002904,-0.00013996,-0.00003006,-0.00005584,0.0000872
 0,0.00002509,-0.00008586,-0.00928257,0.00292591,0.00063350,-0.00443093
 ,0.00004999,-0.00096926,0.33838009,0.00009934,-0.00006661,-0.00003977,
 0.00001473,0.00002260,0.00001215,-0.00001737,0.00002513,0.00000099,0.0
 0004351,-0.00004761,-0.00015573,-0.00042455,0.00022818,-0.00000364,-0.
 00017218,0.00016643,0.00001070,-0.00007089,0.00011946,0.00005563,-0.00
 018661,0.00006947,-0.00042144,-0.00016941,-0.00026323,-0.00008119,-0.0
 0015377,-0.00032539,0.00288346,0.00015415,-0.00020552,0.00010206,-0.01
 843135,0.00034879,0.00160979,0.00000867,-0.00003829,0.00003103,-0.0000
 8737,0.00004618,0.00007465,0.04671433,-0.05660769,0.00002748,0.0001682
 2,0.00013974,-0.00064210,-0.00001208,-0.00002234,0.00000189,0.00000628
 ,-0.00000490,0.00000422,-0.00000528,-0.00000915,-0.00000570,0.00001411
 ,0.00001403,0.00005736,-0.00003999,-0.00000176,-0.00001260,-0.00011776
 ,0.00030580,0.00049707,-0.00055736,0.00040704,0.00001127,0.00002958,-0
 .00002394,0.00004346,0.00000336,0.00000529,-0.00001917,0.00000476,0.00
 000264,0.00000349,0.00008476,-0.00021248,0.00004353,-0.00012667,0.0000
 0204,-0.00005901,0.00006637,0.00002909,-0.00007075,-0.01434747,0.00219
 478,0.00072313,0.03143063,-0.00330558,0.00047849,-0.04420726,0.0569879
 1,-0.00011697,0.00002446,0.00000870,0.00004999,-0.00004058,-0.00000925
 ,0.00006109,0.00001842,0.00003602,0.00015536,0.00005785,0.00021449,0.0
 0077662,-0.00036225,-0.00018568,0.00006717,0.00004782,-0.00012055,0.00
 011050,0.00010312,-0.00007035,-0.00003857,-0.00010687,0.00026949,0.000
 57611,0.00031589,0.00030314,0.00110551,0.00161448,-0.00420064,0.000070
 10,0.00028339,-0.00008418,0.03191363,-0.00104762,-0.00433001,0.0000492
 6,-0.00001523,0.00005837,-0.00001744,0.00005197,0.00000130,-0.01033635
 ,0.00023126,-0.04953337,0.00199809,-0.00024317,0.00133226,0.00000023,0
 .00000918,0.00000367,-0.00000089,0.00000542,-0.00000164,0.00001132,0.0
 0001777,0.00001484,-0.00000291,-0.00000075,-0.00003182,0.00005092,-0.0
 0000662,-0.00000999,-0.00010030,-0.00016208,-0.00014980,0.00005867,-0.
 00063127,0.00025563,-0.00003129,0.00004723,-0.00000356,0.00002266,0.00
 001951,-0.00001438,-0.00001873,-0.00000216,-0.00001831,0.00001669,-0.0
 0003777,0.00010419,-0.00009812,0.00003224,-0.00001597,0.00000676,0.000
 00580,-0.00002285,-0.02464022,0.00576267,0.00216531,-0.00009242,-0.001
 08813,0.00020479,-0.00062019,-0.00506263,0.05427206,-0.00004917,0.0000
 3053,-0.00001868,-0.00000198,0.00002456,-0.00000103,-0.00002351,-0.000
 02154,0.00000376,-0.00000028,0.00004004,0.00004376,0.00021118,-0.00033
 963,-0.00009220,0.00024175,-0.00010975,-0.00001090,0.00003178,0.000008
 45,-0.00003353,-0.00009766,0.00006710,0.00007867,-0.00005346,0.0000539
 4,0.00006415,0.00099754,0.00096070,-0.00107904,-0.00004814,0.00007677,
 -0.00004493,0.00441096,0.00616454,-0.01516963,-0.00005838,-0.00013668,
 0.00028481,-0.00009620,0.00002876,-0.00001873,-0.00147269,-0.00116578,
 -0.00210026,-0.09717602,-0.05201619,0.09518958,0.00001157,0.00002855,0
 .00000566,-0.00000555,0.00000366,0.00000154,0.00000437,0.00000857,-0.0
 0000041,-0.00000156,0.00000367,-0.00001117,-0.00000505,0.00000058,-0.0
 0000470,0.00012046,0.00002165,-0.00007076,0.00015644,0.00026081,0.0004
 0087,-0.00011689,0.00013284,0.00009416,0.00032417,0.00007851,-0.000099
 36,-0.00001741,-0.00006573,-0.00014081,-0.00001793,-0.00000792,0.00002
 243,0.00001419,-0.00000452,-0.00003247,0.00002101,-0.00000910,0.000002
 78,0.00084007,0.00020181,-0.00072641,-0.00009384,-0.00001213,0.0000455
 7,0.00045045,-0.00012708,-0.00017410,0.09837169,0.00001548,-0.00003282
 ,-0.00000284,0.00000409,-0.00003292,0.00000120,0.00004227,0.00001977,-
 0.00002017,-0.00010494,0.00007789,0.00003653,0.00032621,0.00008188,0.0
 0002685,-0.00018115,-0.00003024,0.00002236,0.00003312,-0.00009117,0.00
 000404,0.00016791,0.00014040,-0.00010418,-0.00016674,-0.00043835,0.000
 02227,0.00047164,0.00087397,-0.00022667,-0.00010707,0.00003410,0.00006
 905,0.00743578,0.00621579,-0.01535805,0.00012559,-0.00015069,-0.000229
 76,0.00008981,-0.00001254,-0.00004689,-0.00144320,-0.00094404,-0.00208
 865,-0.05211069,-0.10438984,0.10042598,-0.00001041,-0.00001893,-0.0000
 0553,0.00000457,0.00000135,0.00000285,0.00000502,0.00000198,-0.0000018
 3,0.00000866,0.00000213,0.00001655,-0.00001042,-0.00001131,0.00001998,
 -0.00014819,0.00001609,0.00011751,0.00025104,0.00045723,-0.00007269,0.
 00003316,-0.00001295,0.00002434,-0.00007791,-0.00035817,0.00002941,-0.
 00000201,0.00001300,0.00009253,0.00000251,0.00000312,-0.00001651,-0.00
 000137,0.00000755,0.00003338,-0.00001551,0.00000116,0.00002373,0.00020
 177,0.00074901,-0.00079315,-0.00012797,0.00030395,-0.00050798,-0.00009
 094,-0.00019990,0.00007836,0.05631630,0.10719697,-0.00005932,0.0000104
 1,0.00003332,0.00000754,-0.00001647,0.00000149,-0.00003420,0.00001602,
 0.00000856,-0.00006233,-0.00008536,-0.00004692,-0.00026726,-0.00018795
 ,0.00010453,0.00012384,-0.00011805,-0.00003814,0.00004241,-0.00003963,
 -0.00003384,-0.00000079,0.00013999,-0.00002216,-0.00048276,0.00028655,
 0.00032296,0.00201015,0.00041483,0.00022291,-0.00020746,-0.00134494,-0
 .00017275,0.01036941,0.00911749,-0.02587279,0.00001222,0.00014163,-0.0
 0044582,0.00001881,-0.00002980,-0.00002767,-0.00385693,-0.00346288,-0.
 00336508,0.08755897,0.09476127,-0.22108683,-0.00000010,0.00000065,-0.0
 0001343,-0.00000130,0.00000256,-0.00000234,-0.00000015,-0.00000521,-0.
 00000209,-0.00000205,-0.00000095,0.00000788,-0.00001967,-0.00000156,-0
 .00000442,0.00004160,-0.00002966,-0.00003803,0.00020802,0.00185222,-0.
 00025851,0.00005866,-0.00006429,-0.00001448,-0.00011928,-0.00010973,0.
 00031971,-0.00000776,0.00007455,0.00019026,-0.00001273,0.00003212,-0.0
 0001590,0.00003343,0.00005051,0.00003730,-0.00000152,-0.00002721,0.000
 00094,0.00072639,0.00079324,-0.00130499,-0.00007341,0.00004110,0.00011
 094,0.00001985,-0.00007974,0.00029434,-0.09528753,-0.10096963,0.247035
 79,0.00012279,-0.00002748,-0.00000808,-0.00005549,-0.00000388,-0.00000
 161,0.00002615,-0.00001974,0.00001334,-0.00015479,0.00007247,0.0001107
 4,-0.00009113,0.00056219,-0.00026978,-0.00020238,-0.00002229,0.0000336
 6,-0.00009314,-0.00005641,-0.00002158,0.00000286,-0.00009256,0.0000531
 9,0.00016146,-0.00049814,-0.00018999,0.00030824,-0.00045491,-0.0025824
 4,-0.00018854,-0.00094198,-0.00002331,-0.01246353,-0.00172820,-0.00123
 440,-0.00019281,0.00015411,-0.00025839,-0.00002782,-0.00000882,0.00011
 945,0.00037572,0.00022028,0.00119319,-0.31287996,0.04326626,0.00285120
 ,-0.00000587,-0.00003084,-0.00000986,0.00000370,-0.00000687,0.00000174
 ,-0.00000647,-0.00000866,0.00000726,-0.00000093,-0.00001217,-0.0000033
 1,-0.00002905,0.00000267,0.00001291,-0.00000435,-0.00001357,0.00008977
 ,-0.00020335,0.00087554,-0.00015012,0.00019642,-0.00012196,-0.00002906
 ,-0.00013996,-0.00003006,0.00005584,0.00008719,0.00002508,0.00008586,0
 .00004901,-0.00003273,-0.00003886,-0.00001813,0.00000199,0.00001575,0.
 00001655,-0.00000167,-0.00003231,0.00045046,-0.00009094,-0.00001986,-0
 .00017859,0.00011058,-0.00009856,0.00046948,0.00014613,-0.00062386,-0.
 00928241,0.00292599,-0.00063327,0.33837938,0.00009935,-0.00006660,0.00
 003976,0.00001472,0.00002261,-0.00001215,-0.00001738,0.00002512,-0.000
 00098,0.00004350,-0.00004761,0.00015572,-0.00042453,0.00022820,0.00000
 366,-0.00017218,0.00016641,-0.00001067,-0.00007088,0.00011944,-0.00005
 562,-0.00018657,0.00006945,0.00042143,-0.00016937,-0.00026327,0.000081
 16,-0.00015380,-0.00032524,-0.00288331,0.00015414,-0.00020541,-0.00010
 208,-0.01842993,0.00034891,-0.00160951,-0.00008736,0.00004620,-0.00007
 465,0.00000868,-0.00003829,-0.00003104,0.00016834,0.00013967,0.0006420
 4,0.04671584,-0.05660809,-0.00002825,-0.00001208,-0.00002234,-0.000001
 89,0.00000628,-0.00000490,-0.00000422,-0.00000528,-0.00000915,0.000005
 70,0.00001411,0.00001404,-0.00005736,-0.00003999,-0.00000176,0.0000126
 0,-0.00011779,0.00030587,-0.00049703,-0.00055723,0.00040695,-0.0000111
 9,0.00008474,-0.00021248,-0.00004356,-0.00012668,0.00000203,0.00005902
 ,0.00006637,0.00002909,0.00007075,0.00002958,-0.00002393,-0.00004346,0
 .00000336,0.00000529,0.00001918,0.00000476,0.00000264,-0.00000348,-0.0
 0012709,-0.00019990,0.00007971,0.00026552,-0.00015816,-0.00015085,0.00
 014607,0.00037796,0.00016928,-0.01434849,0.00219522,-0.00072296,-0.044
 20941,0.05698795,0.00011697,-0.00002447,0.00000870,-0.00004998,0.00004
 058,-0.00000925,-0.00006109,-0.00001842,0.00003602,-0.00015534,-0.0000
 5789,0.00021448,-0.00077669,0.00036227,-0.00018564,-0.00006719,-0.0000
 4777,-0.00012055,-0.00011050,-0.00010309,-0.00007037,0.00003854,0.0001
 0684,0.00026951,-0.00057606,-0.00031594,0.00030315,-0.00110557,-0.0016
 1426,-0.00420079,-0.00007009,-0.00028335,-0.00008423,-0.03191432,0.001
 04811,-0.00432977,0.00001743,-0.00005195,0.00000130,-0.00004926,0.0000
 1522,0.00005836,-0.00199807,0.00024311,0.00133228,0.01034104,-0.000232
 10,-0.04953358,-0.00000023,-0.00000918,0.00000367,0.00000089,-0.000005
 42,-0.00000164,-0.00001132,-0.00001777,0.00001484,0.00000291,0.0000007
 5,-0.00003182,-0.00005092,0.00000662,-0.00000998,0.00010030,0.00016212
 ,-0.00014981,-0.00005865,0.00063118,0.00025579,-0.00001667,0.00003773,
 0.00010419,0.00009811,-0.00003223,-0.00001596,-0.00000675,-0.00000579,
 -0.00002285,0.00003129,-0.00004722,-0.00000356,-0.00002266,-0.00001951
 ,-0.00001438,0.00001873,0.00000216,-0.00001831,0.00017409,-0.00007839,
 0.00029434,0.00018834,0.00008900,-0.00024058,0.00062395,-0.00016926,-0
 .00049565,0.02463961,-0.00576292,0.00216484,0.00061538,0.00506325,0.05
 427240,-0.00007379,0.00001876,-0.00007346,0.00002463,0.00001817,-0.000
 00678,-0.00005819,0.00000465,-0.00003588,0.00022336,-0.00014623,-0.000
 03247,-0.00052700,-0.00020558,0.00044586,0.00026043,0.00016701,0.00000
 730,0.00009293,0.00017323,0.00005307,-0.00020758,0.00008117,0.00004038
 ,0.00023817,-0.00013839,-0.00022568,0.00207653,-0.00167276,0.00083932,
 -0.00030969,-0.00123452,0.00036938,0.00194248,-0.01773322,-0.00524006,
 -0.00024467,0.00001185,-0.00007896,-0.00012045,0.00004246,0.00009906,-
 0.00019141,0.00072452,0.00122632,-0.05944003,0.05154804,0.00149099,0.0
 0000422,0.00000917,-0.00000183,-0.00000653,0.00000161,0.00001609,-0.00
 000458,-0.00000526,0.00000078,0.00001137,0.00003766,-0.00001618,0.0000
 0427,-0.00000021,-0.00005746,-0.00094489,0.00044442,-0.00093960,-0.000
 31166,0.00158073,-0.00093865,0.00007686,-0.00007730,-0.00001605,-0.000
 02538,0.00000817,0.00000091,0.00010844,-0.00005669,0.00004176,0.000012
 05,-0.00000120,-0.00002025,0.00002413,0.00002030,0.00000684,0.00002728
 ,-0.00002594,-0.00001709,-0.00009385,-0.00012797,0.00007340,0.00034688
 ,0.00041839,0.00012120,-0.00017858,0.00026553,-0.00018833,0.00241049,-
 0.01386238,-0.00010151,-0.00443071,0.03143067,0.00009380,0.05928449,-0
 .00007257,0.00001843,0.00000477,0.00001691,0.00006009,-0.00000057,-0.0
 0010384,0.00000003,0.00001582,0.00014318,-0.00011639,0.00001681,-0.000
 55913,-0.00012532,-0.00009053,0.00062267,0.00016022,-0.00001182,0.0000
 2622,0.00015274,-0.00007068,-0.00035268,0.00028315,0.00014148,-0.00049
 372,-0.00020173,0.00063112,0.00265454,0.00063567,0.00002511,-0.0002350
 5,-0.00217681,0.00034636,-0.00264108,-0.01597075,-0.00892409,-0.000252
 11,-0.00023839,-0.00010470,-0.00020081,0.00007140,0.00026574,-0.000788
 71,0.00172944,0.00143171,0.04947710,-0.30117381,-0.00136852,0.00001985
 ,0.00002890,0.00000145,-0.00001893,-0.00000180,-0.00000288,-0.00000915
 ,-0.00000786,-0.00000323,0.00000881,0.00002956,-0.00002139,-0.00005817
 ,-0.00000402,0.00002030,0.00017917,0.00057250,-0.00021639,-0.00021474,
 0.00426510,-0.00055504,-0.00002769,0.00004433,0.00000187,0.00006957,0.
 00002795,-0.00006353,0.00006199,-0.00010695,0.00005146,-0.00000522,0.0
 0001838,0.00000374,0.00002134,0.00000922,-0.00001208,0.00003213,-0.000
 07227,-0.00006376,-0.00001213,0.00030394,-0.00004109,0.00041834,0.0003
 0045,-0.00153941,0.00011057,-0.00015816,-0.00008899,0.00385221,-0.0116
 6868,-0.00043914,0.00004999,-0.00330591,0.00108799,-0.05171883,0.32661
 734,-0.00011995,-0.00003024,-0.00003282,0.00004252,-0.00002912,-0.0000
 0007,-0.00004944,0.00005285,-0.00003972,0.00010033,-0.00019558,0.00002
 091,-0.00048606,-0.00002854,0.00036240,0.00041738,0.00018401,0.0000319
 0,0.00009505,0.00015851,0.00003513,-0.00014980,0.00021038,-0.00004296,
 0.00004121,-0.00022760,-0.00009308,0.00250814,0.00005649,0.00037812,-0
 .00015762,-0.00297740,0.00046740,0.00093929,-0.03537429,-0.01134279,-0
 .00017927,-0.00004051,-0.00062734,-0.00013279,0.00007237,0.00031326,-0
 .00046672,-0.00339299,0.00355433,0.00084067,0.00119756,-0.04835277,0.0
 0000647,-0.00000142,-0.00001049,-0.00000967,-0.00000199,0.00000885,-0.
 00001112,-0.00000815,0.00000011,0.00000512,0.00002998,-0.00000382,-0.0
 0003210,-0.00000495,-0.00000244,-0.00073484,0.00040900,-0.00018932,-0.
 00069781,0.00371798,-0.00176560,0.00008437,-0.00007941,-0.00002724,-0.
 00014768,-0.00012566,0.00016735,0.00003932,-0.00001648,0.00027274,0.00
 002433,0.00000599,-0.00001929,0.00000489,0.00003633,0.00002396,0.00002
 160,-0.00004908,-0.00008375,-0.00004557,0.00050799,0.00011097,-0.00012
 121,0.00153950,0.00038366,0.00009856,0.00015085,-0.00024059,-0.0057607
 2,0.02516050,0.00191043,0.00096934,-0.00047898,0.00020486,0.00306378,0
 .00957210,0.05462769\\-0.00003880,-0.00001955,0.00000018,0.00005635,-0
 .00003757,-0.00000005,0.00003548,0.00006630,-0.00000003,-0.00017105,-0
 .00000621,-0.00000004,0.00016842,0.00000136,0.00000006,-0.00009597,0.0
 0007990,0.00000009,0.00003140,-0.00006851,0.00000001,0.00006471,0.0000
 3151,0.,-0.00007112,0.00002306,-0.00000011,-0.00000882,-0.00006684,0.0
 0000003,0.00006860,0.00009304,0.00000135,-0.00000707,0.00002712,0.0000
 0160,0.00001380,-0.00000555,0.00000814,0.00001412,-0.00000416,-0.00000
 799,-0.00000451,-0.00001490,0.00002555,-0.00000496,-0.00001323,-0.0000
 2563,0.00001487,0.00000618,-0.00000008,-0.00000961,0.00001635,-0.00000
 007,0.00000365,-0.00001737,0.00000005,0.00000314,0.00001079,-0.0000000
 4,-0.00001323,-0.00001784,0.00000005,0.00002061,-0.00000810,0.00000005
 ,-0.00000399,-0.00012107,-0.00000396,-0.00000579,0.00000905,-0.0000013
 5,-0.00000281,0.00000580,-0.00000179,-0.00000565,0.00000747,-0.0000093
 0,-0.00000576,0.00000905,0.00000130,-0.00000276,0.00000590,0.00000189,
 -0.00000602,0.00000743,0.00000967,-0.00000476,-0.00000362,0.00000082,-
 0.00000749,0.00000470,0.00000373,-0.00000630,-0.00000087,0.00000114,-0
 .00000493,-0.00000350,-0.00000066,-0.00000621,-0.00000088,-0.00000119,
 -0.00000753,0.00000477,-0.00000345\\\@


 HE THAT RISETH LATE MUST TROT ALL DAY.

                  -- BENJAMIN FRANKLIN
 Job cpu time:       0 days  3 hours  1 minutes 48.6 seconds.
 File lengths (MBytes):  RWF=    535 Int=      0 D2E=      0 Chk=     13 Scr=      1
 Normal termination of Gaussian 09 at Sun Dec 15 14:11:41 2024.
