 Entering Gaussian System, Link 0=g09
 Input=camb3lypDMANyanggd3.gjf
 Output=camb3lypDMANyanggd3.log
 Initial command:
 /home/c612/g09E/g09/l1.exe "/mnt/ja_sm883/scratch/Gau-269055.inp" -scrdir="/mnt/ja_sm883/scratch/"
 Default is to use a total of  18 processors:
                               18 via shared-memory
                                1 via Linda
 Entering Link 1 = /home/c612/g09E/g09/l1.exe PID=    269057.
  
 Copyright (c) 1988,1990,1992,1993,1995,1998,2003,2009,2015,
            Gaussian, Inc.  All Rights Reserved.
  
 This is part of the Gaussian(R) 09 program.  It is based on
 the Gaussian(R) 03 system (copyright 2003, Gaussian, Inc.),
 the Gaussian(R) 98 system (copyright 1998, Gaussian, Inc.),
 the Gaussian(R) 94 system (copyright 1995, Gaussian, Inc.),
 the Gaussian 92(TM) system (copyright 1992, Gaussian, Inc.),
 the Gaussian 90(TM) system (copyright 1990, Gaussian, Inc.),
 the Gaussian 88(TM) system (copyright 1988, Gaussian, Inc.),
 the Gaussian 86(TM) system (copyright 1986, Carnegie Mellon
 University), and the Gaussian 82(TM) system (copyright 1983,
 Carnegie Mellon University). Gaussian is a federally registered
 trademark of Gaussian, Inc.
  
 This software contains proprietary and confidential information,
 including trade secrets, belonging to Gaussian, Inc.
  
 This software is provided under written license and may be
 used, copied, transmitted, or stored only in accord with that
 written license.
  
 The following legend is applicable only to US Government
 contracts under FAR:
  
                    RESTRICTED RIGHTS LEGEND
  
 Use, reproduction and disclosure by the US Government is
 subject to restrictions as set forth in subparagraphs (a)
 and (c) of the Commercial Computer Software - Restricted
 Rights clause in FAR 52.227-19.
  
 Gaussian, Inc.
 340 Quinnipiac St., Bldg. 40, Wallingford CT 06492
  
  
 ---------------------------------------------------------------
 Warning -- This program may not be used in any manner that
 competes with the business of Gaussian, Inc. or will provide
 assistance to any competitor of Gaussian, Inc.  The licensee
 of this program is prohibited from giving any competitor of
 Gaussian, Inc. access to this program.  By using this program,
 the user acknowledges that Gaussian, Inc. is engaged in the
 business of creating and licensing software in the field of
 computational chemistry and represents and warrants to the
 licensee that it is not a competitor of Gaussian, Inc. and that
 it will not use this program in any manner prohibited above.
 ---------------------------------------------------------------
  

 Cite this work as:
 Gaussian 09, Revision E.01,
 M. J. Frisch, G. W. Trucks, H. B. Schlegel, G. E. Scuseria, 
 M. A. Robb, J. R. Cheeseman, G. Scalmani, V. Barone, B. Mennucci, 
 G. A. Petersson, H. Nakatsuji, M. Caricato, X. Li, H. P. Hratchian, 
 A. F. Izmaylov, J. Bloino, G. Zheng, J. L. Sonnenberg, M. Hada, 
 M. Ehara, K. Toyota, R. Fukuda, J. Hasegawa, M. Ishida, T. Nakajima, 
 Y. Honda, O. Kitao, H. Nakai, T. Vreven, J. A. Montgomery, Jr., 
 J. E. Peralta, F. Ogliaro, M. Bearpark, J. J. Heyd, E. Brothers, 
 K. N. Kudin, V. N. Staroverov, T. Keith, R. Kobayashi, J. Normand, 
 K. Raghavachari, A. Rendell, J. C. Burant, S. S. Iyengar, J. Tomasi, 
 M. Cossi, N. Rega, J. M. Millam, M. Klene, J. E. Knox, J. B. Cross, 
 V. Bakken, C. Adamo, J. Jaramillo, R. Gomperts, R. E. Stratmann, 
 O. Yazyev, A. J. Austin, R. Cammi, C. Pomelli, J. W. Ochterski, 
 R. L. Martin, K. Morokuma, V. G. Zakrzewski, G. A. Voth, 
 P. Salvador, J. J. Dannenberg, S. Dapprich, A. D. Daniels, 
 O. Farkas, J. B. Foresman, J. V. Ortiz, J. Cioslowski, 
 and D. J. Fox, Gaussian, Inc., Wallingford CT, 2013.
 
 ******************************************
 Gaussian 09:  ES64L-G09RevE.01 30-Nov-2015
                20-Jun-2024 
 ******************************************
 %chk=camb3lypDMANyanggd3.chk
 --------------------------------
 # opt freq cam-b3lyp/6-31+g(d,p)
 --------------------------------
 1/14=-1,18=20,19=15,26=3,38=1/1,3;
 2/9=110,12=2,17=6,18=5,40=1/2;
 3/5=1,6=6,7=111,11=2,16=1,25=1,30=1,71=1,74=-40/1,2,3;
 4//1;
 5/5=2,38=5/2;
 6/7=2,8=2,9=2,10=2,28=1/1;
 7//1,2,3,16;
 1/14=-1,18=20,19=15,26=3/3(2);
 2/9=110/2;
 99//99;
 2/9=110/2;
 3/5=1,6=6,7=111,11=2,16=1,25=1,30=1,71=1,74=-40/1,2,3;
 4/5=5,16=3,69=1/1;
 5/5=2,38=5/2;
 7//1,2,3,16;
 1/14=-1,18=20,19=15,26=3/3(-5);
 2/9=110/2;
 6/7=2,8=2,9=2,10=2,19=2,28=1/1;
 99/9=1/99;
 ----------
 [No Title]
 ----------
 Symbolic Z-matrix:
 Charge =  1 Multiplicity = 1
 C                     0.75411   2.44287  -0.00017 
 C                     2.16588   2.40539  -0.00016 
 C                     2.8141    1.19211  -0.00004 
 C                     2.09146  -0.03141   0.00006 
 C                     0.65068  -0.01536   0.00004 
 C                     0.0288    1.27311  -0.00008 
 C                     2.78091  -1.27338   0.00012 
 C                     2.09181  -2.46324   0.0002 
 C                     0.67909  -2.4572    0.00015 
 C                    -0.03422  -1.27606   0.00018 
 N                    -1.45356   1.33429   0.00005 
 N                    -1.49881  -1.28851  -0.00017 
 C                    -2.01917   1.95504   1.24123 
 C                    -2.01942   1.95559  -1.24077 
 C                    -2.06618  -1.90734  -1.22367 
 C                    -2.06694  -1.90709   1.22314 
 H                     0.24951   3.40417  -0.00033 
 H                     2.72647   3.33379  -0.00024 
 H                     3.89913   1.15209  -0.00001 
 H                     3.86656  -1.26519   0.00019 
 H                     2.62359  -3.40889   0.0002 
 H                     0.14855  -3.40434   0.00014 
 H                    -1.71405   0.25631  -0.00021 
 H                    -3.10466   1.83873   1.22724 
 H                    -1.59927   1.4493    2.11084 
 H                    -1.76488   3.0153    1.27851 
 H                    -3.10492   1.83938  -1.22654 
 H                    -1.59979   1.45012  -2.11067 
 H                    -1.76502   3.01584  -1.27773 
 H                    -1.63836  -1.43202  -2.10909 
 H                    -1.86009  -2.98356  -1.27343 
 H                    -3.15016  -1.76251  -1.22615 
 H                    -1.63942  -1.43178   2.10869 
 H                    -3.15089  -1.76207   1.22502 
 H                    -1.86112  -2.98336   1.27314 
 

 GradGradGradGradGradGradGradGradGradGradGradGradGradGradGradGradGradGrad
 Berny optimization.
 Initialization pass.
                           ----------------------------
                           !    Initial Parameters    !
                           ! (Angstroms and Degrees)  !
 --------------------------                            --------------------------
 ! Name  Definition              Value          Derivative Info.                !
 --------------------------------------------------------------------------------
 ! R1    R(1,2)                  1.4123         estimate D2E/DX2                !
 ! R2    R(1,6)                  1.3764         estimate D2E/DX2                !
 ! R3    R(1,17)                 1.0857         estimate D2E/DX2                !
 ! R4    R(2,3)                  1.3756         estimate D2E/DX2                !
 ! R5    R(2,18)                 1.0845         estimate D2E/DX2                !
 ! R6    R(3,4)                  1.421          estimate D2E/DX2                !
 ! R7    R(3,19)                 1.0858         estimate D2E/DX2                !
 ! R8    R(4,5)                  1.4409         estimate D2E/DX2                !
 ! R9    R(4,7)                  1.4205         estimate D2E/DX2                !
 ! R10   R(5,6)                  1.4307         estimate D2E/DX2                !
 ! R11   R(5,10)                 1.4347         estimate D2E/DX2                !
 ! R12   R(6,11)                 1.4836         estimate D2E/DX2                !
 ! R13   R(7,8)                  1.375          estimate D2E/DX2                !
 ! R14   R(7,20)                 1.0857         estimate D2E/DX2                !
 ! R15   R(8,9)                  1.4127         estimate D2E/DX2                !
 ! R16   R(8,21)                 1.0849         estimate D2E/DX2                !
 ! R17   R(9,10)                 1.3798         estimate D2E/DX2                !
 ! R18   R(9,22)                 1.0856         estimate D2E/DX2                !
 ! R19   R(10,12)                1.4646         estimate D2E/DX2                !
 ! R20   R(11,13)                1.4986         estimate D2E/DX2                !
 ! R21   R(11,14)                1.4986         estimate D2E/DX2                !
 ! R22   R(11,23)                1.109          estimate D2E/DX2                !
 ! R23   R(12,15)                1.4838         estimate D2E/DX2                !
 ! R24   R(12,16)                1.4839         estimate D2E/DX2                !
 ! R25   R(13,24)                1.0918         estimate D2E/DX2                !
 ! R26   R(13,25)                1.0901         estimate D2E/DX2                !
 ! R27   R(13,26)                1.091          estimate D2E/DX2                !
 ! R28   R(14,27)                1.0918         estimate D2E/DX2                !
 ! R29   R(14,28)                1.0901         estimate D2E/DX2                !
 ! R30   R(14,29)                1.091          estimate D2E/DX2                !
 ! R31   R(15,30)                1.0922         estimate D2E/DX2                !
 ! R32   R(15,31)                1.0969         estimate D2E/DX2                !
 ! R33   R(15,32)                1.0936         estimate D2E/DX2                !
 ! R34   R(16,33)                1.0922         estimate D2E/DX2                !
 ! R35   R(16,34)                1.0936         estimate D2E/DX2                !
 ! R36   R(16,35)                1.0969         estimate D2E/DX2                !
 ! A1    A(2,1,6)              120.2802         estimate D2E/DX2                !
 ! A2    A(2,1,17)             119.2163         estimate D2E/DX2                !
 ! A3    A(6,1,17)             120.5035         estimate D2E/DX2                !
 ! A4    A(1,2,3)              119.6353         estimate D2E/DX2                !
 ! A5    A(1,2,18)             119.6038         estimate D2E/DX2                !
 ! A6    A(3,2,18)             120.761          estimate D2E/DX2                !
 ! A7    A(2,3,4)              121.3184         estimate D2E/DX2                !
 ! A8    A(2,3,19)             120.2269         estimate D2E/DX2                !
 ! A9    A(4,3,19)             118.4548         estimate D2E/DX2                !
 ! A10   A(3,4,5)              119.9286         estimate D2E/DX2                !
 ! A11   A(3,4,7)              120.3972         estimate D2E/DX2                !
 ! A12   A(5,4,7)              119.6743         estimate D2E/DX2                !
 ! A13   A(4,5,6)              116.4029         estimate D2E/DX2                !
 ! A14   A(4,5,10)             117.8753         estimate D2E/DX2                !
 ! A15   A(6,5,10)             125.7218         estimate D2E/DX2                !
 ! A16   A(1,6,5)              122.4347         estimate D2E/DX2                !
 ! A17   A(1,6,11)             119.4375         estimate D2E/DX2                !
 ! A18   A(5,6,11)             118.1278         estimate D2E/DX2                !
 ! A19   A(4,7,8)              120.8874         estimate D2E/DX2                !
 ! A20   A(4,7,20)             118.6038         estimate D2E/DX2                !
 ! A21   A(8,7,20)             120.5088         estimate D2E/DX2                !
 ! A22   A(7,8,9)              119.8321         estimate D2E/DX2                !
 ! A23   A(7,8,21)             120.5724         estimate D2E/DX2                !
 ! A24   A(9,8,21)             119.5955         estimate D2E/DX2                !
 ! A25   A(8,9,10)             121.373          estimate D2E/DX2                !
 ! A26   A(8,9,22)             119.0104         estimate D2E/DX2                !
 ! A27   A(10,9,22)            119.6166         estimate D2E/DX2                !
 ! A28   A(5,10,9)             120.358          estimate D2E/DX2                !
 ! A29   A(5,10,12)            119.001          estimate D2E/DX2                !
 ! A30   A(9,10,12)            120.6409         estimate D2E/DX2                !
 ! A31   A(6,11,13)            113.2195         estimate D2E/DX2                !
 ! A32   A(6,11,14)            113.222          estimate D2E/DX2                !
 ! A33   A(6,11,23)            101.2218         estimate D2E/DX2                !
 ! A34   A(13,11,14)           111.809          estimate D2E/DX2                !
 ! A35   A(13,11,23)           108.311          estimate D2E/DX2                !
 ! A36   A(14,11,23)           108.3066         estimate D2E/DX2                !
 ! A37   A(10,12,15)           112.7121         estimate D2E/DX2                !
 ! A38   A(10,12,16)           112.7186         estimate D2E/DX2                !
 ! A39   A(15,12,16)           111.0698         estimate D2E/DX2                !
 ! A40   A(11,13,24)           108.6933         estimate D2E/DX2                !
 ! A41   A(11,13,25)           108.8534         estimate D2E/DX2                !
 ! A42   A(11,13,26)           110.0532         estimate D2E/DX2                !
 ! A43   A(24,13,25)           110.1065         estimate D2E/DX2                !
 ! A44   A(24,13,26)           109.6159         estimate D2E/DX2                !
 ! A45   A(25,13,26)           109.5026         estimate D2E/DX2                !
 ! A46   A(11,14,27)           108.6925         estimate D2E/DX2                !
 ! A47   A(11,14,28)           108.8525         estimate D2E/DX2                !
 ! A48   A(11,14,29)           110.0547         estimate D2E/DX2                !
 ! A49   A(27,14,28)           110.1069         estimate D2E/DX2                !
 ! A50   A(27,14,29)           109.6164         estimate D2E/DX2                !
 ! A51   A(28,14,29)           109.5021         estimate D2E/DX2                !
 ! A52   A(12,15,30)           109.704          estimate D2E/DX2                !
 ! A53   A(12,15,31)           112.0081         estimate D2E/DX2                !
 ! A54   A(12,15,32)           109.0045         estimate D2E/DX2                !
 ! A55   A(30,15,31)           108.4577         estimate D2E/DX2                !
 ! A56   A(30,15,32)           109.195          estimate D2E/DX2                !
 ! A57   A(31,15,32)           108.4252         estimate D2E/DX2                !
 ! A58   A(12,16,33)           109.7027         estimate D2E/DX2                !
 ! A59   A(12,16,34)           109.004          estimate D2E/DX2                !
 ! A60   A(12,16,35)           112.0091         estimate D2E/DX2                !
 ! A61   A(33,16,34)           109.2005         estimate D2E/DX2                !
 ! A62   A(33,16,35)           108.4568         estimate D2E/DX2                !
 ! A63   A(34,16,35)           108.4217         estimate D2E/DX2                !
 ! D1    D(6,1,2,3)             -0.0012         estimate D2E/DX2                !
 ! D2    D(6,1,2,18)           179.9998         estimate D2E/DX2                !
 ! D3    D(17,1,2,3)          -179.9965         estimate D2E/DX2                !
 ! D4    D(17,1,2,18)            0.0045         estimate D2E/DX2                !
 ! D5    D(2,1,6,5)              0.0006         estimate D2E/DX2                !
 ! D6    D(2,1,6,11)           179.9941         estimate D2E/DX2                !
 ! D7    D(17,1,6,5)           179.9959         estimate D2E/DX2                !
 ! D8    D(17,1,6,11)           -0.0106         estimate D2E/DX2                !
 ! D9    D(1,2,3,4)              0.0013         estimate D2E/DX2                !
 ! D10   D(1,2,3,19)          -179.9986         estimate D2E/DX2                !
 ! D11   D(18,2,3,4)          -179.9997         estimate D2E/DX2                !
 ! D12   D(18,2,3,19)            0.0004         estimate D2E/DX2                !
 ! D13   D(2,3,4,5)             -0.0009         estimate D2E/DX2                !
 ! D14   D(2,3,4,7)            179.997          estimate D2E/DX2                !
 ! D15   D(19,3,4,5)           179.999          estimate D2E/DX2                !
 ! D16   D(19,3,4,7)            -0.0031         estimate D2E/DX2                !
 ! D17   D(3,4,5,6)              0.0003         estimate D2E/DX2                !
 ! D18   D(3,4,5,10)          -179.9981         estimate D2E/DX2                !
 ! D19   D(7,4,5,6)           -179.9976         estimate D2E/DX2                !
 ! D20   D(7,4,5,10)             0.004          estimate D2E/DX2                !
 ! D21   D(3,4,7,8)           -179.9996         estimate D2E/DX2                !
 ! D22   D(3,4,7,20)             0.0057         estimate D2E/DX2                !
 ! D23   D(5,4,7,8)             -0.0017         estimate D2E/DX2                !
 ! D24   D(5,4,7,20)          -179.9965         estimate D2E/DX2                !
 ! D25   D(4,5,6,1)             -0.0001         estimate D2E/DX2                !
 ! D26   D(4,5,6,11)          -179.9938         estimate D2E/DX2                !
 ! D27   D(10,5,6,1)           179.9981         estimate D2E/DX2                !
 ! D28   D(10,5,6,11)            0.0045         estimate D2E/DX2                !
 ! D29   D(4,5,10,9)            -0.0082         estimate D2E/DX2                !
 ! D30   D(4,5,10,12)         -179.9848         estimate D2E/DX2                !
 ! D31   D(6,5,10,9)           179.9936         estimate D2E/DX2                !
 ! D32   D(6,5,10,12)            0.017          estimate D2E/DX2                !
 ! D33   D(1,6,11,13)          -64.3173         estimate D2E/DX2                !
 ! D34   D(1,6,11,14)           64.2888         estimate D2E/DX2                !
 ! D35   D(1,6,11,23)          179.9838         estimate D2E/DX2                !
 ! D36   D(5,6,11,13)          115.6765         estimate D2E/DX2                !
 ! D37   D(5,6,11,14)         -115.7174         estimate D2E/DX2                !
 ! D38   D(5,6,11,23)           -0.0224         estimate D2E/DX2                !
 ! D39   D(4,7,8,9)              0.0033         estimate D2E/DX2                !
 ! D40   D(4,7,8,21)           179.997          estimate D2E/DX2                !
 ! D41   D(20,7,8,9)           179.998          estimate D2E/DX2                !
 ! D42   D(20,7,8,21)           -0.0083         estimate D2E/DX2                !
 ! D43   D(7,8,9,10)            -0.0077         estimate D2E/DX2                !
 ! D44   D(7,8,9,22)           179.9954         estimate D2E/DX2                !
 ! D45   D(21,8,9,10)          179.9986         estimate D2E/DX2                !
 ! D46   D(21,8,9,22)            0.0016         estimate D2E/DX2                !
 ! D47   D(8,9,10,5)             0.0102         estimate D2E/DX2                !
 ! D48   D(8,9,10,12)          179.9863         estimate D2E/DX2                !
 ! D49   D(22,9,10,5)         -179.9929         estimate D2E/DX2                !
 ! D50   D(22,9,10,12)          -0.0167         estimate D2E/DX2                !
 ! D51   D(5,10,12,15)         116.6371         estimate D2E/DX2                !
 ! D52   D(5,10,12,16)        -116.6538         estimate D2E/DX2                !
 ! D53   D(9,10,12,15)         -63.3395         estimate D2E/DX2                !
 ! D54   D(9,10,12,16)          63.3697         estimate D2E/DX2                !
 ! D55   D(6,11,13,24)        -172.2775         estimate D2E/DX2                !
 ! D56   D(6,11,13,25)         -52.3422         estimate D2E/DX2                !
 ! D57   D(6,11,13,26)          67.6703         estimate D2E/DX2                !
 ! D58   D(14,11,13,24)         58.3922         estimate D2E/DX2                !
 ! D59   D(14,11,13,25)        178.3276         estimate D2E/DX2                !
 ! D60   D(14,11,13,26)        -61.6599         estimate D2E/DX2                !
 ! D61   D(23,11,13,24)        -60.8685         estimate D2E/DX2                !
 ! D62   D(23,11,13,25)         59.0669         estimate D2E/DX2                !
 ! D63   D(23,11,13,26)        179.0794         estimate D2E/DX2                !
 ! D64   D(6,11,14,27)         172.2863         estimate D2E/DX2                !
 ! D65   D(6,11,14,28)          52.3516         estimate D2E/DX2                !
 ! D66   D(6,11,14,29)         -67.6606         estimate D2E/DX2                !
 ! D67   D(13,11,14,27)        -58.3847         estimate D2E/DX2                !
 ! D68   D(13,11,14,28)       -178.3194         estimate D2E/DX2                !
 ! D69   D(13,11,14,29)         61.6684         estimate D2E/DX2                !
 ! D70   D(23,11,14,27)         60.8785         estimate D2E/DX2                !
 ! D71   D(23,11,14,28)        -59.0562         estimate D2E/DX2                !
 ! D72   D(23,11,14,29)       -179.0684         estimate D2E/DX2                !
 ! D73   D(10,12,15,30)        -52.7736         estimate D2E/DX2                !
 ! D74   D(10,12,15,31)         67.7225         estimate D2E/DX2                !
 ! D75   D(10,12,15,32)       -172.2926         estimate D2E/DX2                !
 ! D76   D(16,12,15,30)        179.6425         estimate D2E/DX2                !
 ! D77   D(16,12,15,31)        -59.8613         estimate D2E/DX2                !
 ! D78   D(16,12,15,32)         60.1236         estimate D2E/DX2                !
 ! D79   D(10,12,16,33)         52.76           estimate D2E/DX2                !
 ! D80   D(10,12,16,34)        172.2846         estimate D2E/DX2                !
 ! D81   D(10,12,16,35)        -67.7347         estimate D2E/DX2                !
 ! D82   D(15,12,16,33)       -179.6596         estimate D2E/DX2                !
 ! D83   D(15,12,16,34)        -60.135          estimate D2E/DX2                !
 ! D84   D(15,12,16,35)         59.8457         estimate D2E/DX2                !
 --------------------------------------------------------------------------------
 Trust Radius=3.00D-01 FncErr=1.00D-07 GrdErr=1.00D-06
 Number of steps in this run=    193 maximum allowed number of steps=    210.
 GradGradGradGradGradGradGradGradGradGradGradGradGradGradGradGradGradGrad

                          Input orientation:                          
 ---------------------------------------------------------------------
 Center     Atomic      Atomic             Coordinates (Angstroms)
 Number     Number       Type             X           Y           Z
 ---------------------------------------------------------------------
      1          6           0        0.754106    2.442870   -0.000170
      2          6           0        2.165876    2.405390   -0.000163
      3          6           0        2.814104    1.192108   -0.000039
      4          6           0        2.091463   -0.031414    0.000055
      5          6           0        0.650676   -0.015357    0.000040
      6          6           0        0.028796    1.273106   -0.000078
      7          6           0        2.780908   -1.273378    0.000118
      8          6           0        2.091812   -2.463237    0.000200
      9          6           0        0.679085   -2.457201    0.000151
     10          6           0       -0.034220   -1.276056    0.000179
     11          7           0       -1.453557    1.334287    0.000045
     12          7           0       -1.498805   -1.288512   -0.000173
     13          6           0       -2.019166    1.955044    1.241233
     14          6           0       -2.019416    1.955593   -1.240774
     15          6           0       -2.066185   -1.907336   -1.223670
     16          6           0       -2.066942   -1.907088    1.223139
     17          1           0        0.249507    3.404171   -0.000326
     18          1           0        2.726466    3.333793   -0.000239
     19          1           0        3.899128    1.152088   -0.000009
     20          1           0        3.866559   -1.265194    0.000187
     21          1           0        2.623586   -3.408886    0.000199
     22          1           0        0.148549   -3.404340    0.000140
     23          1           0       -1.714052    0.256312   -0.000213
     24          1           0       -3.104662    1.838729    1.227242
     25          1           0       -1.599266    1.449297    2.110841
     26          1           0       -1.764879    3.015303    1.278507
     27          1           0       -3.104917    1.839383   -1.226542
     28          1           0       -1.599788    1.450119   -2.110673
     29          1           0       -1.765023    3.015838   -1.277734
     30          1           0       -1.638357   -1.432022   -2.109086
     31          1           0       -1.860088   -2.983560   -1.273432
     32          1           0       -3.150157   -1.762505   -1.226151
     33          1           0       -1.639417   -1.431781    2.108691
     34          1           0       -3.150889   -1.762074    1.225023
     35          1           0       -1.861119   -2.983361    1.273137
 ---------------------------------------------------------------------
                    Distance matrix (angstroms):
                    1          2          3          4          5
     1  C    0.000000
     2  C    1.412267   0.000000
     3  C    2.409979   1.375592   0.000000
     4  C    2.812580   2.437940   1.420991   0.000000
     5  C    2.460402   2.855844   2.477578   1.440876   0.000000
     6  C    1.376380   2.418507   2.786485   2.440567   1.430689
     7  C    4.233016   3.729826   2.465709   1.420496   2.473965
     8  C    5.085208   4.869190   3.726024   2.431823   2.840597
     9  C    4.900645   5.084815   4.227974   2.807001   2.442009
    10  C    3.801561   4.288761   3.768923   2.463262   1.434728
    11  N    2.470371   3.774594   4.270029   3.798987   2.499867
    12  N    4.358764   5.203345   4.975405   3.803987   2.498238
    13  C    3.077352   4.388445   5.048101   4.731153   3.542753
    14  C    3.077168   4.388405   5.048292   4.731509   3.543114
    15  C    5.326846   6.164975   5.909403   4.722565   3.529644
    16  C    5.327000   6.165280   5.909805   4.722967   3.529882
    17  H    1.085689   2.161026   3.386795   3.898211   3.442980
    18  H    2.164243   1.084524   2.143477   3.424594   3.940268
    19  H    3.399600   2.138908   1.085762   2.160632   3.451864
    20  H    4.841188   4.045431   2.673199   2.161754   3.450217
    21  H    6.143127   5.832264   4.604937   3.419133   3.925355
    22  H    5.878483   6.150006   5.313428   3.892499   3.425980
    23  H    3.297399   4.435355   4.623842   3.816377   2.380282
    24  H    4.094095   5.441158   6.079155   5.657132   4.364198
    25  H    3.313897   4.421170   4.898959   4.502155   3.415103
    26  H    2.882357   4.178256   5.091739   5.078218   4.080966
    27  H    4.093928   5.441105   6.079316   5.657454   4.364521
    28  H    3.313698   4.421201   4.899366   4.502827   3.415746
    29  H    2.882095   4.178134   5.091846   5.078481   4.081232
    30  H    5.018585   5.800472   5.581984   4.507964   3.419799
    31  H    6.156407   6.846195   6.395765   5.094280   4.090953
    32  H    5.867834   6.865464   6.767976   5.654630   4.359174
    33  H    5.018881   5.800983   5.582597   4.508530   3.420116
    34  H    5.867848   6.865626   6.768243   5.654908   4.359300
    35  H    6.156679   6.846650   6.396345   5.094863   4.091325
                    6          7          8          9         10
     6  C    0.000000
     7  C    3.749493   0.000000
     8  C    4.268055   1.374997   0.000000
     9  C    3.786564   2.412280   1.412740   0.000000
    10  C    2.549941   2.815129   2.435038   1.379822   0.000000
    11  N    1.483615   4.972988   5.195270   4.350120   2.971264
    12  N    2.982524   4.279740   3.777897   2.471647   1.464638
    13  C    2.489988   5.916400   6.161291   5.318717   3.990017
    14  C    2.490038   5.916855   6.161840   5.319262   3.990554
    15  C    4.000167   5.039233   4.369877   3.055585   2.454629
    16  C    4.000251   5.039744   4.370368   3.055976   2.454749
    17  H    2.142464   5.318595   6.149843   5.877093   4.688819
    18  H    3.394680   4.607493   5.831667   6.142262   5.373276
    19  H    3.872224   2.670824   4.041901   4.836904   4.622457
    20  H    4.601238   1.085682   2.141269   3.403068   3.900794
    21  H    5.352942   2.141295   1.084913   2.164899   3.407770
    22  H    4.678979   3.386785   2.159154   1.085606   2.136117
    23  H    2.017768   4.748117   4.677665   3.618046   2.273761
    24  H    3.412448   6.769858   6.856813   5.854700   4.542597
    25  H    2.671630   5.572615   5.778130   4.990653   3.785738
    26  H    2.808434   6.378969   6.820743   6.128250   4.800528
    27  H    3.412483   6.770296   6.857363   5.855261   4.543125
    28  H    2.671747   5.573452   5.779105   4.991592   3.786651
    29  H    2.808435   6.379323   6.821184   6.128687   4.800947
    30  H    3.813795   4.899369   4.407568   3.297031   2.654539
    31  H    4.827890   5.107396   4.184542   2.889025   2.805610
    32  H    4.563325   6.076225   5.428923   4.080382   3.383723
    33  H    3.813955   4.900045   4.408141   3.297405   2.654568
    34  H    4.563287   6.076630   5.429340   4.080712   3.383797
    35  H    4.828081   5.108134   4.185279   2.889632   2.805864
                   11         12         13         14         15
    11  N    0.000000
    12  N    2.623189   0.000000
    13  C    1.498599   3.511769   0.000000
    14  C    1.498616   3.512028   2.482007   0.000000
    15  C    3.518652   1.483849   4.582132   3.863250   0.000000
    16  C    3.518339   1.483883   3.862470   4.581859   2.446809
    17  H    2.680456   5.007781   2.964509   2.963967   5.922086
    18  H    4.633640   6.262477   5.095412   5.095268   7.206644
    19  H    5.355785   5.924037   6.100133   6.100351   6.814865
    20  H    5.921228   5.365415   6.822894   6.823354   6.091603
    21  H    6.254661   4.635741   7.201879   7.202438   5.074097
    22  H    5.002132   2.681511   5.912892   5.913444   2.940030
    23  H    1.109003   1.559748   2.126023   2.125981   2.510422
    24  H    2.118165   3.723568   1.091800   2.698614   4.595477
    25  H    2.118943   3.458623   1.090098   3.415580   4.754362
    26  H    2.134760   4.497626   1.090963   2.744914   5.530285
    27  H    2.118166   3.723883   2.698545   1.091797   3.888043
    28  H    2.118946   3.458975   3.415567   1.090099   3.503827
    29  H    2.134794   4.497829   2.745008   1.090963   4.932673
    30  H    3.483540   2.118392   4.779317   3.517827   1.092210
    31  H    4.520046   2.150558   5.544245   4.941830   1.096909
    32  H    3.737931   2.110605   4.602966   3.886263   1.093608
    33  H    3.483111   2.118397   3.516714   4.778872   3.393068
    34  H    3.737507   2.110627   3.885618   4.602329   2.682123
    35  H    4.519840   2.150605   4.941036   5.544193   2.726523
                   16         17         18         19         20
    16  C    0.000000
    17  H    5.922185   0.000000
    18  H    7.206958   2.477959   0.000000
    19  H    6.815324   4.288544   2.476888   0.000000
    20  H    6.092132   5.906440   4.738195   2.417501   0.000000
    21  H    5.074646   7.214846   6.743464   4.735978   2.477982
    22  H    2.940390   6.809259   7.214436   5.901515   4.289469
    23  H    2.510263   3.710065   5.402693   5.684207   5.784306
    24  H    3.886904   3.899741   6.143613   7.143577   7.729031
    25  H    3.503149   3.420018   5.169134   5.897148   6.457443
    26  H    4.931961   2.417516   4.680684   6.098127   7.188174
    27  H    4.595038   3.899273   6.143461   7.143767   7.729472
    28  H    4.754301   3.419324   5.169007   5.897610   6.458297
    29  H    5.529984   2.416796   4.680445   6.098258   7.188535
    30  H    3.393095   5.603540   6.797934   6.464485   5.897539
    31  H    2.726618   6.846481   7.909896   7.203732   6.113049
    32  H    2.682029   6.305149   7.874631   7.725975   7.140415
    33  H    1.092198   5.603786   6.798472   6.465174   5.898247
    34  H    1.093606   6.305098   7.874797   7.726305   7.140847
    35  H    1.096917   6.846679   7.910364   7.204393   6.113820
                   21         22         23         24         25
    21  H    0.000000
    22  H    2.475041   0.000000
    23  H    5.678801   4.107269   0.000000
    24  H    7.864854   6.291179   2.438132   0.000000
    25  H    6.774159   5.573841   2.427537   1.788469   0.000000
    26  H    7.884345   6.819622   3.041338   1.783809   1.781174
    27  H    7.865429   6.291774   2.438135   2.453784   3.682021
    28  H    6.775146   5.574763   2.427400   3.682029   4.221514
    29  H    7.884801   6.820074   3.041322   3.074918   3.736839
    30  H    5.149877   3.395866   2.702507   4.896830   5.109923
    31  H    4.680424   2.415298   3.484133   5.572863   5.583149
    32  H    6.127855   3.883410   2.764226   4.357762   4.884307
    33  H    5.150522   3.396145   2.702352   3.690546   2.881359
    34  H    6.128356   3.883770   2.763980   3.601100   3.674930
    35  H    4.681241   2.415887   3.484039   4.980066   4.518714
                   26         27         28         29         30
    26  H    0.000000
    27  H    3.074697   0.000000
    28  H    3.736790   1.788471   0.000000
    29  H    2.556241   1.783811   1.781170   0.000000
    30  H    5.592003   3.692123   2.882399   4.526660   0.000000
    31  H    6.519802   4.981222   4.519540   6.000153   1.776162
    32  H    5.569538   3.602172   3.675184   4.975321   1.781666
    33  H    4.525649   4.896119   5.109790   5.591508   4.217777
    34  H    4.974657   4.356923   4.883745   5.568919   3.675999
    35  H    5.999438   5.572637   5.583387   6.519706   3.727695
                   31         32         33         34         35
    31  H    0.000000
    32  H    1.776932   0.000000
    33  H    3.727663   3.675988   0.000000
    34  H    3.066019   2.451174   1.781716   0.000000
    35  H    2.546569   3.065705   1.776148   1.776897   0.000000
 Stoichiometry    C14H19N2(1+)
 Framework group  C1[X(C14H19N2)]
 Deg. of freedom    99
 Full point group                 C1      NOp   1
 Largest Abelian subgroup         C1      NOp   1
 Largest concise Abelian subgroup C1      NOp   1
                         Standard orientation:                         
 ---------------------------------------------------------------------
 Center     Atomic      Atomic             Coordinates (Angstroms)
 Number     Number       Type             X           Y           Z
 ---------------------------------------------------------------------
      1          6           0        0.754108   -2.442869    0.000170
      2          6           0        2.165878   -2.405388    0.000163
      3          6           0        2.814105   -1.192105    0.000039
      4          6           0        2.091463    0.031416   -0.000055
      5          6           0        0.650676    0.015358   -0.000040
      6          6           0        0.028797   -1.273106    0.000078
      7          6           0        2.780906    1.273381   -0.000118
      8          6           0        2.091809    2.463239   -0.000200
      9          6           0        0.679082    2.457202   -0.000151
     10          6           0       -0.034222    1.276056   -0.000179
     11          7           0       -1.453556   -1.334289   -0.000045
     12          7           0       -1.498807    1.288510    0.000173
     13          6           0       -2.019164   -1.955046   -1.241233
     14          6           0       -2.019414   -1.955595    1.240774
     15          6           0       -2.066187    1.907334    1.223670
     16          6           0       -2.066944    1.907086   -1.223139
     17          1           0        0.249510   -3.404171    0.000326
     18          1           0        2.726469   -3.333790    0.000239
     19          1           0        3.899129   -1.152084    0.000009
     20          1           0        3.866557    1.265198   -0.000187
     21          1           0        2.623582    3.408889   -0.000199
     22          1           0        0.148545    3.404340   -0.000140
     23          1           0       -1.714052   -0.256314    0.000213
     24          1           0       -3.104660   -1.838732   -1.227242
     25          1           0       -1.599265   -1.449299   -2.110841
     26          1           0       -1.764876   -3.015305   -1.278507
     27          1           0       -3.104915   -1.839386    1.226542
     28          1           0       -1.599787   -1.450121    2.110673
     29          1           0       -1.765020   -3.015840    1.277734
     30          1           0       -1.638359    1.432020    2.109086
     31          1           0       -1.860091    2.983558    1.273432
     32          1           0       -3.150159    1.762502    1.226151
     33          1           0       -1.639419    1.431779   -2.108691
     34          1           0       -3.150891    1.762071   -1.225023
     35          1           0       -1.861122    2.983359   -1.273137
 ---------------------------------------------------------------------
 Rotational constants (GHZ):      0.6321079      0.6004887      0.3523706
 Standard basis: 6-31+G(d,p) (6D, 7F)
 There are   399 symmetry adapted cartesian basis functions of A   symmetry.
 There are   399 symmetry adapted basis functions of A   symmetry.
   399 basis functions,   645 primitive gaussians,   399 cartesian basis functions
    58 alpha electrons       58 beta electrons
       nuclear repulsion energy      1134.6796735213 Hartrees.
 NAtoms=   35 NActive=   35 NUniq=   35 SFac= 1.00D+00 NAtFMM=   60 NAOKFM=F Big=F
 Integral buffers will be    131072 words long.
 Raffenetti 2 integral format.
 Two-electron integral symmetry is turned on.
 One-electron integrals computed using PRISM.
 NBasis=   399 RedAO= T EigKep=  1.62D-06  NBF=   399
 NBsUse=   395 1.00D-06 EigRej=  8.52D-07 NBFU=   395
 ExpMin= 4.38D-02 ExpMax= 4.17D+03 ExpMxC= 6.27D+02 IAcc=2 IRadAn=         4 AccDes= 0.00D+00
 Harris functional with IExCor=20419 and IRadAn=       4 diagonalized for initial guess.
 HarFok:  IExCor=20419 AccDes= 0.00D+00 IRadAn=         4 IDoV= 1 UseB2=F ITyADJ=14
 ICtDFT=  3500011 ScaDFX=  1.000000  1.000000  1.000000  1.000000
 FoFCou: FMM=F IPFlag=           0 FMFlag=      100000 FMFlg1=           0
         NFxFlg=           0 DoJE=T BraDBF=F KetDBF=T FulRan=T
         wScrn=  0.000000 ICntrl=     500 IOpCl=  0 I1Cent=   200000004 NGrid=           0
         NMat0=    1 NMatS0=      1 NMatT0=    0 NMatD0=    1 NMtDS0=    0 NMtDT0=    0
 Petite list used in FoFCou.
 Requested convergence on RMS density matrix=1.00D-08 within 128 cycles.
 Requested convergence on MAX density matrix=1.00D-06.
 Requested convergence on             energy=1.00D-06.
 No special actions if energy rises.
 SCF Done:  E(RCAM-B3LYP) =  -653.879148192     A.U. after   15 cycles
            NFock= 15  Conv=0.43D-08     -V/T= 2.0097

 **********************************************************************

            Population analysis using the SCF density.

 **********************************************************************

 Orbital symmetries:
       Occupied  (A) (A) (A) (A) (A) (A) (A) (A) (A) (A) (A) (A)
                 (A) (A) (A) (A) (A) (A) (A) (A) (A) (A) (A) (A)
                 (A) (A) (A) (A) (A) (A) (A) (A) (A) (A) (A) (A)
                 (A) (A) (A) (A) (A) (A) (A) (A) (A) (A) (A) (A)
                 (A) (A) (A) (A) (A) (A) (A) (A) (A) (A)
       Virtual   (A) (A) (A) (A) (A) (A) (A) (A) (A) (A) (A) (A)
                 (A) (A) (A) (A) (A) (A) (A) (A) (A) (A) (A) (A)
                 (A) (A) (A) (A) (A) (A) (A) (A) (A) (A) (A) (A)
                 (A) (A) (A) (A) (A) (A) (A) (A) (A) (A) (A) (A)
                 (A) (A) (A) (A) (A) (A) (A) (A) (A) (A) (A) (A)
                 (A) (A) (A) (A) (A) (A) (A) (A) (A) (A) (A) (A)
                 (A) (A) (A) (A) (A) (A) (A) (A) (A) (A) (A) (A)
                 (A) (A) (A) (A) (A) (A) (A) (A) (A) (A) (A) (A)
                 (A) (A) (A) (A) (A) (A) (A) (A) (A) (A) (A) (A)
                 (A) (A) (A) (A) (A) (A) (A) (A) (A) (A) (A) (A)
                 (A) (A) (A) (A) (A) (A) (A) (A) (A) (A) (A) (A)
                 (A) (A) (A) (A) (A) (A) (A) (A) (A) (A) (A) (A)
                 (A) (A) (A) (A) (A) (A) (A) (A) (A) (A) (A) (A)
                 (A) (A) (A) (A) (A) (A) (A) (A) (A) (A) (A) (A)
                 (A) (A) (A) (A) (A) (A) (A) (A) (A) (A) (A) (A)
                 (A) (A) (A) (A) (A) (A) (A) (A) (A) (A) (A) (A)
                 (A) (A) (A) (A) (A) (A) (A) (A) (A) (A) (A) (A)
                 (A) (A) (A) (A) (A) (A) (A) (A) (A) (A) (A) (A)
                 (A) (A) (A) (A) (A) (A) (A) (A) (A) (A) (A) (A)
                 (A) (A) (A) (A) (A) (A) (A) (A) (A) (A) (A) (A)
                 (A) (A) (A) (A) (A) (A) (A) (A) (A) (A) (A) (A)
                 (A) (A) (A) (A) (A) (A) (A) (A) (A) (A) (A) (A)
                 (A) (A) (A) (A) (A) (A) (A) (A) (A) (A) (A) (A)
                 (A) (A) (A) (A) (A) (A) (A) (A) (A) (A) (A) (A)
                 (A) (A) (A) (A) (A) (A) (A) (A) (A) (A) (A) (A)
                 (A) (A) (A) (A) (A) (A) (A) (A) (A) (A) (A) (A)
                 (A) (A) (A) (A) (A) (A) (A) (A) (A) (A) (A) (A)
                 (A) (A) (A) (A) (A) (A) (A) (A) (A) (A) (A) (A)
                 (A)
 The electronic state is 1-A.
 Alpha  occ. eigenvalues --  -14.64778 -14.57773 -10.45566 -10.45073 -10.45073
 Alpha  occ. eigenvalues --  -10.43990 -10.42603 -10.41933 -10.41932 -10.41479
 Alpha  occ. eigenvalues --  -10.41299 -10.40200 -10.40071 -10.39997 -10.39532
 Alpha  occ. eigenvalues --  -10.39453  -1.22504  -1.16349  -1.09152  -1.03939
 Alpha  occ. eigenvalues --   -0.99399  -0.96475  -0.96386  -0.94278  -0.92812
 Alpha  occ. eigenvalues --   -0.90422  -0.86835  -0.84187  -0.82243  -0.79262
 Alpha  occ. eigenvalues --   -0.75443  -0.73522  -0.72831  -0.70491  -0.70181
 Alpha  occ. eigenvalues --   -0.69189  -0.66494  -0.66393  -0.66027  -0.63947
 Alpha  occ. eigenvalues --   -0.63388  -0.63144  -0.61860  -0.61437  -0.60762
 Alpha  occ. eigenvalues --   -0.60143  -0.59180  -0.59065  -0.58649  -0.57295
 Alpha  occ. eigenvalues --   -0.57157  -0.54417  -0.53758  -0.52619  -0.47999
 Alpha  occ. eigenvalues --   -0.44986  -0.43331  -0.40193
 Alpha virt. eigenvalues --   -0.14223  -0.11006  -0.09127  -0.07266  -0.06954
 Alpha virt. eigenvalues --   -0.06413  -0.06153  -0.05384  -0.04944  -0.04295
 Alpha virt. eigenvalues --   -0.04083  -0.03958  -0.02808  -0.02444  -0.02107
 Alpha virt. eigenvalues --   -0.01573  -0.00902  -0.00858  -0.00325  -0.00126
 Alpha virt. eigenvalues --    0.00317   0.00456   0.00779   0.00819   0.02246
 Alpha virt. eigenvalues --    0.03174   0.03492   0.04127   0.04338   0.04726
 Alpha virt. eigenvalues --    0.05221   0.05401   0.05947   0.06148   0.06823
 Alpha virt. eigenvalues --    0.07383   0.07506   0.07928   0.08015   0.09114
 Alpha virt. eigenvalues --    0.09746   0.10030   0.10105   0.10390   0.10835
 Alpha virt. eigenvalues --    0.10980   0.11535   0.12025   0.12339   0.12561
 Alpha virt. eigenvalues --    0.12675   0.13267   0.13576   0.14098   0.14328
 Alpha virt. eigenvalues --    0.15412   0.15671   0.16714   0.17024   0.17276
 Alpha virt. eigenvalues --    0.17287   0.17666   0.18605   0.18783   0.19105
 Alpha virt. eigenvalues --    0.19589   0.19603   0.19762   0.20208   0.20519
 Alpha virt. eigenvalues --    0.20918   0.21122   0.21250   0.21277   0.22346
 Alpha virt. eigenvalues --    0.22743   0.23428   0.24376   0.24547   0.26306
 Alpha virt. eigenvalues --    0.26511   0.27102   0.27354   0.27795   0.27903
 Alpha virt. eigenvalues --    0.30000   0.31449   0.31564   0.31879   0.32642
 Alpha virt. eigenvalues --    0.33795   0.34122   0.37064   0.37355   0.37993
 Alpha virt. eigenvalues --    0.40632   0.45505   0.46782   0.48601   0.54844
 Alpha virt. eigenvalues --    0.57062   0.57994   0.58614   0.58891   0.60119
 Alpha virt. eigenvalues --    0.60175   0.61759   0.62276   0.64056   0.64487
 Alpha virt. eigenvalues --    0.64746   0.65734   0.66546   0.66939   0.67710
 Alpha virt. eigenvalues --    0.69191   0.69897   0.70314   0.71022   0.71182
 Alpha virt. eigenvalues --    0.72105   0.72528   0.72940   0.73972   0.74588
 Alpha virt. eigenvalues --    0.76621   0.77833   0.79331   0.79680   0.80126
 Alpha virt. eigenvalues --    0.81837   0.82667   0.83688   0.84970   0.85473
 Alpha virt. eigenvalues --    0.87008   0.88253   0.88469   0.90185   0.90564
 Alpha virt. eigenvalues --    0.90974   0.91307   0.92776   0.93715   0.94134
 Alpha virt. eigenvalues --    0.95065   0.95623   0.96758   0.97338   0.97860
 Alpha virt. eigenvalues --    0.98480   0.99484   1.01012   1.03852   1.05095
 Alpha virt. eigenvalues --    1.05858   1.07637   1.08108   1.09351   1.09946
 Alpha virt. eigenvalues --    1.10331   1.11925   1.12313   1.12881   1.15101
 Alpha virt. eigenvalues --    1.15781   1.17165   1.19343   1.20830   1.21045
 Alpha virt. eigenvalues --    1.21405   1.23691   1.24822   1.25428   1.28254
 Alpha virt. eigenvalues --    1.28780   1.31816   1.34023   1.35127   1.35715
 Alpha virt. eigenvalues --    1.35793   1.36713   1.38644   1.40151   1.42541
 Alpha virt. eigenvalues --    1.43547   1.46517   1.46595   1.48224   1.48539
 Alpha virt. eigenvalues --    1.50958   1.52145   1.52351   1.62050   1.67606
 Alpha virt. eigenvalues --    1.70799   1.70806   1.71593   1.74295   1.75376
 Alpha virt. eigenvalues --    1.77575   1.79717   1.80721   1.82275   1.83247
 Alpha virt. eigenvalues --    1.84833   1.85068   1.86083   1.86133   1.87226
 Alpha virt. eigenvalues --    1.87875   1.89559   1.90850   1.92780   1.93521
 Alpha virt. eigenvalues --    1.93522   1.94427   1.94781   1.95208   1.96595
 Alpha virt. eigenvalues --    1.96883   1.98093   1.98242   1.99003   2.02039
 Alpha virt. eigenvalues --    2.02354   2.02761   2.03603   2.03995   2.05887
 Alpha virt. eigenvalues --    2.06798   2.07233   2.08145   2.09349   2.10232
 Alpha virt. eigenvalues --    2.10828   2.11608   2.16782   2.18142   2.19392
 Alpha virt. eigenvalues --    2.22344   2.22480   2.24463   2.26955   2.28459
 Alpha virt. eigenvalues --    2.29347   2.31760   2.33013   2.33395   2.34747
 Alpha virt. eigenvalues --    2.35321   2.35343   2.36760   2.37218   2.39342
 Alpha virt. eigenvalues --    2.40535   2.44521   2.45271   2.46329   2.46673
 Alpha virt. eigenvalues --    2.50472   2.51423   2.51935   2.53642   2.53955
 Alpha virt. eigenvalues --    2.54371   2.55287   2.56511   2.57908   2.59895
 Alpha virt. eigenvalues --    2.60279   2.63052   2.63112   2.64643   2.64906
 Alpha virt. eigenvalues --    2.65748   2.66803   2.68244   2.68493   2.68736
 Alpha virt. eigenvalues --    2.70224   2.72235   2.74163   2.75115   2.79382
 Alpha virt. eigenvalues --    2.80039   2.80485   2.81279   2.83658   2.83735
 Alpha virt. eigenvalues --    2.84636   2.87369   2.88506   2.92961   2.95689
 Alpha virt. eigenvalues --    3.00420   3.04044   3.05985   3.12596   3.14882
 Alpha virt. eigenvalues --    3.20454   3.20797   3.21168   3.22313   3.22791
 Alpha virt. eigenvalues --    3.24044   3.27413   3.31076   3.32549   3.34541
 Alpha virt. eigenvalues --    3.38048   3.38181   3.38855   3.39941   3.40498
 Alpha virt. eigenvalues --    3.43022   3.44512   3.48728   3.57645   3.71668
 Alpha virt. eigenvalues --    3.79571   4.22466   4.27214   4.28276   4.33487
 Alpha virt. eigenvalues --    4.36701   4.39181   4.42034   4.46840   4.46934
 Alpha virt. eigenvalues --    4.49520   4.52252   4.57983   4.61219   4.64590
 Alpha virt. eigenvalues --    4.66379   4.87697
          Condensed to atoms (all electrons):
               1          2          3          4          5          6
     1  C    6.750433   0.888729  -1.830551   0.380733   0.165415  -1.161639
     2  C    0.888729   6.132878  -0.691346  -0.298344   0.461052  -0.788785
     3  C   -1.830551  -0.691346  12.348747  -3.170073  -3.039998   2.075470
     4  C    0.380733  -0.298344  -3.170073  11.002262   1.918316  -0.034520
     5  C    0.165415   0.461052  -3.039998   1.918316   8.693379   0.026975
     6  C   -1.161639  -0.788785   2.075470  -0.034520   0.026975   9.398748
     7  C    0.370336   0.222941   0.637799  -3.131729  -3.045050  -0.970687
     8  C   -0.158775  -0.189888   0.067489  -0.231698   0.651750   0.148865
     9  C    0.096324  -0.147663   0.444537   0.437045   0.053743   0.222426
    10  C    0.150040   0.115148  -0.823349  -0.019391   0.174352  -1.169262
    11  N   -0.082238   0.058274  -0.003834  -0.147470   0.018368  -0.424372
    12  N    0.035390   0.028411  -0.094096  -0.142312  -0.009504  -0.057315
    13  C    0.054243   0.020774  -0.004746  -0.069394  -0.040523  -0.563107
    14  C    0.054262   0.020721  -0.004692  -0.069402  -0.040641  -0.563155
    15  C    0.041609   0.006974  -0.048847  -0.050767  -0.049909   0.050188
    16  C    0.041668   0.006993  -0.048912  -0.050848  -0.049944   0.050256
    17  H    0.246639   0.064397   0.056523  -0.018619  -0.021680  -0.061326
    18  H   -0.008442   0.278276   0.003818   0.008836   0.014441   0.039189
    19  H   -0.003597   0.042845   0.234825   0.044702   0.065464   0.001647
    20  H   -0.001945   0.002578  -0.073685   0.045329   0.067189   0.000812
    21  H   -0.000396   0.001414  -0.007889   0.015845   0.017521   0.000589
    22  H   -0.000515   0.000991   0.000240  -0.015320  -0.015113  -0.004132
    23  H   -0.042545  -0.007231   0.013505   0.023924  -0.002878   0.022295
    24  H   -0.008020   0.000825  -0.000800  -0.000046   0.008889   0.072052
    25  H    0.007117  -0.001735  -0.003155   0.004072  -0.009074  -0.056318
    26  H    0.008538  -0.008352  -0.000515  -0.005723  -0.002178  -0.037237
    27  H   -0.008018   0.000826  -0.000799  -0.000051   0.008887   0.072005
    28  H    0.007163  -0.001726  -0.003148   0.004071  -0.009087  -0.056339
    29  H    0.008503  -0.008369  -0.000513  -0.005720  -0.002178  -0.037176
    30  H    0.003038  -0.000465   0.002296   0.008713  -0.019215   0.011772
    31  H   -0.000362   0.000047  -0.000791  -0.004076   0.004313  -0.001332
    32  H   -0.000208   0.000047  -0.000014  -0.001047   0.008390  -0.010415
    33  H    0.003045  -0.000468   0.002290   0.008698  -0.019205   0.011724
    34  H   -0.000207   0.000048  -0.000016  -0.001052   0.008381  -0.010398
    35  H   -0.000363   0.000047  -0.000786  -0.004045   0.004308  -0.001320
               7          8          9         10         11         12
     1  C    0.370336  -0.158775   0.096324   0.150040  -0.082238   0.035390
     2  C    0.222941  -0.189888  -0.147663   0.115148   0.058274   0.028411
     3  C    0.637799   0.067489   0.444537  -0.823349  -0.003834  -0.094096
     4  C   -3.131729  -0.231698   0.437045  -0.019391  -0.147470  -0.142312
     5  C   -3.045050   0.651750   0.053743   0.174352   0.018368  -0.009504
     6  C   -0.970687   0.148865   0.222426  -1.169262  -0.424372  -0.057315
     7  C   12.745359  -0.866678  -1.838777   1.928739  -0.103183   0.037544
     8  C   -0.866678   6.181097   0.794490  -0.702084   0.031852   0.058640
     9  C   -1.838777   0.794490   6.609573  -0.986450   0.040941  -0.099843
    10  C    1.928739  -0.702084  -0.986450   8.977471  -0.053197  -0.393077
    11  N   -0.103183   0.031852   0.040941  -0.053197   7.697074  -0.198722
    12  N    0.037544   0.058640  -0.099843  -0.393077  -0.198722   7.912037
    13  C   -0.053916   0.010237   0.031150   0.055774   0.270551  -0.008514
    14  C   -0.053941   0.010252   0.031199   0.055885   0.270553  -0.008642
    15  C    0.007654   0.011253   0.054673  -0.553039  -0.011575   0.260722
    16  C    0.007748   0.011296   0.054694  -0.553523  -0.011645   0.260775
    17  H    0.000024   0.001121  -0.000559  -0.004039   0.034974  -0.000578
    18  H   -0.009300   0.001489  -0.000257  -0.000139  -0.000589  -0.000006
    19  H   -0.074978   0.004028  -0.002047  -0.000695  -0.000059   0.000205
    20  H    0.223075   0.053807  -0.005019   0.000077   0.000212  -0.000078
    21  H   -0.011931   0.284523  -0.007878   0.036428  -0.000006  -0.001011
    22  H    0.050952   0.053765   0.252772  -0.056686  -0.000404   0.028284
    23  H   -0.002935  -0.003739  -0.027764   0.052360   0.170900   0.086986
    24  H    0.000206   0.000068  -0.000644  -0.013556  -0.055188   0.003578
    25  H    0.001639  -0.000018   0.001117   0.011504  -0.020229  -0.002988
    26  H   -0.001117  -0.000078   0.000322  -0.000141  -0.015697  -0.000458
    27  H    0.000205   0.000069  -0.000642  -0.013546  -0.055177   0.003579
    28  H    0.001637  -0.000020   0.001123   0.011494  -0.020233  -0.002992
    29  H   -0.001116  -0.000077   0.000321  -0.000141  -0.015707  -0.000459
    30  H   -0.000731  -0.003627   0.020268  -0.067495  -0.002615  -0.027152
    31  H   -0.003650  -0.006692  -0.012586   0.006104  -0.001085  -0.040351
    32  H   -0.000775   0.000375  -0.006777   0.055534   0.005370  -0.064780
    33  H   -0.000720  -0.003621   0.020313  -0.067499  -0.002602  -0.027179
    34  H   -0.000771   0.000374  -0.006768   0.055395   0.005370  -0.064719
    35  H   -0.003659  -0.006687  -0.012598   0.006188  -0.001088  -0.040372
              13         14         15         16         17         18
     1  C    0.054243   0.054262   0.041609   0.041668   0.246639  -0.008442
     2  C    0.020774   0.020721   0.006974   0.006993   0.064397   0.278276
     3  C   -0.004746  -0.004692  -0.048847  -0.048912   0.056523   0.003818
     4  C   -0.069394  -0.069402  -0.050767  -0.050848  -0.018619   0.008836
     5  C   -0.040523  -0.040641  -0.049909  -0.049944  -0.021680   0.014441
     6  C   -0.563107  -0.563155   0.050188   0.050256  -0.061326   0.039189
     7  C   -0.053916  -0.053941   0.007654   0.007748   0.000024  -0.009300
     8  C    0.010237   0.010252   0.011253   0.011296   0.001121   0.001489
     9  C    0.031150   0.031199   0.054673   0.054694  -0.000559  -0.000257
    10  C    0.055774   0.055885  -0.553039  -0.553523  -0.004039  -0.000139
    11  N    0.270551   0.270553  -0.011575  -0.011645   0.034974  -0.000589
    12  N   -0.008514  -0.008642   0.260722   0.260775  -0.000578  -0.000006
    13  C    5.343680  -0.049459  -0.029901  -0.034151   0.009012  -0.000392
    14  C   -0.049459   5.343754  -0.034138  -0.029968   0.009005  -0.000391
    15  C   -0.029901  -0.034138   5.301354  -0.042064  -0.000327  -0.000001
    16  C   -0.034151  -0.029968  -0.042064   5.301686  -0.000327  -0.000001
    17  H    0.009012   0.009005  -0.000327  -0.000327   0.539669  -0.004151
    18  H   -0.000392  -0.000391  -0.000001  -0.000001  -0.004151   0.510896
    19  H    0.000020   0.000020   0.000055   0.000055  -0.000149  -0.003864
    20  H    0.000057   0.000057  -0.000006  -0.000006   0.000000  -0.000006
    21  H    0.000008   0.000008  -0.000563  -0.000563  -0.000000  -0.000000
    22  H   -0.000245  -0.000244   0.010127   0.010143  -0.000000  -0.000000
    23  H   -0.019286  -0.019289  -0.027286  -0.027294  -0.000030   0.000002
    24  H    0.377355  -0.027672   0.002727   0.004290   0.000026  -0.000000
    25  H    0.421121   0.017905  -0.000832  -0.005353   0.000113  -0.000000
    26  H    0.431723  -0.009940   0.000116  -0.001034  -0.000711   0.000003
    27  H   -0.027663   0.377380   0.004282   0.002729   0.000026  -0.000000
    28  H    0.017901   0.421112  -0.005348  -0.000835   0.000113  -0.000000
    29  H   -0.009939   0.431715  -0.001032   0.000116  -0.000710   0.000003
    30  H   -0.000950  -0.006344   0.427225   0.017737   0.000000  -0.000000
    31  H    0.000658  -0.000001   0.426395  -0.014780   0.000000  -0.000000
    32  H    0.001644   0.002675   0.397241  -0.025895   0.000000   0.000000
    33  H   -0.006337  -0.000947   0.017736   0.427221   0.000000  -0.000000
    34  H    0.002671   0.001639  -0.025861   0.397283   0.000000   0.000000
    35  H   -0.000003   0.000658  -0.014797   0.426340   0.000000  -0.000000
              19         20         21         22         23         24
     1  C   -0.003597  -0.001945  -0.000396  -0.000515  -0.042545  -0.008020
     2  C    0.042845   0.002578   0.001414   0.000991  -0.007231   0.000825
     3  C    0.234825  -0.073685  -0.007889   0.000240   0.013505  -0.000800
     4  C    0.044702   0.045329   0.015845  -0.015320   0.023924  -0.000046
     5  C    0.065464   0.067189   0.017521  -0.015113  -0.002878   0.008889
     6  C    0.001647   0.000812   0.000589  -0.004132   0.022295   0.072052
     7  C   -0.074978   0.223075  -0.011931   0.050952  -0.002935   0.000206
     8  C    0.004028   0.053807   0.284523   0.053765  -0.003739   0.000068
     9  C   -0.002047  -0.005019  -0.007878   0.252772  -0.027764  -0.000644
    10  C   -0.000695   0.000077   0.036428  -0.056686   0.052360  -0.013556
    11  N   -0.000059   0.000212  -0.000006  -0.000404   0.170900  -0.055188
    12  N    0.000205  -0.000078  -0.001011   0.028284   0.086986   0.003578
    13  C    0.000020   0.000057   0.000008  -0.000245  -0.019286   0.377355
    14  C    0.000020   0.000057   0.000008  -0.000244  -0.019289  -0.027672
    15  C    0.000055  -0.000006  -0.000563   0.010127  -0.027286   0.002727
    16  C    0.000055  -0.000006  -0.000563   0.010143  -0.027294   0.004290
    17  H   -0.000149   0.000000  -0.000000  -0.000000  -0.000030   0.000026
    18  H   -0.003864  -0.000006  -0.000000  -0.000000   0.000002  -0.000000
    19  H    0.523481   0.002458  -0.000006   0.000000  -0.000000   0.000000
    20  H    0.002458   0.525711  -0.003833  -0.000148  -0.000000   0.000000
    21  H   -0.000006  -0.003833   0.513033  -0.004205   0.000001   0.000000
    22  H    0.000000  -0.000148  -0.004205   0.537569  -0.000003   0.000000
    23  H   -0.000000  -0.000000   0.000001  -0.000003   0.342649  -0.003720
    24  H    0.000000   0.000000   0.000000   0.000000  -0.003720   0.492153
    25  H    0.000000  -0.000000  -0.000000   0.000000  -0.003211  -0.021955
    26  H   -0.000000  -0.000000  -0.000000  -0.000000   0.003204  -0.024894
    27  H    0.000000   0.000000   0.000000   0.000000  -0.003721   0.001391
    28  H    0.000000  -0.000000  -0.000000   0.000000  -0.003211   0.000149
    29  H   -0.000000  -0.000000  -0.000000  -0.000000   0.003204  -0.000373
    30  H    0.000000   0.000000  -0.000001   0.000105  -0.002082   0.000000
    31  H    0.000000  -0.000000   0.000006  -0.000212   0.001232   0.000000
    32  H    0.000000   0.000000  -0.000000   0.000005  -0.002145   0.000005
    33  H    0.000000   0.000000  -0.000001   0.000105  -0.002082  -0.000019
    34  H    0.000000   0.000000  -0.000000   0.000005  -0.002148  -0.000034
    35  H    0.000000  -0.000000   0.000006  -0.000213   0.001233   0.000004
              25         26         27         28         29         30
     1  C    0.007117   0.008538  -0.008018   0.007163   0.008503   0.003038
     2  C   -0.001735  -0.008352   0.000826  -0.001726  -0.008369  -0.000465
     3  C   -0.003155  -0.000515  -0.000799  -0.003148  -0.000513   0.002296
     4  C    0.004072  -0.005723  -0.000051   0.004071  -0.005720   0.008713
     5  C   -0.009074  -0.002178   0.008887  -0.009087  -0.002178  -0.019215
     6  C   -0.056318  -0.037237   0.072005  -0.056339  -0.037176   0.011772
     7  C    0.001639  -0.001117   0.000205   0.001637  -0.001116  -0.000731
     8  C   -0.000018  -0.000078   0.000069  -0.000020  -0.000077  -0.003627
     9  C    0.001117   0.000322  -0.000642   0.001123   0.000321   0.020268
    10  C    0.011504  -0.000141  -0.013546   0.011494  -0.000141  -0.067495
    11  N   -0.020229  -0.015697  -0.055177  -0.020233  -0.015707  -0.002615
    12  N   -0.002988  -0.000458   0.003579  -0.002992  -0.000459  -0.027152
    13  C    0.421121   0.431723  -0.027663   0.017901  -0.009939  -0.000950
    14  C    0.017905  -0.009940   0.377380   0.421112   0.431715  -0.006344
    15  C   -0.000832   0.000116   0.004282  -0.005348  -0.001032   0.427225
    16  C   -0.005353  -0.001034   0.002729  -0.000835   0.000116   0.017737
    17  H    0.000113  -0.000711   0.000026   0.000113  -0.000710   0.000000
    18  H   -0.000000   0.000003  -0.000000  -0.000000   0.000003  -0.000000
    19  H    0.000000  -0.000000   0.000000   0.000000  -0.000000   0.000000
    20  H   -0.000000  -0.000000   0.000000  -0.000000  -0.000000   0.000000
    21  H   -0.000000  -0.000000   0.000000  -0.000000  -0.000000  -0.000001
    22  H    0.000000  -0.000000   0.000000   0.000000  -0.000000   0.000105
    23  H   -0.003211   0.003204  -0.003721  -0.003211   0.003204  -0.002082
    24  H   -0.021955  -0.024894   0.001391   0.000149  -0.000373   0.000000
    25  H    0.482137  -0.021940   0.000149  -0.000158  -0.000003  -0.000001
    26  H   -0.021940   0.486534  -0.000373  -0.000003   0.002133   0.000000
    27  H    0.000149  -0.000373   0.492152  -0.021954  -0.024894  -0.000019
    28  H   -0.000158  -0.000003  -0.021954   0.482128  -0.021942   0.000049
    29  H   -0.000003   0.002133  -0.024894  -0.021942   0.486555   0.000011
    30  H   -0.000001   0.000000  -0.000019   0.000049   0.000011   0.517626
    31  H    0.000000  -0.000000   0.000004   0.000014  -0.000000  -0.027394
    32  H    0.000000   0.000000  -0.000033  -0.000034   0.000003  -0.023222
    33  H    0.000049   0.000011   0.000000  -0.000001   0.000000  -0.000170
    34  H   -0.000034   0.000003   0.000005   0.000000   0.000000   0.000207
    35  H    0.000014  -0.000000   0.000000   0.000000  -0.000000  -0.000080
              31         32         33         34         35
     1  C   -0.000362  -0.000208   0.003045  -0.000207  -0.000363
     2  C    0.000047   0.000047  -0.000468   0.000048   0.000047
     3  C   -0.000791  -0.000014   0.002290  -0.000016  -0.000786
     4  C   -0.004076  -0.001047   0.008698  -0.001052  -0.004045
     5  C    0.004313   0.008390  -0.019205   0.008381   0.004308
     6  C   -0.001332  -0.010415   0.011724  -0.010398  -0.001320
     7  C   -0.003650  -0.000775  -0.000720  -0.000771  -0.003659
     8  C   -0.006692   0.000375  -0.003621   0.000374  -0.006687
     9  C   -0.012586  -0.006777   0.020313  -0.006768  -0.012598
    10  C    0.006104   0.055534  -0.067499   0.055395   0.006188
    11  N   -0.001085   0.005370  -0.002602   0.005370  -0.001088
    12  N   -0.040351  -0.064780  -0.027179  -0.064719  -0.040372
    13  C    0.000658   0.001644  -0.006337   0.002671  -0.000003
    14  C   -0.000001   0.002675  -0.000947   0.001639   0.000658
    15  C    0.426395   0.397241   0.017736  -0.025861  -0.014797
    16  C   -0.014780  -0.025895   0.427221   0.397283   0.426340
    17  H    0.000000   0.000000   0.000000   0.000000   0.000000
    18  H   -0.000000   0.000000  -0.000000   0.000000  -0.000000
    19  H    0.000000   0.000000   0.000000   0.000000   0.000000
    20  H   -0.000000   0.000000   0.000000   0.000000  -0.000000
    21  H    0.000006  -0.000000  -0.000001  -0.000000   0.000006
    22  H   -0.000212   0.000005   0.000105   0.000005  -0.000213
    23  H    0.001232  -0.002145  -0.002082  -0.002148   0.001233
    24  H    0.000000   0.000005  -0.000019  -0.000034   0.000004
    25  H    0.000000   0.000000   0.000049  -0.000034   0.000014
    26  H   -0.000000   0.000000   0.000011   0.000003  -0.000000
    27  H    0.000004  -0.000033   0.000000   0.000005   0.000000
    28  H    0.000014  -0.000034  -0.000001   0.000000   0.000000
    29  H   -0.000000   0.000003   0.000000   0.000000  -0.000000
    30  H   -0.027394  -0.023222  -0.000170   0.000207  -0.000080
    31  H    0.523955  -0.029872  -0.000080  -0.000841   0.004449
    32  H   -0.029872   0.520058   0.000207   0.002240  -0.000842
    33  H   -0.000080   0.000207   0.517637  -0.023218  -0.027391
    34  H   -0.000841   0.002240  -0.023218   0.520052  -0.029875
    35  H    0.004449  -0.000842  -0.027391  -0.029875   0.523926
 Mulliken charges:
               1
     1  C   -0.005406
     2  C   -0.210866
     3  C   -0.034985
     4  C   -0.430901
     5  C    0.005043
     6  C   -0.196179
     7  C   -0.060212
     8  C   -0.203158
     9  C   -0.010762
    10  C   -0.215186
    11  N   -0.377523
    12  N   -0.431001
    13  C   -0.130057
    14  C   -0.129933
    15  C   -0.124037
    16  C   -0.123886
    17  H    0.151564
    18  H    0.170586
    19  H    0.165590
    20  H    0.163365
    21  H    0.168905
    22  H    0.152376
    23  H    0.481104
    24  H    0.193200
    25  H    0.200065
    26  H    0.197803
    27  H    0.193200
    28  H    0.200074
    29  H    0.197784
    30  H    0.172514
    31  H    0.176927
    32  H    0.172265
    33  H    0.172504
    34  H    0.172270
    35  H    0.176950
 Sum of Mulliken charges =   1.00000
 Mulliken charges with hydrogens summed into heavy atoms:
               1
     1  C    0.146159
     2  C   -0.040280
     3  C    0.130605
     4  C   -0.430901
     5  C    0.005043
     6  C   -0.196179
     7  C    0.103153
     8  C   -0.034253
     9  C    0.141614
    10  C   -0.215186
    11  N    0.103581
    12  N   -0.431001
    13  C    0.461012
    14  C    0.461125
    15  C    0.397669
    16  C    0.397838
 Electronic spatial extent (au):  <R**2>=           3348.3890
 Charge=              1.0000 electrons
 Dipole moment (field-independent basis, Debye):
    X=             -4.0112    Y=             -1.8163    Z=              0.0000  Tot=              4.4033
 Quadrupole moment (field-independent basis, Debye-Ang):
   XX=            -63.5189   YY=            -64.7702   ZZ=            -92.2816
   XY=              3.5078   XZ=              0.0003   YZ=             -0.0001
 Traceless Quadrupole moment (field-independent basis, Debye-Ang):
   XX=             10.0047   YY=              8.7534   ZZ=            -18.7580
   XY=              3.5078   XZ=              0.0003   YZ=             -0.0001
 Octapole moment (field-independent basis, Debye-Ang**2):
  XXX=             -2.6014  YYY=            -10.9752  ZZZ=              0.0009  XYY=            -11.0609
  XXY=             -8.6685  XXZ=             -0.0029  XZZ=            -29.4066  YZZ=             -4.3433
  YYZ=              0.0055  XYZ=             -0.0022
 Hexadecapole moment (field-independent basis, Debye-Ang**3):
 XXXX=          -1785.6737 YYYY=          -1714.1882 ZZZZ=           -397.2709 XXXY=             19.9846
 XXXZ=             -0.0033 YYYX=             21.5281 YYYZ=             -0.0155 ZZZX=              0.0019
 ZZZY=              0.0147 XXYY=           -558.7338 XXZZ=           -421.2644 YYZZ=           -405.1751
 XXYZ=             -0.0104 YYXZ=             -0.0018 ZZXY=              8.1930
 N-N= 1.134679673521D+03 E-N=-3.766047321515D+03  KE= 6.475916081843D+02
 Calling FoFJK, ICntrl=      2127 FMM=F ISym2X=0 I1Cent= 0 IOpClX= 0 NMat=1 NMatS=1 NMatT=0.
 ***** Axes restored to original set *****
 -------------------------------------------------------------------
 Center     Atomic                   Forces (Hartrees/Bohr)
 Number     Number              X              Y              Z
 -------------------------------------------------------------------
      1        6          -0.000976967   -0.006265366   -0.000007429
      2        6           0.000076361   -0.005905489    0.000002107
      3        6          -0.004707473    0.003234925    0.000000299
      4        6          -0.005380001   -0.000015859   -0.000002761
      5        6           0.004883615   -0.000121849    0.000010636
      6        6           0.000713995    0.003357198    0.000006628
      7        6          -0.004779822   -0.003058524    0.000011068
      8        6           0.000366896    0.006009974   -0.000008364
      9        6          -0.001092201    0.006232136    0.000016151
     10        6           0.001249313   -0.003262654   -0.000030310
     11        7           0.000663662    0.001066960   -0.000017253
     12        7           0.000935625   -0.002577184    0.000014831
     13        6           0.001644231   -0.001736620   -0.003496540
     14        6           0.001653330   -0.001739336    0.003500063
     15        6           0.001478285    0.001397041    0.003120429
     16        6           0.001496171    0.001385947   -0.003141227
     17        1           0.000015426   -0.000440279    0.000004461
     18        1          -0.000215004   -0.000543837   -0.000000397
     19        1          -0.000510626    0.000024953   -0.000000707
     20        1          -0.000516275   -0.000034301   -0.000004086
     21        1          -0.000229776    0.000564288    0.000002614
     22        1           0.000006616    0.000452478   -0.000000116
     23        1           0.000474842    0.001439626    0.000010749
     24        1           0.000725995   -0.000015646   -0.000166772
     25        1          -0.000095048    0.000166439   -0.000545649
     26        1           0.000033416   -0.000610655   -0.000247294
     27        1           0.000724779   -0.000015345    0.000166317
     28        1          -0.000095531    0.000165846    0.000545595
     29        1           0.000030471   -0.000611675    0.000248521
     30        1          -0.000149037   -0.000179616    0.000656362
     31        1           0.000050570    0.000915225    0.000361079
     32        1           0.000809659   -0.000013944    0.000140427
     33        1          -0.000152767   -0.000175228   -0.000649302
     34        1           0.000810383   -0.000007973   -0.000136258
     35        1           0.000056889    0.000918346   -0.000363871
 -------------------------------------------------------------------
 Cartesian Forces:  Max     0.006265366 RMS     0.001894357

 GradGradGradGradGradGradGradGradGradGradGradGradGradGradGradGradGradGrad
 Berny optimization.
 FormGI is forming the generalized inverse of G from B-inverse, IUseBI=4.
 GSVD:  received Info=                   1 from GESDD.
 Internal  Forces:  Max     0.009581111 RMS     0.001894222
 Search for a local minimum.
 Step number   1 out of a maximum of  193
 All quantities printed in internal units (Hartrees-Bohrs-Radians)
 Mixed Optimization -- RFO/linear search
 Second derivative matrix not updated -- first step.
 ITU=  0
     Eigenvalues ---    0.00387   0.00387   0.00582   0.00583   0.00586
     Eigenvalues ---    0.00837   0.01476   0.01623   0.01671   0.01688
     Eigenvalues ---    0.01726   0.01959   0.02010   0.02052   0.02063
     Eigenvalues ---    0.02145   0.02154   0.02164   0.02190   0.02259
     Eigenvalues ---    0.02275   0.02521   0.03342   0.04758   0.05809
     Eigenvalues ---    0.05809   0.05925   0.05925   0.06112   0.07132
     Eigenvalues ---    0.07132   0.07425   0.07426   0.16000   0.16000
     Eigenvalues ---    0.16000   0.16000   0.16000   0.16000   0.16000
     Eigenvalues ---    0.16000   0.16000   0.16000   0.16000   0.16000
     Eigenvalues ---    0.16000   0.16000   0.16000   0.16000   0.16000
     Eigenvalues ---    0.16000   0.17494   0.17625   0.18995   0.19239
     Eigenvalues ---    0.22061   0.22129   0.23304   0.23703   0.24872
     Eigenvalues ---    0.24943   0.25000   0.25000   0.32523   0.32525
     Eigenvalues ---    0.32706   0.34025   0.34026   0.34129   0.34133
     Eigenvalues ---    0.34159   0.34399   0.34399   0.34559   0.34560
     Eigenvalues ---    0.34605   0.34606   0.34702   0.34702   0.34801
     Eigenvalues ---    0.34801   0.35307   0.35316   0.35316   0.35325
     Eigenvalues ---    0.35407   0.35453   0.35892   0.36390   0.38855
     Eigenvalues ---    0.39309   0.41050   0.41361   0.42787   0.42905
     Eigenvalues ---    0.47658   0.48034   0.49107   0.49275
 RFO step:  Lambda=-1.65855948D-03 EMin= 3.87282201D-03
 Linear search not attempted -- first point.
 Iteration  1 RMS(Cart)=  0.02440475 RMS(Int)=  0.00003599
 Iteration  2 RMS(Cart)=  0.00008438 RMS(Int)=  0.00000428
 Iteration  3 RMS(Cart)=  0.00000000 RMS(Int)=  0.00000428
 Variable       Old X    -DE/DX   Delta X   Delta X   Delta X     New X
                                 (Linear)    (Quad)   (Total)
    R1        2.66880  -0.00320   0.00000  -0.00725  -0.00725   2.66155
    R2        2.60098  -0.00819   0.00000  -0.01651  -0.01651   2.58448
    R3        2.05165  -0.00040   0.00000  -0.00112  -0.00112   2.05054
    R4        2.59949  -0.00684   0.00000  -0.01348  -0.01349   2.58600
    R5        2.04945  -0.00058   0.00000  -0.00162  -0.00162   2.04784
    R6        2.68528  -0.00354   0.00000  -0.00821  -0.00821   2.67708
    R7        2.05179  -0.00051   0.00000  -0.00144  -0.00144   2.05035
    R8        2.72286  -0.00958   0.00000  -0.02430  -0.02429   2.69858
    R9        2.68435  -0.00362   0.00000  -0.00837  -0.00837   2.67598
   R10        2.70361  -0.00602   0.00000  -0.01488  -0.01487   2.68874
   R11        2.71124  -0.00604   0.00000  -0.01511  -0.01511   2.69614
   R12        2.80363  -0.00583   0.00000  -0.01698  -0.01698   2.78664
   R13        2.59837  -0.00689   0.00000  -0.01358  -0.01358   2.58478
   R14        2.05164  -0.00052   0.00000  -0.00145  -0.00145   2.05019
   R15        2.66969  -0.00311   0.00000  -0.00705  -0.00705   2.66264
   R16        2.05019  -0.00060   0.00000  -0.00170  -0.00170   2.04849
   R17        2.60748  -0.00831   0.00000  -0.01695  -0.01695   2.59053
   R18        2.05150  -0.00040   0.00000  -0.00112  -0.00112   2.05038
   R19        2.76776  -0.00535   0.00000  -0.01464  -0.01464   2.75312
   R20        2.83194  -0.00547   0.00000  -0.01674  -0.01674   2.81520
   R21        2.83197  -0.00548   0.00000  -0.01676  -0.01676   2.81521
   R22        2.09571  -0.00151   0.00000  -0.00460  -0.00460   2.09112
   R23        2.80407  -0.00525   0.00000  -0.01530  -0.01530   2.78877
   R24        2.80413  -0.00527   0.00000  -0.01536  -0.01536   2.78877
   R25        2.06320  -0.00072   0.00000  -0.00206  -0.00206   2.06114
   R26        2.05999  -0.00055   0.00000  -0.00157  -0.00157   2.05842
   R27        2.06162  -0.00059   0.00000  -0.00171  -0.00171   2.05992
   R28        2.06320  -0.00072   0.00000  -0.00206  -0.00206   2.06114
   R29        2.05999  -0.00055   0.00000  -0.00157  -0.00157   2.05842
   R30        2.06162  -0.00060   0.00000  -0.00171  -0.00171   2.05991
   R31        2.06398  -0.00067   0.00000  -0.00193  -0.00193   2.06205
   R32        2.07286  -0.00090   0.00000  -0.00265  -0.00265   2.07021
   R33        2.06662  -0.00081   0.00000  -0.00233  -0.00233   2.06429
   R34        2.06396  -0.00066   0.00000  -0.00191  -0.00191   2.06205
   R35        2.06662  -0.00080   0.00000  -0.00233  -0.00233   2.06429
   R36        2.07287  -0.00091   0.00000  -0.00265  -0.00265   2.07022
    A1        2.09928  -0.00074   0.00000  -0.00341  -0.00341   2.09587
    A2        2.08072   0.00057   0.00000   0.00292   0.00292   2.08364
    A3        2.10318   0.00017   0.00000   0.00049   0.00049   2.10367
    A4        2.08803  -0.00005   0.00000   0.00035   0.00034   2.08837
    A5        2.08748   0.00012   0.00000   0.00043   0.00044   2.08792
    A6        2.10768  -0.00007   0.00000  -0.00079  -0.00078   2.10690
    A7        2.11740  -0.00028   0.00000  -0.00057  -0.00057   2.11683
    A8        2.09835   0.00013   0.00000   0.00024   0.00024   2.09860
    A9        2.06743   0.00015   0.00000   0.00033   0.00033   2.06776
   A10        2.09315  -0.00051   0.00000  -0.00192  -0.00192   2.09123
   A11        2.10133   0.00100   0.00000   0.00380   0.00379   2.10512
   A12        2.08871  -0.00049   0.00000  -0.00188  -0.00187   2.08684
   A13        2.03161   0.00116   0.00000   0.00439   0.00440   2.03601
   A14        2.05731   0.00124   0.00000   0.00477   0.00477   2.06208
   A15        2.19426  -0.00240   0.00000  -0.00915  -0.00917   2.18509
   A16        2.13689   0.00042   0.00000   0.00115   0.00117   2.13805
   A17        2.08458   0.00176   0.00000   0.00724   0.00723   2.09181
   A18        2.06172  -0.00218   0.00000  -0.00839  -0.00840   2.05332
   A19        2.10988  -0.00037   0.00000  -0.00098  -0.00099   2.10889
   A20        2.07003   0.00021   0.00000   0.00068   0.00068   2.07071
   A21        2.10328   0.00015   0.00000   0.00030   0.00031   2.10358
   A22        2.09146   0.00002   0.00000   0.00065   0.00064   2.09210
   A23        2.10439  -0.00009   0.00000  -0.00081  -0.00081   2.10358
   A24        2.08733   0.00007   0.00000   0.00016   0.00017   2.08751
   A25        2.11836  -0.00073   0.00000  -0.00335  -0.00336   2.11500
   A26        2.07712   0.00058   0.00000   0.00304   0.00304   2.08016
   A27        2.08770   0.00014   0.00000   0.00031   0.00031   2.08802
   A28        2.10064   0.00032   0.00000   0.00079   0.00081   2.10145
   A29        2.07696  -0.00183   0.00000  -0.00704  -0.00704   2.06992
   A30        2.10558   0.00151   0.00000   0.00624   0.00624   2.11182
   A31        1.97605  -0.00018   0.00000  -0.00230  -0.00230   1.97375
   A32        1.97610  -0.00018   0.00000  -0.00229  -0.00229   1.97381
   A33        1.76665   0.00008   0.00000   0.00067   0.00067   1.76732
   A34        1.95144   0.00022   0.00000   0.00041   0.00040   1.95184
   A35        1.89038   0.00002   0.00000   0.00196   0.00196   1.89235
   A36        1.89031   0.00003   0.00000   0.00207   0.00207   1.89237
   A37        1.96720  -0.00020   0.00000  -0.00363  -0.00365   1.96355
   A38        1.96731  -0.00022   0.00000  -0.00376  -0.00378   1.96353
   A39        1.93853   0.00020   0.00000  -0.00139  -0.00141   1.93712
   A40        1.89706  -0.00018   0.00000  -0.00100  -0.00100   1.89606
   A41        1.89985  -0.00016   0.00000  -0.00099  -0.00099   1.89886
   A42        1.92079  -0.00035   0.00000  -0.00228  -0.00228   1.91851
   A43        1.92172   0.00020   0.00000   0.00151   0.00151   1.92324
   A44        1.91316   0.00026   0.00000   0.00160   0.00160   1.91476
   A45        1.91118   0.00022   0.00000   0.00111   0.00111   1.91229
   A46        1.89704  -0.00018   0.00000  -0.00100  -0.00100   1.89604
   A47        1.89983  -0.00016   0.00000  -0.00098  -0.00098   1.89885
   A48        1.92082  -0.00035   0.00000  -0.00228  -0.00228   1.91853
   A49        1.92173   0.00020   0.00000   0.00151   0.00151   1.92324
   A50        1.91317   0.00026   0.00000   0.00158   0.00158   1.91475
   A51        1.91117   0.00022   0.00000   0.00113   0.00112   1.91230
   A52        1.91470  -0.00016   0.00000  -0.00098  -0.00098   1.91372
   A53        1.95491  -0.00050   0.00000  -0.00330  -0.00330   1.95161
   A54        1.90249  -0.00009   0.00000  -0.00039  -0.00039   1.90210
   A55        1.89294   0.00029   0.00000   0.00143   0.00143   1.89438
   A56        1.90581   0.00019   0.00000   0.00151   0.00151   1.90732
   A57        1.89238   0.00030   0.00000   0.00186   0.00186   1.89423
   A58        1.91467  -0.00015   0.00000  -0.00095  -0.00096   1.91372
   A59        1.90248  -0.00009   0.00000  -0.00038  -0.00038   1.90210
   A60        1.95493  -0.00051   0.00000  -0.00333  -0.00333   1.95159
   A61        1.90591   0.00018   0.00000   0.00145   0.00145   1.90736
   A62        1.89293   0.00029   0.00000   0.00144   0.00144   1.89437
   A63        1.89232   0.00031   0.00000   0.00192   0.00191   1.89423
    D1       -0.00002   0.00000   0.00000   0.00003   0.00003   0.00001
    D2        3.14159   0.00000   0.00000   0.00003   0.00003  -3.14156
    D3       -3.14153  -0.00000   0.00000  -0.00008  -0.00008   3.14157
    D4        0.00008  -0.00000   0.00000  -0.00008  -0.00008  -0.00000
    D5        0.00001  -0.00000   0.00000  -0.00007  -0.00007  -0.00006
    D6        3.14149  -0.00000   0.00000   0.00001   0.00001   3.14150
    D7        3.14152   0.00000   0.00000   0.00004   0.00004   3.14157
    D8       -0.00018   0.00000   0.00000   0.00013   0.00013  -0.00006
    D9        0.00002   0.00000   0.00000   0.00001   0.00001   0.00003
   D10       -3.14157  -0.00000   0.00000  -0.00001  -0.00001  -3.14158
[...]
 0.05641051,0.11026560,-0.00006129,0.00001316,0.00002609,0.00000674,-0.
 00001815,0.00000116,-0.00003107,0.00001665,0.00000230,-0.00006640,-0.0
 0008282,-0.00002153,-0.00025822,-0.00018741,0.00012979,0.00012571,-0.0
 0011559,-0.00004411,0.00005052,-0.00004389,-0.00004516,-0.00000127,0.0
 0013982,-0.00002026,-0.00049644,0.00032102,0.00034467,0.00199765,0.000
 40166,0.00039974,-0.00019902,-0.00131391,-0.00017432,0.01040132,0.0093
 0906,-0.02613256,0.00001975,-0.00002896,-0.00002705,0.00002857,0.00017
 217,-0.00046911,0.08572973,0.09645673,-0.22307551,-0.00379499,-0.00342
 072,-0.00329784,0.00000032,0.00000006,-0.00001261,-0.00000145,0.000002
 41,-0.00000237,-0.00000036,-0.00000481,-0.00000128,-0.00000224,-0.0000
 0048,0.00000639,-0.00001624,-0.00000196,-0.00000257,0.00003601,-0.0000
 3924,-0.00004078,0.00018681,0.00169856,-0.00032725,-0.00001067,0.00003
 134,-0.00001602,0.00003083,0.00004933,0.00003367,-0.00000137,-0.000024
 46,0.00000182,0.00004896,-0.00006283,-0.00001557,-0.00012482,-0.000113
 01,0.00030839,-0.00001611,0.00006934,0.00018952,-0.09376610,-0.1029655
 5,0.24857134,-0.00007036,0.00001531,-0.00006118,0.00002650,0.00001613,
 -0.00000602,-0.00005231,0.00000949,-0.00003474,0.00023367,-0.00015398,
 -0.00002924,-0.00052302,-0.00021898,0.00044946,0.00022847,0.00016390,0
 .00000133,0.00007551,0.00019700,0.00005251,-0.00021087,0.00003944,0.00
 003306,0.00024834,-0.00003321,-0.00027783,0.00200091,-0.00157917,0.000
 79616,-0.00030468,-0.00112185,0.00035552,0.00259695,-0.01776798,-0.005
 29443,-0.00010784,0.00004850,0.00008532,-0.00023307,0.00001266,-0.0000
 6793,-0.06283250,0.05526090,0.00187027,-0.00020583,0.00072291,0.001174
 86,0.00000364,0.00000762,-0.00000281,-0.00000575,0.00000101,0.00001286
 ,-0.00000389,-0.00000432,0.00000045,0.00000900,0.00003243,-0.00001457,
 0.00000236,0.00000055,-0.00005748,-0.00097076,0.00030239,-0.00089071,-
 0.00030179,0.00138731,-0.00083772,0.00001080,-0.00000120,-0.00002110,0
 .00002293,0.00001957,0.00000725,0.00002461,-0.00002002,-0.00001126,0.0
 0007060,-0.00007611,-0.00001805,-0.00002508,0.00000155,-0.00000315,0.0
 0010553,-0.00004728,0.00003499,0.00294130,-0.01375267,-0.00030980,0.06
 190305,-0.00005163,0.00001604,0.00000535,0.00001539,0.00007153,-0.0000
 0079,-0.00010460,-0.00000275,0.00001477,0.00015689,-0.00012701,0.00001
 731,-0.00056381,-0.00014034,-0.00008655,0.00058407,0.00017004,-0.00001
 980,0.00002400,0.00018120,-0.00007110,-0.00037485,0.00027570,0.0001493
 0,-0.00039263,-0.00033283,0.00070716,0.00260421,0.00068323,0.00003897,
 -0.00023383,-0.00203119,0.00033489,-0.00253491,-0.01626342,-0.00936662
 ,-0.00018170,0.00007849,0.00024280,-0.00022809,-0.00020925,-0.00008543
 ,0.05274676,-0.30222389,-0.00240814,-0.00075805,0.00169624,0.00142606,
 0.00001733,0.00002776,0.00000143,-0.00001735,-0.00000187,-0.00000200,-
 0.00000703,-0.00000669,-0.00000320,0.00001019,0.00003001,-0.00002174,-
 0.00005425,-0.00000517,0.00001833,0.00033533,0.00065146,-0.00019804,-0
 .00022876,0.00389134,-0.00051307,-0.00000691,0.00001799,0.00000264,0.0
 0002092,0.00001214,-0.00000980,0.00002824,-0.00005753,-0.00005291,-0.0
 0002516,0.00004277,0.00000278,0.00006529,0.00003751,-0.00005803,0.0000
 5850,-0.00009198,0.00004000,0.00380945,-0.01192263,-0.00007789,-0.0557
 8068,0.32764589,-0.00011497,-0.00003903,-0.00002252,0.00004929,-0.0000
 3225,-0.00000022,-0.00004553,0.00006335,-0.00003974,0.00009742,-0.0002
 0760,0.00002513,-0.00049754,-0.00002914,0.00036352,0.00037557,0.000198
 09,0.00002119,0.00007893,0.00018002,0.00002987,-0.00015950,0.00018517,
 -0.00003859,0.00008035,-0.00017925,-0.00009787,0.00246692,0.00012587,0
 .00037512,-0.00013518,-0.00278643,0.00042985,0.00135072,-0.03587346,-0
 .01128963,-0.00011690,0.00007747,0.00028372,-0.00015538,-0.00000299,-0
 .00061759,0.00103953,0.00069063,-0.05020906,-0.00039923,-0.00319626,0.
 00354102,0.00000485,-0.00000318,-0.00001078,-0.00000800,-0.00000193,0.
 00000704,-0.00000967,-0.00000771,0.00000048,0.00000531,0.00002666,-0.0
 0000421,-0.00002947,-0.00000661,-0.00000161,-0.00075600,0.00029232,-0.
 00021471,-0.00066195,0.00336682,-0.00159333,0.00002208,0.00000625,-0.0
 0001968,0.00000529,0.00003432,0.00002600,0.00001778,-0.00003881,-0.000
 07180,0.00007675,-0.00007970,-0.00002765,-0.00014572,-0.00012141,0.000
 16292,0.00003295,-0.00000411,0.00025672,-0.00628070,0.02533468,0.00222
 465,0.00296734,0.01054910,0.05587710,0.00011713,-0.00002533,-0.0000006
 5,-0.00005488,-0.00000174,-0.00000381,0.00002313,-0.00003031,0.0000112
 9,-0.00015165,0.00008489,0.00010663,-0.00010161,0.00050705,-0.00024938
 ,-0.00019288,-0.00002345,0.00002906,-0.00010387,-0.00007263,-0.0000155
 1,0.00003455,-0.00008967,0.00004523,0.00014220,-0.00044498,-0.00017391
 ,0.00028926,-0.00044912,-0.00250980,-0.00018467,-0.00090416,-0.0000272
 2,-0.01213424,-0.00205466,-0.00140020,-0.00003304,-0.00000160,0.000116
 05,-0.00018392,0.00015857,-0.00024701,-0.31685661,0.03972306,0.0030536
 8,0.00032602,0.00031776,0.00127742,-0.00000511,-0.00002766,-0.00000920
 ,0.00000353,-0.00000570,0.00000137,-0.00000494,-0.00000668,0.00000614,
 0.00000040,-0.00001250,-0.00000175,-0.00002739,0.00000230,0.00000945,0
 .00001069,-0.00001385,0.00009799,-0.00022289,0.00075521,-0.00013955,0.
 00004258,-0.00002978,-0.00003500,-0.00001726,-0.00000084,0.00001305,0.
 00001608,-0.00000013,-0.00003095,0.00016255,-0.00012328,-0.00003294,-0
 .00013090,-0.00003483,0.00004432,0.00008103,0.00002193,0.00007764,-0.0
 0907909,0.00239525,-0.00015316,-0.00468621,0.00060771,0.00092257,0.342
 09208,0.00010158,-0.00006472,0.00003419,0.00001479,0.00002742,-0.00000
 804,-0.00001842,0.00001803,-0.00000602,0.00004758,-0.00003572,0.000146
 77,-0.00040010,0.00020732,0.00000042,-0.00016788,0.00015967,-0.0000027
 7,-0.00008405,0.00012423,-0.00005104,-0.00018203,0.00005689,0.00041563
 ,-0.00016202,-0.00028149,0.00010653,-0.00014412,-0.00023577,-0.0029734
 7,0.00016428,-0.00022723,-0.00008060,-0.01886470,0.00029141,-0.0014751
 7,0.00000656,-0.00003935,-0.00003387,-0.00008773,0.00005436,-0.0000797
 4,0.04324025,-0.05719952,0.00009988,0.00017021,0.00011924,0.00061482,-
 0.00001107,-0.00002137,-0.00000277,0.00000530,-0.00000465,-0.00000319,
 -0.00000347,-0.00000685,0.00000411,0.00001422,0.00001234,-0.00005183,-
 0.00004062,-0.00000124,0.00000860,-0.00008979,0.00031268,-0.00048834,-
 0.00054180,0.00041178,-0.00002250,0.00002793,-0.00002196,-0.00003996,0
 .00000283,0.00000558,0.00001691,0.00000467,0.00000196,-0.00000389,0.00
 009185,-0.00019388,-0.00004579,-0.00012825,-0.00000301,0.00005923,0.00
 006422,0.00002731,0.00007279,-0.01474498,0.00235080,-0.00093087,0.0317
 9885,-0.00259658,-0.00059146,-0.04033758,0.05675104,0.00011847,-0.0000
 1912,0.00000285,-0.00005441,0.00004800,-0.00000790,-0.00006043,-0.0000
 3775,0.00003292,-0.00015618,-0.00002930,0.00019426,-0.00074009,0.00031
 704,-0.00016189,-0.00004488,-0.00005839,-0.00011309,-0.00011421,-0.000
 11277,-0.00006558,0.00004803,0.00010453,0.00025969,-0.00058852,-0.0002
 7412,0.00032517,-0.00105256,-0.00155089,-0.00421409,-0.00007090,-0.000
 32125,-0.00007895,-0.03238565,0.00055800,-0.00410136,-0.00005417,0.000
 01605,0.00006121,0.00000926,-0.00006066,0.00000361,0.01122830,-0.00006
 194,-0.05113254,-0.00191748,0.00019611,0.00132535,0.00000030,-0.000006
 84,0.00000400,0.00000014,-0.00000451,-0.00000117,-0.00000880,-0.000014
 51,0.00001213,0.00000385,-0.00000031,-0.00002678,-0.00004935,0.0000049
 8,-0.00001154,0.00009231,0.00014925,-0.00015166,-0.00006820,0.00066053
 ,0.00023858,0.00002755,-0.00004292,-0.00000145,-0.00002121,-0.00001855
 ,-0.00001389,0.00001979,0.00000180,-0.00001830,-0.00001986,0.00004226,
 0.00010107,0.00010083,-0.00003086,-0.00001731,-0.00000705,-0.00000627,
 -0.00002298,0.02497137,-0.00555960,0.00237970,0.00008435,0.00099691,0.
 00039615,-0.00014069,0.00523323,0.05525060,-0.00004513,0.00002835,0.00
 001627,-0.00000347,0.00002918,0.00000571,-0.00002670,-0.00002163,-0.00
 000940,0.00000740,0.00002978,-0.00002949,0.00021189,-0.00028397,0.0000
 5851,0.00024007,-0.00010545,0.00000702,0.00003187,0.00001630,0.0000312
 5,-0.00010884,0.00006023,-0.00007406,-0.00002534,0.00001458,-0.0000900
 9,0.00087550,0.00096246,0.00116752,-0.00006038,0.00006129,0.00003682,0
 .00460692,0.00632981,0.01521353,-0.00006551,-0.00016452,-0.00030402,-0
 .00009278,0.00003148,0.00001346,-0.00151215,-0.00114733,0.00194919,-0.
 09701038,-0.05181469,-0.09373177,0.00001095,0.00002800,-0.00000528,-0.
 00000559,0.00000301,-0.00000163,0.00000352,0.00000721,0.00000028,-0.00
 000116,0.00000356,0.00001056,-0.00000466,0.00000014,0.00000582,0.00010
 934,0.00002233,0.00008323,0.00015429,0.00026853,-0.00033685,-0.0001100
 5,0.00012922,-0.00009595,0.00031887,0.00007279,0.00010596,-0.00001281,
 -0.00006076,0.00014221,-0.00001683,-0.00000860,-0.00002154,0.00001324,
 -0.00000405,0.00003001,0.00002059,-0.00000767,-0.00000248,0.00081470,0
 .00019134,0.00067999,-0.00008431,-0.00002033,-0.00003829,0.00048073,-0
 .00012103,0.00014983,0.09742106,0.00001355,-0.00003521,-0.00000455,0.0
 0000643,-0.00003215,0.00000336,0.00003850,0.00001981,0.00001139,-0.000
 10181,0.00007892,-0.00002359,0.00033305,0.00012534,-0.00002880,-0.0001
 8627,-0.00002479,-0.00001010,0.00003315,-0.00009756,-0.00000185,0.0001
 6617,0.00014791,0.00010059,-0.00016403,-0.00047858,0.00000050,0.000401
 95,0.00086580,0.00031175,-0.00009903,0.00004176,-0.00011183,0.00757274
 ,0.00688724,0.01563786,0.00009436,-0.00016507,0.00016017,0.00008826,-0
 .00000939,0.00004987,-0.00146974,-0.00092868,0.00207762,-0.05179888,-0
 .10805136,-0.10248598,-0.00001042,-0.00001824,0.00000464,0.00000402,0.
 00000156,-0.00000262,0.00000429,0.00000117,0.00000102,0.00000772,0.000
 00204,-0.00001643,-0.00001122,-0.00001063,-0.00001914,-0.00013573,0.00
 002770,-0.00012250,0.00020636,0.00041587,0.00018953,0.00003381,-0.0000
 1219,-0.00002493,-0.00005266,-0.00034713,-0.00002366,0.00000744,0.0000
 1275,-0.00007633,0.00000416,0.00000252,0.00001450,-0.00000242,0.000008
 10,-0.00002967,-0.00001472,0.00000253,-0.00002326,0.00019098,0.0007312
 8,0.00076243,-0.00012275,0.00030768,0.00051922,-0.00009459,-0.00020410
 ,-0.00007220,0.05641081,0.11031001,0.00006121,-0.00001316,0.00002610,-
 0.00000672,0.00001817,0.00000115,0.00003105,-0.00001665,0.00000230,0.0
 0006653,0.00008276,-0.00002149,0.00025806,0.00018714,0.00012978,-0.000
 12543,0.00011562,-0.00004409,-0.00005051,0.00004403,-0.00004518,0.0000
 0105,-0.00013988,-0.00002030,0.00049658,-0.00032088,0.00034471,-0.0019
 9767,-0.00040166,0.00040006,0.00019912,0.00131482,-0.00017392,-0.01039
 716,-0.00931515,-0.02613396,-0.00002878,-0.00017247,-0.00046965,-0.000
 01987,0.00002892,-0.00002702,0.00379582,0.00342025,-0.00329787,-0.0856
 9459,-0.09649114,-0.22306698,-0.00000031,-0.00000003,-0.00001261,0.000
 00144,-0.00000241,-0.00000237,0.00000036,0.00000481,-0.00000128,0.0000
 0224,0.00000049,0.00000639,0.00001625,0.00000196,-0.00000256,-0.000035
 98,0.00003927,-0.00004072,-0.00018680,-0.00169961,-0.00032823,-0.00004
 906,0.00006299,-0.00001558,0.00012502,0.00011297,0.00030904,0.00001615
 ,-0.00006954,0.00018979,0.00001064,-0.00003133,-0.00001605,-0.00003079
 ,-0.00004933,0.00003368,0.00000138,0.00002445,0.00000182,-0.00067958,-
 0.00076294,-0.00130920,0.00007145,-0.00006837,0.00011344,-0.00003952,0
 .00007958,0.00030239,0.09372507,0.10300662,0.24856392,0.00011715,-0.00
 002536,0.00000064,-0.00005487,-0.00000174,0.00000381,0.00002313,-0.000
 03029,-0.00001129,-0.00015164,0.00008486,-0.00010671,-0.00010183,0.000
 50706,0.00024933,-0.00019293,-0.00002336,-0.00002901,-0.00010390,-0.00
 007260,0.00001552,0.00003449,-0.00008964,-0.00004534,0.00014202,-0.000
 44502,0.00017391,0.00028901,-0.00044880,0.00251080,-0.00018476,-0.0009
 0459,0.00002693,-0.01214202,-0.00205426,0.00139949,-0.00018409,0.00015
 859,0.00024704,-0.00003308,-0.00000157,-0.00011605,0.00032578,0.000317
 45,-0.00127750,-0.31685142,0.03973056,-0.00311806,-0.00000511,-0.00002
 767,0.00000919,0.00000353,-0.00000570,-0.00000137,-0.00000495,-0.00000
 668,-0.00000614,0.00000041,-0.00001249,0.00000177,-0.00002740,0.000002
 30,-0.00000945,0.00001071,-0.00001379,-0.00009789,-0.00022320,0.000755
 65,0.00013980,0.00016269,-0.00012339,0.00003290,-0.00013094,-0.0000348
 0,-0.00004433,0.00008113,0.00002195,-0.00007764,0.00004260,-0.00002981
 ,0.00003502,-0.00001725,-0.00000083,-0.00001305,0.00001610,-0.00000013
 ,0.00003095,0.00048072,-0.00009462,0.00003958,-0.00018980,0.00009466,0
 .00008736,0.00053899,0.00011697,0.00051405,-0.00907437,0.00239441,0.00
 015014,0.34209038,0.00010155,-0.00006474,-0.00003420,0.00001483,0.0000
 2739,0.00000804,-0.00001839,0.00001807,0.00000604,0.00004768,-0.000035
 77,-0.00014671,-0.00039985,0.00020713,-0.00000058,-0.00016793,0.000159
 79,0.00000278,-0.00008404,0.00012433,0.00005100,-0.00018209,0.00005677
 ,-0.00041555,-0.00016207,-0.00028137,-0.00010644,-0.00014443,-0.000234
 37,0.00297244,0.00016447,-0.00022741,0.00008052,-0.01885762,0.00029195
 ,0.00147030,-0.00008781,0.00005438,0.00007971,0.00000653,-0.00003937,0
 .00003386,0.00017095,0.00011902,-0.00061452,0.04324610,-0.05720190,-0.
 00008953,-0.00001107,-0.00002138,0.00000276,0.00000530,-0.00000465,0.0
 0000319,-0.00000347,-0.00000684,-0.00000410,0.00001421,0.00001234,0.00
 005181,-0.00004062,-0.00000125,-0.00000861,-0.00008987,0.00031253,0.00
 048824,-0.00054228,0.00041201,0.00002260,0.00009194,-0.00019401,0.0000
 4578,-0.00012829,-0.00000286,-0.00005926,0.00006426,0.00002734,-0.0000
 7282,0.00002795,-0.00002199,0.00003997,0.00000283,0.00000558,-0.000016
 90,0.00000468,0.00000196,0.00000390,-0.00012108,-0.00020410,-0.0000795
 0,0.00025751,-0.00014970,0.00014513,0.00011670,0.00035511,-0.00014377,
 -0.01475055,0.00235247,0.00092765,-0.04034521,0.05675152,-0.00011847,0
 .00001912,0.00000285,0.00005441,-0.00004801,-0.00000790,0.00006042,0.0
 0003776,0.00003290,0.00015615,0.00002927,0.00019433,0.00074004,-0.0003
 1693,-0.00016170,0.00004484,0.00005844,-0.00011315,0.00011422,0.000112
 76,-0.00006557,-0.00004805,-0.00010460,0.00025982,0.00058874,0.0002741
 0,0.00032519,0.00105329,0.00154958,-0.00421449,0.00007087,0.00032128,-
 0.00007875,0.03238866,-0.00055975,-0.00409458,-0.00000935,0.00006081,0
 .00000362,0.00005417,-0.00001606,0.00006117,0.00191726,-0.00019585,0.0
 0132585,-0.01129324,0.00007176,-0.05113513,-0.00000030,0.00000683,0.00
 000401,-0.00000014,0.00000451,-0.00000117,0.00000880,0.00001451,0.0000
 1213,-0.00000385,0.00000031,-0.00002680,0.00004936,-0.00000498,-0.0000
 1153,-0.00009225,-0.00014930,-0.00015181,0.00006832,-0.00066076,0.0002
 3837,0.00001993,-0.00004238,0.00010117,-0.00010093,0.00003100,-0.00001
 734,0.00000709,0.00000629,-0.00002299,-0.00002754,0.00004292,-0.000001
 43,0.00002120,0.00001855,-0.00001389,-0.00001979,-0.00000179,-0.000018
 29,-0.00014974,0.00007231,0.00030232,-0.00018620,-0.00009782,-0.000238
 88,-0.00051427,0.00014374,-0.00051031,-0.02497062,0.00556077,0.0023727
 4,0.00020945,-0.00524234,0.05525276,-0.00007040,0.00001524,0.00006118,
 0.00002656,0.00001610,0.00000602,-0.00005231,0.00000954,0.00003475,0.0
 0023373,-0.00015410,0.00002928,-0.00052317,-0.00021917,-0.00044962,0.0
 0022844,0.00016402,-0.00000137,0.00007551,0.00019715,-0.00005250,-0.00
 021102,0.00003939,-0.00003315,0.00024879,-0.00003295,0.00027754,0.0020
 0214,-0.00157913,-0.00079563,-0.00030480,-0.00112169,-0.00035598,0.002
 59628,-0.01777587,0.00530148,-0.00023321,0.00001258,0.00006782,-0.0001
 0788,0.00004857,-0.00008531,-0.00020570,0.00072196,-0.00117585,-0.0628
 2760,0.05525151,-0.00188522,0.00000364,0.00000761,0.00000281,-0.000005
 75,0.00000101,-0.00001286,-0.00000389,-0.00000432,-0.00000045,0.000008
 99,0.00003243,0.00001458,0.00000236,0.00000055,0.00005747,-0.00096925,
 0.00030189,0.00088994,-0.00030200,0.00138731,0.00083851,0.00007065,-0.
 00007618,0.00001802,-0.00002505,0.00000155,0.00000322,0.00010562,-0.00
 004732,-0.00003497,0.00001082,-0.00000122,0.00002112,0.00002293,0.0000
 1957,-0.00000725,0.00002462,-0.00002002,0.00001123,-0.00008431,-0.0001
 2263,-0.00007146,0.00030388,0.00038563,-0.00012697,-0.00018980,0.00025
 759,0.00018620,0.00293951,-0.01374791,0.00031322,-0.00468529,0.0317991
 8,-0.00009249,0.06189697,-0.00005158,0.00001601,-0.00000533,0.00001539
 ,0.00007153,0.00000079,-0.00010457,-0.00000276,-0.00001478,0.00015686,
 -0.00012697,-0.00001727,-0.00056370,-0.00014039,0.00008655,0.00058385,
 0.00017008,0.00001977,0.00002392,0.00018117,0.00007108,-0.00037477,0.0
 0027551,-0.00014923,-0.00039298,-0.00033281,-0.00070688,0.00260313,0.0
 0068344,-0.00003874,-0.00023362,-0.00202971,-0.00033550,-0.00253783,-0
 .01625164,0.00936617,-0.00022805,-0.00020943,0.00008496,-0.00018164,0.
 00007857,-0.00024265,-0.00075758,0.00169649,-0.00142566,0.05273809,-0.
 30222945,0.00247612,0.00001732,0.00002775,-0.00000144,-0.00001734,-0.0
 0000187,0.00000200,-0.00000703,-0.00000669,0.00000320,0.00001018,0.000
 02999,0.00002172,-0.00005425,-0.00000516,-0.00001832,0.00033434,0.0006
 5165,0.00019815,-0.00022867,0.00388997,0.00051376,-0.00002521,0.000042
 82,-0.00000279,0.00006539,0.00003751,0.00005818,0.00005849,-0.00009200
 ,-0.00003990,-0.00000692,0.00001799,-0.00000264,0.00002092,0.00001214,
 0.00000980,0.00002822,-0.00005752,0.00005284,-0.00002031,0.00030759,0.
 00006830,0.00038516,0.00032582,0.00140624,0.00009462,-0.00014972,0.000
 09782,0.00381017,-0.01192735,0.00008205,0.00060789,-0.00259797,-0.0009
 9605,-0.05576789,0.32764543,0.00011493,0.00003909,-0.00002251,-0.00004
 931,0.00003226,-0.00000022,0.00004552,-0.00006338,-0.00003974,-0.00009
 743,0.00020762,0.00002513,0.00049758,0.00002915,0.00036357,-0.00037532
 ,-0.00019821,0.00002118,-0.00007889,-0.00018006,0.00002983,0.00015959,
 -0.00018518,-0.00003851,-0.00008034,0.00017942,-0.00009754,-0.00246749
 ,-0.00012621,0.00037460,0.00013502,0.00278584,0.00043050,-0.00134624,0
 .03587083,-0.01129805,0.00015517,0.00000292,-0.00061784,0.00011682,-0.
 00007748,0.00028358,0.00039848,0.00319696,0.00354051,-0.00105377,-0.00
 062228,-0.05020940,-0.00000484,0.00000319,-0.00001079,0.00000799,0.000
 00194,0.00000704,0.00000967,0.00000772,0.00000049,-0.00000532,-0.00002
 666,-0.00000421,0.00002949,0.00000661,-0.00000160,0.00075537,-0.000292
 50,-0.00021444,0.00066219,-0.00336646,-0.00159424,-0.00007681,0.000079
 80,-0.00002767,0.00014593,0.00012143,0.00016316,-0.00003289,0.00000393
 ,0.00025687,-0.00002207,-0.00000625,-0.00001969,-0.00000530,-0.0000343
 5,0.00002603,-0.00001776,0.00003883,-0.00007176,0.00003823,-0.00051927
 ,0.00011352,0.00012703,-0.00140649,0.00036400,-0.00008734,-0.00014512,
 -0.00023887,0.00627921,-0.02533442,0.00223175,-0.00092383,0.00059909,0
 .00039649,-0.00295328,-0.01062232,0.05587884\\-0.00000069,-0.00000678,
 0.00000070,-0.00001157,0.00001454,-0.00000047,-0.00000289,-0.00000935,
 0.,0.00000727,0.00000053,0.00000068,-0.00000211,0.00000085,-0.00000624
 ,-0.00001807,-0.00000362,-0.00000055,-0.00000643,0.00000948,0.00000004
 ,-0.00000243,-0.00000891,-0.00000030,0.00000191,-0.00000089,0.00000176
 ,-0.00002898,0.00001314,-0.00000216,-0.00001107,-0.00003836,0.00000245
 ,-0.00000614,0.00000188,0.00000281,0.00000978,-0.00000675,-0.00001725,
 0.00001077,-0.00000741,0.00001731,0.00000819,-0.00000149,0.00001659,0.
 00000558,0.00000230,-0.00001629,-0.00000852,0.00000173,-0.00000030,0.0
 0000227,-0.00000259,0.00000025,0.00000199,0.00000276,0.00000033,0.0000
 0166,-0.00000142,0.00000051,0.00000622,0.00000371,-0.00000004,-0.00000
 545,0.00000149,-0.00000051,0.00005339,0.00003935,0.00000239,-0.0000002
 1,-0.00000145,-0.00000023,-0.00000005,-0.00000073,0.00000181,-0.000001
 87,0.00000451,0.00000373,-0.00000029,-0.00000169,0.00000030,-0.0000001
 1,0.00000060,-0.00000173,-0.00000074,0.00000493,-0.00000318,0.00000047
 ,-0.00000132,-0.00000272,0.00000073,-0.00000377,-0.00000328,-0.0000010
 2,-0.00000120,-0.00000231,-0.00000018,0.00000045,0.00000108,-0.0000003
 1,-0.00000134,0.00000240,-0.00000112,-0.00000317,0.00000242\\\@


 IT'S WHAT YOU LEARN AFTER YOU KNOW IT ALL
 THAT COUNTS.
 Job cpu time:       0 days  2 hours  1 minutes  0.9 seconds.
 File lengths (MBytes):  RWF=    535 Int=      0 D2E=      0 Chk=     13 Scr=      1
 Normal termination of Gaussian 09 at Thu Jun 20 15:47:07 2024.
