 Entering Gaussian System, Link 0=g09
 Input=m062xDMAN.gjf
 Output=m062xDMAN.log
 Initial command:
 /home/phzd/g09E/g09/l1.exe "/home/phzd/g09E/scratch/Gau-630874.inp" -scrdir="/home/phzd/g09E/scratch/"
 Default is to use a total of  18 processors:
                               18 via shared-memory
                                1 via Linda
 Entering Link 1 = /home/phzd/g09E/g09/l1.exe PID=    630876.
  
 Copyright (c) 1988,1990,1992,1993,1995,1998,2003,2009,2015,
            Gaussian, Inc.  All Rights Reserved.
  
 This is part of the Gaussian(R) 09 program.  It is based on
 the Gaussian(R) 03 system (copyright 2003, Gaussian, Inc.),
 the Gaussian(R) 98 system (copyright 1998, Gaussian, Inc.),
 the Gaussian(R) 94 system (copyright 1995, Gaussian, Inc.),
 the Gaussian 92(TM) system (copyright 1992, Gaussian, Inc.),
 the Gaussian 90(TM) system (copyright 1990, Gaussian, Inc.),
 the Gaussian 88(TM) system (copyright 1988, Gaussian, Inc.),
 the Gaussian 86(TM) system (copyright 1986, Carnegie Mellon
 University), and the Gaussian 82(TM) system (copyright 1983,
 Carnegie Mellon University). Gaussian is a federally registered
 trademark of Gaussian, Inc.
  
 This software contains proprietary and confidential information,
 including trade secrets, belonging to Gaussian, Inc.
  
 This software is provided under written license and may be
 used, copied, transmitted, or stored only in accord with that
 written license.
  
 The following legend is applicable only to US Government
 contracts under FAR:
  
                    RESTRICTED RIGHTS LEGEND
  
 Use, reproduction and disclosure by the US Government is
 subject to restrictions as set forth in subparagraphs (a)
 and (c) of the Commercial Computer Software - Restricted
 Rights clause in FAR 52.227-19.
  
 Gaussian, Inc.
 340 Quinnipiac St., Bldg. 40, Wallingford CT 06492
  
  
 ---------------------------------------------------------------
 Warning -- This program may not be used in any manner that
 competes with the business of Gaussian, Inc. or will provide
 assistance to any competitor of Gaussian, Inc.  The licensee
 of this program is prohibited from giving any competitor of
 Gaussian, Inc. access to this program.  By using this program,
 the user acknowledges that Gaussian, Inc. is engaged in the
 business of creating and licensing software in the field of
 computational chemistry and represents and warrants to the
 licensee that it is not a competitor of Gaussian, Inc. and that
 it will not use this program in any manner prohibited above.
 ---------------------------------------------------------------
  

 Cite this work as:
 Gaussian 09, Revision E.01,
 M. J. Frisch, G. W. Trucks, H. B. Schlegel, G. E. Scuseria, 
 M. A. Robb, J. R. Cheeseman, G. Scalmani, V. Barone, B. Mennucci, 
 G. A. Petersson, H. Nakatsuji, M. Caricato, X. Li, H. P. Hratchian, 
 A. F. Izmaylov, J. Bloino, G. Zheng, J. L. Sonnenberg, M. Hada, 
 M. Ehara, K. Toyota, R. Fukuda, J. Hasegawa, M. Ishida, T. Nakajima, 
 Y. Honda, O. Kitao, H. Nakai, T. Vreven, J. A. Montgomery, Jr., 
 J. E. Peralta, F. Ogliaro, M. Bearpark, J. J. Heyd, E. Brothers, 
 K. N. Kudin, V. N. Staroverov, T. Keith, R. Kobayashi, J. Normand, 
 K. Raghavachari, A. Rendell, J. C. Burant, S. S. Iyengar, J. Tomasi, 
 M. Cossi, N. Rega, J. M. Millam, M. Klene, J. E. Knox, J. B. Cross, 
 V. Bakken, C. Adamo, J. Jaramillo, R. Gomperts, R. E. Stratmann, 
 O. Yazyev, A. J. Austin, R. Cammi, C. Pomelli, J. W. Ochterski, 
 R. L. Martin, K. Morokuma, V. G. Zakrzewski, G. A. Voth, 
 P. Salvador, J. J. Dannenberg, S. Dapprich, A. D. Daniels, 
 O. Farkas, J. B. Foresman, J. V. Ortiz, J. Cioslowski, 
 and D. J. Fox, Gaussian, Inc., Wallingford CT, 2013.
 
 ******************************************
 Gaussian 09:  ES64L-G09RevE.01 30-Nov-2015
                11-Jun-2024 
 ******************************************
 %chk=m062xDMAN.chk
 ----------------------------
 # opt freq m062x/6-31+g(d,p)
 ----------------------------
 1/14=-1,18=20,19=15,26=3,38=1/1,3;
 2/9=110,12=2,17=6,18=5,40=1/2;
 3/5=1,6=6,7=111,11=2,16=1,25=1,30=1,71=1,74=-55/1,2,3;
 4//1;
 5/5=2,38=5/2;
 6/7=2,8=2,9=2,10=2,28=1/1;
 7//1,2,3,16;
 1/14=-1,18=20,19=15,26=3/3(2);
 2/9=110/2;
 99//99;
 2/9=110/2;
 3/5=1,6=6,7=111,11=2,16=1,25=1,30=1,71=1,74=-55/1,2,3;
 4/5=5,16=3,69=1/1;
 5/5=2,38=5/2;
 7//1,2,3,16;
 1/14=-1,18=20,19=15,26=3/3(-5);
 2/9=110/2;
 6/7=2,8=2,9=2,10=2,19=2,28=1/1;
 99/9=1/99;
 ----------
 [No Title]
 ----------
 Symbolic Z-matrix:
 Charge =  0 Multiplicity = 1
 C                     0.6853    2.43818   0.21347 
 C                     2.08793   2.39784   0.35074 
 C                     2.75826   1.20955   0.19692 
 C                     2.03992  -0.00064   0.00001 
 C                     0.60072  -0.00018   0.00002 
 C                    -0.06348   1.28786  -0.01111 
 C                     2.75748  -1.21129  -0.19692 
 C                     2.0864   -2.39914  -0.35075 
 C                     0.68374  -2.43859  -0.21349 
 C                    -0.0643   -1.28779   0.01112 
 N                    -1.44826   1.37919  -0.26385 
 N                    -1.44914  -1.37825   0.26386 
 C                    -1.89977   0.882    -1.56137 
 C                    -2.13005   2.60225   0.11393 
 C                    -2.1317   -2.60087  -0.11399 
 C                    -1.90033  -0.88089   1.56143 
 H                     0.19366   3.40283   0.22173 
 H                     2.63295   3.3221    0.51864 
 H                     3.84301   1.17098   0.22731 
 H                     3.84226  -1.17341  -0.22731 
 H                     2.63083  -3.32374  -0.51867 
 H                     0.19148  -3.40293  -0.22177 
 H                    -1.32204   0.01023  -1.85825 
 H                    -2.95325   0.58987  -1.50007 
 H                    -1.79249   1.65716  -2.34066 
 H                    -1.87659   2.87458   1.14178 
 H                    -1.8994    3.46011  -0.54426 
 H                    -3.20932   2.42699   0.06041 
 H                    -1.87841  -2.8733   -1.14185 
 H                    -1.90157  -3.45891   0.54415 
 H                    -3.21086  -2.42494  -0.06045 
 H                    -1.32202  -0.00955   1.85841 
 H                    -2.95361  -0.58805   1.50014 
 H                    -1.79358  -1.65621   2.34064 
 

 GradGradGradGradGradGradGradGradGradGradGradGradGradGradGradGradGradGrad
 Berny optimization.
 Initialization pass.
                           ----------------------------
                           !    Initial Parameters    !
                           ! (Angstroms and Degrees)  !
 --------------------------                            --------------------------
 ! Name  Definition              Value          Derivative Info.                !
 --------------------------------------------------------------------------------
 ! R1    R(1,2)                  1.4099         estimate D2E/DX2                !
 ! R2    R(1,6)                  1.3908         estimate D2E/DX2                !
 ! R3    R(1,17)                 1.0827         estimate D2E/DX2                !
 ! R4    R(2,3)                  1.373          estimate D2E/DX2                !
 ! R5    R(2,18)                 1.086          estimate D2E/DX2                !
 ! R6    R(3,4)                  1.421          estimate D2E/DX2                !
 ! R7    R(3,19)                 1.0859         estimate D2E/DX2                !
 ! R8    R(4,5)                  1.4392         estimate D2E/DX2                !
 ! R9    R(4,7)                  1.421          estimate D2E/DX2                !
 ! R10   R(5,6)                  1.4492         estimate D2E/DX2                !
 ! R11   R(5,10)                 1.4492         estimate D2E/DX2                !
 ! R12   R(6,11)                 1.4106         estimate D2E/DX2                !
 ! R13   R(7,8)                  1.373          estimate D2E/DX2                !
 ! R14   R(7,20)                 1.0859         estimate D2E/DX2                !
 ! R15   R(8,9)                  1.4099         estimate D2E/DX2                !
 ! R16   R(8,21)                 1.086          estimate D2E/DX2                !
 ! R17   R(9,10)                 1.3908         estimate D2E/DX2                !
 ! R18   R(9,22)                 1.0827         estimate D2E/DX2                !
 ! R19   R(10,12)                1.4106         estimate D2E/DX2                !
 ! R20   R(11,13)                1.461          estimate D2E/DX2                !
 ! R21   R(11,14)                1.4503         estimate D2E/DX2                !
 ! R22   R(12,15)                1.4503         estimate D2E/DX2                !
 ! R23   R(12,16)                1.461          estimate D2E/DX2                !
 ! R24   R(13,23)                1.0871         estimate D2E/DX2                !
 ! R25   R(13,24)                1.095          estimate D2E/DX2                !
 ! R26   R(13,25)                1.1044         estimate D2E/DX2                !
 ! R27   R(14,26)                1.0931         estimate D2E/DX2                !
 ! R28   R(14,27)                1.1056         estimate D2E/DX2                !
 ! R29   R(14,28)                1.0947         estimate D2E/DX2                !
 ! R30   R(15,29)                1.0931         estimate D2E/DX2                !
 ! R31   R(15,30)                1.1056         estimate D2E/DX2                !
 ! R32   R(15,31)                1.0947         estimate D2E/DX2                !
 ! R33   R(16,32)                1.0871         estimate D2E/DX2                !
 ! R34   R(16,33)                1.095          estimate D2E/DX2                !
 ! R35   R(16,34)                1.1044         estimate D2E/DX2                !
 ! A1    A(2,1,6)              121.8472         estimate D2E/DX2                !
 ! A2    A(2,1,17)             118.4554         estimate D2E/DX2                !
 ! A3    A(6,1,17)             119.5808         estimate D2E/DX2                !
 ! A4    A(1,2,3)              119.9712         estimate D2E/DX2                !
 ! A5    A(1,2,18)             119.3375         estimate D2E/DX2                !
 ! A6    A(3,2,18)             120.5886         estimate D2E/DX2                !
 ! A7    A(2,3,4)              120.3844         estimate D2E/DX2                !
 ! A8    A(2,3,19)             121.0202         estimate D2E/DX2                !
 ! A9    A(4,3,19)             118.5948         estimate D2E/DX2                !
 ! A10   A(3,4,5)              120.3467         estimate D2E/DX2                !
 ! A11   A(3,4,7)              119.3067         estimate D2E/DX2                !
 ! A12   A(5,4,7)              120.3467         estimate D2E/DX2                !
 ! A13   A(4,5,6)              117.296          estimate D2E/DX2                !
 ! A14   A(4,5,10)             117.296          estimate D2E/DX2                !
 ! A15   A(6,5,10)             125.408          estimate D2E/DX2                !
 ! A16   A(1,6,5)              119.1506         estimate D2E/DX2                !
 ! A17   A(1,6,11)             120.2582         estimate D2E/DX2                !
 ! A18   A(5,6,11)             120.5858         estimate D2E/DX2                !
 ! A19   A(4,7,8)              120.3844         estimate D2E/DX2                !
 ! A20   A(4,7,20)             118.5948         estimate D2E/DX2                !
 ! A21   A(8,7,20)             121.0202         estimate D2E/DX2                !
 ! A22   A(7,8,9)              119.9713         estimate D2E/DX2                !
 ! A23   A(7,8,21)             120.5885         estimate D2E/DX2                !
 ! A24   A(9,8,21)             119.3374         estimate D2E/DX2                !
 ! A25   A(8,9,10)             121.8472         estimate D2E/DX2                !
 ! A26   A(8,9,22)             118.4554         estimate D2E/DX2                !
 ! A27   A(10,9,22)            119.5809         estimate D2E/DX2                !
 ! A28   A(5,10,9)             119.1505         estimate D2E/DX2                !
 ! A29   A(5,10,12)            120.5864         estimate D2E/DX2                !
 ! A30   A(9,10,12)            120.2578         estimate D2E/DX2                !
 ! A31   A(6,11,13)            116.1332         estimate D2E/DX2                !
 ! A32   A(6,11,14)            117.9964         estimate D2E/DX2                !
 ! A33   A(13,11,14)           111.9023         estimate D2E/DX2                !
 ! A34   A(10,12,15)           117.9957         estimate D2E/DX2                !
 ! A35   A(10,12,16)           116.1331         estimate D2E/DX2                !
 ! A36   A(15,12,16)           111.9016         estimate D2E/DX2                !
 ! A37   A(11,13,23)           110.5593         estimate D2E/DX2                !
 ! A38   A(11,13,24)           109.7794         estimate D2E/DX2                !
 ! A39   A(11,13,25)           110.9643         estimate D2E/DX2                !
 ! A40   A(23,13,24)           108.218          estimate D2E/DX2                !
 ! A41   A(23,13,25)           108.5734         estimate D2E/DX2                !
 ! A42   A(24,13,25)           108.677          estimate D2E/DX2                !
 ! A43   A(11,14,26)           110.2445         estimate D2E/DX2                !
 ! A44   A(11,14,27)           113.6531         estimate D2E/DX2                !
 ! A45   A(11,14,28)           108.4043         estimate D2E/DX2                !
 ! A46   A(26,14,27)           108.5475         estimate D2E/DX2                !
 ! A47   A(26,14,28)           108.3283         estimate D2E/DX2                !
 ! A48   A(27,14,28)           107.5056         estimate D2E/DX2                !
 ! A49   A(12,15,29)           110.2444         estimate D2E/DX2                !
 ! A50   A(12,15,30)           113.6531         estimate D2E/DX2                !
 ! A51   A(12,15,31)           108.4044         estimate D2E/DX2                !
 ! A52   A(29,15,30)           108.5475         estimate D2E/DX2                !
 ! A53   A(29,15,31)           108.3283         estimate D2E/DX2                !
 ! A54   A(30,15,31)           107.5056         estimate D2E/DX2                !
 ! A55   A(12,16,32)           110.5598         estimate D2E/DX2                !
 ! A56   A(12,16,33)           109.7792         estimate D2E/DX2                !
 ! A57   A(12,16,34)           110.9642         estimate D2E/DX2                !
 ! A58   A(32,16,33)           108.2181         estimate D2E/DX2                !
 ! A59   A(32,16,34)           108.5734         estimate D2E/DX2                !
 ! A60   A(33,16,34)           108.6768         estimate D2E/DX2                !
 ! D1    D(6,1,2,3)              3.257          estimate D2E/DX2                !
 ! D2    D(6,1,2,18)           179.5941         estimate D2E/DX2                !
 ! D3    D(17,1,2,3)          -172.7992         estimate D2E/DX2                !
 ! D4    D(17,1,2,18)            3.5379         estimate D2E/DX2                !
 ! D5    D(2,1,6,5)              4.9182         estimate D2E/DX2                !
 ! D6    D(2,1,6,11)          -174.2425         estimate D2E/DX2                !
 ! D7    D(17,1,6,5)          -179.0688         estimate D2E/DX2                !
 ! D8    D(17,1,6,11)            1.7704         estimate D2E/DX2                !
 ! D9    D(1,2,3,4)             -4.7773         estimate D2E/DX2                !
 ! D10   D(1,2,3,19)           175.517          estimate D2E/DX2                !
 ! D11   D(18,2,3,4)           178.932          estimate D2E/DX2                !
 ! D12   D(18,2,3,19)           -0.7737         estimate D2E/DX2                !
 ! D13   D(2,3,4,5)             -1.8847         estimate D2E/DX2                !
 ! D14   D(2,3,4,7)            178.1149         estimate D2E/DX2                !
 ! D15   D(19,3,4,5)           177.828          estimate D2E/DX2                !
 ! D16   D(19,3,4,7)            -2.1724         estimate D2E/DX2                !
 ! D17   D(3,4,5,6)              9.7352         estimate D2E/DX2                !
 ! D18   D(3,4,5,10)          -170.2659         estimate D2E/DX2                !
 ! D19   D(7,4,5,6)           -170.2644         estimate D2E/DX2                !
 ! D20   D(7,4,5,10)             9.7345         estimate D2E/DX2                !
 ! D21   D(3,4,7,8)            178.1165         estimate D2E/DX2                !
 ! D22   D(3,4,7,20)            -2.1716         estimate D2E/DX2                !
 ! D23   D(5,4,7,8)             -1.8838         estimate D2E/DX2                !
 ! D24   D(5,4,7,20)           177.828          estimate D2E/DX2                !
 ! D25   D(4,5,6,1)            -11.1324         estimate D2E/DX2                !
 ! D26   D(4,5,6,11)           168.0255         estimate D2E/DX2                !
 ! D27   D(10,5,6,1)           168.8688         estimate D2E/DX2                !
 ! D28   D(10,5,6,11)          -11.9732         estimate D2E/DX2                !
 ! D29   D(4,5,10,9)           -11.1324         estimate D2E/DX2                !
 ! D30   D(4,5,10,12)          168.0262         estimate D2E/DX2                !
 ! D31   D(6,5,10,9)           168.8664         estimate D2E/DX2                !
 ! D32   D(6,5,10,12)          -11.975          estimate D2E/DX2                !
 ! D33   D(1,6,11,13)          118.4388         estimate D2E/DX2                !
 ! D34   D(1,6,11,14)          -18.5645         estimate D2E/DX2                !
 ! D35   D(5,6,11,13)          -60.7098         estimate D2E/DX2                !
 ! D36   D(5,6,11,14)          162.2869         estimate D2E/DX2                !
 ! D37   D(4,7,8,9)             -4.7776         estimate D2E/DX2                !
 ! D38   D(4,7,8,21)           178.9315         estimate D2E/DX2                !
 ! D39   D(20,7,8,9)           175.5177         estimate D2E/DX2                !
 ! D40   D(20,7,8,21)           -0.7733         estimate D2E/DX2                !
 ! D41   D(7,8,9,10)             3.2564         estimate D2E/DX2                !
 ! D42   D(7,8,9,22)          -172.7995         estimate D2E/DX2                !
 ! D43   D(21,8,9,10)          179.5938         estimate D2E/DX2                !
 ! D44   D(21,8,9,22)            3.5379         estimate D2E/DX2                !
 ! D45   D(8,9,10,5)             4.9189         estimate D2E/DX2                !
 ! D46   D(8,9,10,12)         -174.2426         estimate D2E/DX2                !
 ! D47   D(22,9,10,5)         -179.0685         estimate D2E/DX2                !
 ! D48   D(22,9,10,12)           1.7701         estimate D2E/DX2                !
 ! D49   D(5,10,12,15)         162.2849         estimate D2E/DX2                !
 ! D50   D(5,10,12,16)         -60.714          estimate D2E/DX2                !
 ! D51   D(9,10,12,15)         -18.5658         estimate D2E/DX2                !
 ! D52   D(9,10,12,16)         118.4352         estimate D2E/DX2                !
 ! D53   D(6,11,13,23)          36.0814         estimate D2E/DX2                !
 ! D54   D(6,11,13,24)         155.4032         estimate D2E/DX2                !
 ! D55   D(6,11,13,25)         -84.4497         estimate D2E/DX2                !
 ! D56   D(14,11,13,23)        175.6155         estimate D2E/DX2                !
 ! D57   D(14,11,13,24)        -65.0627         estimate D2E/DX2                !
 ! D58   D(14,11,13,25)         55.0843         estimate D2E/DX2                !
 ! D59   D(6,11,14,26)         -49.1007         estimate D2E/DX2                !
 ! D60   D(6,11,14,27)          73.0174         estimate D2E/DX2                !
 ! D61   D(6,11,14,28)        -167.522          estimate D2E/DX2                !
 ! D62   D(13,11,14,26)        172.1893         estimate D2E/DX2                !
 ! D63   D(13,11,14,27)        -65.6926         estimate D2E/DX2                !
 ! D64   D(13,11,14,28)         53.768          estimate D2E/DX2                !
 ! D65   D(10,12,15,29)        -49.1013         estimate D2E/DX2                !
 ! D66   D(10,12,15,30)         73.0166         estimate D2E/DX2                !
 ! D67   D(10,12,15,31)       -167.5227         estimate D2E/DX2                !
 ! D68   D(16,12,15,29)        172.1906         estimate D2E/DX2                !
 ! D69   D(16,12,15,30)        -65.6915         estimate D2E/DX2                !
 ! D70   D(16,12,15,31)         53.7692         estimate D2E/DX2                !
 ! D71   D(10,12,16,32)         36.0791         estimate D2E/DX2                !
 ! D72   D(10,12,16,33)        155.4012         estimate D2E/DX2                !
 ! D73   D(10,12,16,34)        -84.4522         estimate D2E/DX2                !
 ! D74   D(15,12,16,32)        175.6111         estimate D2E/DX2                !
 ! D75   D(15,12,16,33)        -65.0668         estimate D2E/DX2                !
 ! D76   D(15,12,16,34)         55.0797         estimate D2E/DX2                !
 --------------------------------------------------------------------------------
 Trust Radius=3.00D-01 FncErr=1.00D-07 GrdErr=1.00D-06
 Number of steps in this run=    181 maximum allowed number of steps=    204.
 GradGradGradGradGradGradGradGradGradGradGradGradGradGradGradGradGradGrad

                          Input orientation:                          
 ---------------------------------------------------------------------
 Center     Atomic      Atomic             Coordinates (Angstroms)
 Number     Number       Type             X           Y           Z
 ---------------------------------------------------------------------
      1          6           0        0.685300    2.438176    0.213471
      2          6           0        2.087934    2.397839    0.350736
      3          6           0        2.758256    1.209550    0.196919
      4          6           0        2.039919   -0.000639    0.000009
      5          6           0        0.600717   -0.000180    0.000016
      6          6           0       -0.063477    1.287855   -0.011111
      7          6           0        2.757482   -1.211285   -0.196916
      8          6           0        2.086400   -2.399142   -0.350752
      9          6           0        0.683741   -2.438586   -0.213488
     10          6           0       -0.064301   -1.287792    0.011124
     11          7           0       -1.448261    1.379185   -0.263849
     12          7           0       -1.449143   -1.378254    0.263858
     13          6           0       -1.899770    0.882001   -1.561370
     14          6           0       -2.130052    2.602246    0.113931
     15          6           0       -2.131696   -2.600868   -0.113989
     16          6           0       -1.900327   -0.880894    1.561426
     17          1           0        0.193655    3.402828    0.221734
     18          1           0        2.632953    3.322096    0.518636
     19          1           0        3.843014    1.170979    0.227305
     20          1           0        3.842264   -1.173406   -0.227312
     21          1           0        2.630828   -3.323744   -0.518671
     22          1           0        0.191481   -3.402925   -0.221771
     23          1           0       -1.322043    0.010230   -1.858254
     24          1           0       -2.953249    0.589870   -1.500068
     25          1           0       -1.792487    1.657164   -2.340659
     26          1           0       -1.876588    2.874583    1.141778
     27          1           0       -1.899395    3.460108   -0.544255
     28          1           0       -3.209323    2.426989    0.060409
     29          1           0       -1.878406   -2.873302   -1.141853
     30          1           0       -1.901567   -3.458912    0.544145
     31          1           0       -3.210858   -2.424944   -0.060451
     32          1           0       -1.322017   -0.009547    1.858410
     33          1           0       -2.953608   -0.588047    1.500140
     34          1           0       -1.793580   -1.656211    2.340635
 ---------------------------------------------------------------------
                    Distance matrix (angstroms):
                    1          2          3          4          5
     1  C    0.000000
     2  C    1.409912   0.000000
     3  C    2.409760   1.372961   0.000000
     4  C    2.797924   2.424461   1.421034   0.000000
     5  C    2.449142   2.843469   2.481369   1.439202   0.000000
     6  C    1.390806   2.447768   2.830474   2.466701   1.449245
     7  C    4.216743   3.711333   2.452662   1.421035   2.481369
     8  C    5.067650   4.848001   3.711333   2.424461   2.843468
     9  C    4.895417   5.067654   4.216746   2.797925   2.449143
    10  C    3.806006   4.281510   3.773336   2.466704   1.449247
    11  N    2.429275   3.730958   4.235076   3.760443   2.484066
    12  N    4.373045   5.174683   4.939981   3.760451   2.484075
    13  C    3.500618   4.675008   4.989597   4.328754   3.077110
    14  C    2.821885   4.229570   5.083507   4.916975   3.773950
    15  C    5.782271   6.558073   6.207059   4.916966   3.773944
    16  C    4.417994   5.303026   5.285284   4.328789   3.077154
    17  H    1.082745   2.148241   3.374650   3.878330   3.434432
    18  H    2.160507   1.086042   2.140573   3.414854   3.928927
    19  H    3.402519   2.144930   1.085869   2.162291   3.454817
    20  H    4.817078   4.020647   2.652079   2.162292   3.454818
    21  H    6.125425   5.812668   4.591194   3.414854   3.928927
    22  H    5.878074   6.129695   5.295145   3.878332   3.434434
    23  H    3.770463   4.712564   4.723446   3.841360   2.674001
    24  H    4.426227   5.666370   5.990414   5.246967   3.902446
    25  H    3.643211   4.780154   5.229620   4.786896   3.735368
    26  H    2.759615   4.070684   5.014666   4.990948   3.962944
    27  H    2.880823   4.222347   5.225712   5.271735   4.303532
    28  H    3.897646   5.305287   6.092027   5.783733   4.517876
    29  H    6.051553   6.763476   6.321442   4.990923   3.962921
    30  H    6.448013   7.089080   6.605229   5.271722   4.303525
    31  H    6.237389   7.176734   6.993290   5.783733   4.517880
    32  H    3.567421   4.438057   4.571146   3.841399   2.674065
    33  H    4.904609   5.971080   6.128224   5.246976   3.902459
    34  H    5.237717   5.954928   5.790278   4.786979   3.735451
                    6          7          8          9         10
     6  C    0.000000
     7  C    3.773332   0.000000
     8  C    4.281504   1.372961   0.000000
     9  C    3.806002   2.409760   1.409911   0.000000
    10  C    2.575743   2.830476   2.447768   1.390807   0.000000
    11  N    1.410618   4.939969   5.174663   4.373025   3.017237
    12  N    3.017253   4.235078   3.730955   2.429271   1.410619
    13  C    2.437210   5.285223   5.302928   4.417874   3.248028
    14  C    2.452344   6.207063   6.558070   5.782268   4.405711
    15  C    4.405710   5.083491   4.229549   2.821865   2.452334
    16  C    3.248132   4.989600   4.674986   3.500590   2.437210
    17  H    2.143232   5.295141   6.129688   5.878071   4.702426
    18  H    3.418992   4.591194   5.812669   6.125430   5.365055
    19  H    3.915504   2.652079   4.020648   4.817080   4.621623
    20  H    4.621619   1.085869   2.144930   3.402520   3.915506
    21  H    5.365048   2.140572   1.086042   2.160507   3.418992
    22  H    4.702425   3.374650   2.148240   1.082746   2.143234
    23  H    2.574539   4.571068   4.437918   3.567229   2.600260
    24  H    3.324900   6.128198   5.971029   4.904542   3.762358
    25  H    2.924493   5.790151   5.954755   5.237531   4.146116
    26  H    2.670998   6.321473   6.763512   6.051594   4.678475
    27  H    2.893704   6.605230   7.089063   6.447991   5.120407
    28  H    3.346504   6.993284   7.176718   6.237370   4.867565
    29  H    4.678437   5.014645   4.070670   2.759608   2.670988
    30  H    5.120418   5.225680   4.222302   2.880779   2.893686
    31  H    4.867578   6.092017   5.305269   3.897628   3.346499
    32  H    2.600439   4.723436   4.712522   3.770419   2.574534
    33  H    3.762412   5.990407   5.666352   4.426209   3.324892
    34  H    4.146262   5.229655   4.780142   3.643182   2.924510
                   11         12         13         14         15
    11  N    0.000000
    12  N    2.807480   0.000000
    13  C    1.461032   2.939945   0.000000
    14  C    1.450322   4.041101   2.412241   0.000000
    15  C    4.041084   1.450321   3.778767   5.208104   0.000000
    16  C    2.940059   1.461033   3.586036   3.778926   2.412231
    17  H    2.650813   5.055621   3.730477   2.460115   6.447041
    18  H    4.587319   6.230707   5.552123   4.834065   7.627817
    19  H    5.318099   5.874253   6.021830   6.143199   7.073929
    20  H    5.874241   5.318101   6.243025   7.073935   6.143182
    21  H    6.230686   4.587314   6.269117   7.627812   4.834041
    22  H    5.055601   2.650807   4.952620   6.447037   2.460094
    23  H    2.105254   2.539173   1.087149   3.355732   3.242812
    24  H    2.101486   3.040934   1.094950   2.707823   3.574489
    25  H    2.123418   4.014369   1.104391   2.651819   4.817049
    26  H    2.096537   4.363493   3.358263   1.093106   5.623397
    27  H    2.147648   4.926004   2.771490   1.105594   6.080668
    28  H    2.074699   4.197559   2.594626   1.094717   5.145002
    29  H    4.363435   2.096535   3.778724   5.623339   1.093106
    30  H    4.926005   2.147647   4.824596   6.080701   1.105595
    31  H    4.197561   2.074699   3.861035   5.145016   1.094717
    32  H    2.539389   2.105259   3.580999   3.243083   3.355724
    33  H    3.041008   2.101484   3.555905   3.574603   2.707840
    34  H    4.014500   2.123417   4.656119   4.817248   2.651769
                   16         17         18         19         20
    16  C    0.000000
    17  H    4.952758   0.000000
    18  H    6.269224   2.458626   0.000000
    19  H    6.243078   4.277733   2.485242   0.000000
    20  H    6.021835   5.869915   4.714701   2.388057   0.000000
    21  H    5.552088   7.192690   6.726307   4.714701   2.485241
    22  H    3.730428   6.820189   7.192697   5.869920   4.277733
    23  H    3.580883   4.258334   5.679794   5.689878   5.543558
    24  H    3.555916   4.558546   6.538033   7.036384   7.134988
    25  H    4.656140   3.682114   5.525585   6.212060   6.650472
    26  H    3.778925   2.326248   4.574334   6.037580   7.139040
    27  H    4.824748   2.229547   4.657356   6.229822   7.384887
    28  H    3.861167   3.543804   5.928185   7.165255   7.922784
    29  H    3.358257   6.748527   7.841718   7.139009   6.037557
    30  H    2.771469   7.181739   8.157487   7.384882   6.229790
    31  H    2.594623   6.755240   8.216687   7.922788   7.165244
    32  H    1.087147   4.076797   5.341968   5.543617   5.689868
    33  H    1.094950   5.240865   6.889284   7.135009   7.036378
    34  H    1.104390   5.833757   6.906332   6.650591   6.212100
                   21         22         23         24         25
    21  H    0.000000
    22  H    2.458624   0.000000
    23  H    5.341821   4.076574   0.000000
    24  H    6.889226   5.240781   1.767799   0.000000
    25  H    6.906142   5.833551   1.779445   1.786919   0.000000
    26  H    7.841757   6.748576   4.184762   3.654923   3.690061
    27  H    8.157464   7.181712   3.736521   3.203506   2.547372
    28  H    8.216668   6.755220   3.617156   2.423978   2.892262
    29  H    4.574325   2.326260   3.022834   3.643785   4.687178
    30  H    4.657301   2.229487   4.259380   4.655908   5.874370
    31  H    5.928162   3.543781   3.567883   3.350815   4.886177
    32  H    5.679736   4.258268   3.716717   3.781480   4.542185
    33  H    6.538009   4.558520   3.781369   3.223156   4.597925
    34  H    5.525548   3.682038   4.542031   4.597903   5.735239
                   26         27         28         29         30
    26  H    0.000000
    27  H    1.784956   0.000000
    28  H    1.773663   1.774504   0.000000
    29  H    6.184914   6.361576   5.595521   0.000000
    30  H    6.361678   7.004103   6.048806   1.784955   0.000000
    31  H    5.595589   6.048788   4.853438   1.773664   1.774505
    32  H    3.023130   4.259656   3.568114   4.184763   3.736481
    33  H    3.643927   4.656015   3.350919   3.654939   3.203527
    34  H    4.687456   5.874564   4.886336   3.690017   2.547306
                   31         32         33         34
    31  H    0.000000
    32  H    3.617166   0.000000
    33  H    2.424008   1.767798   0.000000
    34  H    2.892204   1.779442   1.786917   0.000000
 Stoichiometry    C14H18N2
 Framework group  C1[X(C14H18N2)]
 Deg. of freedom    96
 Full point group                 C1      NOp   1
 Largest Abelian subgroup         C1      NOp   1
 Largest concise Abelian subgroup C1      NOp   1
                         Standard orientation:                         
 ---------------------------------------------------------------------
 Center     Atomic      Atomic             Coordinates (Angstroms)
 Number     Number       Type             X           Y           Z
 ---------------------------------------------------------------------
      1          6           0        0.685303    2.438175    0.213471
      2          6           0        2.087937    2.397836    0.350736
      3          6           0        2.758258    1.209546    0.196919
      4          6           0        2.039919   -0.000642    0.000009
      5          6           0        0.600717   -0.000181    0.000016
      6          6           0       -0.063475    1.287855   -0.011111
      7          6           0        2.757480   -1.211289   -0.196916
      8          6           0        2.086397   -2.399145   -0.350752
      9          6           0        0.683738   -2.438587   -0.213488
     10          6           0       -0.064303   -1.287792    0.011124
     11          7           0       -1.448259    1.379187   -0.263849
     12          7           0       -1.449145   -1.378252    0.263858
     13          6           0       -1.899769    0.882003   -1.561370
     14          6           0       -2.130049    2.602249    0.113931
     15          6           0       -2.131699   -2.600865   -0.113989
     16          6           0       -1.900328   -0.880892    1.561426
     17          1           0        0.193659    3.402828    0.221734
     18          1           0        2.632957    3.322092    0.518636
     19          1           0        3.843016    1.170974    0.227305
     20          1           0        3.842262   -1.173411   -0.227312
     21          1           0        2.630824   -3.323748   -0.518671
     22          1           0        0.191476   -3.402925   -0.221771
     23          1           0       -1.322043    0.010232   -1.858254
     24          1           0       -2.953248    0.589874   -1.500068
     25          1           0       -1.792485    1.657166   -2.340659
     26          1           0       -1.876584    2.874585    1.141778
     27          1           0       -1.899390    3.460110   -0.544255
     28          1           0       -3.209320    2.426993    0.060409
     29          1           0       -1.878410   -2.873300   -1.141853
     30          1           0       -1.901572   -3.458910    0.544145
     31          1           0       -3.210861   -2.424940   -0.060451
     32          1           0       -1.322017   -0.009545    1.858410
     33          1           0       -2.953609   -0.588043    1.500140
     34          1           0       -1.793582   -1.656209    2.340635
 ---------------------------------------------------------------------
 Rotational constants (GHZ):      0.6400856      0.6276782      0.3583819
 Standard basis: 6-31+G(d,p) (6D, 7F)
 There are   394 symmetry adapted cartesian basis functions of A   symmetry.
 There are   394 symmetry adapted basis functions of A   symmetry.
   394 basis functions,   638 primitive gaussians,   394 cartesian basis functions
    58 alpha electrons       58 beta electrons
       nuclear repulsion energy      1123.6382843982 Hartrees.
 NAtoms=   34 NActive=   34 NUniq=   34 SFac= 1.00D+00 NAtFMM=   60 NAOKFM=F Big=F
 Integral buffers will be    131072 words long.
 Raffenetti 2 integral format.
 Two-electron integral symmetry is turned on.
 One-electron integrals computed using PRISM.
 NBasis=   394 RedAO= T EigKep=  1.15D-06  NBF=   394
 NBsUse=   391 1.00D-06 EigRej=  9.85D-07 NBFU=   391
 ExpMin= 4.38D-02 ExpMax= 4.17D+03 ExpMxC= 6.27D+02 IAcc=2 IRadAn=         4 AccDes= 0.00D+00
 Harris functional with IExCor= 1009 and IRadAn=       4 diagonalized for initial guess.
 HarFok:  IExCor= 1009 AccDes= 0.00D+00 IRadAn=         4 IDoV= 1 UseB2=F ITyADJ=14
 ICtDFT=  3500011 ScaDFX=  1.000000  1.000000  1.000000  1.000000
 FoFCou: FMM=F IPFlag=           0 FMFlag=      100000 FMFlg1=           0
         NFxFlg=           0 DoJE=T BraDBF=F KetDBF=T FulRan=T
         wScrn=  0.000000 ICntrl=     500 IOpCl=  0 I1Cent=   200000004 NGrid=           0
         NMat0=    1 NMatS0=      1 NMatT0=    0 NMatD0=    1 NMtDS0=    0 NMtDT0=    0
 Petite list used in FoFCou.
 Requested convergence on RMS density matrix=1.00D-08 within 128 cycles.
 Requested convergence on MAX density matrix=1.00D-06.
 Requested convergence on             energy=1.00D-06.
 No special actions if energy rises.
 SCF Done:  E(RM062X) =  -653.555207801     A.U. after   15 cycles
            NFock= 15  Conv=0.58D-08     -V/T= 2.0091

 **********************************************************************

            Population analysis using the SCF density.

 **********************************************************************

 Orbital symmetries:
       Occupied  (A) (A) (A) (A) (A) (A) (A) (A) (A) (A) (A) (A)
                 (A) (A) (A) (A) (A) (A) (A) (A) (A) (A) (A) (A)
                 (A) (A) (A) (A) (A) (A) (A) (A) (A) (A) (A) (A)
                 (A) (A) (A) (A) (A) (A) (A) (A) (A) (A) (A) (A)
                 (A) (A) (A) (A) (A) (A) (A) (A) (A) (A)
       Virtual   (A) (A) (A) (A) (A) (A) (A) (A) (A) (A) (A) (A)
                 (A) (A) (A) (A) (A) (A) (A) (A) (A) (A) (A) (A)
                 (A) (A) (A) (A) (A) (A) (A) (A) (A) (A) (A) (A)
                 (A) (A) (A) (A) (A) (A) (A) (A) (A) (A) (A) (A)
                 (A) (A) (A) (A) (A) (A) (A) (A) (A) (A) (A) (A)
                 (A) (A) (A) (A) (A) (A) (A) (A) (A) (A) (A) (A)
                 (A) (A) (A) (A) (A) (A) (A) (A) (A) (A) (A) (A)
                 (A) (A) (A) (A) (A) (A) (A) (A) (A) (A) (A) (A)
                 (A) (A) (A) (A) (A) (A) (A) (A) (A) (A) (A) (A)
                 (A) (A) (A) (A) (A) (A) (A) (A) (A) (A) (A) (A)
                 (A) (A) (A) (A) (A) (A) (A) (A) (A) (A) (A) (A)
                 (A) (A) (A) (A) (A) (A) (A) (A) (A) (A) (A) (A)
                 (A) (A) (A) (A) (A) (A) (A) (A) (A) (A) (A) (A)
                 (A) (A) (A) (A) (A) (A) (A) (A) (A) (A) (A) (A)
                 (A) (A) (A) (A) (A) (A) (A) (A) (A) (A) (A) (A)
                 (A) (A) (A) (A) (A) (A) (A) (A) (A) (A) (A) (A)
                 (A) (A) (A) (A) (A) (A) (A) (A) (A) (A) (A) (A)
                 (A) (A) (A) (A) (A) (A) (A) (A) (A) (A) (A) (A)
                 (A) (A) (A) (A) (A) (A) (A) (A) (A) (A) (A) (A)
                 (A) (A) (A) (A) (A) (A) (A) (A) (A) (A) (A) (A)
                 (A) (A) (A) (A) (A) (A) (A) (A) (A) (A) (A) (A)
                 (A) (A) (A) (A) (A) (A) (A) (A) (A) (A) (A) (A)
                 (A) (A) (A) (A) (A) (A) (A) (A) (A) (A) (A) (A)
                 (A) (A) (A) (A) (A) (A) (A) (A) (A) (A) (A) (A)
                 (A) (A) (A) (A) (A) (A) (A) (A) (A) (A) (A) (A)
                 (A) (A) (A) (A) (A) (A) (A) (A) (A) (A) (A) (A)
                 (A) (A) (A) (A) (A) (A) (A) (A) (A) (A) (A) (A)
                 (A) (A) (A) (A) (A) (A) (A) (A) (A)
 The electronic state is 1-A.
 Alpha  occ. eigenvalues --  -14.76569 -14.76569 -10.59161 -10.59160 -10.57209
 Alpha  occ. eigenvalues --  -10.57209 -10.56563 -10.56563 -10.56265 -10.56013
 Alpha  occ. eigenvalues --  -10.55071 -10.55071 -10.54476 -10.54476 -10.54454
 Alpha  occ. eigenvalues --  -10.54452  -1.05654  -1.03889  -0.96299  -0.91290
 Alpha  occ. eigenvalues --   -0.86057  -0.83674  -0.81570  -0.80313  -0.80053
 Alpha  occ. eigenvalues --   -0.73976  -0.73876  -0.69284  -0.67911  -0.63551
 Alpha  occ. eigenvalues --   -0.59275  -0.58421  -0.57283  -0.54978  -0.54398
 Alpha  occ. eigenvalues --   -0.53323  -0.52556  -0.52042  -0.51074  -0.48628
 Alpha  occ. eigenvalues --   -0.47392  -0.46966  -0.46059  -0.45740  -0.45352
 Alpha  occ. eigenvalues --   -0.44489  -0.44269  -0.43313  -0.43164  -0.42945
 Alpha  occ. eigenvalues --   -0.39838  -0.39179  -0.38841  -0.34733  -0.31648
 Alpha  occ. eigenvalues --   -0.29096  -0.25570  -0.23255
 Alpha virt. eigenvalues --   -0.00738   0.01343   0.01415   0.02105   0.02578
 Alpha virt. eigenvalues --    0.03096   0.03749   0.03786   0.04587   0.05341
 Alpha virt. eigenvalues --    0.05883   0.05918   0.06012   0.06319   0.06860
 Alpha virt. eigenvalues --    0.07402   0.08227   0.08705   0.08810   0.09863
 Alpha virt. eigenvalues --    0.10306   0.10443   0.11273   0.11584   0.12124
 Alpha virt. eigenvalues --    0.12577   0.13101   0.13187   0.13654   0.13881
 Alpha virt. eigenvalues --    0.15014   0.15440   0.15906   0.16355   0.17059
 Alpha virt. eigenvalues --    0.17098   0.18075   0.18242   0.18888   0.19355
 Alpha virt. eigenvalues --    0.19966   0.20741   0.20951   0.21450   0.21867
 Alpha virt. eigenvalues --    0.21927   0.22637   0.22679   0.23375   0.23591
 Alpha virt. eigenvalues --    0.23674   0.23939   0.25204   0.25799   0.26107
 Alpha virt. eigenvalues --    0.26162   0.26482   0.26553   0.26834   0.27996
 Alpha virt. eigenvalues --    0.28214   0.28815   0.28895   0.29305   0.29562
 Alpha virt. eigenvalues --    0.30161   0.30390   0.30642   0.30915   0.31162
 Alpha virt. eigenvalues --    0.31937   0.32312   0.32833   0.33275   0.33700
 Alpha virt. eigenvalues --    0.34466   0.35109   0.35416   0.35713   0.36359
 Alpha virt. eigenvalues --    0.36552   0.37065   0.37171   0.38437   0.38929
 Alpha virt. eigenvalues --    0.40192   0.41332   0.41367   0.43266   0.44412
 Alpha virt. eigenvalues --    0.44551   0.47014   0.47384   0.49387   0.49709
 Alpha virt. eigenvalues --    0.51816   0.51822   0.59225   0.60639   0.66146
 Alpha virt. eigenvalues --    0.69620   0.69859   0.72027   0.73675   0.73678
 Alpha virt. eigenvalues --    0.74341   0.75186   0.75507   0.75902   0.76453
 Alpha virt. eigenvalues --    0.77466   0.78615   0.79119   0.79853   0.80218
 Alpha virt. eigenvalues --    0.80884   0.81500   0.83686   0.83939   0.84650
 Alpha virt. eigenvalues --    0.84969   0.86089   0.87996   0.88177   0.89905
 Alpha virt. eigenvalues --    0.91075   0.91942   0.92994   0.94002   0.94795
 Alpha virt. eigenvalues --    0.95921   0.96210   0.96608   0.97219   0.99868
 Alpha virt. eigenvalues --    0.99882   1.01005   1.01071   1.02675   1.03383
 Alpha virt. eigenvalues --    1.03981   1.05024   1.05863   1.06080   1.08639
 Alpha virt. eigenvalues --    1.09074   1.09527   1.10270   1.10965   1.11746
 Alpha virt. eigenvalues --    1.13811   1.14006   1.14142   1.18890   1.18926
 Alpha virt. eigenvalues --    1.20013   1.20208   1.20822   1.21111   1.21446
 Alpha virt. eigenvalues --    1.21877   1.24563   1.26505   1.29181   1.29557
 Alpha virt. eigenvalues --    1.31001   1.31074   1.31459   1.33575   1.35428
 Alpha virt. eigenvalues --    1.35549   1.37771   1.38436   1.39408   1.40895
 Alpha virt. eigenvalues --    1.41123   1.41822   1.44208   1.45323   1.46791
 Alpha virt. eigenvalues --    1.46910   1.47663   1.49788   1.53847   1.54439
 Alpha virt. eigenvalues --    1.59665   1.59876   1.61386   1.64551   1.65449
 Alpha virt. eigenvalues --    1.68573   1.70458   1.77645   1.78566   1.80657
 Alpha virt. eigenvalues --    1.82004   1.84323   1.85348   1.87072   1.89238
 Alpha virt. eigenvalues --    1.90752   1.91283   1.92224   1.95049   1.96710
 Alpha virt. eigenvalues --    1.96718   1.97967   1.99470   2.00128   2.01631
 Alpha virt. eigenvalues --    2.02625   2.04119   2.04539   2.04871   2.06703
 Alpha virt. eigenvalues --    2.07895   2.08463   2.08866   2.09507   2.09918
 Alpha virt. eigenvalues --    2.10235   2.10792   2.12188   2.12270   2.13785
 Alpha virt. eigenvalues --    2.15436   2.16793   2.17149   2.17823   2.20401
 Alpha virt. eigenvalues --    2.20888   2.21083   2.22213   2.23792   2.24766
 Alpha virt. eigenvalues --    2.25439   2.28120   2.29603   2.30899   2.31636
 Alpha virt. eigenvalues --    2.33606   2.33667   2.36327   2.40966   2.41516
 Alpha virt. eigenvalues --    2.42475   2.43556   2.44255   2.44631   2.46562
 Alpha virt. eigenvalues --    2.47775   2.48099   2.50672   2.51869   2.52046
 Alpha virt. eigenvalues --    2.55318   2.55670   2.57339   2.59570   2.60076
 Alpha virt. eigenvalues --    2.60376   2.61042   2.63320   2.64211   2.66344
 Alpha virt. eigenvalues --    2.66372   2.68228   2.69413   2.69501   2.70280
 Alpha virt. eigenvalues --    2.72447   2.73789   2.74079   2.74703   2.75657
 Alpha virt. eigenvalues --    2.76271   2.76792   2.78174   2.79984   2.80327
 Alpha virt. eigenvalues --    2.81514   2.85167   2.87165   2.87383   2.88343
 Alpha virt. eigenvalues --    2.91715   2.94680   2.95407   2.97320   2.98582
 Alpha virt. eigenvalues --    3.04327   3.05179   3.12298   3.12664   3.13541
 Alpha virt. eigenvalues --    3.18234   3.21036   3.25126   3.25451   3.26268
 Alpha virt. eigenvalues --    3.27378   3.28600   3.28671   3.32827   3.37623
 Alpha virt. eigenvalues --    3.42832   3.43429   3.43741   3.44346   3.45121
 Alpha virt. eigenvalues --    3.45639   3.49610   3.49714   3.53889   3.54899
 Alpha virt. eigenvalues --    3.77322   3.82852   4.33460   4.34781   4.38463
 Alpha virt. eigenvalues --    4.38590   4.44408   4.46840   4.47147   4.53842
 Alpha virt. eigenvalues --    4.55948   4.61039   4.62904   4.65381   4.68638
 Alpha virt. eigenvalues --    4.69795   4.73854   4.94920
          Condensed to atoms (all electrons):
               1          2          3          4          5          6
     1  C   10.694879  -0.777524   0.231519  -0.073131  -0.444166  -0.993424
     2  C   -0.777524   7.588964  -1.076444   0.325235  -0.677724   0.369723
     3  C    0.231519  -1.076444  10.440952  -2.494254   0.302647  -0.812931
     4  C   -0.073131   0.325235  -2.494254   9.134394   0.098848   0.578102
     5  C   -0.444166  -0.677724   0.302647   0.098848  11.291197  -1.898236
     6  C   -0.993424   0.369723  -0.812931   0.578102  -1.898236  11.529934
     7  C    0.105571  -0.366377   1.478768  -2.494169   0.302964  -1.913783
     8  C    0.092053  -0.248241  -0.366369   0.325349  -0.678007   0.964875
     9  C   -0.811329   0.091997   0.105626  -0.073513  -0.442810  -2.358932
    10  C   -2.358865   0.964720  -1.913696   0.577820  -1.897193   1.514371
    11  N    0.023711  -0.001923  -0.050598  -0.030738  -0.253794   0.082233
    12  N    0.079946   0.000888   0.019050  -0.030721  -0.253786   0.019809
    13  C    0.225761  -0.091930   0.089873  -0.006937   0.182456  -0.443783
    14  C    0.084089  -0.028596   0.005031  -0.014482  -0.002715  -0.312485
    15  C    0.019091   0.000946  -0.020131  -0.014489  -0.002652  -0.044509
    16  C   -0.001962  -0.024916   0.013861  -0.006955   0.182483  -0.325871
    17  H    0.163843   0.020787   0.021592  -0.000623   0.094438   0.020871
    18  H    0.026884   0.207246   0.073957   0.029550  -0.024713   0.014497
    19  H    0.018428   0.023190   0.220018   0.057781   0.012007   0.001638
    20  H   -0.002848   0.013910  -0.039362   0.057784   0.012006   0.003797
    21  H   -0.001478   0.002431  -0.002155   0.029549  -0.024708  -0.004607
    22  H    0.003857  -0.001756   0.011022  -0.000609   0.094401   0.012731
    23  H   -0.064323  -0.012992   0.007558   0.014377   0.121758  -0.146745
    24  H   -0.013574   0.002392   0.000200  -0.000754  -0.021755   0.027448
    25  H    0.081798  -0.000521  -0.002208  -0.000885  -0.049405  -0.019286
    26  H    0.054327   0.010706   0.003531  -0.007115  -0.016789  -0.080880
    27  H    0.084930   0.021792   0.000959   0.003286  -0.029458  -0.099244
    28  H   -0.061988  -0.010204   0.000097  -0.000188   0.018656   0.065949
    29  H   -0.000186   0.000177  -0.001230  -0.007117  -0.016780  -0.007294
    30  H   -0.001502   0.000215   0.000151   0.003285  -0.029450  -0.007642
    31  H    0.002071  -0.000069  -0.000012  -0.000187   0.018649   0.010506
    32  H    0.078775  -0.013423   0.015353   0.014385   0.121708  -0.011765
    33  H    0.003922   0.000595  -0.001855  -0.000754  -0.021765   0.037391
    34  H   -0.015388   0.001439  -0.000077  -0.000888  -0.049387  -0.032956
               7          8          9         10         11         12
     1  C    0.105571   0.092053  -0.811329  -2.358865   0.023711   0.079946
     2  C   -0.366377  -0.248241   0.091997   0.964720  -0.001923   0.000888
     3  C    1.478768  -0.366369   0.105626  -1.913696  -0.050598   0.019050
     4  C   -2.494169   0.325349  -0.073513   0.577820  -0.030738  -0.030721
     5  C    0.302964  -0.678007  -0.442810  -1.897193  -0.253794  -0.253786
     6  C   -1.913783   0.964875  -2.358932   1.514371   0.082233   0.019809
     7  C   10.440601  -1.076382   0.231385  -0.812723   0.019043  -0.050601
     8  C   -1.076382   7.588907  -0.777620   0.369747   0.000891  -0.001922
     9  C    0.231385  -0.777620  10.693940  -0.993363   0.079978   0.023816
    10  C   -0.812723   0.369747  -0.993363  11.528853   0.019912   0.082196
    11  N    0.019043   0.000891   0.079978   0.019912   7.488844  -0.133918
    12  N   -0.050601  -0.001922   0.023816   0.082196  -0.133918   7.488911
    13  C    0.013871  -0.024922  -0.001947  -0.325844   0.185686  -0.018667
    14  C   -0.020134   0.000950   0.019070  -0.044533   0.152735   0.002606
    15  C    0.005013  -0.028601   0.084018  -0.312485   0.002600   0.152730
    16  C    0.089872  -0.091925   0.225804  -0.443805  -0.018662   0.185682
    17  H    0.011020  -0.001756   0.003858   0.012734  -0.025667   0.000120
    18  H   -0.002154   0.002430  -0.001478  -0.004605  -0.000999   0.000063
    19  H   -0.039361   0.013904  -0.002846   0.003799   0.000185   0.000043
    20  H    0.220034   0.023167   0.018429   0.001640   0.000043   0.000185
    21  H    0.073965   0.207242   0.026880   0.014496   0.000063  -0.000999
    22  H    0.021605   0.020788   0.163889   0.020836   0.000120  -0.025667
    23  H    0.015353  -0.013425   0.078786  -0.011786  -0.040681  -0.014055
    24  H   -0.001855   0.000595   0.003917   0.037371  -0.050432  -0.005532
    25  H   -0.000077   0.001439  -0.015387  -0.032941  -0.064618   0.005339
    26  H   -0.001229   0.000177  -0.000186  -0.007298  -0.040131  -0.000009
    27  H    0.000151   0.000215  -0.001502  -0.007643  -0.032233  -0.000283
    28  H   -0.000012  -0.000069   0.002071   0.010508  -0.079186  -0.001602
    29  H    0.003530   0.010708   0.054313  -0.080877  -0.000010  -0.040130
    30  H    0.000958   0.021788   0.084906  -0.099235  -0.000283  -0.032229
    31  H    0.000098  -0.010203  -0.061976   0.065953  -0.001602  -0.079188
    32  H    0.007558  -0.012992  -0.064317  -0.146702  -0.014054  -0.040684
    33  H    0.000200   0.002391  -0.013586   0.027448  -0.005534  -0.050433
    34  H   -0.002208  -0.000519   0.081806  -0.019310   0.005340  -0.064613
              13         14         15         16         17         18
     1  C    0.225761   0.084089   0.019091  -0.001962   0.163843   0.026884
     2  C   -0.091930  -0.028596   0.000946  -0.024916   0.020787   0.207246
     3  C    0.089873   0.005031  -0.020131   0.013861   0.021592   0.073957
     4  C   -0.006937  -0.014482  -0.014489  -0.006955  -0.000623   0.029550
     5  C    0.182456  -0.002715  -0.002652   0.182483   0.094438  -0.024713
     6  C   -0.443783  -0.312485  -0.044509  -0.325871   0.020871   0.014497
     7  C    0.013871  -0.020134   0.005013   0.089872   0.011020  -0.002154
     8  C   -0.024922   0.000950  -0.028601  -0.091925  -0.001756   0.002430
     9  C   -0.001947   0.019070   0.084018   0.225804   0.003858  -0.001478
    10  C   -0.325844  -0.044533  -0.312485  -0.443805   0.012734  -0.004605
    11  N    0.185686   0.152735   0.002600  -0.018662  -0.025667  -0.000999
    12  N   -0.018667   0.002606   0.152730   0.185682   0.000120   0.000063
    13  C    5.210292  -0.046517  -0.008644  -0.007956  -0.001425   0.000027
    14  C   -0.046517   5.186227   0.007384  -0.008644  -0.006224   0.001101
    15  C   -0.008644   0.007384   5.186237  -0.046517   0.000097   0.000003
    16  C   -0.007956  -0.008644  -0.046517   5.210303  -0.000510   0.000056
    17  H   -0.001425  -0.006224   0.000097  -0.000510   0.555511  -0.004376
    18  H    0.000027   0.001101   0.000003   0.000056  -0.004376   0.534865
    19  H   -0.000029   0.000162  -0.000021   0.000100  -0.000167  -0.003587
    20  H    0.000100  -0.000021   0.000162  -0.000029   0.000000  -0.000008
    21  H    0.000056   0.000003   0.001101   0.000027  -0.000000  -0.000000
    22  H   -0.000510   0.000097  -0.006224  -0.001425  -0.000000  -0.000000
    23  H    0.412989   0.011082  -0.000056   0.004484   0.000017   0.000000
    24  H    0.401443  -0.018977  -0.002063  -0.000794  -0.000005  -0.000000
    25  H    0.431064   0.005610   0.000654  -0.001114  -0.000050   0.000001
    26  H    0.012980   0.433809  -0.000457  -0.000037  -0.002610  -0.000003
    27  H    0.001067   0.398277   0.000351   0.000050  -0.001903   0.000007
    28  H   -0.013491   0.423846  -0.000341  -0.000818   0.000333  -0.000000
    29  H   -0.000037  -0.000457   0.433807   0.012981   0.000000   0.000000
    30  H    0.000050   0.000351   0.398279   0.001069   0.000000  -0.000000
    31  H   -0.000818  -0.000341   0.423845  -0.013494  -0.000000   0.000000
    32  H    0.004482  -0.000054   0.011083   0.412978  -0.000020  -0.000000
    33  H   -0.000795  -0.002063  -0.018977   0.401444  -0.000000  -0.000000
    34  H   -0.001113   0.000654   0.005609   0.431073   0.000000  -0.000000
              19         20         21         22         23         24
     1  C    0.018428  -0.002848  -0.001478   0.003857  -0.064323  -0.013574
     2  C    0.023190   0.013910   0.002431  -0.001756  -0.012992   0.002392
     3  C    0.220018  -0.039362  -0.002155   0.011022   0.007558   0.000200
     4  C    0.057781   0.057784   0.029549  -0.000609   0.014377  -0.000754
     5  C    0.012007   0.012006  -0.024708   0.094401   0.121758  -0.021755
     6  C    0.001638   0.003797  -0.004607   0.012731  -0.146745   0.027448
     7  C   -0.039361   0.220034   0.073965   0.021605   0.015353  -0.001855
     8  C    0.013904   0.023167   0.207242   0.020788  -0.013425   0.000595
     9  C   -0.002846   0.018429   0.026880   0.163889   0.078786   0.003917
    10  C    0.003799   0.001640   0.014496   0.020836  -0.011786   0.037371
    11  N    0.000185   0.000043   0.000063   0.000120  -0.040681  -0.050432
    12  N    0.000043   0.000185  -0.000999  -0.025667  -0.014055  -0.005532
    13  C   -0.000029   0.000100   0.000056  -0.000510   0.412989   0.401443
    14  C    0.000162  -0.000021   0.000003   0.000097   0.011082  -0.018977
    15  C   -0.000021   0.000162   0.001101  -0.006224  -0.000056  -0.002063
    16  C    0.000100  -0.000029   0.000027  -0.001425   0.004484  -0.000794
    17  H   -0.000167   0.000000  -0.000000  -0.000000   0.000017  -0.000005
    18  H   -0.003587  -0.000008  -0.000000  -0.000000   0.000000  -0.000000
    19  H    0.544502   0.002528  -0.000008   0.000000  -0.000000   0.000000
    20  H    0.002528   0.544501  -0.003587  -0.000167  -0.000000  -0.000000
    21  H   -0.000008  -0.003587   0.534866  -0.004376  -0.000000  -0.000000
    22  H    0.000000  -0.000167  -0.004376   0.555512  -0.000020  -0.000000
    23  H   -0.000000  -0.000000  -0.000000  -0.000020   0.513205  -0.021772
    24  H    0.000000  -0.000000  -0.000000  -0.000000  -0.021772   0.549654
    25  H    0.000000   0.000000  -0.000000   0.000000  -0.029381  -0.043090
    26  H    0.000000  -0.000000   0.000000   0.000000  -0.000163   0.000282
    27  H    0.000000   0.000000  -0.000000   0.000000  -0.000081  -0.001357
    28  H   -0.000000   0.000000   0.000000  -0.000000   0.000279   0.003624
    29  H   -0.000000   0.000000  -0.000003  -0.002611   0.000100  -0.000059
    30  H    0.000000   0.000000   0.000007  -0.001903  -0.000034   0.000001
    31  H    0.000000  -0.000000  -0.000000   0.000333   0.000107   0.000105
    32  H   -0.000000  -0.000000   0.000000   0.000017  -0.000050   0.000139
    33  H   -0.000000   0.000000  -0.000000  -0.000005   0.000139   0.000231
    34  H    0.000000   0.000000   0.000001  -0.000050  -0.000022  -0.000018
              25         26         27         28         29         30
     1  C    0.081798   0.054327   0.084930  -0.061988  -0.000186  -0.001502
     2  C   -0.000521   0.010706   0.021792  -0.010204   0.000177   0.000215
     3  C   -0.002208   0.003531   0.000959   0.000097  -0.001230   0.000151
     4  C   -0.000885  -0.007115   0.003286  -0.000188  -0.007117   0.003285
     5  C   -0.049405  -0.016789  -0.029458   0.018656  -0.016780  -0.029450
     6  C   -0.019286  -0.080880  -0.099244   0.065949  -0.007294  -0.007642
     7  C   -0.000077  -0.001229   0.000151  -0.000012   0.003530   0.000958
     8  C    0.001439   0.000177   0.000215  -0.000069   0.010708   0.021788
     9  C   -0.015387  -0.000186  -0.001502   0.002071   0.054313   0.084906
    10  C   -0.032941  -0.007298  -0.007643   0.010508  -0.080877  -0.099235
    11  N   -0.064618  -0.040131  -0.032233  -0.079186  -0.000010  -0.000283
    12  N    0.005339  -0.000009  -0.000283  -0.001602  -0.040130  -0.032229
    13  C    0.431064   0.012980   0.001067  -0.013491  -0.000037   0.000050
    14  C    0.005610   0.433809   0.398277   0.423846  -0.000457   0.000351
    15  C    0.000654  -0.000457   0.000351  -0.000341   0.433807   0.398279
    16  C   -0.001114  -0.000037   0.000050  -0.000818   0.012981   0.001069
    17  H   -0.000050  -0.002610  -0.001903   0.000333   0.000000   0.000000
    18  H    0.000001  -0.000003   0.000007  -0.000000   0.000000  -0.000000
    19  H    0.000000   0.000000   0.000000  -0.000000  -0.000000   0.000000
    20  H    0.000000  -0.000000   0.000000   0.000000   0.000000   0.000000
    21  H   -0.000000   0.000000  -0.000000   0.000000  -0.000003   0.000007
    22  H    0.000000   0.000000   0.000000  -0.000000  -0.002611  -0.001903
    23  H   -0.029381  -0.000163  -0.000081   0.000279   0.000100  -0.000034
    24  H   -0.043090   0.000282  -0.001357   0.003624  -0.000059   0.000001
    25  H    0.584318  -0.000187   0.006942  -0.002582   0.000003   0.000000
    26  H   -0.000187   0.529242  -0.038339  -0.017255  -0.000000   0.000000
    27  H    0.006942  -0.038339   0.581092  -0.040004   0.000000  -0.000000
    28  H   -0.002582  -0.017255  -0.040004   0.542928  -0.000000   0.000000
    29  H    0.000003  -0.000000   0.000000  -0.000000   0.529239  -0.038339
    30  H    0.000000   0.000000  -0.000000   0.000000  -0.038339   0.581093
    31  H   -0.000001  -0.000000   0.000000   0.000001  -0.017255  -0.040003
    32  H   -0.000022   0.000100  -0.000034   0.000106  -0.000163  -0.000081
    33  H   -0.000018  -0.000059   0.000001   0.000105   0.000282  -0.001357
    34  H    0.000001   0.000003   0.000000  -0.000001  -0.000187   0.006942
              31         32         33         34
     1  C    0.002071   0.078775   0.003922  -0.015388
     2  C   -0.000069  -0.013423   0.000595   0.001439
     3  C   -0.000012   0.015353  -0.001855  -0.000077
     4  C   -0.000187   0.014385  -0.000754  -0.000888
     5  C    0.018649   0.121708  -0.021765  -0.049387
     6  C    0.010506  -0.011765   0.037391  -0.032956
     7  C    0.000098   0.007558   0.000200  -0.002208
     8  C   -0.010203  -0.012992   0.002391  -0.000519
     9  C   -0.061976  -0.064317  -0.013586   0.081806
    10  C    0.065953  -0.146702   0.027448  -0.019310
    11  N   -0.001602  -0.014054  -0.005534   0.005340
    12  N   -0.079188  -0.040684  -0.050433  -0.064613
    13  C   -0.000818   0.004482  -0.000795  -0.001113
    14  C   -0.000341  -0.000054  -0.002063   0.000654
    15  C    0.423845   0.011083  -0.018977   0.005609
    16  C   -0.013494   0.412978   0.401444   0.431073
    17  H   -0.000000  -0.000020  -0.000000   0.000000
    18  H    0.000000  -0.000000  -0.000000  -0.000000
    19  H    0.000000  -0.000000  -0.000000   0.000000
    20  H   -0.000000  -0.000000   0.000000   0.000000
    21  H   -0.000000   0.000000  -0.000000   0.000001
    22  H    0.000333   0.000017  -0.000005  -0.000050
    23  H    0.000107  -0.000050   0.000139  -0.000022
    24  H    0.000105   0.000139   0.000231  -0.000018
    25  H   -0.000001  -0.000022  -0.000018   0.000001
    26  H   -0.000000   0.000100  -0.000059   0.000003
    27  H    0.000000  -0.000034   0.000001   0.000000
    28  H    0.000001   0.000106   0.000105  -0.000001
    29  H   -0.017255  -0.000163   0.000282  -0.000187
    30  H   -0.040003  -0.000081  -0.001357   0.006942
    31  H    0.542925   0.000279   0.003624  -0.002582
    32  H    0.000279   0.513195  -0.021773  -0.029378
    33  H    0.003624  -0.021773   0.549650  -0.043090
    34  H   -0.002582  -0.029378  -0.043090   0.584317
 Mulliken charges:
               1
     1  C   -0.453766
     2  C   -0.314714
     3  C   -0.260445
     4  C    0.008764
     5  C   -0.018924
     6  C    0.260499
     7  C   -0.260495
     8  C   -0.314662
     9  C   -0.453696
    10  C    0.260497
    11  N   -0.216322
    12  N   -0.216345
    13  C   -0.176831
    14  C   -0.226840
    15  C   -0.226840
    16  C   -0.176831
    17  H    0.140117
    18  H    0.151235
    19  H    0.147736
    20  H    0.147736
    21  H    0.151234
    22  H    0.140117
    23  H    0.175351
    24  H    0.154636
    25  H    0.144603
    26  H    0.167592
    27  H    0.152964
    28  H    0.159235
    29  H    0.167594
    30  H    0.152964
    31  H    0.159238
    32  H    0.175354
    33  H    0.154640
    34  H    0.144604
 Sum of Mulliken charges =  -0.00000
 Mulliken charges with hydrogens summed into heavy atoms:
               1
     1  C   -0.313649
     2  C   -0.163479
     3  C   -0.112709
     4  C    0.008764
     5  C   -0.018924
     6  C    0.260499
     7  C   -0.112758
     8  C   -0.163428
     9  C   -0.313580
    10  C    0.260497
    11  N   -0.216322
    12  N   -0.216345
    13  C    0.297759
    14  C    0.252952
    15  C    0.252957
    16  C    0.297767
 Electronic spatial extent (au):  <R**2>=           3315.7880
 Charge=             -0.0000 electrons
 Dipole moment (field-independent basis, Debye):
    X=             -1.6083    Y=              0.0004    Z=              0.0000  Tot=              1.6083
 Quadrupole moment (field-independent basis, Debye-Ang):
   XX=            -90.2235   YY=            -89.5559   ZZ=           -101.9509
   XY=              0.0003   XZ=              0.0005   YZ=              1.7714
 Traceless Quadrupole moment (field-independent basis, Debye-Ang):
   XX=              3.6866   YY=              4.3542   ZZ=             -8.0408
   XY=              0.0003   XZ=              0.0005   YZ=              1.7714
 Octapole moment (field-independent basis, Debye-Ang**2):
  XXX=             -3.2981  YYY=              0.0054  ZZZ=              0.0007  XYY=             -5.1541
  XXY=             -0.0023  XXZ=              0.0016  XZZ=            -16.5290  YZZ=              0.0049
  YYZ=             -0.0021  XYZ=              2.7986
 Hexadecapole moment (field-independent basis, Debye-Ang**3):
 XXXX=          -2001.3635 YYYY=          -1998.6385 ZZZZ=           -421.1453 XXXY=             -0.0070
 XXXZ=              0.0119 YYYX=             -0.0049 YYYZ=             31.1748 ZZZX=             -0.0024
 ZZZY=             -4.0102 XXYY=           -667.7399 XXZZ=           -452.3377 YYZZ=           -444.1239
 XXYZ=             13.4526 YYXZ=              0.0006 ZZXY=              0.0006
 N-N= 1.123638284398D+03 E-N=-3.760777139274D+03  KE= 6.476881681502D+02
 Calling FoFJK, ICntrl=      2127 FMM=F ISym2X=0 I1Cent= 0 IOpClX= 0 NMat=1 NMatS=1 NMatT=0.
 ***** Axes restored to original set *****
 -------------------------------------------------------------------
 Center     Atomic                   Forces (Hartrees/Bohr)
 Number     Number              X              Y              Z
 -------------------------------------------------------------------
      1        6          -0.001715832   -0.004311777   -0.000969401
      2        6           0.001851237   -0.004178728   -0.000481122
      3        6          -0.002544691    0.002993672    0.000195299
      4        6          -0.005389648    0.000000563   -0.000000240
      5        6           0.004253653   -0.000002226   -0.000000580
      6        6           0.000694065    0.003680690    0.000006846
      7        6          -0.002547205   -0.002992169   -0.000195008
      8        6           0.001855833    0.004176876    0.000480253
      9        6          -0.001712807    0.004312794    0.000969892
     10        6           0.000696546   -0.003680637   -0.000006532
     11        7          -0.001335285   -0.000858922    0.000253472
     12        7          -0.001335401    0.000857225   -0.000250065
     13        6           0.001021234    0.002214004    0.001265987
     14        6           0.001576012   -0.000817998   -0.001360177
     15        6           0.001575196    0.000815808    0.001359572
     16        6           0.001018517   -0.002214502   -0.001269645
     17        1          -0.000656547    0.000417612    0.000054903
     18        1          -0.000092064   -0.000243750    0.000023260
     19        1           0.000115309   -0.000032803    0.000044098
     20        1           0.000115216    0.000032737   -0.000043731
     21        1          -0.000091964    0.000244197   -0.000022752
     22        1          -0.000658645   -0.000415626   -0.000054546
     23        1           0.000777939   -0.000918021    0.000138587
     24        1          -0.000090678   -0.000153934    0.000719001
     25        1           0.000044464   -0.000162733    0.000821080
     26        1           0.000273108   -0.000353220    0.000189654
     27        1           0.000274008   -0.000767532    0.000047687
     28        1           0.000372818   -0.000446598   -0.000073825
     29        1           0.000273599    0.000352838   -0.000190109
     30        1           0.000274372    0.000767429   -0.000047519
     31        1           0.000373120    0.000446404    0.000073859
     32        1           0.000779865    0.000921194   -0.000139422
     33        1          -0.000090914    0.000154063   -0.000718408
     34        1           0.000045569    0.000163070   -0.000820367
 -------------------------------------------------------------------
 Cartesian Forces:  Max     0.005389648 RMS     0.001511194

 GradGradGradGradGradGradGradGradGradGradGradGradGradGradGradGradGradGrad
 Berny optimization.
 FormGI is forming the generalized inverse of G from B-inverse, IUseBI=4.
 Internal  Forces:  Max     0.006491588 RMS     0.001277352
 Search for a local minimum.
 Step number   1 out of a maximum of  181
 All quantities printed in internal units (Hartrees-Bohrs-Radians)
 Mixed Optimization -- RFO/linear search
 Second derivative matrix not updated -- first step.
 ITU=  0
     Eigenvalues ---    0.00884   0.00884   0.01026   0.01026   0.01547
     Eigenvalues ---    0.01551   0.01551   0.01625   0.01689   0.01751
     Eigenvalues ---    0.01753   0.01908   0.01945   0.02063   0.02069
     Eigenvalues ---    0.02112   0.02112   0.02112   0.02126   0.02166
     Eigenvalues ---    0.02176   0.02264   0.02271   0.07138   0.07138
     Eigenvalues ---    0.07345   0.07345   0.07484   0.07484   0.07697
     Eigenvalues ---    0.07697   0.15956   0.15957   0.15976   0.15977
     Eigenvalues ---    0.16000   0.16000   0.16000   0.16000   0.16000
     Eigenvalues ---    0.16000   0.16000   0.16000   0.16000   0.16000
     Eigenvalues ---    0.16000   0.16000   0.16000   0.16000   0.19534
     Eigenvalues ---    0.19535   0.21403   0.21403   0.22051   0.22120
     Eigenvalues ---    0.23133   0.23625   0.24679   0.24857   0.24997
     Eigenvalues ---    0.24998   0.33071   0.33071   0.33201   0.33201
     Eigenvalues ---    0.34247   0.34247   0.34273   0.34273   0.34456
     Eigenvalues ---    0.34456   0.35144   0.35144   0.35274   0.35274
     Eigenvalues ---    0.35294   0.35294   0.35665   0.35665   0.35746
     Eigenvalues ---    0.36835   0.36835   0.37260   0.37334   0.38203
     Eigenvalues ---    0.38203   0.40810   0.41077   0.43029   0.43175
     Eigenvalues ---    0.43905   0.43905   0.46053   0.46145   0.49154
     Eigenvalues ---    0.49256
 RFO step:  Lambda=-1.17259286D-03 EMin= 8.84434075D-03
 Linear search not attempted -- first point.
 Iteration  1 RMS(Cart)=  0.06296830 RMS(Int)=  0.00062427
 Iteration  2 RMS(Cart)=  0.00135596 RMS(Int)=  0.00002590
 Iteration  3 RMS(Cart)=  0.00000075 RMS(Int)=  0.00002589
 Variable       Old X    -DE/DX   Delta X   Delta X   Delta X     New X
                                 (Linear)    (Quad)   (Total)
    R1        2.66435  -0.00008   0.00000  -0.00030  -0.00027   2.66408
    R2        2.62824  -0.00516   0.00000  -0.01095  -0.01094   2.61730
    R3        2.04609   0.00067   0.00000   0.00188   0.00188   2.04797
    R4        2.59452  -0.00432   0.00000  -0.00860  -0.00858   2.58594
    R5        2.05232  -0.00025   0.00000  -0.00071  -0.00071   2.05161
    R6        2.68537  -0.00109   0.00000  -0.00252  -0.00252   2.68284
    R7        2.05199   0.00012   0.00000   0.00033   0.00033   2.05233
    R8        2.71970  -0.00649   0.00000  -0.01604  -0.01610   2.70360
    R9        2.68537  -0.00109   0.00000  -0.00252  -0.00252   2.68284
   R10        2.73868  -0.00325   0.00000  -0.00839  -0.00841   2.73027
   R11        2.73868  -0.00326   0.00000  -0.00840  -0.00842   2.73026
   R12        2.66568  -0.00336   0.00000  -0.00763  -0.00763   2.65805
   R13        2.59452  -0.00432   0.00000  -0.00860  -0.00858   2.58594
   R14        2.05199   0.00012   0.00000   0.00033   0.00033   2.05233
   R15        2.66435  -0.00008   0.00000  -0.00029  -0.00026   2.66408
   R16        2.05232  -0.00025   0.00000  -0.00071  -0.00071   2.05161
   R17        2.62824  -0.00516   0.00000  -0.01095  -0.01094   2.61730
   R18        2.04609   0.00067   0.00000   0.00187   0.00187   2.04797
   R19        2.66568  -0.00336   0.00000  -0.00763  -0.00763   2.65805
   R20        2.76095  -0.00348   0.00000  -0.00942  -0.00942   2.75153
   R21        2.74071  -0.00350   0.00000  -0.00914  -0.00914   2.73158
   R22        2.74071  -0.00350   0.00000  -0.00913  -0.00913   2.73158
   R23        2.76095  -0.00348   0.00000  -0.00942  -0.00942   2.75153
   R24        2.05441   0.00111   0.00000   0.00316   0.00316   2.05758
   R25        2.06916   0.00017   0.00000   0.00049   0.00049   2.06965
   R26        2.08700  -0.00069   0.00000  -0.00207  -0.00207   2.08492
   R27        2.06567   0.00015   0.00000   0.00043   0.00043   2.06610
   R28        2.08927  -0.00056   0.00000  -0.00170  -0.00170   2.08757
   R29        2.06872  -0.00029   0.00000  -0.00085  -0.00085   2.06787
   R30        2.06567   0.00015   0.00000   0.00043   0.00043   2.06610
   R31        2.08927  -0.00056   0.00000  -0.00170  -0.00170   2.08757
   R32        2.06872  -0.00029   0.00000  -0.00085  -0.00085   2.06787
   R33        2.05441   0.00112   0.00000   0.00317   0.00317   2.05758
   R34        2.06916   0.00017   0.00000   0.00049   0.00049   2.06965
   R35        2.08700  -0.00069   0.00000  -0.00207  -0.00207   2.08493
    A1        2.12663  -0.00072   0.00000  -0.00237  -0.00242   2.12422
    A2        2.06744   0.00078   0.00000   0.00417   0.00415   2.07159
    A3        2.08708  -0.00004   0.00000  -0.00091  -0.00094   2.08614
    A4        2.09389   0.00006   0.00000   0.00101   0.00099   2.09489
    A5        2.08283   0.00002   0.00000   0.00004   0.00003   2.08286
    A6        2.10467  -0.00007   0.00000  -0.00049  -0.00051   2.10416
    A7        2.10110  -0.00041   0.00000  -0.00088  -0.00093   2.10018
    A8        2.11220   0.00023   0.00000   0.00058   0.00060   2.11280
    A9        2.06987   0.00018   0.00000   0.00030   0.00032   2.07019
   A10        2.10045  -0.00020   0.00000  -0.00018  -0.00023   2.10021
   A11        2.08229   0.00039   0.00000   0.00037   0.00046   2.08275
   A12        2.10045  -0.00019   0.00000  -0.00018  -0.00023   2.10022
   A13        2.04720   0.00111   0.00000   0.00503   0.00498   2.05218
   A14        2.04720   0.00111   0.00000   0.00502   0.00496   2.05217
   A15        2.18878  -0.00223   0.00000  -0.01005  -0.00994   2.17884
   A16        2.07957   0.00024   0.00000   0.00189   0.00180   2.08137
   A17        2.09890   0.00196   0.00000   0.00741   0.00742   2.10632
   A18        2.10462  -0.00219   0.00000  -0.00913  -0.00912   2.09550
   A19        2.10110  -0.00041   0.00000  -0.00088  -0.00093   2.10018
   A20        2.06987   0.00018   0.00000   0.00030   0.00032   2.07019
   A21        2.11220   0.00023   0.00000   0.00058   0.00060   2.11280
   A22        2.09389   0.00006   0.00000   0.00100   0.00099   2.09488
   A23        2.10467  -0.00007   0.00000  -0.00049  -0.00050   2.10416
   A24        2.08283   0.00002   0.00000   0.00005   0.00004   2.08287
   A25        2.12663  -0.00072   0.00000  -0.00237  -0.00242   2.12422
   A26        2.06744   0.00078   0.00000   0.00419   0.00416   2.07160
   A27        2.08708  -0.00004   0.00000  -0.00093  -0.00095   2.08613
   A28        2.07957   0.00024   0.00000   0.00190   0.00181   2.08138
   A29        2.10463  -0.00220   0.00000  -0.00914  -0.00914   2.09549
   A30        2.09889   0.00196   0.00000   0.00742   0.00742   2.10632
   A31        2.02691  -0.00034   0.00000  -0.00498  -0.00503   2.02188
   A32        2.05943  -0.00072   0.00000  -0.00699  -0.00703   2.05240
   A33        1.95306   0.00081   0.00000   0.00048   0.00041   1.95348
   A34        2.05941  -0.00072   0.00000  -0.00698  -0.00702   2.05240
   A35        2.02690  -0.00034   0.00000  -0.00499  -0.00503   2.02187
   A36        1.95305   0.00082   0.00000   0.00051   0.00044   1.95349
   A37        1.92962  -0.00046   0.00000  -0.00307  -0.00307   1.92655
   A38        1.91601  -0.00078   0.00000  -0.00523  -0.00524   1.91078
   A39        1.93669  -0.00035   0.00000  -0.00157  -0.00157   1.93512
   A40        1.88876   0.00043   0.00000   0.00152   0.00150   1.89026
   A41        1.89496   0.00055   0.00000   0.00412   0.00412   1.89908
   A42        1.89677   0.00066   0.00000   0.00453   0.00453   1.90130
   A43        1.92413  -0.00041   0.00000  -0.00259  -0.00259   1.92154
   A44        1.98362  -0.00062   0.00000  -0.00388  -0.00388   1.97974
   A45        1.89201  -0.00050   0.00000  -0.00305  -0.00305   1.88896
   A46        1.89451   0.00056   0.00000   0.00341   0.00340   1.89791
   A47        1.89069   0.00044   0.00000   0.00273   0.00273   1.89341
   A48        1.87633   0.00060   0.00000   0.00382   0.00382   1.88014
   A49        1.92413  -0.00041   0.00000  -0.00259  -0.00259   1.92154
   A50        1.98362  -0.00063   0.00000  -0.00388  -0.00388   1.97974
   A51        1.89201  -0.00050   0.00000  -0.00305  -0.00305   1.88896
   A52        1.89451   0.00056   0.00000   0.00341   0.00340   1.89791
   A53        1.89069   0.00044   0.00000   0.00273   0.00273   1.89341
   A54        1.87633   0.00060   0.00000   0.00382   0.00381   1.88014
   A55        1.92963  -0.00046   0.00000  -0.00308  -0.00309   1.92654
   A56        1.91601  -0.00078   0.00000  -0.00522  -0.00523   1.91078
   A57        1.93669  -0.00034   0.00000  -0.00156  -0.00156   1.93513
   A58        1.88876   0.00043   0.00000   0.00151   0.00150   1.89026
   A59        1.89496   0.00055   0.00000   0.00412   0.00412   1.89908
   A60        1.89677   0.00066   0.00000   0.00453   0.00453   1.90130
    D1        0.05684  -0.00005   0.00000  -0.00216  -0.00216   0.05468
    D2        3.13451   0.00017   0.00000   0.00784   0.00784  -3.14083
    D3       -3.01592  -0.00035   0.00000  -0.01720  -0.01722  -3.03314
    D4        0.06175  -0.00013   0.00000  -0.00720  -0.00722   0.05453
    D5        0.08584  -0.00038   0.00000  -0.01579  -0.01575   0.07009
    D6       -3.04111  -0.00060   0.00000  -0.02944  -0.02947  -3.07058
    D7       -3.12534  -0.00004   0.00000  -0.00039  -0.00037  -3.12571
    D8        0.03090  -0.00027   0.00000  -0.01404  -0.01409   0.01681
    D9       -0.08338   0.00018   0.00000   0.00778   0.00776  -0.07562
   D10        3.06335   0.00021   0.00000   0.00906   0.00906   3.07241
   D11        3.12295  -0.00004   0.00000  -0.00237  -0.00239   3.12057
   D12       -0.01350  -0.00002   0.00000  -0.00109  -0.00109  -0.01460
   D13       -0.03289   0.00008   0.00000   0.00469   0.00469  -0.02821
   D14        3.10869   0.00008   0.00000   0.00472   0.00472   3.11341
   D15        3.10368   0.00006   0.00000   0.00344   0.00343   3.10711
   D16       -0.03792   0.00006   0.00000   0.00347   0.00346  -0.03446
   D17        0.16991  -0.00036   0.00000  -0.02154  -0.02155   0.14837
   D18       -2.97170  -0.00036   0.00000  -0.02146  -0.02146  -2.99316
   D19       -2.97167  -0.00036   0.00000  -0.02157  -0.02158  -2.99325
   D20        0.16990  -0.00036   0.00000  -0.02149  -0.02150   0.14840
   D21        3.10872   0.00008   0.00000   0.00461   0.00461   3.11333
   D22       -0.03790   0.00006   0.00000   0.00341   0.00340  -0.03450
   D23       -0.03288   0.00008   0.00000   0.00464   0.00464  -0.02824
   D24        3.10368   0.00006   0.00000   0.00344   0.00343   3.10711
   D25       -0.19430   0.00042   0.00000   0.02651   0.02655  -0.16775
   D26        2.93260   0.00069   0.00000   0.04036   0.04032   2.97292
   D27        2.94732   0.00042   0.00000   0.02643   0.02646   2.97378
   D28       -0.20897   0.00068   0.00000   0.04027   0.04023  -0.16874
   D29       -0.19430   0.00042   0.00000   0.02651   0.02654  -0.16776
   D30        2.93261   0.00068   0.00000   0.04029   0.04026   2.97287
   D31        2.94727   0.00042   0.00000   0.02659   0.02663   2.97390
   D32       -0.20900   0.00069   0.00000   0.04038   0.04034  -0.16866
   D33        2.06715   0.00063   0.00000   0.02920   0.02922   2.09636
   D34       -0.32401   0.00060   0.00000   0.04390   0.04387  -0.28014
   D35       -1.05959   0.00038   0.00000   0.01526   0.01529  -1.04430
   D36        2.83244   0.00035   0.00000   0.02996   0.02994   2.86238
   D37       -0.08338   0.00018   0.00000   0.00778   0.00777  -0.07562
   D38        3.12294  -0.00004   0.00000  -0.00234  -0.00235   3.12060
   D39        3.06336   0.00021   0.00000   0.00901   0.00901   3.07237
   D40       -0.01350  -0.00002   0.00000  -0.00110  -0.00111  -0.01460
   D41        0.05683  -0.00005   0.00000  -0.00212  -0.00212   0.05471
   D42       -3.01592  -0.00035   0.00000  -0.01718  -0.01720  -3.03312
   D43        3.13450   0.00017   0.00000   0.00785   0.00785  -3.14083
   D44        0.06175  -0.00013   0.00000  -0.00721  -0.00723   0.05452
   D45        0.08585  -0.00038   0.00000  -0.01582  -0.01579   0.07007
   D46       -3.04111  -0.00060   0.00000  -0.02942  -0.02945  -3.07055
   D47       -3.12534  -0.00004   0.00000  -0.00041  -0.00039  -3.12573
   D48        0.03089  -0.00027   0.00000  -0.01400  -0.01405   0.01684
   D49        2.83241   0.00036   0.00000   0.03019   0.03018   2.86258
   D50       -1.05966   0.00039   0.00000   0.01555   0.01559  -1.04407
   D51       -0.32403   0.00061   0.00000   0.04408   0.04405  -0.27999
   D52        2.06708   0.00064   0.00000   0.02944   0.02946   2.09654
   D53        0.62974   0.00033   0.00000   0.00121   0.00121   0.63095
[...]
 69,-0.00024620,-0.00035010,0.00005241,0.00001600,0.00003971,0.01287065
 ,-0.06275352,-0.05456382,-0.00450848,-0.00424538,-0.00047169,-0.000005
 86,-0.00000475,-0.00001435,0.00000207,-0.00000281,-0.00000044,-0.00000
 106,0.00000483,-0.00000164,-0.00000731,-0.00000775,-0.00001669,-0.0000
 0870,0.00000965,-0.00000745,0.00011010,-0.00007501,0.00021332,-0.00028
 279,-0.00013605,0.00007695,0.00011996,-0.00004039,-0.00003893,-0.00000
 357,0.00009779,0.00007914,0.00000219,0.00005704,0.00002846,-0.00000583
 ,-0.00001536,0.00000885,0.00000810,0.00000220,-0.00002724,-0.01335019,
 0.07362803,-0.00002327,-0.00005760,-0.00002751,0.00009014,0.00003806,0
 .00002748,-0.00006058,0.00004792,-0.00001799,0.00009952,-0.00003146,-0
 .00003536,-0.00041250,-0.00021483,0.00008148,0.00022993,0.00015461,0.0
 0005597,-0.00004828,0.00006369,-0.00002972,0.00013013,0.00035838,0.000
 14900,0.00019129,-0.00036013,0.00049777,0.00218010,-0.00002569,0.00009
 825,-0.00017514,-0.00012333,0.00022001,0.00043208,-0.00455162,-0.00684
 009,-0.00012265,-0.00009050,0.00000156,-0.00000451,0.00002804,-0.00001
 746,0.06034866,-0.06076569,-0.29064033,-0.00233153,-0.00150541,0.00053
 192,-0.00000019,0.00001002,-0.00000425,-0.00000390,-0.00000341,0.00000
 333,-0.00000055,0.00000071,-0.00000840,0.00002969,0.00004012,0.0000021
 2,-0.00003574,0.00000149,-0.00000676,-0.00015572,0.00060924,-0.0003816
 8,0.00006251,-0.00034838,-0.00002789,0.00000323,-0.00005926,-0.0000204
 3,0.00001502,-0.00004227,-0.00000237,0.00001100,0.00002845,0.00000253,
 -0.00000088,-0.00001006,0.00001498,-0.00000423,0.00001048,-0.00001594,
 -0.06645227,0.06999493,0.31239940,-0.00016808,-0.00005626,0.00001262,0
 .00013595,-0.00006601,-0.00000545,-0.00005841,0.00015288,0.00006860,0.
 00039527,-0.00051197,-0.00020380,-0.00076422,-0.00041889,-0.00070167,0
 .00013791,0.00039864,0.00007710,0.00015941,0.00063400,0.00006495,-0.00
 060489,-0.00015735,-0.00059919,0.00090206,0.00083717,0.00046655,0.0027
 6231,-0.00098707,0.00041384,0.00012340,-0.00035426,0.00013260,0.004206
 18,-0.01733265,0.01080439,-0.00024306,-0.00006072,-0.00015304,-0.00009
 118,-0.00000905,0.00006879,-0.06503689,0.04430142,-0.03816455,-0.00030
 497,0.00031417,0.00150368,-0.00000034,-0.00000083,-0.00000599,0.000003
 62,0.00000360,-0.00000741,-0.00001263,-0.00000969,0.00000072,-0.000002
 75,0.00000430,0.00012160,-0.00000450,-0.00000864,0.00005076,-0.0018962
 6,-0.00044873,0.00151402,-0.00001411,0.00004279,-0.00002707,0.00008865
 ,-0.00007807,0.00002246,0.00006631,-0.00000071,0.00000299,0.00000709,0
 .00000581,0.00000088,0.00002439,-0.00004748,-0.00000572,0.00001800,-0.
 00001096,-0.00000781,0.00129672,-0.00603043,0.00561585,0.06651731,0.00
 001564,-0.00015588,-0.00006758,0.00007252,0.00004232,0.00002548,-0.000
 12715,0.00003084,-0.00000864,0.00007781,-0.00011338,-0.00017680,-0.001
 20957,-0.00022931,-0.00009203,0.00051819,0.00050022,0.00001335,-0.0003
 0636,-0.00011903,0.00006814,0.00035512,0.00052010,0.00011347,-0.001177
 08,0.00066039,0.00028359,0.00747172,-0.00015998,-0.00122983,-0.0000348
 4,-0.00089274,0.00010295,-0.00689663,-0.03767938,0.00976789,-0.0001041
 2,0.00014115,-0.00037537,-0.00021874,0.00004996,0.00022243,0.04553075,
 -0.17615061,0.10975611,-0.00117010,0.00100896,0.00583584,0.00000257,-0
 .00001354,0.00001211,-0.00001379,-0.00002503,-0.00000064,-0.00003414,-
 0.00001761,-0.00001227,0.00001412,0.00003628,0.00000644,-0.00011222,0.
 00003174,-0.00003713,-0.00029189,0.00062887,0.00017619,-0.00002188,-0.
 00002918,-0.00017446,0.00002597,0.00000310,-0.00002756,0.00002013,-0.0
 0012261,0.00000930,-0.00000593,-0.00001536,-0.00001006,0.00004737,-0.0
 0014822,0.00000029,0.00003434,0.00000450,-0.00000077,-0.00135713,0.006
 98893,-0.00442393,-0.04417058,0.20826131,0.00003606,0.00005138,0.00004
 713,-0.00004471,-0.00003751,-0.00001677,0.00004439,0.00000404,0.000029
 52,0.00000544,-0.00007067,-0.00003696,0.00016513,-0.00005693,-0.000258
 18,-0.00024996,-0.00004949,0.00000573,0.00000990,0.00011069,0.00000816
 ,-0.00021446,-0.00058110,-0.00014267,0.00024190,0.00146660,-0.00046109
 ,-0.00103222,-0.00020256,0.00075500,0.00014771,-0.00004433,0.00019438,
 0.00624047,-0.00584172,0.00796872,-0.00006146,-0.00027023,-0.00003117,
 0.00005428,-0.00001059,0.00004027,-0.03730994,0.10734249,-0.14426158,0
 .00002909,-0.00191735,0.00414490,-0.00000351,-0.00000905,-0.00000561,0
 .00000726,0.00000701,-0.00000523,0.00000263,0.00000128,-0.00000069,-0.
 00003335,-0.00005363,0.00000830,0.00005292,0.00000652,-0.00001094,0.00
 022415,-0.00041233,0.00005211,-0.00013176,-0.00018467,0.00004441,0.000
 09644,-0.00006801,-0.00000494,0.00001488,0.00007703,0.00002873,-0.0000
 0382,0.00000885,0.00001498,0.00000572,0.00000029,-0.00001770,0.0000147
 4,-0.00001580,-0.00000545,-0.00862133,0.02214979,-0.01743897,0.0401519
 6,-0.12185212,0.14836122,0.00016898,-0.00004505,0.00005736,-0.00009727
 ,0.00000265,-0.00000759,0.00001301,-0.00005186,0.00000223,-0.00011328,
 -0.00008054,0.00013447,-0.00053625,0.00028687,-0.00012492,-0.00043472,
 0.00014532,-0.00012496,-0.00019920,-0.00015360,-0.00002029,0.00024725,
 -0.00004032,-0.00014332,0.00001797,0.00006147,0.00020891,0.00101795,-0
 .00135898,-0.00277765,0.00044095,-0.00004805,0.00011051,-0.01920298,-0
 .00475706,0.00259585,-0.00027719,-0.00018745,-0.00007016,-0.00006085,0
 .00004003,0.00008226,-0.30454345,0.04693780,0.01457915,0.00085474,0.00
 105541,0.00159039,-0.00000984,-0.00003428,0.00000118,0.00000062,-0.000
 01559,-0.00000615,-0.00002252,-0.00002111,-0.00000303,-0.00001984,-0.0
 0002738,0.00001825,-0.00004914,0.00002177,-0.00000265,0.00007878,-0.00
 022400,0.00014810,-0.00005035,-0.00000507,-0.00007282,0.00004386,-0.00
 018907,0.00007547,0.00006024,-0.00003010,0.00001971,-0.00001151,-0.000
 00809,0.00000424,0.00001799,-0.00003435,-0.00001475,0.00005260,-0.0000
 2582,0.00000602,-0.00457726,0.00129115,-0.00014687,-0.00732513,0.00250
 319,0.00073500,0.33408043,0.00004537,-0.00007509,0.00001536,0.00003719
 ,-0.00000151,0.00000785,-0.00007180,0.00007889,0.00000206,0.00008072,-
 0.00038920,0.00017830,-0.00140435,0.00015022,0.00021844,-0.00033968,0.
 00031115,-0.00009193,-0.00006781,0.00010775,-0.00003412,-0.00002874,0.
 00041833,0.00011491,0.00023931,-0.00112740,0.00021775,-0.00081490,-0.0
 0424351,-0.00340899,0.00027488,0.00009192,-0.00002312,-0.03737955,-0.0
 0138647,0.00198874,-0.00029987,-0.00001723,-0.00011525,0.00000595,-0.0
 0004038,0.00003160,0.05436898,-0.05552521,-0.00378788,-0.00192759,0.00
 107695,0.00066043,-0.00001143,-0.00001808,-0.00000697,0.00000505,-0.00
 000582,-0.00000046,-0.00001929,-0.00003036,0.00000004,0.00002816,0.000
 05106,0.00000786,-0.00005265,-0.00000304,0.00001242,0.00027143,0.00078
 252,-0.00000676,-0.00005073,0.00002579,-0.00002417,0.00019164,-0.00000
 436,0.00001728,0.00011748,0.00005883,0.00001255,0.00000016,0.00000221,
 0.00001047,0.00001095,0.00000451,-0.00001579,0.00002577,-0.00002892,-0
 .00000316,0.00666608,-0.00172907,0.00113373,0.02340274,-0.00383809,-0.
 00208592,-0.04450880,0.06584376,-0.00017914,-0.00006955,-0.00003443,0.
 00012809,-0.00006924,0.00000851,-0.00003071,0.00014037,-0.00000778,0.0
 0030234,-0.00036482,0.00000957,-0.00052725,-0.00040003,0.00028280,-0.0
 0000041,0.00018447,0.00002730,0.00006494,0.00044513,-0.00004059,-0.000
 46558,-0.00015510,0.00025946,0.00081831,0.00000635,0.00065699,0.000284
 01,-0.00110252,-0.00060130,-0.00006510,-0.00000163,-0.00019742,-0.0089
 7963,-0.00088200,0.00005197,0.00026870,0.00004888,0.00014452,-0.000021
 18,0.00000327,0.00000435,0.01732002,-0.00329006,-0.05056108,-0.0018139
 1,0.00016030,0.00036620,-0.00000092,0.00000013,-0.00000209,0.00000021,
 0.00000067,0.00000296,-0.00000203,-0.00000753,-0.00000224,0.00000155,0
 .00001851,-0.00002133,0.00000170,-0.00001456,0.00003349,0.00022260,0.0
 0023962,-0.00053543,0.00009190,-0.00003187,-0.00000383,-0.00015509,0.0
 0008202,0.00002907,-0.00008237,-0.00003178,-0.00002924,-0.00000905,-0.
 00002723,-0.00001594,0.00000781,-0.00000077,-0.00000545,-0.00000602,-0
 .00000316,0.00002239,0.02911806,-0.00444468,0.00119196,-0.02067093,0.0
 0465206,0.00084702,-0.01578444,0.00485475,0.04807218,-0.00048909,-0.00
 013108,-0.00042185,0.00020891,-0.00017582,-0.00007997,-0.00000610,0.00
 024922,0.00008744,0.00013665,-0.00017642,-0.00008550,-0.00102689,-0.00
 007494,0.00121924,0.00138003,-0.00075984,0.00175090,-0.00005310,0.0003
 3422,0.00000687,-0.00034200,-0.00015759,0.00009553,0.00043513,-0.00033
 277,-0.00003631,0.00026558,0.00169452,0.00103876,-0.00138197,-0.000863
 19,0.00186657,0.00524690,0.01039663,0.00441497,-0.00030987,-0.00011542
 ,-0.00038879,-0.00016993,0.00043025,-0.00034254,-0.00084995,0.00087233
 ,0.00183862,-0.13958061,-0.12965234,-0.04586487,0.00004242,0.00005565,
 0.00000322,0.00000087,0.00000588,0.00001925,0.00001051,0.00000997,0.00
 002909,0.00000933,0.00000740,-0.00001892,0.00000686,-0.00001005,-0.000
 01049,0.00002989,-0.00000132,-0.00004755,-0.00003943,0.00005354,0.0000
 7334,0.00010976,0.00000496,-0.00000914,0.00010163,0.00006833,0.0001000
 7,0.00010905,0.00028260,-0.00006272,-0.00001412,0.00002187,0.00013163,
 -0.00005029,0.00005077,-0.00009191,0.00068313,0.00040910,0.00034525,-0
 .00002951,-0.00017817,-0.00002440,0.00052145,0.00003997,0.00008736,0.1
 4705795,0.00018638,0.00022930,-0.00023668,-0.00028925,-0.00004597,-0.0
 0010329,0.00019012,-0.00010132,0.00006250,0.00059156,-0.00005971,0.000
 06641,-0.00010605,0.00019156,0.00048754,-0.00141200,-0.00046752,0.0016
 9591,0.00002093,0.00027859,0.00000002,-0.00035548,-0.00009888,-0.00002
 955,0.00051756,-0.00054395,0.00002009,-0.00189992,0.00040614,0.0003645
 4,0.00012472,-0.00110888,0.00242697,-0.00443083,-0.01021987,-0.0039335
 7,0.00012471,-0.00011747,0.00018259,0.00005165,0.00021024,0.00046293,0
 .00185838,0.00017210,-0.00241427,-0.12477741,-0.22173568,-0.06577308,0
 .00000345,-0.00004508,0.00001326,0.00001247,0.00001037,-0.00000181,-0.
 00000399,-0.00001613,-0.00000420,-0.00000024,0.00001652,-0.00001336,-0
 .00000382,-0.00000927,-0.00000651,-0.00005703,0.00006447,-0.00001710,-
 0.00005353,-0.00001634,-0.00002300,-0.00000749,-0.00003181,-0.00002242
 ,0.00001411,0.00005305,0.00007954,-0.00004738,-0.00013621,-0.00034829,
 -0.00004279,-0.00002919,-0.00018473,0.00000511,0.00002575,-0.00003181,
 -0.00050736,-0.00040229,-0.00022196,-0.00004299,0.00029088,0.00018511,
 -0.00011267,0.00006084,0.00020665,0.13692945,0.24024087,-0.00000723,-0
 .00013167,-0.00021870,-0.00003983,0.00010334,0.00005884,-0.00021186,-0
 .00012917,-0.00006880,0.00049309,-0.00002899,0.00008519,0.00025165,-0.
 00030094,-0.00019622,0.00229373,0.00155556,-0.00143864,0.00003679,0.00
 030223,-0.00000800,-0.00034200,-0.00009270,-0.00011949,0.00059004,-0.0
 0011325,-0.00010280,-0.00260686,-0.00108269,0.00079185,-0.00057272,0.0
 0031414,-0.00006911,-0.01693604,-0.02592450,-0.01184298,-0.00020498,-0
 .00027976,-0.00063259,-0.00024306,0.00063432,0.00012669,0.00304504,-0.
 00046531,-0.00500206,-0.03652529,-0.05585753,-0.06681598,0.00000211,-0
 .00000991,-0.00002408,-0.00003088,-0.00001873,0.00000965,-0.00001770,0
 .00000283,-0.00000310,-0.00002037,0.00002528,0.00003359,0.00001680,0.0
 0000710,0.00001033,-0.00009650,0.00009148,-0.00000081,-0.00007336,-0.0
 0002296,0.00011052,0.00015625,0.00000425,0.00006570,0.00007508,0.00005
 469,0.00018816,-0.00003783,0.00007700,-0.00002791,0.00002696,-0.000174
 47,0.00004440,0.00007280,-0.00002422,-0.00000382,-0.00065271,-0.001871
 70,-0.00036324,0.00010806,-0.00048786,0.00007090,0.00006306,0.00032290
 ,0.00001784,0.04049842,0.06859845,0.07899213,0.00044473,0.00014791,0.0
 0021835,-0.00024073,0.00002486,0.00002281,0.00011629,-0.00015092,-0.00
 001834,0.00013716,0.00005061,0.00006699,0.00014600,0.00017050,-0.00009
 974,-0.00135200,0.00028821,-0.00037224,-0.00012705,-0.00004886,0.00002
 138,0.00008151,0.00022268,-0.00008601,-0.00071639,-0.00037315,0.000545
 27,0.00166497,0.00305992,0.00063131,0.00158607,0.00038824,-0.00073230,
 -0.01100578,0.00118238,0.00690308,-0.00002767,-0.00022631,0.00057631,-
 0.00006815,-0.00028724,0.00020304,0.00016961,-0.00098143,-0.00084439,-
 0.28820509,0.07268206,-0.02408659,-0.00002216,-0.00006332,-0.00001729,
 0.00000533,-0.00000875,-0.00001195,-0.00001972,-0.00001677,-0.00001550
 ,-0.00001705,-0.00001228,0.00000415,-0.00010090,0.00001724,-0.00003941
 ,0.00005608,0.00005063,0.00001930,0.00010976,0.00000739,-0.00015625,-0
 .00017187,-0.00009224,0.00030348,-0.00003158,-0.00006970,-0.00003288,-
 0.00012974,-0.00011990,-0.00000327,0.00008869,-0.00002603,-0.00009648,
 0.00004389,-0.00019166,0.00015513,0.00050259,-0.00000981,0.00014478,-0
 .00019869,0.00038019,-0.00013831,0.00022354,0.00067634,0.00021310,-0.0
 1461008,0.00606608,-0.00193110,0.31338057,0.00027033,0.00017284,0.0001
 9176,-0.00015601,0.00008286,0.00000619,0.00000696,-0.00015612,-0.00004
 992,0.00019900,0.00004834,0.00007559,-0.00014447,0.00011061,0.00027453
 ,-0.00084259,0.00008384,-0.00020981,0.00001727,-0.00001938,0.00000267,
 0.00000825,-0.00009505,0.00003054,0.00039184,0.00027713,-0.00000150,-0
 .00069187,-0.00166626,-0.00061652,0.00066132,0.00049833,-0.00069546,0.
 00976476,-0.00222812,-0.00512064,0.00001755,0.00001890,0.00018804,-0.0
 0013136,-0.00015701,0.00006661,0.00212694,0.00064742,0.00046520,0.0719
 9345,-0.07082078,0.00754346,-0.00001749,-0.00001861,-0.00000957,0.0000
 0265,0.00000560,-0.00000612,0.00000127,-0.00000629,-0.00000683,0.00000
 220,0.00000812,-0.00000105,0.00004481,0.00000275,-0.00002486,-0.000003
 42,-0.00000328,0.00003896,-0.00000505,-0.00003182,0.00000435,0.0000923
 5,0.00003487,0.00003187,0.00000889,0.00003441,-0.00002626,-0.00006151,
 -0.00004029,-0.00005926,0.00007802,0.00000306,-0.00006795,0.00018905,-
 0.00000427,0.00008188,-0.00022919,0.00013604,0.00011242,-0.00005886,-0
 .00009949,0.00026359,-0.00059298,-0.00021140,-0.00034360,-0.02375813,0
 .00908720,-0.00141364,-0.08248658,0.07106777,-0.00013322,0.00001269,-0
 .00004684,0.00006233,0.00002646,0.00000990,-0.00002086,0.00000022,-0.0
 0000104,0.00004260,0.00003076,0.00002436,-0.00003727,-0.00013059,0.000
 02954,0.00030223,-0.00012434,0.00002655,0.00007744,0.00001785,-0.00000
 303,0.00012242,-0.00045728,0.00013460,0.00182661,0.00062618,-0.0004026
 2,0.00135148,-0.00511608,-0.00291906,-0.00033548,-0.00025553,-0.000020
 98,0.03457802,-0.00910728,-0.00602263,0.00047577,0.00004108,0.00000087
 ,0.00005789,0.00015658,0.00001664,0.00200691,0.00115074,0.00066493,-0.
 03032118,0.00801031,-0.04826638,0.00000848,0.00002123,0.00000332,-0.00
 000770,0.00000235,0.00000329,0.00001187,0.00001298,-0.00000380,0.00001
 275,0.00001896,-0.00001442,0.00016633,-0.00001119,-0.00000362,-0.00006
 575,-0.00002464,-0.00011124,0.00000912,-0.00002242,0.00006570,-0.00030
 349,0.00003211,-0.00023952,-0.00017384,-0.00002640,-0.00001171,-0.0000
 5196,-0.00003889,-0.00002042,-0.00002248,-0.00002754,-0.00000494,-0.00
 007547,0.00001731,0.00002909,0.00005396,0.00026318,0.00006407,-0.00050
 729,-0.00034646,-0.00026089,-0.00078308,-0.00010775,0.00023173,-0.0074
 8459,0.00407149,-0.00095839,0.01962815,-0.00390823,0.05897038,-0.00001
 607,0.00004007,-0.00000880,0.00004969,-0.00008260,0.00001721,0.0000184
 2,0.00009093,0.00002319,0.00036693,-0.00025923,-0.00005764,-0.00055871
 ,-0.00073227,-0.00014821,-0.00009332,0.00038212,0.00003612,-0.00011964
 ,0.00035980,0.00008345,-0.00033776,-0.00017544,-0.00018986,0.00026228,
 0.00062874,-0.00065629,0.00355945,-0.00098169,0.00029971,0.00046986,0.
 00001803,0.00017189,0.00062189,-0.00807378,0.01341142,-0.00015805,-0.0
 0022579,0.00038770,-0.00015090,-0.00006717,0.00003073,-0.00011367,-0.0
 0053657,-0.00090681,-0.05516837,0.01634310,-0.01620121,-0.00000392,-0.
 00001919,-0.00002654,0.00000239,0.00000008,0.00000224,-0.00000811,-0.0
 0000833,0.00000755,-0.00000130,0.00000624,0.00002114,0.00001477,-0.000
 00563,0.00001998,0.00005543,-0.00000110,0.00013760,0.00010158,-0.00001
 415,-0.00007505,-0.00003154,-0.00000885,0.00017381,0.00005706,-0.00005
 950,0.00003814,-0.00003401,0.00000366,-0.00001505,0.00006630,-0.000020
 25,-0.00001483,0.00006019,-0.00011748,0.00008234,-0.00018729,-0.000045
 47,0.00004963,-0.00008894,0.00036067,-0.00041084,-0.00030958,0.0004890
 2,-0.00013694,0.00259690,-0.01254644,0.01282043,-0.00171214,0.02330263
 ,-0.02047072,0.05079017,-0.00023825,-0.00011700,-0.00026040,0.00012608
 ,-0.00000354,0.00000056,-0.00013821,0.00002930,-0.00002993,0.00016883,
 -0.00004580,0.00008985,-0.00011714,-0.00010492,0.00047917,0.00153393,0
 .00021279,0.00017156,-0.00006560,0.00015403,-0.00007106,-0.00016541,-0
 .00001628,0.00016301,-0.00014886,-0.00062280,0.00064915,-0.00212550,0.
 00080532,-0.00066808,-0.00125894,-0.00088207,0.00168066,-0.00002242,0.
 00918362,-0.01052942,-0.00008805,-0.00013919,-0.00050076,-0.00024566,0
 .00061103,0.00000659,-0.00032971,0.00396718,-0.00267252,0.01600311,-0.
 18461714,0.11871581,0.00001400,0.00001089,0.00001142,-0.00002788,-0.00
 002100,0.00001747,-0.00001971,0.00000357,0.00001758,-0.00002354,0.0000
 0638,-0.00000532,-0.00004863,0.00001912,0.00002792,0.00001437,0.000031
 27,-0.00010311,-0.00006836,0.00005311,0.00005473,0.00006973,0.00003437
 ,-0.00002651,0.00005945,-0.00000849,0.00019713,0.00000107,0.00009778,-
 0.00004226,0.00000059,-0.00012259,0.00007704,0.00003010,0.00005889,-0.
 00003184,-0.00003658,0.00022303,0.00020323,0.00076467,0.00060988,0.002
 08934,0.00020656,-0.00038961,0.00019693,0.00447042,-0.01615231,0.01633
 643,-0.00025031,-0.00676193,0.00519213,-0.01804414,0.19389315,-0.00003
 906,0.00032766,0.00002035,-0.00006121,-0.00001621,-0.00001170,-0.00006
 484,0.00003152,0.00001002,-0.00000267,-0.00010517,0.00007375,0.0009389
 1,0.00073951,0.00011660,0.00063066,-0.00052253,0.00019287,0.00067202,0
 .00007680,-0.00006136,-0.00058136,0.00012238,0.00010851,0.00142296,-0.
 00144537,-0.00063475,-0.00859718,0.00058938,0.00018157,-0.00060526,-0.
 00046414,0.00074253,0.00969735,0.01160227,-0.03881054,0.00010047,-0.00
 015196,-0.00037843,0.00001290,0.00008551,-0.00008374,0.00201229,0.0039
 9371,0.00158403,-0.01707918,0.12087586,-0.15320055,0.00001763,0.000027
 82,-0.00004648,0.00000087,0.00002750,0.00000942,0.00001639,-0.00000053
 ,0.00002082,-0.00001158,0.00001842,-0.00001861,0.00004758,-0.00004802,
 0.00001643,0.00003194,-0.00005094,-0.00010728,-0.00010002,0.00007961,0
 .00018817,0.00003286,-0.00002628,-0.00001171,-0.00003802,0.00019716,0.
 00006817,0.00002115,0.00007912,-0.00000237,-0.00000298,0.00000930,0.00
 002873,-0.00001970,0.00001256,-0.00002924,0.00014610,-0.00043634,0.000
 53654,-0.00014247,-0.00172216,0.00033738,-0.00034948,-0.00009518,-0.00
 020217,0.00136299,-0.00555835,0.00729092,-0.00097458,0.00318359,-0.000
 96342,0.01150452,-0.13143649,0.18303555\\0.00000808,0.00000408,-0.0000
 0219,-0.00000929,-0.00000044,-0.00000382,-0.00000943,-0.00000815,-0.00
 000336,0.00002840,0.00000008,0.00000002,-0.00002339,0.00000011,0.00000
 016,0.00000845,-0.00001012,-0.00001246,-0.00000937,0.00000824,0.000003
 26,-0.00000954,0.00000048,0.00000401,0.00000821,-0.00000419,0.00000205
 ,0.00000804,0.00001006,0.00001240,0.00000056,-0.00000089,0.00001216,0.
 00000071,0.00000116,-0.00001265,-0.00000485,-0.00000577,-0.00001371,-0
 .00000451,0.00000728,-0.00000803,-0.00000462,-0.00000716,0.00000799,-0
 .00000490,0.00000561,0.00001420,-0.00000096,-0.00000027,-0.00000384,0.
 00000109,0.,-0.00000503,0.00000079,0.00000183,-0.00000201,0.00000081,-
 0.00000180,0.00000195,0.00000109,-0.00000005,0.00000495,-0.00000051,0.
 00000016,0.00000381,0.00000068,-0.00000245,0.00000024,0.00000177,-0.00
 000044,0.00000221,0.00000128,-0.00000371,0.00000093,0.00000080,0.00000
 031,-0.00000391,0.00000115,-0.00000290,-0.00000450,0.00000207,-0.00000
 069,-0.00000444,0.00000066,-0.00000022,0.00000402,0.00000117,0.0000029
 1,0.00000452,0.00000212,0.00000073,0.00000447,0.00000049,0.00000202,-0
 .00000024,0.00000172,0.00000050,-0.00000211,0.00000125,0.00000369,-0.0
 0000106\\\@


 IT MATTERS NOT HOW DEEP YOU PLOW,
 BUT HOW LONG YOU STAY IN THE FURROW.
 Job cpu time:       0 days  5 hours 20 minutes 38.2 seconds.
 File lengths (MBytes):  RWF=    910 Int=      0 D2E=      0 Chk=     13 Scr=      1
 Normal termination of Gaussian 09 at Tue Jun 11 14:44:26 2024.
