 Entering Gaussian System, Link 0=g09
 Input=pbeDMANyang.gjf
 Output=pbeDMANyang.log
 Initial command:
 /home/phzd/g09E/g09/l1.exe "/home/phzd/g09E/scratch/Gau-643552.inp" -scrdir="/home/phzd/g09E/scratch/"
 Default is to use a total of  18 processors:
                               18 via shared-memory
                                1 via Linda
 Entering Link 1 = /home/phzd/g09E/g09/l1.exe PID=    643554.
  
 Copyright (c) 1988,1990,1992,1993,1995,1998,2003,2009,2015,
            Gaussian, Inc.  All Rights Reserved.
  
 This is part of the Gaussian(R) 09 program.  It is based on
 the Gaussian(R) 03 system (copyright 2003, Gaussian, Inc.),
 the Gaussian(R) 98 system (copyright 1998, Gaussian, Inc.),
 the Gaussian(R) 94 system (copyright 1995, Gaussian, Inc.),
 the Gaussian 92(TM) system (copyright 1992, Gaussian, Inc.),
 the Gaussian 90(TM) system (copyright 1990, Gaussian, Inc.),
 the Gaussian 88(TM) system (copyright 1988, Gaussian, Inc.),
 the Gaussian 86(TM) system (copyright 1986, Carnegie Mellon
 University), and the Gaussian 82(TM) system (copyright 1983,
 Carnegie Mellon University). Gaussian is a federally registered
 trademark of Gaussian, Inc.
  
 This software contains proprietary and confidential information,
 including trade secrets, belonging to Gaussian, Inc.
  
 This software is provided under written license and may be
 used, copied, transmitted, or stored only in accord with that
 written license.
  
 The following legend is applicable only to US Government
 contracts under FAR:
  
                    RESTRICTED RIGHTS LEGEND
  
 Use, reproduction and disclosure by the US Government is
 subject to restrictions as set forth in subparagraphs (a)
 and (c) of the Commercial Computer Software - Restricted
 Rights clause in FAR 52.227-19.
  
 Gaussian, Inc.
 340 Quinnipiac St., Bldg. 40, Wallingford CT 06492
  
  
 ---------------------------------------------------------------
 Warning -- This program may not be used in any manner that
 competes with the business of Gaussian, Inc. or will provide
 assistance to any competitor of Gaussian, Inc.  The licensee
 of this program is prohibited from giving any competitor of
 Gaussian, Inc. access to this program.  By using this program,
 the user acknowledges that Gaussian, Inc. is engaged in the
 business of creating and licensing software in the field of
 computational chemistry and represents and warrants to the
 licensee that it is not a competitor of Gaussian, Inc. and that
 it will not use this program in any manner prohibited above.
 ---------------------------------------------------------------
  

 Cite this work as:
 Gaussian 09, Revision E.01,
 M. J. Frisch, G. W. Trucks, H. B. Schlegel, G. E. Scuseria, 
 M. A. Robb, J. R. Cheeseman, G. Scalmani, V. Barone, B. Mennucci, 
 G. A. Petersson, H. Nakatsuji, M. Caricato, X. Li, H. P. Hratchian, 
 A. F. Izmaylov, J. Bloino, G. Zheng, J. L. Sonnenberg, M. Hada, 
 M. Ehara, K. Toyota, R. Fukuda, J. Hasegawa, M. Ishida, T. Nakajima, 
 Y. Honda, O. Kitao, H. Nakai, T. Vreven, J. A. Montgomery, Jr., 
 J. E. Peralta, F. Ogliaro, M. Bearpark, J. J. Heyd, E. Brothers, 
 K. N. Kudin, V. N. Staroverov, T. Keith, R. Kobayashi, J. Normand, 
 K. Raghavachari, A. Rendell, J. C. Burant, S. S. Iyengar, J. Tomasi, 
 M. Cossi, N. Rega, J. M. Millam, M. Klene, J. E. Knox, J. B. Cross, 
 V. Bakken, C. Adamo, J. Jaramillo, R. Gomperts, R. E. Stratmann, 
 O. Yazyev, A. J. Austin, R. Cammi, C. Pomelli, J. W. Ochterski, 
 R. L. Martin, K. Morokuma, V. G. Zakrzewski, G. A. Voth, 
 P. Salvador, J. J. Dannenberg, S. Dapprich, A. D. Daniels, 
 O. Farkas, J. B. Foresman, J. V. Ortiz, J. Cioslowski, 
 and D. J. Fox, Gaussian, Inc., Wallingford CT, 2013.
 
 ******************************************
 Gaussian 09:  ES64L-G09RevE.01 30-Nov-2015
                11-Jun-2024 
 ******************************************
 %chk=pbeDMANyang.chk
 -----------------------------
 # opt freq pbepbe/6-31+g(d,p)
 -----------------------------
 1/14=-1,18=20,19=15,26=3,38=1/1,3;
 2/9=110,12=2,17=6,18=5,40=1/2;
 3/5=1,6=6,7=111,11=2,16=1,25=1,30=1,71=1,74=1009/1,2,3;
 4//1;
 5/5=2,38=5/2;
 6/7=2,8=2,9=2,10=2,28=1/1;
 7//1,2,3,16;
 1/14=-1,18=20,19=15,26=3/3(2);
 2/9=110/2;
 99//99;
 2/9=110/2;
 3/5=1,6=6,7=111,11=2,16=1,25=1,30=1,71=1,74=1009/1,2,3;
 4/5=5,16=3,69=1/1;
 5/5=2,38=5/2;
 7//1,2,3,16;
 1/14=-1,18=20,19=15,26=3/3(-5);
 2/9=110/2;
 6/7=2,8=2,9=2,10=2,19=2,28=1/1;
 99/9=1/99;
 ----------
 [No Title]
 ----------
 Symbolic Z-matrix:
 Charge =  1 Multiplicity = 1
 C                    -0.74776  -2.43995  -0.0002 
 C                    -2.15931  -2.40461  -0.00009 
 C                    -2.81078  -1.19311   0.00014 
 C                    -2.09113   0.03096   0.0002 
 C                    -0.65264   0.0145    0.00009 
 C                    -0.02749  -1.26878  -0.00013 
 C                    -2.77757   1.27349   0.00017 
 C                    -2.08611   2.46195  -0.00008 
 C                    -0.67369   2.4543   -0.00022 
 C                     0.03265   1.27105   0.00013 
 N                     1.44973  -1.3187   -0.00013 
 N                     1.4939    1.27438  -0.00009 
 C                     2.01523  -1.93001   1.24041 
 C                     2.0153   -1.93043  -1.24042 
 C                     2.0632    1.88214  -1.2246 
 C                     2.06356   1.88108   1.22486 
 H                    -0.23858  -3.39829  -0.00047 
 H                    -2.71807  -3.33365  -0.00023 
 H                    -3.89545  -1.15519   0.00027 
 H                    -3.86281   1.26709   0.00048 
 H                    -2.61632   3.40798  -0.00024 
 H                    -0.13877   3.39844  -0.00049 
 H                     1.70134  -0.22846  -0.00034 
 H                     3.09943  -1.80462   1.2292 
 H                     1.58748  -1.42262   2.10496 
 H                     1.76809  -2.99173   1.28158 
 H                     3.09951  -1.80515  -1.22916 
 H                     1.58768  -1.42324  -2.10516 
 H                     1.76807  -2.99214  -1.28139 
 H                     1.62708   1.4036   -2.10374 
 H                     1.86291   2.9587   -1.27763 
 H                     3.14539   1.72779  -1.22803 
 H                     1.62707   1.40233   2.10368 
 H                     3.14566   1.72612   1.22819 
 H                     1.86395   2.95775   1.27845 
 

 GradGradGradGradGradGradGradGradGradGradGradGradGradGradGradGradGradGrad
 Berny optimization.
 Initialization pass.
                           ----------------------------
                           !    Initial Parameters    !
                           ! (Angstroms and Degrees)  !
 --------------------------                            --------------------------
 ! Name  Definition              Value          Derivative Info.                !
 --------------------------------------------------------------------------------
 ! R1    R(1,2)                  1.412          estimate D2E/DX2                !
 ! R2    R(1,6)                  1.3749         estimate D2E/DX2                !
 ! R3    R(1,17)                 1.0852         estimate D2E/DX2                !
 ! R4    R(2,3)                  1.3756         estimate D2E/DX2                !
 ! R5    R(2,18)                 1.0841         estimate D2E/DX2                !
 ! R6    R(3,4)                  1.4199         estimate D2E/DX2                !
 ! R7    R(3,19)                 1.0853         estimate D2E/DX2                !
 ! R8    R(4,5)                  1.4386         estimate D2E/DX2                !
 ! R9    R(4,7)                  1.4195         estimate D2E/DX2                !
 ! R10   R(5,6)                  1.4275         estimate D2E/DX2                !
 ! R11   R(5,10)                 1.4313         estimate D2E/DX2                !
 ! R12   R(6,11)                 1.4781         estimate D2E/DX2                !
 ! R13   R(7,8)                  1.375          estimate D2E/DX2                !
 ! R14   R(7,20)                 1.0853         estimate D2E/DX2                !
 ! R15   R(8,9)                  1.4124         estimate D2E/DX2                !
 ! R16   R(8,21)                 1.0845         estimate D2E/DX2                !
 ! R17   R(9,10)                 1.378          estimate D2E/DX2                !
 ! R18   R(9,22)                 1.0851         estimate D2E/DX2                !
 ! R19   R(10,12)                1.4612         estimate D2E/DX2                !
 ! R20   R(11,13)                1.4941         estimate D2E/DX2                !
 ! R21   R(11,14)                1.4941         estimate D2E/DX2                !
 ! R22   R(11,23)                1.1189         estimate D2E/DX2                !
 ! R23   R(12,15)                1.4808         estimate D2E/DX2                !
 ! R24   R(12,16)                1.4809         estimate D2E/DX2                !
 ! R25   R(13,24)                1.0915         estimate D2E/DX2                !
 ! R26   R(13,25)                1.0899         estimate D2E/DX2                !
 ! R27   R(13,26)                1.0909         estimate D2E/DX2                !
 ! R28   R(14,27)                1.0915         estimate D2E/DX2                !
 ! R29   R(14,28)                1.0899         estimate D2E/DX2                !
 ! R30   R(14,29)                1.0909         estimate D2E/DX2                !
 ! R31   R(15,30)                1.0918         estimate D2E/DX2                !
 ! R32   R(15,31)                1.0963         estimate D2E/DX2                !
 ! R33   R(15,32)                1.0931         estimate D2E/DX2                !
 ! R34   R(16,33)                1.0918         estimate D2E/DX2                !
 ! R35   R(16,34)                1.0931         estimate D2E/DX2                !
 ! R36   R(16,35)                1.0963         estimate D2E/DX2                !
 ! A1    A(2,1,6)              120.1575         estimate D2E/DX2                !
 ! A2    A(2,1,17)             119.4166         estimate D2E/DX2                !
 ! A3    A(6,1,17)             120.4259         estimate D2E/DX2                !
 ! A4    A(1,2,3)              119.7031         estimate D2E/DX2                !
 ! A5    A(1,2,18)             119.5901         estimate D2E/DX2                !
 ! A6    A(3,2,18)             120.7068         estimate D2E/DX2                !
 ! A7    A(2,3,4)              121.2791         estimate D2E/DX2                !
 ! A8    A(2,3,19)             120.2709         estimate D2E/DX2                !
 ! A9    A(4,3,19)             118.45           estimate D2E/DX2                !
 ! A10   A(3,4,5)              119.7965         estimate D2E/DX2                !
 ! A11   A(3,4,7)              120.6293         estimate D2E/DX2                !
 ! A12   A(5,4,7)              119.5742         estimate D2E/DX2                !
 ! A13   A(4,5,6)              116.6284         estimate D2E/DX2                !
 ! A14   A(4,5,10)             117.9516         estimate D2E/DX2                !
 ! A15   A(6,5,10)             125.42           estimate D2E/DX2                !
 ! A16   A(1,6,5)              122.4353         estimate D2E/DX2                !
 ! A17   A(1,6,11)             119.6565         estimate D2E/DX2                !
 ! A18   A(5,6,11)             117.9082         estimate D2E/DX2                !
 ! A19   A(4,7,8)              120.8897         estimate D2E/DX2                !
 ! A20   A(4,7,20)             118.5804         estimate D2E/DX2                !
 ! A21   A(8,7,20)             120.5299         estimate D2E/DX2                !
 ! A22   A(7,8,9)              119.8813         estimate D2E/DX2                !
 ! A23   A(7,8,21)             120.5395         estimate D2E/DX2                !
 ! A24   A(9,8,21)             119.5793         estimate D2E/DX2                !
 ! A25   A(8,9,10)             121.1453         estimate D2E/DX2                !
 ! A26   A(8,9,22)             119.2241         estimate D2E/DX2                !
 ! A27   A(10,9,22)            119.6305         estimate D2E/DX2                !
 ! A28   A(5,10,9)             120.5578         estimate D2E/DX2                !
 ! A29   A(5,10,12)            118.7376         estimate D2E/DX2                !
 ! A30   A(9,10,12)            120.7045         estimate D2E/DX2                !
 ! A31   A(6,11,13)            113.0841         estimate D2E/DX2                !
 ! A32   A(6,11,14)            113.0875         estimate D2E/DX2                !
 ! A33   A(6,11,23)            101.06           estimate D2E/DX2                !
 ! A34   A(13,11,14)           112.2373         estimate D2E/DX2                !
 ! A35   A(13,11,23)           108.2832         estimate D2E/DX2                !
 ! A36   A(14,11,23)           108.28           estimate D2E/DX2                !
 ! A37   A(10,12,15)           112.6752         estimate D2E/DX2                !
 ! A38   A(10,12,16)           112.6733         estimate D2E/DX2                !
 ! A39   A(15,12,16)           111.5894         estimate D2E/DX2                !
 ! A40   A(11,13,24)           108.6889         estimate D2E/DX2                !
 ! A41   A(11,13,25)           108.6382         estimate D2E/DX2                !
 ! A42   A(11,13,26)           110.1087         estimate D2E/DX2                !
 ! A43   A(24,13,25)           110.1522         estimate D2E/DX2                !
 ! A44   A(24,13,26)           109.7084         estimate D2E/DX2                !
 ! A45   A(25,13,26)           109.5264         estimate D2E/DX2                !
 ! A46   A(11,14,27)           108.6897         estimate D2E/DX2                !
 ! A47   A(11,14,28)           108.6375         estimate D2E/DX2                !
 ! A48   A(11,14,29)           110.1122         estimate D2E/DX2                !
 ! A49   A(27,14,28)           110.1517         estimate D2E/DX2                !
 ! A50   A(27,14,29)           109.7078         estimate D2E/DX2                !
 ! A51   A(28,14,29)           109.5239         estimate D2E/DX2                !
 ! A52   A(12,15,30)           109.4126         estimate D2E/DX2                !
 ! A53   A(12,15,31)           111.8869         estimate D2E/DX2                !
 ! A54   A(12,15,32)           108.98           estimate D2E/DX2                !
 ! A55   A(30,15,31)           108.5705         estimate D2E/DX2                !
 ! A56   A(30,15,32)           109.3316         estimate D2E/DX2                !
 ! A57   A(31,15,32)           108.6244         estimate D2E/DX2                !
 ! A58   A(12,16,33)           109.4124         estimate D2E/DX2                !
 ! A59   A(12,16,34)           108.9792         estimate D2E/DX2                !
 ! A60   A(12,16,35)           111.8839         estimate D2E/DX2                !
 ! A61   A(33,16,34)           109.3378         estimate D2E/DX2                !
 ! A62   A(33,16,35)           108.572          estimate D2E/DX2                !
 ! A63   A(34,16,35)           108.6209         estimate D2E/DX2                !
 ! D1    D(6,1,2,3)             -0.0024         estimate D2E/DX2                !
 ! D2    D(6,1,2,18)           179.9954         estimate D2E/DX2                !
 ! D3    D(17,1,2,3)          -179.9951         estimate D2E/DX2                !
 ! D4    D(17,1,2,18)            0.0028         estimate D2E/DX2                !
 ! D5    D(2,1,6,5)              0.0014         estimate D2E/DX2                !
 ! D6    D(2,1,6,11)           179.9947         estimate D2E/DX2                !
 ! D7    D(17,1,6,5)           179.994          estimate D2E/DX2                !
 ! D8    D(17,1,6,11)           -0.0127         estimate D2E/DX2                !
 ! D9    D(1,2,3,4)              0.0038         estimate D2E/DX2                !
 ! D10   D(1,2,3,19)          -179.9975         estimate D2E/DX2                !
 ! D11   D(18,2,3,4)          -179.994          estimate D2E/DX2                !
 ! D12   D(18,2,3,19)            0.0047         estimate D2E/DX2                !
 ! D13   D(2,3,4,5)             -0.0041         estimate D2E/DX2                !
 ! D14   D(2,3,4,7)            179.9874         estimate D2E/DX2                !
 ! D15   D(19,3,4,5)           179.9972         estimate D2E/DX2                !
 ! D16   D(19,3,4,7)            -0.0113         estimate D2E/DX2                !
 ! D17   D(3,4,5,6)              0.0029         estimate D2E/DX2                !
 ! D18   D(3,4,5,10)           179.9989         estimate D2E/DX2                !
 ! D19   D(7,4,5,6)           -179.9887         estimate D2E/DX2                !
 ! D20   D(7,4,5,10)             0.0072         estimate D2E/DX2                !
 ! D21   D(3,4,7,8)           -179.9851         estimate D2E/DX2                !
 ! D22   D(3,4,7,20)             0.0222         estimate D2E/DX2                !
 ! D23   D(5,4,7,8)              0.0064         estimate D2E/DX2                !
 ! D24   D(5,4,7,20)          -179.9863         estimate D2E/DX2                !
 ! D25   D(4,5,6,1)             -0.0017         estimate D2E/DX2                !
 ! D26   D(4,5,6,11)          -179.9951         estimate D2E/DX2                !
 ! D27   D(10,5,6,1)          -179.9972         estimate D2E/DX2                !
 ! D28   D(10,5,6,11)            0.0093         estimate D2E/DX2                !
 ! D29   D(4,5,10,9)            -0.023          estimate D2E/DX2                !
 ! D30   D(4,5,10,12)         -179.9947         estimate D2E/DX2                !
 ! D31   D(6,5,10,9)           179.9726         estimate D2E/DX2                !
 ! D32   D(6,5,10,12)            0.0008         estimate D2E/DX2                !
 ! D33   D(1,6,11,13)          -64.4974         estimate D2E/DX2                !
 ! D34   D(1,6,11,14)           64.4704         estimate D2E/DX2                !
 ! D35   D(1,6,11,23)          179.9853         estimate D2E/DX2                !
 ! D36   D(5,6,11,13)          115.4962         estimate D2E/DX2                !
 ! D37   D(5,6,11,14)         -115.536          estimate D2E/DX2                !
 ! D38   D(5,6,11,23)           -0.0211         estimate D2E/DX2                !
 ! D39   D(4,7,8,9)             -0.0049         estimate D2E/DX2                !
 ! D40   D(4,7,8,21)           179.9916         estimate D2E/DX2                !
 ! D41   D(20,7,8,9)           179.9877         estimate D2E/DX2                !
 ! D42   D(20,7,8,21)           -0.0158         estimate D2E/DX2                !
 ! D43   D(7,8,9,10)            -0.0112         estimate D2E/DX2                !
 ! D44   D(7,8,9,22)           179.9956         estimate D2E/DX2                !
 ! D45   D(21,8,9,10)          179.9923         estimate D2E/DX2                !
 ! D46   D(21,8,9,22)           -0.001          estimate D2E/DX2                !
 ! D47   D(8,9,10,5)             0.0253         estimate D2E/DX2                !
 ! D48   D(8,9,10,12)          179.9965         estimate D2E/DX2                !
 ! D49   D(22,9,10,5)         -179.9815         estimate D2E/DX2                !
 ! D50   D(22,9,10,12)          -0.0103         estimate D2E/DX2                !
 ! D51   D(5,10,12,15)         116.343          estimate D2E/DX2                !
 ! D52   D(5,10,12,16)        -116.3045         estimate D2E/DX2                !
 ! D53   D(9,10,12,15)         -63.6287         estimate D2E/DX2                !
 ! D54   D(9,10,12,16)          63.7238         estimate D2E/DX2                !
 ! D55   D(6,11,13,24)        -172.1439         estimate D2E/DX2                !
 ! D56   D(6,11,13,25)         -52.282          estimate D2E/DX2                !
 ! D57   D(6,11,13,26)          67.66           estimate D2E/DX2                !
 ! D58   D(14,11,13,24)         58.4529         estimate D2E/DX2                !
 ! D59   D(14,11,13,25)        178.3148         estimate D2E/DX2                !
 ! D60   D(14,11,13,26)        -61.7433         estimate D2E/DX2                !
 ! D61   D(23,11,13,24)        -61.0168         estimate D2E/DX2                !
 ! D62   D(23,11,13,25)         58.8451         estimate D2E/DX2                !
 ! D63   D(23,11,13,26)        178.7871         estimate D2E/DX2                !
 ! D64   D(6,11,14,27)         172.1521         estimate D2E/DX2                !
 ! D65   D(6,11,14,28)          52.2907         estimate D2E/DX2                !
 ! D66   D(6,11,14,29)         -67.65           estimate D2E/DX2                !
 ! D67   D(13,11,14,27)        -58.4464         estimate D2E/DX2                !
 ! D68   D(13,11,14,28)       -178.3077         estimate D2E/DX2                !
 ! D69   D(13,11,14,29)         61.7516         estimate D2E/DX2                !
 ! D70   D(23,11,14,27)         61.0251         estimate D2E/DX2                !
 ! D71   D(23,11,14,28)        -58.8362         estimate D2E/DX2                !
 ! D72   D(23,11,14,29)       -178.7769         estimate D2E/DX2                !
 ! D73   D(10,12,15,30)        -52.6095         estimate D2E/DX2                !
 ! D74   D(10,12,15,31)         67.753          estimate D2E/DX2                !
 ! D75   D(10,12,15,32)       -172.1062         estimate D2E/DX2                !
 ! D76   D(16,12,15,30)        179.4664         estimate D2E/DX2                !
 ! D77   D(16,12,15,31)        -60.1711         estimate D2E/DX2                !
 ! D78   D(16,12,15,32)         59.9697         estimate D2E/DX2                !
 ! D79   D(10,12,16,33)         52.5628         estimate D2E/DX2                !
 ! D80   D(10,12,16,34)        172.0664         estimate D2E/DX2                !
 ! D81   D(10,12,16,35)        -67.7995         estimate D2E/DX2                !
 ! D82   D(15,12,16,33)       -179.512          estimate D2E/DX2                !
 ! D83   D(15,12,16,34)        -60.0085         estimate D2E/DX2                !
 ! D84   D(15,12,16,35)         60.1256         estimate D2E/DX2                !
 --------------------------------------------------------------------------------
 Trust Radius=3.00D-01 FncErr=1.00D-07 GrdErr=1.00D-06
 Number of steps in this run=    193 maximum allowed number of steps=    210.
 GradGradGradGradGradGradGradGradGradGradGradGradGradGradGradGradGradGrad

                          Input orientation:                          
 ---------------------------------------------------------------------
 Center     Atomic      Atomic             Coordinates (Angstroms)
 Number     Number       Type             X           Y           Z
 ---------------------------------------------------------------------
      1          6           0       -0.747760   -2.439947   -0.000202
      2          6           0       -2.159306   -2.404605   -0.000091
      3          6           0       -2.810780   -1.193110    0.000144
      4          6           0       -2.091128    0.030961    0.000198
      5          6           0       -0.652639    0.014504    0.000094
      6          6           0       -0.027488   -1.268783   -0.000126
      7          6           0       -2.777572    1.273493    0.000173
      8          6           0       -2.086110    2.461947   -0.000082
      9          6           0       -0.673685    2.454298   -0.000219
     10          6           0        0.032654    1.271050    0.000128
     11          7           0        1.449734   -1.318698   -0.000125
     12          7           0        1.493897    1.274379   -0.000094
     13          6           0        2.015232   -1.930012    1.240407
     14          6           0        2.015301   -1.930430   -1.240424
     15          6           0        2.063203    1.882137   -1.224601
     16          6           0        2.063563    1.881084    1.224863
     17          1           0       -0.238579   -3.398290   -0.000469
     18          1           0       -2.718069   -3.333648   -0.000228
     19          1           0       -3.895447   -1.155195    0.000272
     20          1           0       -3.862811    1.267085    0.000481
     21          1           0       -2.616324    3.407977   -0.000236
     22          1           0       -0.138765    3.398443   -0.000493
     23          1           0        1.701340   -0.228463   -0.000337
     24          1           0        3.099433   -1.804623    1.229203
     25          1           0        1.587479   -1.422621    2.104957
     26          1           0        1.768094   -2.991727    1.281584
     27          1           0        3.099511   -1.805147   -1.229160
     28          1           0        1.587682   -1.423237   -2.105161
     29          1           0        1.768071   -2.992136   -1.281388
     30          1           0        1.627075    1.403598   -2.103737
     31          1           0        1.862911    2.958701   -1.277626
     32          1           0        3.145389    1.727791   -1.228028
     33          1           0        1.627074    1.402329    2.103680
     34          1           0        3.145664    1.726122    1.228189
     35          1           0        1.863946    2.957754    1.278453
 ---------------------------------------------------------------------
                    Distance matrix (angstroms):
                    1          2          3          4          5
     1  C    0.000000
     2  C    1.411988   0.000000
     3  C    2.410530   1.375550   0.000000
     4  C    2.812477   2.436520   1.419947   0.000000
     5  C    2.456294   2.849936   2.473035   1.438583   0.000000
     6  C    1.374924   2.415521   2.784321   2.438841   1.427459
     7  C    4.231994   3.729699   2.466827   1.419539   2.469897
     8  C    5.081313   4.867102   3.726203   2.430991   2.836339
     9  C    4.894806   5.080946   4.227382   2.807438   2.439885
    10  C    3.792169   4.279618   3.762606   2.459323   1.431270
    11  N    2.467018   3.768868   4.262365   3.789364   2.489458
    12  N    4.338346   5.184671   4.961728   3.794535   2.488956
    13  C    3.071363   4.380735   5.037030   4.716537   3.526621
    14  C    3.071199   4.380709   5.037232   4.716880   3.526976
    15  C    5.299158   6.140453   5.891762   4.710143   3.516209
    16  C    5.298644   6.140054   5.891504   4.710012   3.515954
    17  H    1.085213   2.162545   3.388073   3.897653   3.437820
    18  H    2.163520   1.084130   2.142545   3.422521   3.933970
    19  H    3.399783   2.138974   1.085329   2.159290   3.447318
    20  H    4.842069   4.047621   2.675692   2.160292   3.445891
    21  H    6.139198   5.830521   4.605194   3.417611   3.920678
    22  H    5.870066   6.144750   5.312440   3.892513   3.422734
    23  H    3.299811   4.431724   4.614084   3.801331   2.366485
    24  H    4.088517   5.433735   6.067549   5.641077   4.347180
    25  H    3.304540   4.408392   4.881352   4.480520   3.393215
    26  H    2.876970   4.172754   5.083621   5.066773   4.066889
    27  H    4.088374   5.433702   6.067728   5.641396   4.347508
    28  H    3.304367   4.408438   4.881776   4.481169   3.393853
    29  H    2.876761   4.172674   5.083768   5.067050   4.067176
    30  H    4.983727   5.767531   5.555517   4.487283   3.398939
    31  H    6.131298   6.824615   6.380722   5.083200   4.077849
    32  H    5.833884   6.835519   6.746556   5.639936   4.343806
    33  H    4.982895   5.766738   5.554792   4.486682   3.398268
    34  H    5.832995   6.834785   6.746053   5.639639   4.343381
    35  H    6.131162   6.824670   6.380972   5.083568   4.078005
                    6          7          8          9         10
     6  C    0.000000
     7  C    3.745147   0.000000
     8  C    4.261018   1.374970   0.000000
     9  C    3.778744   2.412600   1.412446   0.000000
    10  C    2.540545   2.810227   2.430514   1.378039   0.000000
    11  N    1.478065   4.958787   5.176434   4.329481   2.952103
    12  N    2.963492   4.271469   3.771839   2.467918   1.461247
    13  C    2.479688   5.896744   6.135888   5.290709   3.964304
    14  C    2.479738   5.897104   6.136204   5.290992   3.964761
    15  C    3.974748   5.030271   4.364908   3.052382   2.448779
    16  C    3.974261   5.030469   4.365510   3.053183   2.448818
    17  H    2.139944   5.317146   6.144571   5.868740   4.677211
    18  H    3.391592   4.607525   5.829948   6.138389   5.363741
    19  H    3.869626   2.673606   4.044430   4.838201   4.616995
    20  H    4.597861   1.085258   2.141112   3.402940   3.895467
    21  H    5.345480   2.140566   1.084481   2.164105   3.403460
    22  H    4.668552   3.388025   2.160828   1.085149   2.134288
    23  H    2.017700   4.724037   4.645760   3.583009   2.243447
    24  H    3.402353   6.747185   6.826757   5.821195   4.513925
    25  H    2.657660   5.545522   5.745982   4.957331   3.755483
    26  H    2.799184   6.363741   6.800009   6.104465   4.777567
    27  H    3.402401   6.747547   6.827107   5.821527   4.514394
    28  H    2.657782   5.546190   5.746543   4.957806   3.756266
    29  H    2.799216   6.364029   6.800256   6.104688   4.777940
    30  H    3.782113   4.883060   4.396955   3.289720   2.643103
    31  H    4.803877   5.099684   4.180150   2.884529   2.798332
    32  H    4.533690   6.065998   5.423598   4.076844   3.377292
    33  H    3.781324   4.882852   4.397311   3.290368   2.642790
    34  H    4.532892   6.066104   5.424163   4.077579   3.377285
    35  H    4.803738   5.100434   4.181318   2.885835   2.798699
                   11         12         13         14         15
    11  N    0.000000
    12  N    2.593453   0.000000
    13  C    1.494126   3.475450   0.000000
    14  C    1.494130   3.475785   2.480831   0.000000
    15  C    3.481527   1.480843   4.539939   3.812901   0.000000
    16  C    3.480803   1.480922   3.811434   4.539560   2.449464
    17  H    2.678638   4.983504   2.962309   2.961769   5.888940
    18  H    4.629320   6.242962   5.090531   5.090373   7.180812
    19  H    5.347681   5.911671   6.088875   6.089110   6.799354
    20  H    5.908418   5.356713   6.805162   6.805597   6.082496
    21  H    6.234925   4.631000   7.175279   7.175556   5.072005
    22  H    4.977424   2.679036   5.879793   5.879993   2.940457
    23  H    1.118891   1.517092   2.129141   2.129103   2.466658
    24  H    2.113972   3.683635   1.091485   2.700042   4.548310
    25  H    2.112142   3.422544   1.089892   3.410642   4.715262
    26  H    2.131468   4.462907   1.090876   2.747360   5.488406
    27  H    2.113983   3.684030   2.700002   1.091482   3.830146
    28  H    2.112140   3.423045   3.410637   1.089896   3.453549
    29  H    2.131518   4.463187   2.747480   1.090881   4.883530
    30  H    3.444928   2.111811   4.737818   3.465800   1.091828
    31  H    4.483176   2.145973   5.501200   4.891647   1.096320
    32  H    3.696497   2.107328   4.555211   3.828816   1.093143
    33  H    3.444043   2.111865   3.464160   4.737197   3.390852
    34  H    3.695384   2.107388   3.826923   4.554354   2.685562
    35  H    4.482675   2.146013   4.890255   5.501090   2.731654
                   16         17         18         19         20
    16  C    0.000000
    17  H    5.888386   0.000000
    18  H    7.180410   2.480332   0.000000
    19  H    6.799148   4.290007   2.476263   0.000000
    20  H    6.082599   5.907688   4.741010   2.422500   0.000000
    21  H    5.072831   7.209642   6.742393   4.739061   2.477327
    22  H    2.941789   6.797466   7.209290   5.903243   4.290828
    23  H    2.466274   3.716327   5.401236   5.672994   5.761635
    24  H    3.828509   3.897973   6.139442   7.131646   7.708307
    25  H    3.451911   3.416222   5.159610   5.879089   6.431874
    26  H    4.882090   2.415717   4.678206   6.090181   7.175360
    27  H    4.547935   3.897516   6.139285   7.131857   7.708732
    28  H    4.715301   3.415522   5.159448   5.879575   6.432685
    29  H    5.487885   2.415028   4.677975   6.090356   7.175722
    30  H    3.390884   5.564398   6.763618   6.439917   5.880920
    31  H    2.732027   6.816064   7.887381   7.191373   6.105654
    32  H    2.685241   6.263773   7.842563   7.706731   7.129962
    33  H    1.091810   5.563636   6.762853   6.439215   5.880525
    34  H    1.093145   6.262771   7.841788   7.706297   7.129986
    35  H    1.096329   6.815831   7.887435   7.191711   6.106334
                   21         22         23         24         25
    21  H    0.000000
    22  H    2.477577   0.000000
    23  H    5.644991   4.066993   0.000000
    24  H    7.832790   6.250598   2.439408   0.000000
    25  H    6.740807   5.536741   2.423064   1.788540   0.000000
    26  H    7.862722   6.790737   3.046868   1.784495   1.781196
    27  H    7.833115   6.250872   2.439430   2.458363   3.680883
    28  H    6.741291   5.537043   2.422950   3.680873   4.210118
    29  H    7.862933   6.790892   3.046873   3.079899   3.736753
    30  H    5.142829   3.394294   2.663349   4.854792   5.069732
    31  H    4.679436   2.414777   3.437381   5.522901   5.541995
    32  H    6.125997   3.883759   2.723864   4.303260   4.843652
    33  H    5.143492   3.395615   2.663059   3.635532   2.825228
    34  H    6.126840   3.885073   2.723188   3.531048   3.620945
    35  H    4.680872   2.416767   3.437110   4.920273   4.466232
                   26         27         28         29         30
    26  H    0.000000
    27  H    3.079688   0.000000
    28  H    3.736676   1.788536   0.000000
    29  H    2.562972   1.784490   1.781176   0.000000
    30  H    5.549700   3.637169   2.827110   4.474217   0.000000
    31  H    6.478128   4.921969   4.467879   5.951594   1.776633
    32  H    5.519868   3.533236   3.622815   4.917069   1.782483
    33  H    4.472522   4.854255   5.069489   5.548864   4.207417
    34  H    4.915145   4.302389   4.843242   5.518849   3.675849
    35  H    5.950254   5.522678   5.542404   6.477898   3.729707
                   31         32         33         34         35
    31  H    0.000000
    32  H    1.778300   0.000000
    33  H    3.729764   3.675797   0.000000
    34  H    3.073079   2.456218   1.782538   0.000000
    35  H    2.556079   3.072027   1.776641   1.778270   0.000000
 Stoichiometry    C14H19N2(1+)
 Framework group  C1[X(C14H19N2)]
 Deg. of freedom    99
 Full point group                 C1      NOp   1
 Largest Abelian subgroup         C1      NOp   1
 Largest concise Abelian subgroup C1      NOp   1
                         Standard orientation:                         
 ---------------------------------------------------------------------
 Center     Atomic      Atomic             Coordinates (Angstroms)
 Number     Number       Type             X           Y           Z
 ---------------------------------------------------------------------
      1          6           0       -0.747760   -2.439947   -0.000202
      2          6           0       -2.159306   -2.404605   -0.000091
      3          6           0       -2.810780   -1.193110    0.000144
      4          6           0       -2.091128    0.030961    0.000198
      5          6           0       -0.652639    0.014504    0.000094
      6          6           0       -0.027488   -1.268783   -0.000126
      7          6           0       -2.777572    1.273493    0.000173
      8          6           0       -2.086110    2.461947   -0.000082
      9          6           0       -0.673685    2.454298   -0.000219
     10          6           0        0.032654    1.271050    0.000128
     11          7           0        1.449734   -1.318698   -0.000125
     12          7           0        1.493897    1.274379   -0.000094
     13          6           0        2.015232   -1.930012    1.240407
     14          6           0        2.015301   -1.930430   -1.240424
     15          6           0        2.063203    1.882137   -1.224601
     16          6           0        2.063563    1.881084    1.224863
     17          1           0       -0.238579   -3.398290   -0.000469
     18          1           0       -2.718069   -3.333648   -0.000228
     19          1           0       -3.895447   -1.155195    0.000272
     20          1           0       -3.862811    1.267085    0.000481
     21          1           0       -2.616324    3.407977   -0.000236
     22          1           0       -0.138765    3.398443   -0.000493
     23          1           0        1.701340   -0.228463   -0.000337
     24          1           0        3.099433   -1.804623    1.229203
     25          1           0        1.587479   -1.422621    2.104957
     26          1           0        1.768094   -2.991727    1.281584
     27          1           0        3.099511   -1.805147   -1.229160
     28          1           0        1.587682   -1.423237   -2.105161
     29          1           0        1.768071   -2.992136   -1.281388
     30          1           0        1.627075    1.403598   -2.103737
     31          1           0        1.862911    2.958701   -1.277626
     32          1           0        3.145389    1.727791   -1.228028
     33          1           0        1.627074    1.402329    2.103680
     34          1           0        3.145664    1.726122    1.228189
     35          1           0        1.863946    2.957754    1.278453
 ---------------------------------------------------------------------
 Rotational constants (GHZ):      0.6384592      0.6024545      0.3550272
 Standard basis: 6-31+G(d,p) (6D, 7F)
 There are   399 symmetry adapted cartesian basis functions of A   symmetry.
 There are   399 symmetry adapted basis functions of A   symmetry.
   399 basis functions,   645 primitive gaussians,   399 cartesian basis functions
    58 alpha electrons       58 beta electrons
       nuclear repulsion energy      1137.8196859196 Hartrees.
 NAtoms=   35 NActive=   35 NUniq=   35 SFac= 1.00D+00 NAtFMM=   60 NAOKFM=F Big=F
 Integral buffers will be    131072 words long.
 Raffenetti 2 integral format.
 Two-electron integral symmetry is turned on.
 One-electron integrals computed using PRISM.
 NBasis=   399 RedAO= T EigKep=  1.57D-06  NBF=   399
 NBsUse=   395 1.00D-06 EigRej=  8.31D-07 NBFU=   395
 ExpMin= 4.38D-02 ExpMax= 4.17D+03 ExpMxC= 6.27D+02 IAcc=2 IRadAn=         4 AccDes= 0.00D+00
 Harris functional with IExCor= 1009 and IRadAn=       4 diagonalized for initial guess.
 HarFok:  IExCor= 1009 AccDes= 0.00D+00 IRadAn=         4 IDoV= 1 UseB2=F ITyADJ=14
 ICtDFT=  3500011 ScaDFX=  1.000000  1.000000  1.000000  1.000000
 FoFCou: FMM=F IPFlag=           0 FMFlag=      100000 FMFlg1=           0
         NFxFlg=           0 DoJE=T BraDBF=F KetDBF=T FulRan=T
         wScrn=  0.000000 ICntrl=     500 IOpCl=  0 I1Cent=   200000004 NGrid=           0
         NMat0=    1 NMatS0=      1 NMatT0=    0 NMatD0=    1 NMtDS0=    0 NMtDT0=    0
 Petite list used in FoFCou.
 Requested convergence on RMS density matrix=1.00D-08 within 128 cycles.
 Requested convergence on MAX density matrix=1.00D-06.
 Requested convergence on             energy=1.00D-06.
 No special actions if energy rises.
 SCF Done:  E(RPBE-PBE) =  -653.401366829     A.U. after   16 cycles
            NFock= 16  Conv=0.34D-08     -V/T= 2.0095

 **********************************************************************

            Population analysis using the SCF density.

 **********************************************************************

 Orbital symmetries:
       Occupied  (A) (A) (A) (A) (A) (A) (A) (A) (A) (A) (A) (A)
                 (A) (A) (A) (A) (A) (A) (A) (A) (A) (A) (A) (A)
                 (A) (A) (A) (A) (A) (A) (A) (A) (A) (A) (A) (A)
                 (A) (A) (A) (A) (A) (A) (A) (A) (A) (A) (A) (A)
                 (A) (A) (A) (A) (A) (A) (A) (A) (A) (A)
       Virtual   (A) (A) (A) (A) (A) (A) (A) (A) (A) (A) (A) (A)
                 (A) (A) (A) (A) (A) (A) (A) (A) (A) (A) (A) (A)
                 (A) (A) (A) (A) (A) (A) (A) (A) (A) (A) (A) (A)
                 (A) (A) (A) (A) (A) (A) (A) (A) (A) (A) (A) (A)
                 (A) (A) (A) (A) (A) (A) (A) (A) (A) (A) (A) (A)
                 (A) (A) (A) (A) (A) (A) (A) (A) (A) (A) (A) (A)
                 (A) (A) (A) (A) (A) (A) (A) (A) (A) (A) (A) (A)
                 (A) (A) (A) (A) (A) (A) (A) (A) (A) (A) (A) (A)
                 (A) (A) (A) (A) (A) (A) (A) (A) (A) (A) (A) (A)
                 (A) (A) (A) (A) (A) (A) (A) (A) (A) (A) (A) (A)
                 (A) (A) (A) (A) (A) (A) (A) (A) (A) (A) (A) (A)
                 (A) (A) (A) (A) (A) (A) (A) (A) (A) (A) (A) (A)
                 (A) (A) (A) (A) (A) (A) (A) (A) (A) (A) (A) (A)
                 (A) (A) (A) (A) (A) (A) (A) (A) (A) (A) (A) (A)
                 (A) (A) (A) (A) (A) (A) (A) (A) (A) (A) (A) (A)
                 (A) (A) (A) (A) (A) (A) (A) (A) (A) (A) (A) (A)
                 (A) (A) (A) (A) (A) (A) (A) (A) (A) (A) (A) (A)
                 (A) (A) (A) (A) (A) (A) (A) (A) (A) (A) (A) (A)
                 (A) (A) (A) (A) (A) (A) (A) (A) (A) (A) (A) (A)
                 (A) (A) (A) (A) (A) (A) (A) (A) (A) (A) (A) (A)
                 (A) (A) (A) (A) (A) (A) (A) (A) (A) (A) (A) (A)
                 (A) (A) (A) (A) (A) (A) (A) (A) (A) (A) (A) (A)
                 (A) (A) (A) (A) (A) (A) (A) (A) (A) (A) (A) (A)
                 (A) (A) (A) (A) (A) (A) (A) (A) (A) (A) (A) (A)
                 (A) (A) (A) (A) (A) (A) (A) (A) (A) (A) (A) (A)
                 (A) (A) (A) (A) (A) (A) (A) (A) (A) (A) (A) (A)
                 (A) (A) (A) (A) (A) (A) (A) (A) (A) (A) (A) (A)
                 (A) (A) (A) (A) (A) (A) (A) (A) (A) (A) (A) (A)
                 (A)
 The electronic state is 1-A.
 Alpha  occ. eigenvalues --  -14.24123 -14.18288 -10.09103 -10.08505 -10.08505
 Alpha  occ. eigenvalues --  -10.07830 -10.06366 -10.05894 -10.05892 -10.05164
 Alpha  occ. eigenvalues --  -10.05071 -10.04055 -10.03869 -10.03773 -10.03421
 Alpha  occ. eigenvalues --  -10.03367  -1.05977  -1.00607  -0.93126  -0.88269
 Alpha  occ. eigenvalues --   -0.84185  -0.81563  -0.81401  -0.79551  -0.78541
 Alpha  occ. eigenvalues --   -0.75948  -0.72933  -0.70547  -0.68711  -0.66207
 Alpha  occ. eigenvalues --   -0.62812  -0.61337  -0.60332  -0.58630  -0.58380
 Alpha  occ. eigenvalues --   -0.57174  -0.55467  -0.54716  -0.54241  -0.52397
 Alpha  occ. eigenvalues --   -0.51841  -0.51587  -0.50542  -0.49973  -0.49595
 Alpha  occ. eigenvalues --   -0.49152  -0.48228  -0.48157  -0.47534  -0.46731
 Alpha  occ. eigenvalues --   -0.46185  -0.43661  -0.43303  -0.42751  -0.39149
 Alpha  occ. eigenvalues --   -0.36005  -0.35160  -0.33132
 Alpha virt. eigenvalues --   -0.21016  -0.18003  -0.14895  -0.14178  -0.11480
 Alpha virt. eigenvalues --   -0.10886  -0.10729  -0.10607  -0.10026  -0.08888
 Alpha virt. eigenvalues --   -0.08672  -0.08266  -0.07947  -0.07371  -0.07063
 Alpha virt. eigenvalues --   -0.06494  -0.06206  -0.05971  -0.05514  -0.05357
 Alpha virt. eigenvalues --   -0.04828  -0.03707  -0.03554  -0.03416  -0.02854
 Alpha virt. eigenvalues --   -0.02284  -0.01681  -0.01020  -0.00771  -0.00747
 Alpha virt. eigenvalues --    0.00256   0.00321   0.00615   0.01029   0.01105
 Alpha virt. eigenvalues --    0.01215   0.01977   0.02305   0.02703   0.03449
 Alpha virt. eigenvalues --    0.04077   0.04111   0.04969   0.05063   0.05169
 Alpha virt. eigenvalues --    0.05547   0.05769   0.05827   0.05978   0.06388
 Alpha virt. eigenvalues --    0.06874   0.07472   0.07685   0.07772   0.08889
 Alpha virt. eigenvalues --    0.09228   0.09448   0.09773   0.09844   0.11109
 Alpha virt. eigenvalues --    0.11212   0.11559   0.12047   0.12543   0.13133
 Alpha virt. eigenvalues --    0.13151   0.13713   0.13861   0.13960   0.14052
 Alpha virt. eigenvalues --    0.14558   0.14597   0.14918   0.15006   0.15510
 Alpha virt. eigenvalues --    0.16168   0.16975   0.18060   0.18340   0.19388
 Alpha virt. eigenvalues --    0.19742   0.20399   0.20466   0.20611   0.20796
 Alpha virt. eigenvalues --    0.22772   0.23405   0.24222   0.24283   0.25032
 Alpha virt. eigenvalues --    0.26446   0.26663   0.28659   0.29013   0.30577
 Alpha virt. eigenvalues --    0.32166   0.34953   0.36656   0.39487   0.43801
 Alpha virt. eigenvalues --    0.47286   0.47338   0.48677   0.49309   0.50456
 Alpha virt. eigenvalues --    0.50507   0.51919   0.52518   0.54195   0.54462
 Alpha virt. eigenvalues --    0.55323   0.55710   0.56755   0.57108   0.57642
 Alpha virt. eigenvalues --    0.59219   0.59474   0.60173   0.60694   0.60792
 Alpha virt. eigenvalues --    0.61596   0.61986   0.62404   0.63852   0.64145
 Alpha virt. eigenvalues --    0.66028   0.67740   0.69173   0.69209   0.69584
 Alpha virt. eigenvalues --    0.71314   0.72091   0.73206   0.74106   0.74957
 Alpha virt. eigenvalues --    0.76579   0.77237   0.77809   0.79643   0.80015
 Alpha virt. eigenvalues --    0.80036   0.80628   0.82156   0.82783   0.83346
 Alpha virt. eigenvalues --    0.84205   0.84532   0.85447   0.86200   0.86729
 Alpha virt. eigenvalues --    0.87496   0.88505   0.90006   0.92803   0.93676
 Alpha virt. eigenvalues --    0.94581   0.96518   0.96904   0.98766   0.98783
 Alpha virt. eigenvalues --    0.99130   1.01034   1.01038   1.01669   1.02368
 Alpha virt. eigenvalues --    1.03915   1.04191   1.07257   1.08457   1.10017
 Alpha virt. eigenvalues --    1.10310   1.11124   1.12001   1.14077   1.14663
 Alpha virt. eigenvalues --    1.17232   1.18080   1.20040   1.21211   1.21846
 Alpha virt. eigenvalues --    1.24568   1.25429   1.26885   1.27258   1.30459
 Alpha virt. eigenvalues --    1.30850   1.32938   1.34557   1.35114   1.36508
 Alpha virt. eigenvalues --    1.38704   1.39390   1.40228   1.48629   1.54071
 Alpha virt. eigenvalues --    1.56942   1.57364   1.57884   1.61075   1.61874
 Alpha virt. eigenvalues --    1.64173   1.65385   1.67270   1.68255   1.69411
 Alpha virt. eigenvalues --    1.70780   1.70993   1.71579   1.72184   1.73027
 Alpha virt. eigenvalues --    1.74017   1.75905   1.76566   1.78773   1.78919
 Alpha virt. eigenvalues --    1.79103   1.80100   1.80212   1.81010   1.82110
 Alpha virt. eigenvalues --    1.82147   1.83353   1.83389   1.84737   1.87419
 Alpha virt. eigenvalues --    1.87785   1.88394   1.89147   1.89665   1.91462
 Alpha virt. eigenvalues --    1.92015   1.92401   1.93743   1.94465   1.95525
 Alpha virt. eigenvalues --    1.96333   1.96699   2.02703   2.03985   2.04681
 Alpha virt. eigenvalues --    2.07352   2.07912   2.09379   2.12522   2.13102
 Alpha virt. eigenvalues --    2.14917   2.17043   2.18434   2.18744   2.19591
 Alpha virt. eigenvalues --    2.20482   2.21284   2.22108   2.22627   2.24251
 Alpha virt. eigenvalues --    2.26053   2.29878   2.30083   2.31290   2.32131
 Alpha virt. eigenvalues --    2.36097   2.36931   2.37798   2.38239   2.38945
 Alpha virt. eigenvalues --    2.39763   2.40151   2.40933   2.43490   2.45136
 Alpha virt. eigenvalues --    2.45650   2.47884   2.48285   2.49704   2.50426
 Alpha virt. eigenvalues --    2.51231   2.52032   2.53065   2.53242   2.53477
 Alpha virt. eigenvalues --    2.55075   2.56442   2.59505   2.60434   2.64352
 Alpha virt. eigenvalues --    2.64425   2.65974   2.66019   2.68474   2.68941
 Alpha virt. eigenvalues --    2.69776   2.71594   2.73105   2.77794   2.80302
 Alpha virt. eigenvalues --    2.85151   2.88890   2.90915   2.97679   2.99289
 Alpha virt. eigenvalues --    3.05213   3.05673   3.06181   3.07134   3.07434
 Alpha virt. eigenvalues --    3.08947   3.12028   3.15638   3.17823   3.19385
 Alpha virt. eigenvalues --    3.22504   3.22820   3.23472   3.24328   3.25359
 Alpha virt. eigenvalues --    3.27491   3.29434   3.32970   3.43223   3.55750
 Alpha virt. eigenvalues --    3.63810   4.07174   4.11613   4.12804   4.18314
 Alpha virt. eigenvalues --    4.21545   4.24005   4.26313   4.31625   4.32055
 Alpha virt. eigenvalues --    4.33823   4.36844   4.42789   4.46073   4.48697
 Alpha virt. eigenvalues --    4.50866   4.71885
          Condensed to atoms (all electrons):
               1          2          3          4          5          6
     1  C    7.218400   0.774932  -2.215540   0.558907   0.060591  -1.377343
     2  C    0.774932   6.517508  -1.046927  -0.307977   0.689216  -0.919902
     3  C   -2.215540  -1.046927  14.218184  -3.710918  -3.470360   2.613184
     4  C    0.558907  -0.307977  -3.710918  11.925481   1.980357  -0.025531
     5  C    0.060591   0.689216  -3.470360   1.980357   9.125364   0.154990
     6  C   -1.377343  -0.919902   2.613184  -0.025531   0.154990  10.014839
     7  C    0.635441   0.210095   0.156525  -3.660239  -3.438779  -1.490196
     8  C   -0.190113  -0.207414   0.058620  -0.252571   0.871343   0.192379
     9  C    0.079871  -0.184050   0.717181   0.613130  -0.091504   0.316911
    10  C    0.251554   0.155424  -1.316014  -0.006823   0.281193  -1.489595
    11  N   -0.163285   0.081212   0.023964  -0.198666   0.000002  -0.521304
    12  N    0.034983   0.037107  -0.124919  -0.192051  -0.027664  -0.082502
    13  C    0.053573   0.035594   0.005659  -0.083101  -0.047677  -0.622994
    14  C    0.053583   0.035525   0.005722  -0.083095  -0.047774  -0.623079
    15  C    0.041633   0.008696  -0.062580  -0.068951  -0.048678   0.057221
    16  C    0.041628   0.008709  -0.062602  -0.068944  -0.048587   0.057294
    17  H    0.224527   0.098472   0.064498  -0.023860  -0.017501  -0.082590
    18  H    0.002858   0.249449   0.023219   0.002111   0.003081   0.042861
    19  H    0.008441   0.060597   0.205401   0.017515   0.060786  -0.003402
    20  H   -0.001777   0.005507  -0.053707   0.017379   0.062868   0.002165
    21  H   -0.000173   0.001153  -0.004763   0.010300   0.005332   0.001293
    22  H   -0.000653   0.000836  -0.000147  -0.018982  -0.010199  -0.005928
    23  H   -0.037971  -0.005238   0.014451   0.021979  -0.000409   0.015130
    24  H   -0.010951   0.000898  -0.000872  -0.001013   0.009009   0.068544
    25  H    0.010523  -0.004457  -0.002090   0.008712  -0.011763  -0.046532
    26  H    0.016068  -0.000436  -0.000328  -0.007116  -0.001951  -0.051790
    27  H   -0.010933   0.000898  -0.000869  -0.001020   0.008996   0.068469
    28  H    0.010496  -0.004448  -0.002085   0.008703  -0.011754  -0.046489
    29  H    0.016029  -0.000455  -0.000332  -0.007110  -0.001933  -0.051705
    30  H    0.003859  -0.000784   0.003175   0.012379  -0.018963   0.010079
    31  H   -0.000226   0.000031  -0.000850  -0.005091   0.003641  -0.001628
    32  H   -0.000664   0.000116  -0.000170  -0.002027   0.008735  -0.010011
    33  H    0.003869  -0.000785   0.003175   0.012370  -0.018961   0.010034
    34  H   -0.000665   0.000116  -0.000170  -0.002021   0.008726  -0.010002
    35  H   -0.000226   0.000031  -0.000845  -0.005050   0.003651  -0.001612
               7          8          9         10         11         12
     1  C    0.635441  -0.190113   0.079871   0.251554  -0.163285   0.034983
     2  C    0.210095  -0.207414  -0.184050   0.155424   0.081212   0.037107
     3  C    0.156525   0.058620   0.717181  -1.316014   0.023964  -0.124919
     4  C   -3.660239  -0.252571   0.613130  -0.006823  -0.198666  -0.192051
     5  C   -3.438779   0.871343  -0.091504   0.281193   0.000002  -0.027664
     6  C   -1.490196   0.192379   0.316911  -1.489595  -0.521304  -0.082502
     7  C   14.565261  -1.198081  -2.192516   2.451859  -0.133861   0.062276
     8  C   -1.198081   6.562886   0.643237  -0.806104   0.041123   0.079885
     9  C   -2.192516   0.643237   7.163274  -1.216476   0.036883  -0.186654
    10  C    2.451859  -0.806104  -1.216476   9.603325  -0.078397  -0.488188
    11  N   -0.133861   0.041123   0.036883  -0.078397   7.922422  -0.210663
    12  N    0.062276   0.079885  -0.186654  -0.488188  -0.210663   8.072958
    13  C   -0.065372   0.012013   0.034686   0.064254   0.249201  -0.008445
    14  C   -0.065380   0.012017   0.034754   0.064294   0.249186  -0.008522
    15  C    0.015620   0.025930   0.043153  -0.614663  -0.008583   0.247721
    16  C    0.015660   0.026078   0.043157  -0.614992  -0.008567   0.247706
    17  H   -0.000659   0.000971  -0.000673  -0.006248   0.030628  -0.000448
    18  H   -0.006508   0.001209   0.000008   0.000557  -0.000986  -0.000013
    19  H   -0.053654   0.006336  -0.001826   0.000891  -0.000038   0.000242
    20  H    0.197036   0.069210   0.006902  -0.004429   0.000251  -0.000079
    21  H    0.008137   0.254745   0.005103   0.037872  -0.000015  -0.001447
    22  H    0.057554   0.091297   0.228913  -0.080489  -0.000309   0.023746
    23  H   -0.003053  -0.002795  -0.025495   0.051267   0.131623   0.094136
    24  H    0.000070   0.000125  -0.001031  -0.013453  -0.059005   0.005054
    25  H    0.002655  -0.000411   0.002513   0.011071  -0.030171  -0.002607
    26  H   -0.001250  -0.000065   0.000294  -0.000648  -0.020853  -0.001060
    27  H    0.000068   0.000125  -0.001025  -0.013435  -0.058983   0.005052
    28  H    0.002648  -0.000410   0.002501   0.011093  -0.030184  -0.002625
    29  H   -0.001248  -0.000065   0.000293  -0.000661  -0.020873  -0.001056
    30  H   -0.000251  -0.006476   0.021917  -0.055463  -0.001563  -0.036396
    31  H   -0.003238   0.001382   0.000420  -0.014070  -0.002133  -0.047367
    32  H   -0.000810   0.000449  -0.011510   0.053476   0.006972  -0.066585
    33  H   -0.000242  -0.006480   0.021930  -0.055504  -0.001544  -0.036374
    34  H   -0.000804   0.000446  -0.011497   0.053382   0.006978  -0.066542
    35  H   -0.003267   0.001407   0.000478  -0.014007  -0.002136  -0.047395
              13         14         15         16         17         18
     1  C    0.053573   0.053583   0.041633   0.041628   0.224527   0.002858
     2  C    0.035594   0.035525   0.008696   0.008709   0.098472   0.249449
     3  C    0.005659   0.005722  -0.062580  -0.062602   0.064498   0.023219
     4  C   -0.083101  -0.083095  -0.068951  -0.068944  -0.023860   0.002111
     5  C   -0.047677  -0.047774  -0.048678  -0.048587  -0.017501   0.003081
     6  C   -0.622994  -0.623079   0.057221   0.057294  -0.082590   0.042861
     7  C   -0.065372  -0.065380   0.015620   0.015660  -0.000659  -0.006508
     8  C    0.012013   0.012017   0.025930   0.026078   0.000971   0.001209
     9  C    0.034686   0.034754   0.043153   0.043157  -0.000673   0.000008
    10  C    0.064254   0.064294  -0.614663  -0.614992  -0.006248   0.000557
    11  N    0.249201   0.249186  -0.008583  -0.008567   0.030628  -0.000986
    12  N   -0.008445  -0.008522   0.247721   0.247706  -0.000448  -0.000013
    13  C    5.517939  -0.068243  -0.032330  -0.044129   0.009006  -0.000463
    14  C   -0.068243   5.517978  -0.044097  -0.032383   0.009006  -0.000462
    15  C   -0.032330  -0.044097   5.484302  -0.057689  -0.000313   0.000003
    16  C   -0.044129  -0.032383  -0.057689   5.484364  -0.000313   0.000003
    17  H    0.009006   0.009006  -0.000313  -0.000313   0.541590  -0.005008
    18  H   -0.000463  -0.000462   0.000003   0.000003  -0.005008   0.515639
    19  H    0.000005   0.000005   0.000061   0.000061  -0.000167  -0.004767
    20  H    0.000063   0.000062  -0.000028  -0.000028   0.000000  -0.000007
    21  H    0.000013   0.000013  -0.000601  -0.000602  -0.000000  -0.000000
    22  H   -0.000216  -0.000216   0.009731   0.009768  -0.000000  -0.000000
    23  H   -0.019112  -0.019113  -0.031391  -0.031398   0.000023   0.000002
    24  H    0.375932  -0.024367   0.002859   0.003741   0.000015  -0.000000
    25  H    0.412567   0.015770  -0.000656  -0.006348   0.000139  -0.000000
    26  H    0.430010  -0.010408   0.000195  -0.000790   0.000189   0.000005
    27  H   -0.024354   0.375959   0.003732   0.002858   0.000015  -0.000000
    28  H    0.015766   0.412575  -0.006349  -0.000662   0.000139  -0.000000
    29  H   -0.010410   0.429986  -0.000785   0.000197   0.000192   0.000005
    30  H   -0.000717  -0.007103   0.418118   0.015226   0.000000  -0.000000
    31  H    0.000817   0.000305   0.424251  -0.014929  -0.000000  -0.000000
    32  H    0.001659   0.002102   0.394358  -0.022359   0.000000   0.000000
    33  H   -0.007100  -0.000711   0.015250   0.418099   0.000000  -0.000000
    34  H    0.002101   0.001652  -0.022347   0.394382   0.000000   0.000000
    35  H    0.000303   0.000819  -0.014969   0.424153  -0.000000  -0.000000
              19         20         21         22         23         24
     1  C    0.008441  -0.001777  -0.000173  -0.000653  -0.037971  -0.010951
     2  C    0.060597   0.005507   0.001153   0.000836  -0.005238   0.000898
     3  C    0.205401  -0.053707  -0.004763  -0.000147   0.014451  -0.000872
     4  C    0.017515   0.017379   0.010300  -0.018982   0.021979  -0.001013
     5  C    0.060786   0.062868   0.005332  -0.010199  -0.000409   0.009009
     6  C   -0.003402   0.002165   0.001293  -0.005928   0.015130   0.068544
     7  C   -0.053654   0.197036   0.008137   0.057554  -0.003053   0.000070
     8  C    0.006336   0.069210   0.254745   0.091297  -0.002795   0.000125
     9  C   -0.001826   0.006902   0.005103   0.228913  -0.025495  -0.001031
    10  C    0.000891  -0.004429   0.037872  -0.080489   0.051267  -0.013453
    11  N   -0.000038   0.000251  -0.000015  -0.000309   0.131623  -0.059005
    12  N    0.000242  -0.000079  -0.001447   0.023746   0.094136   0.005054
    13  C    0.000005   0.000063   0.000013  -0.000216  -0.019112   0.375932
    14  C    0.000005   0.000062   0.000013  -0.000216  -0.019113  -0.024367
    15  C    0.000061  -0.000028  -0.000601   0.009731  -0.031391   0.002859
    16  C    0.000061  -0.000028  -0.000602   0.009768  -0.031398   0.003741
    17  H   -0.000167   0.000000  -0.000000  -0.000000   0.000023   0.000015
    18  H   -0.004767  -0.000007  -0.000000  -0.000000   0.000002  -0.000000
    19  H    0.529018   0.003139  -0.000007   0.000000  -0.000000   0.000000
    20  H    0.003139   0.530529  -0.004736  -0.000166  -0.000000   0.000000
    21  H   -0.000007  -0.004736   0.517626  -0.005024   0.000001   0.000000
    22  H    0.000000  -0.000166  -0.005024   0.539203   0.000025   0.000000
    23  H   -0.000000  -0.000000   0.000001   0.000025   0.377857  -0.003543
    24  H    0.000000   0.000000   0.000000   0.000000  -0.003543   0.484974
    25  H    0.000000  -0.000000   0.000000   0.000000  -0.003169  -0.021506
    26  H   -0.000000  -0.000000  -0.000000  -0.000000   0.003380  -0.024355
    27  H    0.000000   0.000000   0.000000   0.000000  -0.003543   0.001820
    28  H    0.000000  -0.000000   0.000000   0.000000  -0.003168   0.000156
    29  H   -0.000000  -0.000000  -0.000000  -0.000000   0.003379  -0.000477
    30  H   -0.000000   0.000000  -0.000001   0.000124  -0.002449   0.000000
    31  H    0.000000  -0.000000   0.000009   0.000732   0.001634   0.000000
    32  H    0.000000   0.000000  -0.000000  -0.000008  -0.002479   0.000010
    33  H   -0.000000   0.000000  -0.000001   0.000124  -0.002449  -0.000051
    34  H    0.000000   0.000000  -0.000000  -0.000008  -0.002484  -0.000070
    35  H    0.000000  -0.000000   0.000009   0.000723   0.001635   0.000007
              25         26         27         28         29         30
     1  C    0.010523   0.016068  -0.010933   0.010496   0.016029   0.003859
     2  C   -0.004457  -0.000436   0.000898  -0.004448  -0.000455  -0.000784
     3  C   -0.002090  -0.000328  -0.000869  -0.002085  -0.000332   0.003175
     4  C    0.008712  -0.007116  -0.001020   0.008703  -0.007110   0.012379
     5  C   -0.011763  -0.001951   0.008996  -0.011754  -0.001933  -0.018963
     6  C   -0.046532  -0.051790   0.068469  -0.046489  -0.051705   0.010079
     7  C    0.002655  -0.001250   0.000068   0.002648  -0.001248  -0.000251
     8  C   -0.000411  -0.000065   0.000125  -0.000410  -0.000065  -0.006476
     9  C    0.002513   0.000294  -0.001025   0.002501   0.000293   0.021917
    10  C    0.011071  -0.000648  -0.013435   0.011093  -0.000661  -0.055463
    11  N   -0.030171  -0.020853  -0.058983  -0.030184  -0.020873  -0.001563
    12  N   -0.002607  -0.001060   0.005052  -0.002625  -0.001056  -0.036396
    13  C    0.412567   0.430010  -0.024354   0.015766  -0.010410  -0.000717
    14  C    0.015770  -0.010408   0.375959   0.412575   0.429986  -0.007103
    15  C   -0.000656   0.000195   0.003732  -0.006349  -0.000785   0.418118
    16  C   -0.006348  -0.000790   0.002858  -0.000662   0.000197   0.015226
    17  H    0.000139   0.000189   0.000015   0.000139   0.000192   0.000000
    18  H   -0.000000   0.000005  -0.000000  -0.000000   0.000005  -0.000000
    19  H    0.000000  -0.000000   0.000000   0.000000  -0.000000  -0.000000
    20  H   -0.000000  -0.000000   0.000000  -0.000000  -0.000000   0.000000
    21  H    0.000000  -0.000000   0.000000   0.000000  -0.000000  -0.000001
    22  H    0.000000  -0.000000   0.000000   0.000000  -0.000000   0.000124
    23  H   -0.003169   0.003380  -0.003543  -0.003168   0.003379  -0.002449
    24  H   -0.021506  -0.024355   0.001820   0.000156  -0.000477   0.000000
    25  H    0.472569  -0.021884   0.000156  -0.000193   0.000002  -0.000002
    26  H   -0.021884   0.476505  -0.000478   0.000002   0.003077   0.000000
    27  H    0.000156  -0.000478   0.484972  -0.021502  -0.024356  -0.000051
    28  H   -0.000193   0.000002  -0.021502   0.472555  -0.021887   0.000202
    29  H    0.000002   0.003077  -0.024356  -0.021887   0.476522   0.000018
    30  H   -0.000002   0.000000  -0.000051   0.000202   0.000018   0.502064
    31  H    0.000000  -0.000000   0.000007   0.000021  -0.000001  -0.026770
    32  H    0.000000   0.000000  -0.000069  -0.000067   0.000005  -0.022591
    33  H    0.000204   0.000019   0.000000  -0.000002   0.000000  -0.000208
    34  H   -0.000067   0.000005   0.000010   0.000000   0.000000   0.000211
    35  H    0.000021  -0.000001   0.000000   0.000000  -0.000000  -0.000080
              31         32         33         34         35
     1  C   -0.000226  -0.000664   0.003869  -0.000665  -0.000226
     2  C    0.000031   0.000116  -0.000785   0.000116   0.000031
     3  C   -0.000850  -0.000170   0.003175  -0.000170  -0.000845
     4  C   -0.005091  -0.002027   0.012370  -0.002021  -0.005050
     5  C    0.003641   0.008735  -0.018961   0.008726   0.003651
     6  C   -0.001628  -0.010011   0.010034  -0.010002  -0.001612
     7  C   -0.003238  -0.000810  -0.000242  -0.000804  -0.003267
     8  C    0.001382   0.000449  -0.006480   0.000446   0.001407
     9  C    0.000420  -0.011510   0.021930  -0.011497   0.000478
    10  C   -0.014070   0.053476  -0.055504   0.053382  -0.014007
    11  N   -0.002133   0.006972  -0.001544   0.006978  -0.002136
    12  N   -0.047367  -0.066585  -0.036374  -0.066542  -0.047395
    13  C    0.000817   0.001659  -0.007100   0.002101   0.000303
    14  C    0.000305   0.002102  -0.000711   0.001652   0.000819
    15  C    0.424251   0.394358   0.015250  -0.022347  -0.014969
    16  C   -0.014929  -0.022359   0.418099   0.394382   0.424153
    17  H   -0.000000   0.000000   0.000000   0.000000  -0.000000
    18  H   -0.000000   0.000000  -0.000000   0.000000  -0.000000
    19  H    0.000000   0.000000  -0.000000   0.000000   0.000000
    20  H   -0.000000   0.000000   0.000000   0.000000  -0.000000
    21  H    0.000009  -0.000000  -0.000001  -0.000000   0.000009
    22  H    0.000732  -0.000008   0.000124  -0.000008   0.000723
    23  H    0.001634  -0.002479  -0.002449  -0.002484   0.001635
    24  H    0.000000   0.000010  -0.000051  -0.000070   0.000007
    25  H    0.000000   0.000000   0.000204  -0.000067   0.000021
    26  H   -0.000000   0.000000   0.000019   0.000005  -0.000001
    27  H    0.000007  -0.000069   0.000000   0.000010   0.000000
    28  H    0.000021  -0.000067  -0.000002   0.000000   0.000000
    29  H   -0.000001   0.000005   0.000000   0.000000  -0.000000
    30  H   -0.026770  -0.022591  -0.000208   0.000211  -0.000080
    31  H    0.511595  -0.028924  -0.000080  -0.000958   0.005673
    32  H   -0.028924   0.507653   0.000211   0.002740  -0.000961
    33  H   -0.000080   0.000211   0.502072  -0.022595  -0.026755
    34  H   -0.000958   0.002740  -0.022595   0.507654  -0.028928
    35  H    0.005673  -0.000961  -0.026755  -0.028928   0.511513
 Mulliken charges:
               1
     1  C   -0.091247
     2  C   -0.289248
     3  C   -0.035866
     4  C   -0.457165
     5  C   -0.023425
     6  C   -0.161257
     7  C   -0.061497
     8  C   -0.282230
     9  C   -0.093253
    10  C   -0.201855
    11  N   -0.228326
    12  N   -0.271266
    13  C   -0.186498
    14  C   -0.186361
    15  C   -0.177822
    16  C   -0.177759
    17  H    0.158371
    18  H    0.177206
    19  H    0.171361
    20  H    0.169845
    21  H    0.175762
    22  H    0.159568
    23  H    0.482739
    24  H    0.207479
    25  H    0.214951
    26  H    0.213664
    27  H    0.207478
    28  H    0.214967
    29  H    0.213649
    30  H    0.192492
    31  H    0.195743
    32  H    0.190748
    33  H    0.192484
    34  H    0.190757
    35  H    0.195810
 Sum of Mulliken charges =   1.00000
 Mulliken charges with hydrogens summed into heavy atoms:
               1
     1  C    0.067125
     2  C   -0.112042
     3  C    0.135495
     4  C   -0.457165
     5  C   -0.023425
     6  C   -0.161257
     7  C    0.108348
     8  C   -0.106468
     9  C    0.066315
    10  C   -0.201855
    11  N    0.254413
    12  N   -0.271266
    13  C    0.449597
    14  C    0.449732
    15  C    0.401162
    16  C    0.401291
 Electronic spatial extent (au):  <R**2>=           3325.2563
 Charge=              1.0000 electrons
 Dipole moment (field-independent basis, Debye):
    X=              3.9009    Y=             -1.5325    Z=             -0.0002  Tot=              4.1911
 Quadrupole moment (field-independent basis, Debye-Ang):
   XX=            -63.1334   YY=            -64.9946   ZZ=            -91.7051
   XY=             -2.9960   XZ=             -0.0007   YZ=              0.0003
 Traceless Quadrupole moment (field-independent basis, Debye-Ang):
   XX=             10.1443   YY=              8.2831   ZZ=            -18.4274
   XY=             -2.9960   XZ=             -0.0007   YZ=              0.0003
 Octapole moment (field-independent basis, Debye-Ang**2):
  XXX=              1.7652  YYY=             -9.5078  ZZZ=             -0.0014  XYY=              9.1802
  XXY=             -7.2666  XXZ=              0.0068  XZZ=             28.4189  YZZ=             -3.7273
  YYZ=             -0.0163  XYZ=              0.0006
 Hexadecapole moment (field-independent basis, Debye-Ang**3):
 XXXX=          -1771.2140 YYYY=          -1693.8543 ZZZZ=           -395.0471 XXXY=            -16.8886
 XXXZ=             -0.0253 YYYX=            -18.8362 YYYZ=             -0.0019 ZZZX=             -0.0015
 ZZZY=              0.0010 XXYY=           -552.7976 XXZZ=           -417.3713 YYZZ=           -400.2492
 XXYZ=              0.0085 YYXZ=              0.0008 ZZXY=             -6.9985
 N-N= 1.137819685920D+03 E-N=-3.772104752789D+03  KE= 6.472820778058D+02
 Calling FoFJK, ICntrl=      2527 FMM=F ISym2X=0 I1Cent= 0 IOpClX= 0 NMat=1 NMatS=1 NMatT=0.
 ***** Axes restored to original set *****
 -------------------------------------------------------------------
 Center     Atomic                   Forces (Hartrees/Bohr)
 Number     Number              X              Y              Z
 -------------------------------------------------------------------
      1        6          -0.003142203   -0.002546964   -0.000010103
      2        6           0.002081165   -0.002212875    0.000000249
      3        6          -0.000293292    0.002761549    0.000004533
      4        6          -0.002624815    0.000004386   -0.000005204
      5        6           0.002533658    0.000043610    0.000008540
      6        6           0.002768376    0.002832936    0.000013716
      7        6          -0.000392418   -0.002907797    0.000015246
      8        6           0.002388488    0.002359557   -0.000006000
      9        6          -0.003420582    0.002504716    0.000019419
     10        6           0.002713155   -0.002750674   -0.000039025
     11        7           0.000756415   -0.006313488   -0.000012483
     12        7           0.002545738   -0.002620382    0.000030240
     13        6          -0.001321290    0.000997978   -0.003069134
     14        6          -0.001329682    0.000997161    0.003062465
     15        6          -0.001423683   -0.001027229    0.002831720
     16        6          -0.001434233   -0.001011350   -0.002873387
     17        1           0.002721313   -0.005612804    0.000002732
     18        1          -0.003023472   -0.005125588    0.000001721
     19        1          -0.006016310    0.000268913   -0.000001809
     20        1          -0.006011384   -0.000090653   -0.000008074
     21        1          -0.002898163    0.005216757    0.000001427
     22        1           0.002947968    0.005544319    0.000002036
     23        1           0.001296785    0.008457854    0.000005722
     24        1           0.005562035    0.000403826    0.000175572
     25        1          -0.001961892    0.002288485    0.004732112
     26        1          -0.001057970   -0.005637111    0.000577269
     27        1           0.005563030    0.000404465   -0.000173065
     28        1          -0.001960311    0.002289477   -0.004731438
     29        1          -0.001056058   -0.005634395   -0.000571066
     30        1          -0.001945489   -0.002083558   -0.004693879
     31        1          -0.000773353    0.005695504   -0.000606743
     32        1           0.005468456   -0.000545150   -0.000187227
     33        1          -0.001945342   -0.002089655    0.004700788
     34        1           0.005466549   -0.000552875    0.000190818
     35        1          -0.000781189    0.005691056    0.000612312
 -------------------------------------------------------------------
 Cartesian Forces:  Max     0.008457854 RMS     0.002911207

 GradGradGradGradGradGradGradGradGradGradGradGradGradGradGradGradGradGrad
 Berny optimization.
 FormGI is forming the generalized inverse of G from B-inverse, IUseBI=4.
 GSVD:  received Info=                   1 from GESDD.
 Internal  Forces:  Max     0.009695081 RMS     0.002772821
 Search for a local minimum.
 Step number   1 out of a maximum of  193
 All quantities printed in internal units (Hartrees-Bohrs-Radians)
 Mixed Optimization -- RFO/linear search
 Second derivative matrix not updated -- first step.
 ITU=  0
     Eigenvalues ---    0.00447   0.00447   0.00621   0.00622   0.00659
     Eigenvalues ---    0.00882   0.01522   0.01662   0.01704   0.01719
     Eigenvalues ---    0.01750   0.01978   0.02027   0.02059   0.02069
     Eigenvalues ---    0.02153   0.02161   0.02175   0.02200   0.02267
     Eigenvalues ---    0.02284   0.02514   0.03373   0.04775   0.05847
     Eigenvalues ---    0.05848   0.05983   0.05983   0.06204   0.07185
     Eigenvalues ---    0.07185   0.07475   0.07475   0.16000   0.16000
     Eigenvalues ---    0.16000   0.16000   0.16000   0.16000   0.16000
     Eigenvalues ---    0.16000   0.16000   0.16000   0.16000   0.16000
     Eigenvalues ---    0.16000   0.16000   0.16000   0.16000   0.16000
     Eigenvalues ---    0.16000   0.17655   0.17722   0.18996   0.19280
     Eigenvalues ---    0.22061   0.22130   0.23306   0.23706   0.24873
     Eigenvalues ---    0.24943   0.25000   0.25000   0.31676   0.33001
     Eigenvalues ---    0.33001   0.34091   0.34092   0.34452   0.34452
     Eigenvalues ---    0.34464   0.34473   0.34602   0.34604   0.34642
     Eigenvalues ---    0.34642   0.34711   0.34712   0.34792   0.34825
     Eigenvalues ---    0.34825   0.35358   0.35366   0.35372   0.35379
     Eigenvalues ---    0.35458   0.35500   0.36103   0.36809   0.39218
     Eigenvalues ---    0.39667   0.41200   0.41586   0.42873   0.42997
     Eigenvalues ---    0.47876   0.48184   0.49205   0.49412
 RFO step:  Lambda=-3.72954645D-03 EMin= 4.46624296D-03
 Linear search not attempted -- first point.
 Iteration  1 RMS(Cart)=  0.03685541 RMS(Int)=  0.00010870
 Iteration  2 RMS(Cart)=  0.00038546 RMS(Int)=  0.00000766
 Iteration  3 RMS(Cart)=  0.00000007 RMS(Int)=  0.00000766
 Variable       Old X    -DE/DX   Delta X   Delta X   Delta X     New X
                                 (Linear)    (Quad)   (Total)
    R1        2.66827   0.00414   0.00000   0.00946   0.00946   2.67773
    R2        2.59823   0.00965   0.00000   0.01938   0.01939   2.61762
    R3        2.05075   0.00624   0.00000   0.01744   0.01744   2.06820
    R4        2.59941   0.00766   0.00000   0.01507   0.01506   2.61448
    R5        2.04871   0.00595   0.00000   0.01659   0.01659   2.06530
    R6        2.68331   0.00498   0.00000   0.01134   0.01134   2.69465
    R7        2.05098   0.00602   0.00000   0.01685   0.01685   2.06783
    R8        2.71853   0.00865   0.00000   0.02136   0.02137   2.73990
    R9        2.68254   0.00491   0.00000   0.01118   0.01118   2.69372
   R10        2.69751   0.00786   0.00000   0.01906   0.01906   2.71657
   R11        2.70471   0.00807   0.00000   0.01979   0.01980   2.72451
   R12        2.79314   0.00456   0.00000   0.01297   0.01297   2.80611
   R13        2.59832   0.00780   0.00000   0.01532   0.01532   2.61363
   R14        2.05084   0.00601   0.00000   0.01682   0.01682   2.06766
   R15        2.66914   0.00400   0.00000   0.00917   0.00917   2.67830
   R16        2.04937   0.00597   0.00000   0.01665   0.01665   2.06603
   R17        2.60412   0.00970   0.00000   0.01968   0.01968   2.62380
   R18        2.05064   0.00628   0.00000   0.01755   0.01755   2.06819
   R19        2.76136   0.00517   0.00000   0.01390   0.01390   2.77525
   R20        2.82349   0.00326   0.00000   0.00978   0.00978   2.83327
   R21        2.82350   0.00326   0.00000   0.00977   0.00977   2.83326
   R22        2.11440   0.00853   0.00000   0.02663   0.02663   2.14103
   R23        2.79839   0.00354   0.00000   0.01017   0.01017   2.80856
   R24        2.79854   0.00351   0.00000   0.01008   0.01008   2.80862
   R25        2.06261   0.00557   0.00000   0.01591   0.01591   2.07852
   R26        2.05960   0.00559   0.00000   0.01588   0.01588   2.07548
   R27        2.06146   0.00575   0.00000   0.01638   0.01638   2.07784
   R28        2.06260   0.00557   0.00000   0.01591   0.01591   2.07852
   R29        2.05960   0.00559   0.00000   0.01588   0.01588   2.07548
   R30        2.06147   0.00574   0.00000   0.01637   0.01637   2.07783
   R31        2.06325   0.00547   0.00000   0.01564   0.01564   2.07889
   R32        2.07175   0.00577   0.00000   0.01673   0.01673   2.08847
   R33        2.06574   0.00549   0.00000   0.01576   0.01576   2.08150
   R34        2.06322   0.00548   0.00000   0.01566   0.01566   2.07888
   R35        2.06575   0.00549   0.00000   0.01576   0.01576   2.08151
   R36        2.07176   0.00576   0.00000   0.01672   0.01672   2.08848
    A1        2.09714   0.00045   0.00000   0.00258   0.00258   2.09972
    A2        2.08421  -0.00046   0.00000  -0.00272  -0.00272   2.08149
    A3        2.10183   0.00001   0.00000   0.00014   0.00014   2.10197
    A4        2.08921  -0.00027   0.00000  -0.00155  -0.00156   2.08765
    A5        2.08724   0.00008   0.00000   0.00044   0.00044   2.08768
    A6        2.10673   0.00019   0.00000   0.00112   0.00112   2.10785
    A7        2.11672   0.00056   0.00000   0.00148   0.00147   2.11819
    A8        2.09912  -0.00022   0.00000  -0.00039  -0.00039   2.09873
    A9        2.06734  -0.00034   0.00000  -0.00108  -0.00108   2.06626
   A10        2.09084   0.00092   0.00000   0.00324   0.00324   2.09408
   A11        2.10538  -0.00178   0.00000  -0.00629  -0.00629   2.09909
   A12        2.08696   0.00086   0.00000   0.00305   0.00305   2.09002
   A13        2.03555  -0.00153   0.00000  -0.00597  -0.00596   2.02959
   A14        2.05864  -0.00144   0.00000  -0.00566  -0.00565   2.05299
   A15        2.18899   0.00298   0.00000   0.01163   0.01162   2.20061
   A16        2.13690  -0.00012   0.00000   0.00023   0.00024   2.13714
   A17        2.08840  -0.00207   0.00000  -0.00850  -0.00851   2.07989
   A18        2.05789   0.00219   0.00000   0.00827   0.00827   2.06615
   A19        2.10992   0.00060   0.00000   0.00169   0.00168   2.11160
   A20        2.06962  -0.00036   0.00000  -0.00121  -0.00121   2.06841
   A21        2.10364  -0.00024   0.00000  -0.00048  -0.00047   2.10317
   A22        2.09232  -0.00031   0.00000  -0.00173  -0.00174   2.09058
   A23        2.10381   0.00017   0.00000   0.00098   0.00099   2.10480
   A24        2.08705   0.00013   0.00000   0.00074   0.00075   2.08780
   A25        2.11439   0.00057   0.00000   0.00306   0.00306   2.11745
   A26        2.08085  -0.00046   0.00000  -0.00260  -0.00260   2.07826
   A27        2.08795  -0.00011   0.00000  -0.00047  -0.00046   2.08748
   A28        2.10413  -0.00027   0.00000  -0.00041  -0.00040   2.10373
   A29        2.07236   0.00272   0.00000   0.01038   0.01038   2.08274
   A30        2.10669  -0.00245   0.00000  -0.00997  -0.00998   2.09672
   A31        1.97369   0.00032   0.00000  -0.00041  -0.00043   1.97326
   A32        1.97375   0.00032   0.00000  -0.00042  -0.00043   1.97332
   A33        1.76383  -0.00041   0.00000  -0.00259  -0.00259   1.76124
   A34        1.95891  -0.00091   0.00000  -0.00550  -0.00550   1.95341
   A35        1.88990   0.00039   0.00000   0.00502   0.00502   1.89492
   A36        1.88984   0.00039   0.00000   0.00507   0.00508   1.89492
   A37        1.96655   0.00022   0.00000  -0.00270  -0.00275   1.96380
   A38        1.96652   0.00020   0.00000  -0.00281  -0.00286   1.96366
   A39        1.94760  -0.00085   0.00000  -0.00785  -0.00788   1.93972
   A40        1.89698   0.00026   0.00000   0.00142   0.00142   1.89840
   A41        1.89609   0.00059   0.00000   0.00387   0.00386   1.89996
   A42        1.92176   0.00045   0.00000   0.00263   0.00262   1.92438
   A43        1.92252  -0.00037   0.00000  -0.00198  -0.00198   1.92054
   A44        1.91477  -0.00043   0.00000  -0.00319  -0.00319   1.91158
   A45        1.91160  -0.00048   0.00000  -0.00264  -0.00265   1.90895
   A46        1.89699   0.00025   0.00000   0.00139   0.00139   1.89838
   A47        1.89608   0.00059   0.00000   0.00387   0.00387   1.89995
   A48        1.92182   0.00045   0.00000   0.00260   0.00260   1.92442
   A49        1.92251  -0.00037   0.00000  -0.00197  -0.00197   1.92054
   A50        1.91476  -0.00043   0.00000  -0.00319  -0.00319   1.91157
   A51        1.91155  -0.00048   0.00000  -0.00260  -0.00260   1.90895
   A52        1.90961   0.00061   0.00000   0.00408   0.00408   1.91369
   A53        1.95279   0.00042   0.00000   0.00245   0.00244   1.95524
   A54        1.90206   0.00016   0.00000   0.00070   0.00070   1.90276
   A55        1.89491  -0.00046   0.00000  -0.00234  -0.00235   1.89256
   A56        1.90820  -0.00032   0.00000  -0.00166  -0.00167   1.90653
   A57        1.89585  -0.00043   0.00000  -0.00337  -0.00337   1.89248
   A58        1.90961   0.00061   0.00000   0.00408   0.00407   1.91368
   A59        1.90205   0.00016   0.00000   0.00073   0.00073   1.90278
   A60        1.95274   0.00042   0.00000   0.00242   0.00242   1.95516
   A61        1.90830  -0.00033   0.00000  -0.00171  -0.00172   1.90659
   A62        1.89494  -0.00046   0.00000  -0.00238  -0.00238   1.89256
   A63        1.89579  -0.00042   0.00000  -0.00329  -0.00329   1.89250
    D1       -0.00004   0.00000   0.00000   0.00008   0.00008   0.00004
    D2        3.14151   0.00000   0.00000   0.00010   0.00010  -3.14158
    D3       -3.14151  -0.00000   0.00000  -0.00004  -0.00004  -3.14155
    D4        0.00005  -0.00000   0.00000  -0.00003  -0.00003   0.00002
    D5        0.00002  -0.00000   0.00000  -0.00009  -0.00009  -0.00007
    D6        3.14150   0.00000   0.00000   0.00006   0.00006   3.14156
    D7        3.14149   0.00000   0.00000   0.00003   0.00003   3.14152
    D8       -0.00022   0.00000   0.00000   0.00018   0.00018  -0.00004
    D9        0.00007  -0.00000   0.00000  -0.00003  -0.00003   0.00003
   D10       -3.14155  -0.00000   0.00000  -0.00005  -0.00005   3.14159
[...]
 ,-0.00003019,-0.00004271,0.00003812,-0.00003768,-0.00000790,-0.0001290
 5,-0.00002393,0.00044681,-0.00026267,0.00029534,-0.00190858,-0.0003891
 2,0.00019821,0.00017314,0.00131420,-0.00019146,-0.00956200,-0.00878288
 ,-0.02477530,-0.00001261,0.00002151,-0.00001532,-0.00001061,-0.0001672
 4,-0.00044244,-0.08334613,-0.09176963,-0.20960128,0.00356365,0.0032978
 9,-0.00332301,-0.00000057,-0.00000089,-0.00001197,0.00000190,-0.000002
 50,-0.00000220,-0.00000039,0.00000466,-0.00000172,0.00000224,0.0000006
 5,0.00000770,0.00001833,0.00000145,-0.00000437,-0.00003981,0.00002599,
 -0.00003032,-0.00019250,-0.00188579,-0.00011661,0.00001217,-0.00003009
 ,-0.00001477,-0.00003210,-0.00005073,0.00003513,0.00000045,0.00002823,
 -0.00000063,-0.00005834,0.00006497,-0.00001946,0.00011452,0.00011031,0
 .00030441,0.00001413,-0.00008037,0.00019388,0.09058941,0.09795207,0.23
 471295,-0.00007761,0.00002412,0.00008775,0.00002062,0.00001645,0.00000
 854,-0.00005746,0.00000088,0.00003603,0.00020801,-0.00012646,0.0000303
 4,-0.00048733,-0.00018567,-0.00041188,0.00027567,0.00015430,-0.0000132
 1,0.00009755,0.00014614,-0.00004782,-0.00020212,0.00008826,-0.00005166
 ,0.00018788,-0.00012640,0.00023544,0.00196302,-0.00164569,-0.00082584,
 -0.00030624,-0.00126322,-0.00039035,0.00170325,-0.01669672,0.00481531,
 -0.00013426,0.00003617,-0.00011402,-0.00025824,0.00001431,0.00007264,-
 0.05600121,0.05181424,-0.00144477,-0.00015876,0.00065662,-0.00111253,0
 .00000552,0.00000976,0.00000172,-0.00000723,0.00000118,-0.00002018,-0.
 00000471,-0.00000502,-0.00000045,0.00001105,0.00003976,0.00001578,0.00
 000705,0.00000124,0.00005574,-0.00091136,0.00045708,0.00087369,-0.0003
 6272,0.00161101,0.00109511,0.00001468,-0.00000025,0.00001862,0.0000231
 9,0.00001919,-0.00000491,0.00003053,-0.00002986,0.00002050,0.00008208,
 -0.00007501,0.00001439,-0.00002331,0.00000299,0.00000715,0.00011834,-0
 .00006829,-0.00004045,0.00208492,-0.01297268,0.00005270,0.05659836,-0.
 00010053,0.00002082,-0.00000639,0.00002488,0.00004272,0.00000138,-0.00
 009597,0.00000954,-0.00001553,0.00012866,-0.00010628,-0.00001309,-0.00
 049761,-0.00012373,0.00008513,0.00065685,0.00015192,0.00001081,0.00003
 718,0.00013325,0.00007118,-0.00034604,0.00027575,-0.00014389,-0.000430
 13,-0.00014291,-0.00058812,0.00253864,0.00058620,-0.00009239,-0.000196
 92,-0.00232928,-0.00038448,-0.00225861,-0.01553018,0.00814047,-0.00021
 962,0.00006790,-0.00029161,-0.00027233,-0.00028999,0.00010574,0.049584
 70,-0.28713655,0.00150678,-0.00070697,0.00166038,-0.00139704,0.0000213
 6,0.00002926,-0.00000175,-0.00002017,-0.00000233,0.00000358,-0.0000092
 0,-0.00000689,0.00000339,0.00000722,0.00002938,0.00002234,-0.00005414,
 -0.00000609,-0.00002211,0.00013786,0.00053334,0.00024588,-0.00032320,0
 .00472525,0.00068328,-0.00000294,0.00001519,-0.00000463,0.00001804,0.0
 0000730,0.00001761,0.00003680,-0.00009143,0.00007495,-0.00002692,0.000
 04148,-0.00000149,0.00006704,0.00001943,0.00006807,0.00007496,-0.00013
 337,-0.00006595,0.00383271,-0.01120353,0.00049796,-0.05195063,0.311315
 48,0.00012518,0.00002165,-0.00004260,-0.00003588,0.00002804,-0.0000014
 7,0.00004651,-0.00004272,-0.00003622,-0.00009644,0.00016603,0.00001031
 ,0.00041502,0.00002214,0.00034926,-0.00045088,-0.00015306,0.00004125,-
 0.00010005,-0.00013112,0.00003685,0.00012990,-0.00021401,-0.00004754,-
 0.00000166,0.00023138,-0.00010402,-0.00230881,-0.00004850,0.00036558,0
 .00009284,0.00307378,0.00049997,-0.00131195,0.03341492,-0.01082685,0.0
 0015092,-0.00007176,0.00035275,0.00018315,0.00005851,-0.00064586,-0.00
 071755,-0.00129558,-0.04451451,0.00042023,0.00323820,0.00328104,-0.000
 00831,-0.00000042,-0.00000968,0.00001112,0.00000208,0.00001103,0.00001
 068,0.00000687,-0.00000069,-0.00000526,-0.00003154,-0.00000123,0.00002
 881,0.00000382,-0.00000281,0.00069619,-0.00042891,-0.00015856,0.000871
 16,-0.00392152,-0.00203125,-0.00002883,-0.00000382,-0.00001573,-0.0000
 0083,-0.00003478,0.00001668,-0.00002478,0.00005969,-0.00009747,-0.0000
 8671,0.00007924,-0.00003280,0.00015448,0.00011477,0.00018030,-0.000039
 58,0.00003339,0.00029363,0.00555333,-0.02362409,0.00175814,-0.00273953
 ,-0.00896078,0.05107152,0.00011374,-0.00002047,0.00000639,-0.00005440,
 -0.00000760,0.00000420,0.00002551,-0.00001155,-0.00001497,-0.00013969,
 0.00004958,-0.00011370,-0.00009468,0.00055805,0.00030197,-0.00019066,-
 0.00002495,-0.00003622,-0.00007489,-0.00004175,0.00002240,-0.00002535,
 -0.00008265,-0.00004094,0.00020663,-0.00052552,0.00018006,0.00021541,-
 0.00047932,0.00238176,-0.00020419,-0.00089418,0.00002752,-0.01198954,-
 0.00150527,0.00114155,-0.00001768,-0.00001395,-0.00011881,-0.00017963,
 0.00015432,0.00025410,-0.29895961,0.03987679,-0.00364231,0.00042256,0.
 00021584,-0.00118992,-0.00000589,-0.00002954,0.00000976,0.00000401,-0.
 00000601,-0.00000195,-0.00000661,-0.00000967,-0.00000769,0.00000078,-0
 .00000976,0.00000328,-0.00002556,0.00000190,-0.00001398,-0.00000864,-0
 .00000195,-0.00009037,-0.00013176,0.00081186,0.00012452,0.00004882,-0.
 00003405,0.00003857,-0.00001987,0.00000092,-0.00001459,0.00001823,-0.0
 0000047,0.00003354,0.00018794,-0.00012576,0.00002654,-0.00014027,-0.00
 003136,-0.00005726,0.00008837,0.00002973,-0.00008495,-0.00878844,0.002
 84453,0.00060437,-0.00451918,-0.00009686,-0.00100567,0.32355857,0.0000
 9012,-0.00006524,-0.00004119,0.00001644,0.00001408,0.00001238,-0.00001
 276,0.00003488,0.00000260,0.00005368,-0.00006842,-0.00016114,-0.000422
 82,0.00024518,0.00000692,-0.00017336,0.00017374,0.00000224,-0.00005674
 ,0.00012624,0.00005580,-0.00020552,0.00006917,-0.00041636,-0.00012095,
 -0.00024787,-0.00005660,-0.00011522,-0.00038364,0.00267219,0.00015687,
 -0.00022978,0.00011750,-0.01729343,0.00003957,0.00167211,0.00001251,-0
 .00003778,0.00002753,-0.00008128,0.00004802,0.00006601,0.04320928,-0.0
 5217838,0.00022355,0.00015256,0.00012707,-0.00063330,-0.00001248,-0.00
 002300,0.00000191,0.00000761,-0.00000479,0.00000484,-0.00000700,-0.000
 01032,-0.00000627,0.00001364,0.00001482,0.00006051,-0.00003770,-0.0000
 0329,-0.00001693,-0.00011633,0.00029040,0.00047929,-0.00058363,0.00047
 407,-0.00001374,0.00003305,-0.00002109,0.00004442,0.00000399,0.0000057
 5,-0.00002190,0.00000356,0.00000293,0.00000394,0.00010417,-0.00021645,
 0.00004270,-0.00013008,0.00000902,-0.00006198,0.00006906,0.00003231,-0
 .00007463,-0.01364766,0.00182619,0.00052274,0.02955525,-0.00300117,0.0
 0048445,-0.04073748,0.05292482,-0.00010733,0.00002562,0.00000961,0.000
 04218,-0.00003014,-0.00001136,0.00005933,-0.00000063,0.00003738,0.0001
 4082,0.00009091,0.00021720,0.00078084,-0.00035875,-0.00020465,0.000082
 79,0.00003403,-0.00012175,0.00009559,0.00008308,-0.00007230,-0.0000091
 1,-0.00010309,0.00026391,0.00050578,0.00033922,0.00027698,0.00106554,0
 .00161595,-0.00386695,0.00006119,0.00020566,-0.00008728,0.03009372,-0.
 00096690,-0.00441718,0.00004200,-0.00001373,0.00004713,-0.00002098,0.0
 0005468,0.00000633,-0.01086816,0.00047269,-0.04597691,0.00196286,-0.00
 019377,0.00120250,0.00000077,0.00001013,0.00000474,-0.00000177,0.00000
 540,-0.00000228,0.00001278,0.00001995,0.00001696,-0.00000331,-0.000002
 25,-0.00003666,0.00004806,-0.00000535,-0.00000659,-0.00009969,-0.00015
 981,-0.00014685,0.00004206,-0.00058150,0.00030141,-0.00003393,0.000047
 09,-0.00000289,0.00002338,0.00001970,-0.00001408,-0.00001778,-0.000003
 34,-0.00001511,0.00001854,-0.00003687,0.00010738,-0.00010230,0.0000360
 7,-0.00002080,0.00000771,0.00000599,-0.00002917,-0.02318277,0.00524088
 ,0.00184915,-0.00021657,-0.00110798,0.00004031,0.00055537,-0.00489786,
 0.05109704,-0.00005197,0.00002543,-0.00001635,0.00000231,0.00002111,-0
 .00000304,-0.00002149,-0.00002002,0.00000860,-0.00001592,0.00004234,0.
 00002771,0.00017635,-0.00034977,-0.00008521,0.00023143,-0.00010516,-0.
 00001743,0.00002328,0.00000587,-0.00002792,-0.00009751,0.00005594,0.00
 007838,-0.00005888,0.00007050,0.00005891,0.00094008,0.00092723,-0.0010
 8787,-0.00002959,0.00009852,-0.00003681,0.00376093,0.00577264,-0.01421
 484,-0.00007537,-0.00015054,0.00028231,-0.00009915,0.00002576,-0.00002
 972,-0.00133665,-0.00107580,-0.00203048,-0.09112817,-0.05036744,0.0906
 4847,0.00001201,0.00002836,0.00000471,-0.00000598,0.00000313,0.0000018
 4,0.00000439,0.00000907,-0.00000054,-0.00000218,0.00000321,-0.00001211
 ,-0.00000559,0.00000119,-0.00000552,0.00012586,0.00001597,-0.00006830,
 0.00013295,0.00027541,0.00046102,-0.00012551,0.00013491,0.00009900,0.0
 0032522,0.00008765,-0.00010453,-0.00001727,-0.00006844,-0.00014916,-0.
 00001985,-0.00000703,0.00002329,0.00001499,-0.00000331,-0.00003225,0.0
 0002085,-0.00000965,0.00000475,0.00082198,0.00018571,-0.00069659,-0.00
 009467,-0.00003327,0.00004928,0.00042576,-0.00012730,-0.00017839,0.092
 87036,0.00002487,-0.00003370,-0.00000436,0.00000117,-0.00002841,0.0000
 0024,0.00004154,0.00001613,-0.00001345,-0.00009637,0.00006913,0.000029
 20,0.00029535,0.00007431,0.00002141,-0.00018394,-0.00002183,0.00002930
 ,0.00002731,-0.00007892,0.00000591,0.00015610,0.00013280,-0.00010496,-
 0.00015529,-0.00043537,0.00001178,0.00045918,0.00082973,-0.00028690,-0
 .00013276,0.00001577,0.00005768,0.00676791,0.00560282,-0.01454304,0.00
 014167,-0.00019266,-0.00022554,0.00009292,-0.00001108,-0.00003919,-0.0
 0130960,-0.00088935,-0.00200104,-0.05039792,-0.09987247,0.09749448,-0.
 00001170,-0.00001919,-0.00000532,0.00000449,0.00000177,0.00000296,0.00
 000512,0.00000172,-0.00000255,0.00000894,0.00000170,0.00001734,-0.0000
 1135,-0.00001106,0.00001832,-0.00013142,0.00001863,0.00011532,0.000299
 95,0.00056065,-0.00003704,0.00003286,-0.00000389,0.00003014,-0.0000866
 7,-0.00033783,0.00005280,0.00000082,0.00001035,0.00009227,0.00000238,0
 .00000419,-0.00001777,-0.00000070,0.00000700,0.00003868,-0.00001585,0.
 00000081,0.00002549,0.00018562,0.00072278,-0.00077400,-0.00013661,0.00
 027551,-0.00048016,-0.00009468,-0.00019723,0.00007214,0.05434402,0.103
 16554,-0.00005531,0.00001587,0.00003048,0.00000565,-0.00001465,0.00000
 308,-0.00003260,0.00001439,0.00000132,-0.00005816,-0.00007456,-0.00003
 042,-0.00023838,-0.00020349,0.00010937,0.00012695,-0.00012518,-0.00003
 019,0.00004271,-0.00003812,-0.00003768,0.00000792,0.00012906,-0.000023
 93,-0.00044679,0.00026260,0.00029539,0.00190863,0.00038921,0.00019836,
 -0.00017315,-0.00131425,-0.00019149,0.00956128,0.00878469,-0.02477571,
 0.00001063,0.00016728,-0.00044249,0.00001263,-0.00002151,-0.00001532,-
 0.00356382,-0.00329770,-0.00332314,0.08333839,0.09177851,-0.20959516,0
 .00000056,0.00000089,-0.00001197,-0.00000190,0.00000250,-0.00000220,0.
 00000039,-0.00000466,-0.00000172,-0.00000224,-0.00000065,0.00000770,-0
 .00001833,-0.00000145,-0.00000437,0.00003979,-0.00002598,-0.00003031,0
 .00019254,0.00188592,-0.00011657,0.00005835,-0.00006499,-0.00001946,-0
 .00011452,-0.00011035,0.00030444,-0.00001412,0.00008038,0.00019391,-0.
 00001216,0.00003009,-0.00001477,0.00003210,0.00005073,0.00003514,-0.00
 000045,-0.00002822,-0.00000063,0.00069652,0.00077414,-0.00123233,-0.00
 006770,0.00001449,0.00012102,0.00000243,-0.00007109,0.00028518,-0.0905
 8051,-0.09796269,0.23470668,0.00011374,-0.00002047,-0.00000639,-0.0000
 5440,-0.00000760,-0.00000420,0.00002551,-0.00001155,0.00001497,-0.0001
 3969,0.00004957,0.00011372,-0.00009473,0.00055807,-0.00030194,-0.00019
 067,-0.00002494,0.00003622,-0.00007489,-0.00004175,-0.00002240,-0.0000
 2535,-0.00008264,0.00004094,0.00020659,-0.00052552,-0.00018009,0.00021
 533,-0.00047920,-0.00238195,-0.00020420,-0.00089422,-0.00002754,-0.011
 99089,-0.00150522,-0.00114146,-0.00017965,0.00015434,-0.00025409,-0.00
 001768,-0.00001395,0.00011882,0.00042247,0.00021573,0.00118987,-0.2989
 5830,0.03987811,0.00365493,-0.00000589,-0.00002954,-0.00000976,0.00000
 401,-0.00000601,0.00000195,-0.00000661,-0.00000967,0.00000769,0.000000
 78,-0.00000976,-0.00000329,-0.00002556,0.00000190,0.00001398,-0.000008
 63,-0.00000195,0.00009036,-0.00013177,0.00081193,-0.00012445,0.0001879
 5,-0.00012578,-0.00002654,-0.00014026,-0.00003136,0.00005726,0.0000883
 8,0.00002972,0.00008495,0.00004882,-0.00003406,-0.00003858,-0.00001987
 ,0.00000092,0.00001459,0.00001823,-0.00000047,-0.00003354,0.00042577,-
 0.00009469,-0.00000244,-0.00017979,0.00010127,-0.00009105,0.00043999,0
 .00014014,-0.00062382,-0.00878764,0.00284446,-0.00060373,0.32355793,0.
 00009011,-0.00006524,0.00004118,0.00001644,0.00001408,-0.00001238,-0.0
 0001276,0.00003488,-0.00000260,0.00005369,-0.00006843,0.00016112,-0.00
 042276,0.00024516,-0.00000687,-0.00017336,0.00017374,-0.00000222,-0.00
 005673,0.00012625,-0.00005578,-0.00020550,0.00006914,0.00041635,-0.000
 12093,-0.00024785,0.00005656,-0.00011526,-0.00038332,-0.00267195,0.000
 15689,-0.00022977,-0.00011750,-0.01729136,0.00003961,-0.00167116,-0.00
 008129,0.00004802,-0.00006600,0.00001251,-0.00003778,-0.00002753,0.000
 15277,0.00012700,0.00063324,0.04321007,-0.05217861,-0.00022574,-0.0000
 1248,-0.00002300,-0.00000191,0.00000761,-0.00000479,-0.00000484,-0.000
 00700,-0.00001031,0.00000627,0.00001364,0.00001482,-0.00006050,-0.0000
 3770,-0.00000329,0.00001694,-0.00011636,0.00029042,-0.00047926,-0.0005
 8365,0.00047406,0.00001379,0.00010416,-0.00021646,-0.00004272,-0.00013
 008,0.00000903,0.00006199,0.00006907,0.00003231,0.00007463,0.00003305,
 -0.00002109,-0.00004443,0.00000400,0.00000575,0.00002190,0.00000356,0.
 00000293,-0.00000394,-0.00012731,-0.00019722,0.00007107,0.00025979,-0.
 00014280,-0.00013223,0.00014003,0.00037299,0.00016286,-0.01364923,0.00
 182667,-0.00052216,-0.04073899,0.05292460,0.00010733,-0.00002563,0.000
 00961,-0.00004218,0.00003014,-0.00001136,-0.00005933,0.00000063,0.0000
 3737,-0.00014080,-0.00009094,0.00021721,-0.00078088,0.00035875,-0.0002
 0459,-0.00008279,-0.00003401,-0.00012175,-0.00009559,-0.00008306,-0.00
 007230,0.00000910,0.00010308,0.00026395,-0.00050579,-0.00033924,0.0002
 7699,-0.00106568,-0.00161564,-0.00386712,-0.00006117,-0.00020564,-0.00
 008728,-0.03009460,0.00096736,-0.00441599,0.00002099,-0.00005470,0.000
 00633,-0.00004200,0.00001373,0.00004712,-0.00196281,0.00019371,0.00120
 262,0.01088096,-0.00047485,-0.04597759,-0.00000077,-0.00001013,0.00000
 474,0.00000177,-0.00000540,-0.00000228,-0.00001278,-0.00001995,0.00001
 696,0.00000331,0.00000226,-0.00003666,-0.00004806,0.00000535,-0.000006
 59,0.00009967,0.00015985,-0.00014687,-0.00004208,0.00058153,0.00030146
 ,-0.00001854,0.00003686,0.00010738,0.00010230,-0.00003608,-0.00002080,
 -0.00000771,-0.00000599,-0.00002917,0.00003393,-0.00004709,-0.00000289
 ,-0.00002338,-0.00001969,-0.00001408,0.00001778,0.00000334,-0.00001511
 ,0.00017837,-0.00007217,0.00028517,0.00017541,0.00008010,-0.00021642,0
 .00062398,-0.00016286,-0.00051397,0.02318223,-0.00524116,0.00184782,-0
 .00056892,0.00489978,0.05109764,-0.00007762,0.00002411,-0.00008775,0.0
 0002063,0.00001645,-0.00000854,-0.00005746,0.00000089,-0.00003603,0.00
 020800,-0.00012647,-0.00003035,-0.00048734,-0.00018570,0.00041189,0.00
 027568,0.00015431,0.00001323,0.00009755,0.00014614,0.00004783,-0.00020
 212,0.00008826,0.00005166,0.00018783,-0.00012639,-0.00023549,0.0019631
 6,-0.00164556,0.00082573,-0.00030624,-0.00126332,0.00039033,0.00170334
 ,-0.01669843,-0.00481701,-0.00025826,0.00001431,-0.00007264,-0.0001342
 7,0.00003617,0.00011403,-0.00015874,0.00065646,0.00111272,-0.05600015,
 0.05181213,0.00144887,0.00000552,0.00000976,-0.00000172,-0.00000723,0.
 00000118,0.00002018,-0.00000471,-0.00000502,0.00000045,0.00001105,0.00
 003976,-0.00001578,0.00000705,0.00000125,-0.00005574,-0.00091106,0.000
 45696,-0.00087350,-0.00036279,0.00161120,-0.00109512,0.00008208,-0.000
 07501,-0.00001439,-0.00002331,0.00000299,-0.00000715,0.00011835,-0.000
 06829,0.00004045,0.00001469,-0.00000025,-0.00001862,0.00002319,0.00001
 919,0.00000491,0.00003053,-0.00002986,-0.00002050,-0.00009468,-0.00013
 659,0.00006769,0.00035447,0.00037389,0.00011497,-0.00017977,0.00025979
 ,-0.00017542,0.00208464,-0.01297182,-0.00005363,-0.00451901,0.02955534
 ,0.00021874,0.05659697,-0.00010052,0.00002082,0.00000639,0.00002487,0.
 00004273,-0.00000138,-0.00009596,0.00000954,0.00001553,0.00012865,-0.0
 0010627,0.00001308,-0.00049758,-0.00012371,-0.00008515,0.00065681,0.00
 015191,-0.00001081,0.00003717,0.00013324,-0.00007117,-0.00034601,0.000
 27573,0.00014391,-0.00043009,-0.00014298,0.00058812,0.00253841,0.00058
 620,0.00009229,-0.00019689,-0.00232904,0.00038437,-0.00225925,-0.01552
 698,-0.00814057,-0.00027232,-0.00029000,-0.00010568,-0.00021961,0.0000
 6789,0.00029159,-0.00070687,0.00166045,0.00139690,0.04958271,-0.287136
 86,-0.00152580,0.00002136,0.00002926,0.00000176,-0.00002017,-0.0000023
 3,-0.00000358,-0.00000920,-0.00000689,-0.00000339,0.00000722,0.0000293
 8,-0.00002234,-0.00005414,-0.00000609,0.00002211,0.00013754,0.00053365
 ,-0.00024584,-0.00032316,0.00472500,-0.00068292,-0.00002693,0.00004149
 ,0.00000150,0.00006705,0.00001944,-0.00006809,0.00007495,-0.00013337,0
 .00006592,-0.00000294,0.00001519,0.00000464,0.00001804,0.00000730,-0.0
 0001761,0.00003679,-0.00009142,-0.00007495,-0.00003327,0.00027548,-0.0
 0001447,0.00037376,0.00030644,-0.00146392,0.00010125,-0.00014280,-0.00
 008009,0.00383298,-0.01120503,-0.00049903,-0.00009685,-0.00300149,0.00
 110778,-0.05194781,0.31131413,-0.00012518,-0.00002165,-0.00004260,0.00
 003588,-0.00002804,-0.00000147,-0.00004651,0.00004273,-0.00003622,0.00
 009644,-0.00016603,0.00001030,-0.00041503,-0.00002216,0.00034925,0.000
 45090,0.00015307,0.00004125,0.00010005,0.00013112,0.00003685,-0.000129
 92,0.00021402,-0.00004751,0.00000162,-0.00023138,-0.00010397,0.0023088
 9,0.00004864,0.00036549,-0.00009282,-0.00307387,0.00049986,0.00131131,
 -0.03341472,-0.01082945,-0.00018316,-0.00005849,-0.00064588,-0.0001509
 2,0.00007174,0.00035276,-0.00042007,-0.00323843,0.00328093,0.00072130,
 0.00127666,-0.04451436,0.00000831,0.00000042,-0.00000968,-0.00001112,-
 0.00000208,0.00001103,-0.00001068,-0.00000687,-0.00000069,0.00000526,0
 .00003154,-0.00000123,-0.00002881,-0.00000381,-0.00000281,-0.00069619,
 0.00042902,-0.00015842,-0.00087125,0.00392186,-0.00203106,0.00008671,-
 0.00007924,-0.00003280,-0.00015449,-0.00011478,0.00018031,0.00003958,-
 0.00003339,0.00029364,0.00002883,0.00000382,-0.00001573,0.00000083,0.0
 0003478,0.00001668,0.00002477,-0.00005969,-0.00009747,-0.00004927,0.00
 048018,0.00012105,-0.00011499,0.00146409,0.00035607,0.00009104,0.00013
 224,-0.00021642,-0.00555290,0.02362374,0.00175998,0.00100590,-0.000485
 95,0.00004046,0.00273569,0.00898091,0.05107187\\0.00000443,-0.00000036
 ,0.00000006,-0.00000189,0.00000051,0.,0.00000211,-0.00000341,-0.000000
 04,0.00000295,-0.00000067,0.00000005,-0.00000621,-0.00000074,-0.000000
 37,0.00000083,-0.00000084,-0.00000016,0.00000192,0.00000040,-0.0000000
 3,-0.00000430,-0.00000206,0.00000002,0.00000012,-0.00000049,0.00000008
 ,0.00000041,-0.00000128,-0.00000013,0.00000162,-0.00000555,0.00000087,
 -0.00000040,0.00000691,0.00000053,-0.00000195,0.00000402,-0.00000445,-
 0.00000182,0.00000394,0.00000414,-0.00000004,-0.00000081,0.00000036,-0
 .00000002,-0.00000131,-0.00000071,0.00000146,0.00000010,0.,0.00000191,
 -0.00000090,0.,0.00000076,-0.00000174,0.00000003,-0.00000048,-0.000001
 78,0.00000005,-0.00000158,-0.00000209,-0.00000002,-0.00000224,-0.00000
 123,-0.00000002,0.00000107,0.00000044,-0.00000030,0.00000087,0.0000011
 0,0.00000038,0.00000064,0.00000065,0.00000010,0.00000166,0.00000048,0.
 00000087,0.00000083,0.00000112,-0.00000038,0.00000065,0.00000054,-0.00
 000008,0.00000161,0.00000051,-0.00000090,-0.00000019,0.00000103,-0.000
 00070,-0.00000124,-0.00000011,-0.00000048,-0.00000112,0.00000134,-0.00
 000057,-0.00000015,0.00000094,0.00000066,-0.00000112,0.00000141,0.0000
 0064,-0.00000111,-0.00000007,0.00000050\\\@


 A CHEMICAL PHYSICIST MAKES PRECISE MEASUREMENTS ON IMPURE COMPOUNDS.
 A THEORETICAL PHYSICAL CHEMIST MAKES IMPRECISE
     MEASUREMENTS ON PURE COMPOUNDS.
 AN EXPERIMENTAL PHYSICAL CHEMIST MAKES IMPRECISE
     MEASUREMENTS ON IMPURE COMPOUNDS.
 Job cpu time:       0 days  3 hours 17 minutes 50.6 seconds.
 File lengths (MBytes):  RWF=    535 Int=      0 D2E=      0 Chk=     13 Scr=      1
 Normal termination of Gaussian 09 at Tue Jun 11 18:03:07 2024.
