 Entering Gaussian System, Link 0=g09
 Input=B2PLYPD3DHByang.gjf
 Output=B2PLYPD3DHByang.log
 Initial command:
 /home/c612/g09E/g09/l1.exe "/mnt/ja_sm883/scratch/Gau-1860663.inp" -scrdir="/mnt/ja_sm883/scratch/"
 Default is to use a total of  18 processors:
                               18 via shared-memory
                                1 via Linda
 Entering Link 1 = /home/c612/g09E/g09/l1.exe PID=   1860665.
  
 Copyright (c) 1988,1990,1992,1993,1995,1998,2003,2009,2015,
            Gaussian, Inc.  All Rights Reserved.
  
 This is part of the Gaussian(R) 09 program.  It is based on
 the Gaussian(R) 03 system (copyright 2003, Gaussian, Inc.),
 the Gaussian(R) 98 system (copyright 1998, Gaussian, Inc.),
 the Gaussian(R) 94 system (copyright 1995, Gaussian, Inc.),
 the Gaussian 92(TM) system (copyright 1992, Gaussian, Inc.),
 the Gaussian 90(TM) system (copyright 1990, Gaussian, Inc.),
 the Gaussian 88(TM) system (copyright 1988, Gaussian, Inc.),
 the Gaussian 86(TM) system (copyright 1986, Carnegie Mellon
 University), and the Gaussian 82(TM) system (copyright 1983,
 Carnegie Mellon University). Gaussian is a federally registered
 trademark of Gaussian, Inc.
  
 This software contains proprietary and confidential information,
 including trade secrets, belonging to Gaussian, Inc.
  
 This software is provided under written license and may be
 used, copied, transmitted, or stored only in accord with that
 written license.
  
 The following legend is applicable only to US Government
 contracts under FAR:
  
                    RESTRICTED RIGHTS LEGEND
  
 Use, reproduction and disclosure by the US Government is
 subject to restrictions as set forth in subparagraphs (a)
 and (c) of the Commercial Computer Software - Restricted
 Rights clause in FAR 52.227-19.
  
 Gaussian, Inc.
 340 Quinnipiac St., Bldg. 40, Wallingford CT 06492
  
  
 ---------------------------------------------------------------
 Warning -- This program may not be used in any manner that
 competes with the business of Gaussian, Inc. or will provide
 assistance to any competitor of Gaussian, Inc.  The licensee
 of this program is prohibited from giving any competitor of
 Gaussian, Inc. access to this program.  By using this program,
 the user acknowledges that Gaussian, Inc. is engaged in the
 business of creating and licensing software in the field of
 computational chemistry and represents and warrants to the
 licensee that it is not a competitor of Gaussian, Inc. and that
 it will not use this program in any manner prohibited above.
 ---------------------------------------------------------------
  

 Cite this work as:
 Gaussian 09, Revision E.01,
 M. J. Frisch, G. W. Trucks, H. B. Schlegel, G. E. Scuseria, 
 M. A. Robb, J. R. Cheeseman, G. Scalmani, V. Barone, B. Mennucci, 
 G. A. Petersson, H. Nakatsuji, M. Caricato, X. Li, H. P. Hratchian, 
 A. F. Izmaylov, J. Bloino, G. Zheng, J. L. Sonnenberg, M. Hada, 
 M. Ehara, K. Toyota, R. Fukuda, J. Hasegawa, M. Ishida, T. Nakajima, 
 Y. Honda, O. Kitao, H. Nakai, T. Vreven, J. A. Montgomery, Jr., 
 J. E. Peralta, F. Ogliaro, M. Bearpark, J. J. Heyd, E. Brothers, 
 K. N. Kudin, V. N. Staroverov, T. Keith, R. Kobayashi, J. Normand, 
 K. Raghavachari, A. Rendell, J. C. Burant, S. S. Iyengar, J. Tomasi, 
 M. Cossi, N. Rega, J. M. Millam, M. Klene, J. E. Knox, J. B. Cross, 
 V. Bakken, C. Adamo, J. Jaramillo, R. Gomperts, R. E. Stratmann, 
 O. Yazyev, A. J. Austin, R. Cammi, C. Pomelli, J. W. Ochterski, 
 R. L. Martin, K. Morokuma, V. G. Zakrzewski, G. A. Voth, 
 P. Salvador, J. J. Dannenberg, S. Dapprich, A. D. Daniels, 
 O. Farkas, J. B. Foresman, J. V. Ortiz, J. Cioslowski, 
 and D. J. Fox, Gaussian, Inc., Wallingford CT, 2013.
 
 ******************************************
 Gaussian 09:  ES64L-G09RevE.01 30-Nov-2015
                17-Dec-2024 
 ******************************************
 %chk=B2PLYPD3DHByang.chk
 -----------------------------------------------------
 # opt freq B2PLYP/6-31+g(d,p) EmpiricalDispersion=GD3
 -----------------------------------------------------
 1/18=20,19=15,38=1/1,3;
 2/9=110,12=2,17=6,18=5,40=1/2;
 3/5=1,6=6,7=111,11=9,16=1,25=1,30=1,71=1,74=-47,124=31/1,2,3;
 4//1;
 5/5=2,38=5/2;
 8/6=4,10=2/1;
 9/15=2,16=-3/6;
 10/5=1/2;
 6/7=2,8=2,9=2,10=2/1;
 7/12=2/1,2,3,16;
 1/18=20,19=15/3(2);
 2/9=110/2;
 99//99;
 2/9=110/2;
 3/5=1,6=6,7=111,11=9,16=1,25=1,30=1,71=1,74=-47,124=31/1,2,3;
 4/5=5,16=3,69=1/1;
 5/5=2,38=5/2;
 8/6=4,10=2/1;
 9/15=2,16=-3/6;
 10/5=1/2;
 7/12=2/1,2,3,16;
 1/18=20,19=15/3(-8);
 2/9=110/2;
 6/7=2,8=2,9=2,10=2/1;
 99//99;
 ----------
 [No Title]
 ----------
 Symbolic Z-matrix:
 Charge =  1 Multiplicity = 1
 C                    -0.21774   1.27585   0.00001 
 C                    -0.42522  -0.1365    0.00001 
 C                     0.69191  -1.01389  -0.00001 
 C                     1.98024  -0.51778  -0.00002 
 C                     2.17237   0.87983  -0.00002 
 C                     1.09768   1.75236  0. 
 O                     2.99437  -1.40677  -0.00004 
 C                    -1.72257  -0.71589   0.00002 
 O                    -1.8072   -2.02235   0.00009 
 O                    -2.78593   0.0346   -0.00006 
 O                    -1.27431   2.09556   0.00002 
 H                     0.54363  -2.08695  -0.00002 
 H                     3.18065   1.28771  -0.00003 
 H                     1.27697   2.82419   0. 
 H                     3.85611  -0.97207  -0.00002 
 H                    -2.7048   -2.38896  0. 
 H                    -3.63374  -0.43753   0.00002 
 H                    -0.99423   3.0215    0.00003 
 

 GradGradGradGradGradGradGradGradGradGradGradGradGradGradGradGradGradGrad
 Berny optimization.
 Initialization pass.
                           ----------------------------
                           !    Initial Parameters    !
                           ! (Angstroms and Degrees)  !
 --------------------------                            --------------------------
 ! Name  Definition              Value          Derivative Info.                !
 --------------------------------------------------------------------------------
 ! R1    R(1,2)                  1.4275         estimate D2E/DX2                !
 ! R2    R(1,6)                  1.3991         estimate D2E/DX2                !
 ! R3    R(1,11)                 1.3373         estimate D2E/DX2                !
 ! R4    R(2,3)                  1.4205         estimate D2E/DX2                !
 ! R5    R(2,8)                  1.4209         estimate D2E/DX2                !
 ! R6    R(3,4)                  1.3805         estimate D2E/DX2                !
 ! R7    R(3,12)                 1.0833         estimate D2E/DX2                !
 ! R8    R(4,5)                  1.4108         estimate D2E/DX2                !
 ! R9    R(4,7)                  1.3486         estimate D2E/DX2                !
 ! R10   R(5,6)                  1.3843         estimate D2E/DX2                !
 ! R11   R(5,13)                 1.0877         estimate D2E/DX2                !
 ! R12   R(6,14)                 1.0867         estimate D2E/DX2                !
 ! R13   R(7,15)                 0.9652         estimate D2E/DX2                !
 ! R14   R(8,9)                  1.3092         estimate D2E/DX2                !
 ! R15   R(8,10)                 1.3015         estimate D2E/DX2                !
 ! R16   R(9,16)                 0.9696         estimate D2E/DX2                !
 ! R17   R(10,17)                0.9704         estimate D2E/DX2                !
 ! R18   R(11,18)                0.9674         estimate D2E/DX2                !
 ! A1    A(2,1,6)              118.2701         estimate D2E/DX2                !
 ! A2    A(2,1,11)             119.4477         estimate D2E/DX2                !
 ! A3    A(6,1,11)             122.2822         estimate D2E/DX2                !
 ! A4    A(1,2,3)              119.7887         estimate D2E/DX2                !
 ! A5    A(1,2,8)              122.4223         estimate D2E/DX2                !
 ! A6    A(3,2,8)              117.7891         estimate D2E/DX2                !
 ! A7    A(2,3,4)              120.7933         estimate D2E/DX2                !
 ! A8    A(2,3,12)             120.2779         estimate D2E/DX2                !
 ! A9    A(4,3,12)             118.9289         estimate D2E/DX2                !
 ! A10   A(3,4,5)              118.8881         estimate D2E/DX2                !
 ! A11   A(3,4,7)              117.7011         estimate D2E/DX2                !
 ! A12   A(5,4,7)              123.4108         estimate D2E/DX2                !
 ! A13   A(4,5,6)              121.2453         estimate D2E/DX2                !
 ! A14   A(4,5,13)             119.8523         estimate D2E/DX2                !
 ! A15   A(6,5,13)             118.9024         estimate D2E/DX2                !
 ! A16   A(1,6,5)              121.0145         estimate D2E/DX2                !
 ! A17   A(1,6,14)             119.4091         estimate D2E/DX2                !
 ! A18   A(5,6,14)             119.5764         estimate D2E/DX2                !
 ! A19   A(4,7,15)             111.9932         estimate D2E/DX2                !
 ! A20   A(2,8,9)              117.7713         estimate D2E/DX2                !
 ! A21   A(2,8,10)             120.7214         estimate D2E/DX2                !
 ! A22   A(9,8,10)             121.5072         estimate D2E/DX2                !
 ! A23   A(8,9,16)             115.9233         estimate D2E/DX2                !
 ! A24   A(8,10,17)            115.6735         estimate D2E/DX2                !
 ! A25   A(1,11,18)            110.9754         estimate D2E/DX2                !
 ! D1    D(6,1,2,3)             -0.0002         estimate D2E/DX2                !
 ! D2    D(6,1,2,8)            179.9995         estimate D2E/DX2                !
 ! D3    D(11,1,2,3)          -179.9999         estimate D2E/DX2                !
 ! D4    D(11,1,2,8)            -0.0002         estimate D2E/DX2                !
 ! D5    D(2,1,6,5)              0.0001         estimate D2E/DX2                !
 ! D6    D(2,1,6,14)          -179.9999         estimate D2E/DX2                !
 ! D7    D(11,1,6,5)           179.9998         estimate D2E/DX2                !
 ! D8    D(11,1,6,14)           -0.0002         estimate D2E/DX2                !
 ! D9    D(2,1,11,18)          179.9993         estimate D2E/DX2                !
 ! D10   D(6,1,11,18)           -0.0004         estimate D2E/DX2                !
 ! D11   D(1,2,3,4)              0.0002         estimate D2E/DX2                !
 ! D12   D(1,2,3,12)          -179.9998         estimate D2E/DX2                !
 ! D13   D(8,2,3,4)           -179.9995         estimate D2E/DX2                !
 ! D14   D(8,2,3,12)             0.0005         estimate D2E/DX2                !
 ! D15   D(1,2,8,9)           -179.9968         estimate D2E/DX2                !
 ! D16   D(1,2,8,10)             0.0054         estimate D2E/DX2                !
 ! D17   D(3,2,8,9)              0.0029         estimate D2E/DX2                !
 ! D18   D(3,2,8,10)          -179.9949         estimate D2E/DX2                !
 ! D19   D(2,3,4,5)             -0.0001         estimate D2E/DX2                !
 ! D20   D(2,3,4,7)           -179.9998         estimate D2E/DX2                !
 ! D21   D(12,3,4,5)           179.9999         estimate D2E/DX2                !
 ! D22   D(12,3,4,7)             0.0002         estimate D2E/DX2                !
 ! D23   D(3,4,5,6)              0.0            estimate D2E/DX2                !
 ! D24   D(3,4,5,13)          -179.9998         estimate D2E/DX2                !
 ! D25   D(7,4,5,6)            179.9997         estimate D2E/DX2                !
 ! D26   D(7,4,5,13)             0.0            estimate D2E/DX2                !
 ! D27   D(3,4,7,15)          -179.9987         estimate D2E/DX2                !
 ! D28   D(5,4,7,15)             0.0016         estimate D2E/DX2                !
 ! D29   D(4,5,6,1)              0.0            estimate D2E/DX2                !
 ! D30   D(4,5,6,14)           180.0            estimate D2E/DX2                !
 ! D31   D(13,5,6,1)           179.9997         estimate D2E/DX2                !
 ! D32   D(13,5,6,14)           -0.0002         estimate D2E/DX2                !
 ! D33   D(2,8,9,16)          -179.9934         estimate D2E/DX2                !
 ! D34   D(10,8,9,16)            0.0044         estimate D2E/DX2                !
 ! D35   D(2,8,10,17)         -179.9961         estimate D2E/DX2                !
 ! D36   D(9,8,10,17)            0.0062         estimate D2E/DX2                !
 --------------------------------------------------------------------------------
 Trust Radius=3.00D-01 FncErr=1.00D-07 GrdErr=1.00D-07
 Number of steps in this run=     89 maximum allowed number of steps=    108.
 GradGradGradGradGradGradGradGradGradGradGradGradGradGradGradGradGradGrad

                          Input orientation:                          
 ---------------------------------------------------------------------
 Center     Atomic      Atomic             Coordinates (Angstroms)
 Number     Number       Type             X           Y           Z
 ---------------------------------------------------------------------
      1          6           0       -0.217736    1.275847    0.000007
      2          6           0       -0.425217   -0.136504    0.000005
      3          6           0        0.691914   -1.013893   -0.000010
      4          6           0        1.980241   -0.517781   -0.000019
      5          6           0        2.172369    0.879831   -0.000015
      6          6           0        1.097679    1.752355   -0.000002
      7          8           0        2.994365   -1.406772   -0.000037
      8          6           0       -1.722573   -0.715889    0.000024
      9          8           0       -1.807203   -2.022350    0.000085
     10          8           0       -2.785930    0.034604   -0.000061
     11          8           0       -1.274312    2.095558    0.000023
     12          1           0        0.543625   -2.086950   -0.000015
     13          1           0        3.180649    1.287714   -0.000026
     14          1           0        1.276969    2.824189    0.000001
     15          1           0        3.856105   -0.972067   -0.000022
     16          1           0       -2.704799   -2.388962   -0.000004
     17          1           0       -3.633739   -0.437531    0.000019
     18          1           0       -0.994232    3.021501    0.000033
 ---------------------------------------------------------------------
                    Distance matrix (angstroms):
                    1          2          3          4          5
     1  C    0.000000
     2  C    1.427510   0.000000
     3  C    2.463813   1.420490   0.000000
     4  C    2.836936   2.435488   1.380548   0.000000
     5  C    2.422691   2.789335   2.403734   1.410756   0.000000
     6  C    1.399063   2.426314   2.795849   2.435659   1.384289
     7  O    4.184978   3.647893   2.335730   1.348611   2.429862
     8  C    2.496307   1.420852   2.432808   3.708110   4.209144
     9  O    3.661217   2.338012   2.694916   4.075348   4.925408
    10  O    2.852421   2.366906   3.632457   4.798074   5.029825
    11  O    1.337265   2.388109   3.678958   4.173926   3.654805
    12  H    3.447909   2.177819   1.083255   2.127477   3.384464
    13  H    3.398406   3.876940   3.389867   2.168131   1.087657
    14  H    2.152093   3.415134   3.882417   3.415165   2.140624
    15  H    4.652881   4.362096   3.164467   1.930088   2.502897
    16  H    4.429030   3.204694   3.664488   5.044890   5.871267
    17  H    3.821615   3.222612   4.363882   5.614554   5.953682
    18  H    1.910564   3.208859   4.373499   4.623203   3.822841
                    6          7          8          9         10
     6  C    0.000000
     7  O    3.684766   0.000000
     8  C    3.747806   4.767266   0.000000
     9  O    4.763060   4.840867   1.309199   0.000000
    10  O    4.246538   5.957296   1.301525   2.277930   0.000000
    11  O    2.396691   5.521587   2.846958   4.152245   2.555880
    12  H    3.879077   2.543377   2.648672   2.351715   3.948028
    13  H    2.134164   2.700918   5.296793   5.986250   6.096749
    14  H    1.086726   4.566233   4.639979   5.744655   4.928380
    15  H    3.877034   0.965176   5.584557   5.759874   6.717888
    16  H    5.622219   5.783180   1.940088   0.969579   2.424924
    17  H    5.213628   6.698596   1.931331   2.418240   0.970408
    18  H    2.446799   5.959741   3.807698   5.108948   3.483064
                   11         12         13         14         15
    11  O    0.000000
    12  H    4.560512   0.000000
    13  H    4.527614   4.282786   0.000000
    14  H    2.653288   4.965590   2.446375   0.000000
    15  H    5.977583   3.495066   2.358570   4.589499   0.000000
    16  H    4.707145   3.262433   6.939484   6.559834   6.712157
    17  H    3.461710   4.491208   7.029392   5.895241   7.508894
    18  H    0.967375   5.334911   4.520581   2.279756   6.282862
                   16         17         18
    16  H    0.000000
    17  H    2.161253   0.000000
    18  H    5.674429   4.351080   0.000000
 Stoichiometry    C7H7O4(1+)
 Framework group  C1[X(C7H7O4)]
 Deg. of freedom    48
 Full point group                 C1      NOp   1
 Largest Abelian subgroup         C1      NOp   1
 Largest concise Abelian subgroup C1      NOp   1
                         Standard orientation:                         
 ---------------------------------------------------------------------
 Center     Atomic      Atomic             Coordinates (Angstroms)
 Number     Number       Type             X           Y           Z
 ---------------------------------------------------------------------
      1          6           0        0.217736    1.275847   -0.000007
      2          6           0        0.425217   -0.136504   -0.000005
      3          6           0       -0.691914   -1.013893    0.000010
      4          6           0       -1.980241   -0.517781    0.000019
      5          6           0       -2.172369    0.879831    0.000015
      6          6           0       -1.097679    1.752355    0.000002
      7          8           0       -2.994365   -1.406772    0.000037
      8          6           0        1.722573   -0.715889   -0.000024
      9          8           0        1.807203   -2.022350   -0.000085
     10          8           0        2.785930    0.034604    0.000061
     11          8           0        1.274312    2.095558   -0.000023
     12          1           0       -0.543625   -2.086950    0.000015
     13          1           0       -3.180649    1.287714    0.000026
     14          1           0       -1.276969    2.824189   -0.000001
     15          1           0       -3.856105   -0.972067    0.000022
     16          1           0        2.704799   -2.388962    0.000004
     17          1           0        3.633739   -0.437531   -0.000019
     18          1           0        0.994232    3.021501   -0.000033
 ---------------------------------------------------------------------
 Rotational constants (GHZ):      1.7739327      0.9072993      0.6002792
 Standard basis: 6-31+G(d,p) (6D, 7F)
 There are   244 symmetry adapted cartesian basis functions of A   symmetry.
 There are   244 symmetry adapted basis functions of A   symmetry.
   244 basis functions,   401 primitive gaussians,   244 cartesian basis functions
    40 alpha electrons       40 beta electrons
       nuclear repulsion energy       607.0587627675 Hartrees.
 NAtoms=   18 NActive=   18 NUniq=   18 SFac= 1.00D+00 NAtFMM=   60 NAOKFM=F Big=F
 Integral buffers will be    131072 words long.
 Regular integral format.
 Two-electron integral symmetry is turned on.
 Nuclear repulsion after empirical dispersion term =      607.0511503566 Hartrees.
 One-electron integrals computed using PRISM.
 NBasis=   244 RedAO= T EigKep=  3.25D-06  NBF=   244
 NBsUse=   244 1.00D-06 EigRej= -1.00D+00 NBFU=   244
 ExpMin= 4.38D-02 ExpMax= 5.48D+03 ExpMxC= 8.25D+02 IAcc=2 IRadAn=         4 AccDes= 0.00D+00
 Harris functional with IExCor=  419 and IRadAn=       4 diagonalized for initial guess.
 HarFok:  IExCor=  419 AccDes= 0.00D+00 IRadAn=         4 IDoV= 1 UseB2=F ITyADJ=14
 ICtDFT=  3500011 ScaDFX=  1.000000  1.000000  1.000000  1.000000
 FoFCou: FMM=F IPFlag=           0 FMFlag=      100000 FMFlg1=           0
         NFxFlg=           0 DoJE=T BraDBF=F KetDBF=T FulRan=T
         wScrn=  0.000000 ICntrl=     500 IOpCl=  0 I1Cent=   200000004 NGrid=           0
         NMat0=    1 NMatS0=      1 NMatT0=    0 NMatD0=    1 NMtDS0=    0 NMtDT0=    0
 Petite list used in FoFCou.
 Keep R1 ints in memory in canonical form, NReq=454277305.
 Requested convergence on RMS density matrix=1.00D-08 within 128 cycles.
 Requested convergence on MAX density matrix=1.00D-06.
 Requested convergence on             energy=1.00D-06.
 No special actions if energy rises.
 SCF Done:  E(RB2PLYP) =  -570.553272156     A.U. after   16 cycles
            NFock= 16  Conv=0.41D-08     -V/T= 2.0067
 DoSCS=T DFT=T ScalE2(SS,OS)=  0.270000  0.270000
 ExpMin= 4.38D-02 ExpMax= 5.48D+03 ExpMxC= 8.25D+02 IAcc=3 IRadAn=         5 AccDes= 0.00D+00
 HarFok:  IExCor=  205 AccDes= 0.00D+00 IRadAn=         5 IDoV=-2 UseB2=F ITyADJ=14
 ICtDFT= 12500011 ScaDFX=  1.000000  1.000000  1.000000  1.000000
 Range of M.O.s used for correlation:    12   244
 NBasis=   244 NAE=    40 NBE=    40 NFC=    11 NFV=     0
 NROrb=    233 NOA=    29 NOB=    29 NVA=   204 NVB=   204

 **** Warning!!: The largest alpha MO coefficient is  0.15653437D+03

 DoSCS=T DFT=T ScalE2(SS,OS)=  0.270000  0.270000
 Fully direct method using O(ONN) memory.
 JobTyp=1 Pass  1:  I=  12 to  17 NPSUse= 18 ParTrn=T ParDer=T DoDerP=T.
 JobTyp=1 Pass  2:  I=  18 to  23 NPSUse= 18 ParTrn=T ParDer=T DoDerP=T.
 JobTyp=1 Pass  3:  I=  24 to  29 NPSUse= 18 ParTrn=T ParDer=T DoDerP=T.
 JobTyp=1 Pass  4:  I=  30 to  35 NPSUse= 18 ParTrn=T ParDer=T DoDerP=T.
 JobTyp=1 Pass  5:  I=  36 to  40 NPSUse= 18 ParTrn=T ParDer=T DoDerP=T.
 Spin components of T(2) and E(2):
     alpha-alpha T2 =       0.1167460601D+00 E2=     -0.7470726381D-01
     alpha-beta  T2 =       0.5989072228D+00 E2=     -0.3948841095D+00
     beta-beta   T2 =       0.1167460601D+00 E2=     -0.7470726381D-01
 E2(B2PLYP) =    -0.5442986371D+00 E(B2PLYP) =    -0.57109757079299D+03
          IDoAtm=111111111111111111
          Differentiating once with respect to electric field.
                with respect to dipole field.
          Differentiating once with respect to nuclear coordinates.
 Keep R1 ints in memory in canonical form, NReq=454076225.
          There are     1 degrees of freedom in the 1st order CPHF.  IDoFFX=0 NUNeed=     1.
 LinEq1:  Iter=  0 NonCon=     1 RMS=2.01D-03 Max=6.79D-02 NDo=     1
 AX will form     1 AO Fock derivatives at one time.
 LinEq1:  Iter=  1 NonCon=     1 RMS=8.02D-04 Max=9.97D-03 NDo=     1
 LinEq1:  Iter=  2 NonCon=     1 RMS=2.86D-04 Max=9.21D-03 NDo=     1
 LinEq1:  Iter=  3 NonCon=     1 RMS=1.54D-04 Max=3.20D-03 NDo=     1
 LinEq1:  Iter=  4 NonCon=     1 RMS=5.83D-05 Max=1.51D-03 NDo=     1
 LinEq1:  Iter=  5 NonCon=     1 RMS=3.28D-05 Max=1.02D-03 NDo=     1
 LinEq1:  Iter=  6 NonCon=     1 RMS=1.54D-05 Max=4.83D-04 NDo=     1
 LinEq1:  Iter=  7 NonCon=     1 RMS=7.77D-06 Max=1.79D-04 NDo=     1
 LinEq1:  Iter=  8 NonCon=     1 RMS=3.18D-06 Max=8.50D-05 NDo=     1
 LinEq1:  Iter=  9 NonCon=     1 RMS=1.25D-06 Max=3.75D-05 NDo=     1
 LinEq1:  Iter= 10 NonCon=     1 RMS=5.62D-07 Max=2.16D-05 NDo=     1
 LinEq1:  Iter= 11 NonCon=     1 RMS=2.55D-07 Max=1.02D-05 NDo=     1
 LinEq1:  Iter= 12 NonCon=     1 RMS=1.43D-07 Max=5.31D-06 NDo=     1
 LinEq1:  Iter= 13 NonCon=     1 RMS=4.89D-08 Max=1.30D-06 NDo=     1
 LinEq1:  Iter= 14 NonCon=     1 RMS=2.97D-08 Max=1.04D-06 NDo=     1
 LinEq1:  Iter= 15 NonCon=     1 RMS=1.09D-08 Max=3.50D-07 NDo=     1
 LinEq1:  Iter= 16 NonCon=     1 RMS=5.85D-09 Max=1.28D-07 NDo=     1
 LinEq1:  Iter= 17 NonCon=     1 RMS=1.37D-09 Max=3.97D-08 NDo=     1
 LinEq1:  Iter= 18 NonCon=     1 RMS=5.14D-10 Max=7.91D-09 NDo=     1
 LinEq1:  Iter= 19 NonCon=     1 RMS=2.34D-10 Max=5.35D-09 NDo=     1
 LinEq1:  Iter= 20 NonCon=     1 RMS=6.59D-11 Max=1.50D-09 NDo=     1
 LinEq1:  Iter= 21 NonCon=     0 RMS=3.04D-11 Max=3.44D-10 NDo=     1
 Linear equations converged to 1.000D-10 1.000D-09 after    21 iterations.
 End of Minotr F.D. properties file   721 does not exist.
 End of Minotr F.D. properties file   722 does not exist.
 End of Minotr F.D. properties file   788 does not exist.

 **********************************************************************

            Population analysis using the SCF density.

 **********************************************************************

 Orbital symmetries:
       Occupied  (A) (A) (A) (A) (A) (A) (A) (A) (A) (A) (A) (A)
                 (A) (A) (A) (A) (A) (A) (A) (A) (A) (A) (A) (A)
                 (A) (A) (A) (A) (A) (A) (A) (A) (A) (A) (A) (A)
                 (A) (A) (A) (A)
       Virtual   (A) (A) (A) (A) (A) (A) (A) (A) (A) (A) (A) (A)
                 (A) (A) (A) (A) (A) (A) (A) (A) (A) (A) (A) (A)
                 (A) (A) (A) (A) (A) (A) (A) (A) (A) (A) (A) (A)
                 (A) (A) (A) (A) (A) (A) (A) (A) (A) (A) (A) (A)
                 (A) (A) (A) (A) (A) (A) (A) (A) (A) (A) (A) (A)
                 (A) (A) (A) (A) (A) (A) (A) (A) (A) (A) (A) (A)
                 (A) (A) (A) (A) (A) (A) (A) (A) (A) (A) (A) (A)
                 (A) (A) (A) (A) (A) (A) (A) (A) (A) (A) (A) (A)
                 (A) (A) (A) (A) (A) (A) (A) (A) (A) (A) (A) (A)
                 (A) (A) (A) (A) (A) (A) (A) (A) (A) (A) (A) (A)
                 (A) (A) (A) (A) (A) (A) (A) (A) (A) (A) (A) (A)
                 (A) (A) (A) (A) (A) (A) (A) (A) (A) (A) (A) (A)
                 (A) (A) (A) (A) (A) (A) (A) (A) (A) (A) (A) (A)
                 (A) (A) (A) (A) (A) (A) (A) (A) (A) (A) (A) (A)
                 (A) (A) (A) (A) (A) (A) (A) (A) (A) (A) (A) (A)
                 (A) (A) (A) (A) (A) (A) (A) (A) (A) (A) (A) (A)
                 (A) (A) (A) (A) (A) (A) (A) (A) (A) (A) (A) (A)
 The electronic state is 1-A.
 Alpha  occ. eigenvalues --  -20.02214 -20.02151 -19.94805 -19.91476 -11.01368
 Alpha  occ. eigenvalues --  -10.88523 -10.84879 -10.82601 -10.81267 -10.80186
 Alpha  occ. eigenvalues --  -10.79760  -1.50693  -1.42180  -1.38595  -1.35075
 Alpha  occ. eigenvalues --   -1.15571  -1.08262  -1.02017  -0.98179  -0.92787
 Alpha  occ. eigenvalues --   -0.89184  -0.87320  -0.81776  -0.79373  -0.76446
 Alpha  occ. eigenvalues --   -0.75881  -0.74488  -0.70660  -0.67544  -0.65872
 Alpha  occ. eigenvalues --   -0.65859  -0.65494  -0.64125  -0.64082  -0.62326
 Alpha  occ. eigenvalues --   -0.59217  -0.57051  -0.53734  -0.47591  -0.40762
 Alpha virt. eigenvalues --   -0.20537  -0.14351  -0.09904  -0.09015  -0.08078
 Alpha virt. eigenvalues --   -0.07039  -0.06424  -0.06344  -0.05299  -0.04713
 Alpha virt. eigenvalues --   -0.03020  -0.02005  -0.01404  -0.00548   0.00089
 Alpha virt. eigenvalues --    0.01211   0.02698   0.03885   0.04574   0.04631
 Alpha virt. eigenvalues --    0.05432   0.05604   0.06074   0.07287   0.07561
 Alpha virt. eigenvalues --    0.07952   0.08989   0.09246   0.10612   0.10918
 Alpha virt. eigenvalues --    0.11471   0.11889   0.12455   0.12514   0.13006
 Alpha virt. eigenvalues --    0.13645   0.14508   0.15497   0.16352   0.16486
 Alpha virt. eigenvalues --    0.17426   0.17877   0.18549   0.18631   0.20723
 Alpha virt. eigenvalues --    0.21070   0.21964   0.22050   0.23190   0.23314
 Alpha virt. eigenvalues --    0.24413   0.25230   0.26389   0.28119   0.29304
 Alpha virt. eigenvalues --    0.29423   0.31975   0.32634   0.33468   0.35632
 Alpha virt. eigenvalues --    0.36149   0.39217   0.41353   0.42801   0.53976
 Alpha virt. eigenvalues --    0.55457   0.58741   0.60427   0.61792   0.63163
 Alpha virt. eigenvalues --    0.65343   0.66900   0.67321   0.68543   0.69628
 Alpha virt. eigenvalues --    0.71368   0.73289   0.77649   0.77778   0.80843
 Alpha virt. eigenvalues --    0.81945   0.87687   0.88763   0.91933   0.93273
 Alpha virt. eigenvalues --    0.94496   0.97853   0.99634   1.00998   1.02523
 Alpha virt. eigenvalues --    1.04975   1.05906   1.07385   1.09708   1.11807
 Alpha virt. eigenvalues --    1.12078   1.13835   1.14809   1.16427   1.16957
 Alpha virt. eigenvalues --    1.18837   1.19146   1.19713   1.21368   1.21759
 Alpha virt. eigenvalues --    1.23056   1.24048   1.26423   1.27464   1.28277
 Alpha virt. eigenvalues --    1.31281   1.32377   1.33984   1.34293   1.36394
 Alpha virt. eigenvalues --    1.37072   1.41738   1.45749   1.46599   1.51091
 Alpha virt. eigenvalues --    1.53559   1.54968   1.55289   1.58136   1.59003
 Alpha virt. eigenvalues --    1.65003   1.67167   1.71752   1.71815   1.73586
 Alpha virt. eigenvalues --    1.82200   1.84356   1.86913   1.87380   1.88642
 Alpha virt. eigenvalues --    1.90495   1.91610   1.92149   1.94676   1.98856
 Alpha virt. eigenvalues --    1.99330   2.00554   2.02740   2.11127   2.18023
 Alpha virt. eigenvalues --    2.18673   2.21224   2.23544   2.25715   2.28976
 Alpha virt. eigenvalues --    2.31766   2.33844   2.34433   2.36886   2.38253
 Alpha virt. eigenvalues --    2.39644   2.43254   2.44492   2.46861   2.47752
 Alpha virt. eigenvalues --    2.48897   2.51969   2.54734   2.55245   2.57618
 Alpha virt. eigenvalues --    2.58843   2.60141   2.61486   2.64271   2.66446
 Alpha virt. eigenvalues --    2.70291   2.71205   2.72972   2.73331   2.76876
 Alpha virt. eigenvalues --    2.79371   2.86427   2.92637   2.95074   3.02916
 Alpha virt. eigenvalues --    3.05728   3.09719   3.15256   3.19865   3.24103
 Alpha virt. eigenvalues --    3.31646   3.38808   3.46972   3.48026   3.53156
 Alpha virt. eigenvalues --    3.55873   3.57773   3.80573   4.23461   4.27273
 Alpha virt. eigenvalues --    4.31359   4.34548   4.35647   4.47452   4.52032
 Alpha virt. eigenvalues --    4.59047   4.63579   4.84019   4.98681
          Condensed to atoms (all electrons):
               1          2          3          4          5          6
     1  C   15.497884  -2.835726  -2.621113   0.332469   0.531682  -3.706995
     2  C   -2.835726   9.759100  -1.685356   1.013791  -0.654608   0.330645
     3  C   -2.621113  -1.685356  12.977905  -3.562300   0.153350   0.121504
     4  C    0.332469   1.013791  -3.562300   8.894199  -0.446028   0.637315
     5  C    0.531682  -0.654608   0.153350  -0.446028   6.173539  -0.390529
     6  C   -3.706995   0.330645   0.121504   0.637315  -0.390529   8.815501
     7  O   -0.023121   0.036909   0.033072   0.004800  -0.101318   0.047345
     8  C   -0.689955  -0.254614   0.420729  -0.663061   0.097988  -0.321982
     9  O   -0.011819   0.105090  -0.079003   0.035316  -0.005509   0.034479
    10  O   -0.153293   0.120905  -0.024680   0.020480   0.002775   0.071235
    11  O    0.221489  -0.232843   0.075324  -0.009893   0.044568   0.071220
    12  H    0.004879   0.043214   0.120265   0.130448   0.010937   0.005137
    13  H    0.002402   0.017121  -0.036225   0.048489   0.220834   0.082631
    14  H    0.042511  -0.022854  -0.004411  -0.007466   0.128278   0.194266
    15  H    0.003185  -0.004117   0.069499  -0.044401  -0.019223  -0.008279
    16  H   -0.008875  -0.036773   0.024273  -0.002569   0.000313   0.004406
    17  H   -0.007990  -0.011127   0.003937   0.005879  -0.000562  -0.011823
    18  H    0.022836   0.086963  -0.013123   0.004168  -0.006618  -0.115713
               7          8          9         10         11         12
     1  C   -0.023121  -0.689955  -0.011819  -0.153293   0.221489   0.004879
     2  C    0.036909  -0.254614   0.105090   0.120905  -0.232843   0.043214
     3  C    0.033072   0.420729  -0.079003  -0.024680   0.075324   0.120265
     4  C    0.004800  -0.663061   0.035316   0.020480  -0.009893   0.130448
     5  C   -0.101318   0.097988  -0.005509   0.002775   0.044568   0.010937
     6  C    0.047345  -0.321982   0.034479   0.071235   0.071220   0.005137
     7  O    8.325164  -0.005590  -0.000000   0.000109   0.000228  -0.005539
     8  C   -0.005590   6.188359   0.070818   0.136101  -0.169572   0.019574
     9  O   -0.000000   0.070818   8.172366  -0.097139   0.000917  -0.002527
    10  O    0.000109   0.136101  -0.097139   8.176865  -0.021763   0.000533
    11  O    0.000228  -0.169572   0.000917  -0.021763   8.331357  -0.000218
    12  H   -0.005539   0.019574  -0.002527   0.000533  -0.000218   0.464905
    13  H   -0.009252   0.001806   0.000001   0.000015  -0.000439  -0.000107
    14  H   -0.000418   0.010314   0.000003   0.000011  -0.012133   0.000007
    15  H    0.235491   0.002593   0.000007   0.000002  -0.000006  -0.000038
    16  H    0.000007   0.041565   0.224163  -0.012456   0.000133   0.000325
    17  H    0.000002   0.043692  -0.013653   0.208223   0.004836   0.000011
    18  H   -0.000006   0.021724  -0.000063   0.001530   0.221760   0.000003
              13         14         15         16         17         18
     1  C    0.002402   0.042511   0.003185  -0.008875  -0.007990   0.022836
     2  C    0.017121  -0.022854  -0.004117  -0.036773  -0.011127   0.086963
     3  C   -0.036225  -0.004411   0.069499   0.024273   0.003937  -0.013123
     4  C    0.048489  -0.007466  -0.044401  -0.002569   0.005879   0.004168
     5  C    0.220834   0.128278  -0.019223   0.000313  -0.000562  -0.006618
     6  C    0.082631   0.194266  -0.008279   0.004406  -0.011823  -0.115713
     7  O   -0.009252  -0.000418   0.235491   0.000007   0.000002  -0.000006
     8  C    0.001806   0.010314   0.002593   0.041565   0.043692   0.021724
     9  O    0.000001   0.000003   0.000007   0.224163  -0.013653  -0.000063
    10  O    0.000015   0.000011   0.000002  -0.012456   0.208223   0.001530
    11  O   -0.000439  -0.012133  -0.000006   0.000133   0.004836   0.221760
    12  H   -0.000107   0.000007  -0.000038   0.000325   0.000011   0.000003
    13  H    0.489242  -0.003304   0.004140  -0.000000   0.000000  -0.000012
    14  H   -0.003304   0.493156  -0.000003  -0.000000  -0.000000   0.006104
    15  H    0.004140  -0.000003   0.376448   0.000000   0.000000   0.000000
    16  H   -0.000000  -0.000000   0.000000   0.344067   0.006342  -0.000000
    17  H    0.000000  -0.000000   0.000000   0.006342   0.341441   0.000016
    18  H   -0.000012   0.006104   0.000000  -0.000000   0.000016   0.349838
 Mulliken charges:
               1
     1  C   -0.600454
     2  C    0.224279
     3  C    0.026353
     4  C   -0.391638
     5  C    0.260132
     6  C    0.139636
     7  O   -0.537883
     8  C    1.049511
     9  O   -0.433449
    10  O   -0.429455
    11  O   -0.524963
    12  H    0.208189
    13  H    0.182659
    14  H    0.175938
    15  H    0.384702
    16  H    0.415078
    17  H    0.430775
    18  H    0.420592
 Sum of Mulliken charges =   1.00000
 Mulliken charges with hydrogens summed into heavy atoms:
               1
     1  C   -0.600454
     2  C    0.224279
     3  C    0.234543
     4  C   -0.391638
     5  C    0.442791
     6  C    0.315573
     7  O   -0.153182
     8  C    1.049511
     9  O   -0.018371
    10  O    0.001320
    11  O   -0.104372
 Electronic spatial extent (au):  <R**2>=           1731.2724
 Charge=              1.0000 electrons
 Dipole moment (field-independent basis, Debye):
    X=              4.0169    Y=              0.3148    Z=             -0.0001  Tot=              4.0292
 Quadrupole moment (field-independent basis, Debye-Ang):
   XX=            -14.4066   YY=            -41.1296   ZZ=            -63.9373
   XY=            -17.8744   XZ=             -0.0003   YZ=             -0.0004
 Traceless Quadrupole moment (field-independent basis, Debye-Ang):
   XX=             25.4179   YY=             -1.3051   ZZ=            -24.1128
   XY=            -17.8744   XZ=             -0.0003   YZ=             -0.0004
 Octapole moment (field-independent basis, Debye-Ang**2):
  XXX=             45.2731  YYY=             30.5717  ZZZ=             -0.0001  XYY=             34.5381
  XXY=            -39.0286  XXZ=             -0.0010  XZZ=              9.1487  YZZ=             -3.3561
  YYZ=              0.0004  XYZ=             -0.0010
 Hexadecapole moment (field-independent basis, Debye-Ang**3):
 XXXX=           -573.2457 YYYY=           -499.9509 ZZZZ=            -63.3786 XXXY=           -150.9492
 XXXZ=             -0.0005 YYYX=            -52.3592 YYYZ=             -0.0044 ZZZX=              0.0044
 ZZZY=             -0.0011 XXYY=           -263.2296 XXZZ=           -236.8252 YYZZ=           -137.6063
 XXYZ=             -0.0007 YYXZ=              0.0031 ZZXY=              1.0632
 N-N= 6.070511503566D+02 E-N=-2.535843434909D+03  KE= 5.667779535386D+02
 Calling FoFJK, ICntrl=  10002127 FMM=F ISym2X=0 I1Cent= 0 IOpClX= 0 NMat=1 NMatS=1 NMatT=0.
 ***** Axes restored to original set *****
 -------------------------------------------------------------------
 Center     Atomic                   Forces (Hartrees/Bohr)
 Number     Number              X              Y              Z
 -------------------------------------------------------------------
      1        6           0.003585393   -0.004150371    0.000000280
      2        6           0.000410348    0.001526150    0.000001038
      3        6          -0.000743666   -0.004554099    0.000000270
      4        6          -0.003224234    0.003975251    0.000000141
      5        6           0.004114277    0.000847485   -0.000000264
      6        6           0.000401687    0.003471670   -0.000000029
      7        8           0.003341536   -0.004276247    0.000000037
      8        6           0.002544687    0.001254391   -0.000005027
      9        8           0.001030799   -0.004743965    0.000002153
     10        8          -0.002737941    0.004232120    0.000000738
     11        8          -0.006067242    0.003240453    0.000000509
     12        1           0.000542160    0.001492883   -0.000000054
     13        1          -0.001462645   -0.000857581    0.000000115
     14        1          -0.000482374   -0.001652785   -0.000000048
     15        1           0.001039376    0.000176788   -0.000000129
     16        1          -0.001123594   -0.000454669    0.000000039
     17        1          -0.001120709   -0.000586986    0.000000341
     18        1          -0.000047859    0.001059510   -0.000000110
 -------------------------------------------------------------------
 Cartesian Forces:  Max     0.006067242 RMS     0.002183204

 GradGradGradGradGradGradGradGradGradGradGradGradGradGradGradGradGradGrad
 Berny optimization.
 FormGI is forming the generalized inverse of G from B-inverse, IUseBI=4.
 Internal  Forces:  Max     0.007471163 RMS     0.001561733
 Search for a local minimum.
 Step number   1 out of a maximum of   89
 All quantities printed in internal units (Hartrees-Bohrs-Radians)
 Mixed Optimization -- RFO/linear search
 Second derivative matrix not updated -- first step.
 ITU=  0
     Eigenvalues ---    0.01776   0.01813   0.01844   0.02003   0.02053
     Eigenvalues ---    0.02087   0.02136   0.02164   0.02200   0.02234
     Eigenvalues ---    0.02372   0.02392   0.02522   0.02893   0.02994
     Eigenvalues ---    0.16000   0.16000   0.16000   0.16000   0.16000
     Eigenvalues ---    0.16000   0.16000   0.22358   0.23488   0.24598
     Eigenvalues ---    0.25000   0.25000   0.25000   0.25000   0.25000
     Eigenvalues ---    0.35085   0.35194   0.35604   0.39345   0.40800
     Eigenvalues ---    0.42332   0.42996   0.44430   0.47238   0.48344
     Eigenvalues ---    0.53294   0.53463   0.53917   0.54375   0.55318
     Eigenvalues ---    0.57822   0.64702   0.66771
 RFO step:  Lambda=-3.67838301D-04 EMin= 1.77595537D-02
 Linear search not attempted -- first point.
 Iteration  1 RMS(Cart)=  0.00808187 RMS(Int)=  0.00001418
 Iteration  2 RMS(Cart)=  0.00003327 RMS(Int)=  0.00000025
 Iteration  3 RMS(Cart)=  0.00000000 RMS(Int)=  0.00000025
 Variable       Old X    -DE/DX   Delta X   Delta X   Delta X     New X
                                 (Linear)    (Quad)   (Total)
    R1        2.69760   0.00043   0.00000   0.00092   0.00092   2.69852
    R2        2.64385   0.00212   0.00000   0.00460   0.00460   2.64844
    R3        2.52707   0.00747   0.00000   0.01291   0.01291   2.53998
    R4        2.68434   0.00215   0.00000   0.00498   0.00498   2.68932
    R5        2.68502   0.00141   0.00000   0.00332   0.00332   2.68834
    R6        2.60886   0.00198   0.00000   0.00406   0.00406   2.61292
    R7        2.04705  -0.00155   0.00000  -0.00436  -0.00436   2.04269
    R8        2.66594   0.00151   0.00000   0.00357   0.00357   2.66951
    R9        2.54851   0.00599   0.00000   0.01083   0.01083   2.55933
   R10        2.61593   0.00265   0.00000   0.00555   0.00555   2.62148
   R11        2.05537  -0.00168   0.00000  -0.00478  -0.00478   2.05060
   R12        2.05361  -0.00171   0.00000  -0.00485  -0.00485   2.04876
   R13        1.82392   0.00101   0.00000   0.00186   0.00186   1.82578
   R14        2.47403   0.00520   0.00000   0.00803   0.00803   2.48206
   R15        2.45953   0.00525   0.00000   0.00785   0.00785   2.46738
   R16        1.83224   0.00121   0.00000   0.00226   0.00226   1.83450
   R17        1.83381   0.00127   0.00000   0.00238   0.00238   1.83618
   R18        1.82807   0.00100   0.00000   0.00185   0.00185   1.82992
    A1        2.06420  -0.00005   0.00000  -0.00041  -0.00041   2.06380
    A2        2.08476  -0.00075   0.00000  -0.00291  -0.00291   2.08185
    A3        2.13423   0.00081   0.00000   0.00332   0.00332   2.13754
    A4        2.09071   0.00066   0.00000   0.00237   0.00237   2.09308
    A5        2.13667  -0.00133   0.00000  -0.00518  -0.00518   2.13149
    A6        2.05581   0.00067   0.00000   0.00281   0.00281   2.05861
    A7        2.10824  -0.00062   0.00000  -0.00282  -0.00282   2.10542
    A8        2.09924   0.00066   0.00000   0.00355   0.00355   2.10280
    A9        2.07570  -0.00003   0.00000  -0.00074  -0.00074   2.07496
   A10        2.07499   0.00047   0.00000   0.00225   0.00225   2.07724
   A11        2.05427  -0.00075   0.00000  -0.00318  -0.00318   2.05109
   A12        2.15392   0.00028   0.00000   0.00092   0.00092   2.15485
   A13        2.11613  -0.00044   0.00000  -0.00150  -0.00150   2.11463
   A14        2.09182  -0.00003   0.00000  -0.00080  -0.00080   2.09102
   A15        2.07524   0.00047   0.00000   0.00230   0.00230   2.07753
   A16        2.11210  -0.00002   0.00000   0.00010   0.00010   2.11220
   A17        2.08408  -0.00020   0.00000  -0.00138  -0.00138   2.08270
   A18        2.08700   0.00022   0.00000   0.00128   0.00128   2.08828
   A19        1.95465   0.00056   0.00000   0.00348   0.00348   1.95813
   A20        2.05550   0.00021   0.00000   0.00084   0.00084   2.05634
   A21        2.10699  -0.00105   0.00000  -0.00418  -0.00418   2.10281
   A22        2.12070   0.00084   0.00000   0.00334   0.00334   2.12404
   A23        2.02324   0.00000   0.00000   0.00002   0.00002   2.02326
   A24        2.01888   0.00005   0.00000   0.00031   0.00031   2.01919
   A25        1.93689   0.00065   0.00000   0.00406   0.00406   1.94095
    D1       -0.00000   0.00000   0.00000   0.00001   0.00001   0.00001
    D2        3.14158   0.00000   0.00000   0.00001   0.00001   3.14159
    D3       -3.14159   0.00000   0.00000   0.00001   0.00001  -3.14158
    D4       -0.00000   0.00000   0.00000   0.00001   0.00001   0.00000
    D5        0.00000  -0.00000   0.00000  -0.00001  -0.00001  -0.00000
    D6       -3.14159  -0.00000   0.00000  -0.00000  -0.00000   3.14159
    D7        3.14159  -0.00000   0.00000  -0.00001  -0.00001   3.14158
    D8       -0.00000  -0.00000   0.00000  -0.00000  -0.00000  -0.00001
    D9        3.14158   0.00000   0.00000   0.00000   0.00000   3.14158
   D10       -0.00001   0.00000   0.00000   0.00000   0.00000  -0.00000
   D11        0.00000  -0.00000   0.00000  -0.00001  -0.00001  -0.00001
   D12       -3.14159  -0.00000   0.00000  -0.00000  -0.00000   3.14159
   D13       -3.14158  -0.00000   0.00000  -0.00000  -0.00000  -3.14159
   D14        0.00001   0.00000   0.00000   0.00000   0.00000   0.00001
   D15       -3.14154   0.00000   0.00000   0.00006   0.00006  -3.14148
   D16        0.00009  -0.00000   0.00000  -0.00002  -0.00002   0.00007
   D17        0.00005   0.00000   0.00000   0.00005   0.00005   0.00010
   D18       -3.14150  -0.00000   0.00000  -0.00003  -0.00003  -3.14153
   D19       -0.00000   0.00000   0.00000   0.00000   0.00000   0.00000
   D20       -3.14159   0.00000   0.00000   0.00000   0.00000  -3.14158
   D21        3.14159  -0.00000   0.00000  -0.00000  -0.00000   3.14159
   D22        0.00000  -0.00000   0.00000  -0.00000  -0.00000   0.00000
   D23        0.00000   0.00000   0.00000   0.00000   0.00000   0.00000
   D24       -3.14159  -0.00000   0.00000  -0.00000  -0.00000  -3.14159
   D25        3.14159   0.00000   0.00000   0.00000   0.00000   3.14159
   D26       -0.00000  -0.00000   0.00000  -0.00000  -0.00000  -0.00000
   D27       -3.14157  -0.00000   0.00000  -0.00001  -0.00001  -3.14158
   D28        0.00003  -0.00000   0.00000  -0.00000  -0.00000   0.00002
   D29       -0.00000  -0.00000   0.00000  -0.00000  -0.00000  -0.00000
   D30        3.14159  -0.00000   0.00000  -0.00000  -0.00000   3.14159
   D31        3.14159   0.00000   0.00000   0.00000   0.00000   3.14159
   D32       -0.00000   0.00000   0.00000   0.00000   0.00000  -0.00000
   D33       -3.14148  -0.00000   0.00000  -0.00004  -0.00004  -3.14152
   D34        0.00008   0.00000   0.00000   0.00004   0.00004   0.00011
   D35       -3.14152   0.00000   0.00000   0.00005   0.00005  -3.14148
   D36        0.00011  -0.00000   0.00000  -0.00003  -0.00003   0.00007
         Item               Value     Threshold  Converged?
 Maximum Force            0.007471     0.000450     NO 
 RMS     Force            0.001562     0.000300     NO 
 Maximum Displacement     0.035917     0.001800     NO 
 RMS     Displacement     0.008099     0.001200     NO 
 Predicted change in Energy=-1.840621D-04
 GradGradGradGradGradGradGradGradGradGradGradGradGradGradGradGradGradGrad

                          Input orientation:                          
 ---------------------------------------------------------------------
 Center     Atomic      Atomic             Coordinates (Angstroms)
 Number     Number       Type             X           Y           Z
 ---------------------------------------------------------------------
      1          6           0       -0.218519    1.274059    0.000001
      2          6           0       -0.422642   -0.139270   -0.000016
      3          6           0        0.696612   -1.018226   -0.000022
      4          6           0        1.985514   -0.517639   -0.000020
      5          6           0        2.177035    0.881962   -0.000011
      6          6           0        1.098216    1.754054    0.000001
      7          8           0        3.003672   -1.410718   -0.000035
      8          6           0       -1.723193   -0.715794   -0.000014
      9          8           0       -1.812805   -2.026184    0.000103
     10          8           0       -2.784704    0.044468   -0.000079
     11          8           0       -1.284875    2.092280    0.000023
     12          1           0        0.552504   -2.089524   -0.000034
     13          1           0        3.183044    1.288718   -0.000013
     14          1           0        1.273448    2.823959    0.000012
     15          1           0        3.867931   -0.978836   -0.000018
     16          1           0       -2.712815   -2.390037    0.000039
     17          1           0       -3.637009   -0.422125    0.000029
     18          1           0       -1.013239    3.021754    0.000040
 ---------------------------------------------------------------------
                    Distance matrix (angstroms):
                    1          2          3          4          5
     1  C    0.000000
     2  C    1.427994   0.000000
     3  C    2.468206   1.423128   0.000000
     4  C    2.840413   2.437699   1.382698   0.000000
     5  C    2.427430   2.793069   2.408810   1.412644   0.000000
     6  C    1.401494   2.428515   2.801219   2.438829   1.387226
     7  O    4.194109   3.654615   2.340209   1.354340   2.437152
     8  C    2.494707   1.422608   2.438632   3.713997   4.214808
     9  O    3.665154   2.343715   2.704285   4.086923   4.937220
    10  O    2.845558   2.369198   3.639902   4.803222   5.031923
    11  O    1.344099   2.392334   3.688027   4.184151   3.667382
    12  H    3.450822   2.180459   1.080947   2.127050   3.386566
    13  H    3.401595   3.878159   3.391804   2.167257   1.085129
    14  H    2.151314   3.414300   3.885245   3.416623   2.141920
    15  H    4.666327   4.371943   3.171563   1.938091   2.514299
    16  H    4.432506   3.211050   3.675059   5.057684   5.883588
    17  H    3.816165   3.226789   4.374427   5.623334   5.958502
    18  H    1.919900   3.215723   4.386916   4.638946   3.841426
                    6          7          8          9         10
     6  C    0.000000
     7  O    3.694124   0.000000
     8  C    3.749734   4.777675   0.000000
     9  O    4.771190   4.855642   1.313451   0.000000
    10  O    4.242612   5.968490   1.305682   2.287398   0.000000
    11  O    2.406974   5.537386   2.842077   4.152163   2.538310
    12  H    3.882126   2.543424   2.658182   2.366157   3.961172
    13  H    2.136129   2.705389   5.299928   5.995589   6.096079
    14  H    1.084159   4.574513   4.637856   5.748813   4.918757
    15  H    3.891016   0.966160   5.597308   5.776478   6.730877
    16  H    5.630049   5.799766   1.944849   0.970776   2.435566
    17  H    5.211345   6.713864   1.936216   2.429141   0.971665
    18  H    2.462784   5.981838   3.804379   5.110869   3.464436
                   11         12         13         14         15
    11  O    0.000000
    12  H    4.567652   0.000000
    13  H    4.539606   4.281619   0.000000
    14  H    2.660897   4.966093   2.450209   0.000000
    15  H    5.998597   3.496525   2.368727   4.603541   0.000000
    16  H    4.704272   3.279117   6.949416   6.563234   6.730356
    17  H    3.443075   4.509128   7.031366   5.886396   7.525560
    18  H    0.968353   5.345719   4.540067   2.295225   6.311144
                   16         17         18
    16  H    0.000000
    17  H    2.174123   0.000000
    18  H    5.672393   4.329489   0.000000
 Stoichiometry    C7H7O4(1+)
 Framework group  C1[X(C7H7O4)]
 Deg. of freedom    48
 Full point group                 C1      NOp   1
 Largest Abelian subgroup         C1      NOp   1
 Largest concise Abelian subgroup C1      NOp   1
                         Standard orientation:                         
 ---------------------------------------------------------------------
 Center     Atomic      Atomic             Coordinates (Angstroms)
 Number     Number       Type             X           Y           Z
 ---------------------------------------------------------------------
      1          6           0        0.223899    1.273616   -0.000005
      2          6           0        0.422631   -0.140482    0.000012
      3          6           0       -0.699966   -1.015164    0.000018
      4          6           0       -1.986949   -0.509666    0.000016
      5          6           0       -2.173132    0.890655    0.000007
      6          6           0       -1.090996    1.758628   -0.000005
      7          8           0       -3.008506   -1.398856    0.000031
      8          6           0        1.720975   -0.721961    0.000010
      9          8           0        1.805590   -2.032683   -0.000107
     10          8           0        2.785377    0.034248    0.000075
     11          8           0        1.293368    2.087764   -0.000027
     12          1           0       -0.559944   -2.087004    0.000030
     13          1           0       -3.177583    1.301244    0.000009
     14          1           0       -1.262147    2.829193   -0.000016
     15          1           0       -3.871111   -0.963681    0.000014
     16          1           0        2.704205   -2.399965   -0.000044
     17          1           0        3.635897   -0.435592   -0.000034
     18          1           0        1.025277    3.018267   -0.000044
 ---------------------------------------------------------------------
 Rotational constants (GHZ):      1.7717353      0.9034008      0.5983199
 Standard basis: 6-31+G(d,p) (6D, 7F)
 There are   244 symmetry adapted cartesian basis functions of A   symmetry.
 There are   244 symmetry adapted basis functions of A   symmetry.
   244 basis functions,   401 primitive gaussians,   244 cartesian basis functions
    40 alpha electrons       40 beta electrons
       nuclear repulsion energy       606.0182987985 Hartrees.
 NAtoms=   18 NActive=   18 NUniq=   18 SFac= 1.00D+00 NAtFMM=   60 NAOKFM=F Big=F
 Integral buffers will be    131072 words long.
 Regular integral format.
 Two-electron integral symmetry is turned on.
 Nuclear repulsion after empirical dispersion term =      606.0106707712 Hartrees.
 One-electron integrals computed using PRISM.
 NBasis=   244 RedAO= T EigKep=  3.29D-06  NBF=   244
 NBsUse=   244 1.00D-06 EigRej= -1.00D+00 NBFU=   244
 Initial guess from the checkpoint file:  "B2PLYPD3DHByang.chk"
 B after Tr=    -0.000000    0.000000    0.000000
         Rot=    0.999998   -0.000000    0.000001    0.001920 Ang=  -0.22 deg.
 ExpMin= 4.38D-02 ExpMax= 5.48D+03 ExpMxC= 8.25D+02 IAcc=2 IRadAn=         4 AccDes= 0.00D+00
 Harris functional with IExCor=  419 and IRadAn=       4 diagonalized for initial guess.
 HarFok:  IExCor=  419 AccDes= 0.00D+00 IRadAn=         4 IDoV= 1 UseB2=F ITyADJ=14
 ICtDFT=  3500011 ScaDFX=  1.000000  1.000000  1.000000  1.000000
 FoFCou: FMM=F IPFlag=           0 FMFlag=      100000 FMFlg1=           0
         NFxFlg=           0 DoJE=T BraDBF=F KetDBF=T FulRan=T
         wScrn=  0.000000 ICntrl=     500 IOpCl=  0 I1Cent=   200000004 NGrid=           0
         NMat0=    1 NMatS0=      1 NMatT0=    0 NMatD0=    1 NMtDS0=    0 NMtDT0=    0
 Petite list used in FoFCou.
 Keep R1 ints in memory in canonical form, NReq=454277305.
 Requested convergence on RMS density matrix=1.00D-08 within 128 cycles.
 Requested convergence on MAX density matrix=1.00D-06.
 Requested convergence on             energy=1.00D-06.
 No special actions if energy rises.
 SCF Done:  E(RB2PLYP) =  -570.552699302     A.U. after   12 cycles
            NFock= 12  Conv=0.46D-08     -V/T= 2.0068
 DoSCS=T DFT=T ScalE2(SS,OS)=  0.270000  0.270000
 ExpMin= 4.38D-02 ExpMax= 5.48D+03 ExpMxC= 8.25D+02 IAcc=3 IRadAn=         5 AccDes= 0.00D+00
 HarFok:  IExCor=  205 AccDes= 0.00D+00 IRadAn=         5 IDoV=-2 UseB2=F ITyADJ=14
 ICtDFT= 12500011 ScaDFX=  1.000000  1.000000  1.000000  1.000000
 Range of M.O.s used for correlation:    12   244
 NBasis=   244 NAE=    40 NBE=    40 NFC=    11 NFV=     0
 NROrb=    233 NOA=    29 NOB=    29 NVA=   204 NVB=   204

 **** Warning!!: The largest alpha MO coefficient is  0.15594774D+03

 DoSCS=T DFT=T ScalE2(SS,OS)=  0.270000  0.270000
 Fully direct method using O(ONN) memory.
 JobTyp=1 Pass  1:  I=  12 to  17 NPSUse= 18 ParTrn=T ParDer=T DoDerP=T.
 JobTyp=1 Pass  2:  I=  18 to  23 NPSUse= 18 ParTrn=T ParDer=T DoDerP=T.
 JobTyp=1 Pass  3:  I=  24 to  29 NPSUse= 18 ParTrn=T ParDer=T DoDerP=T.
 JobTyp=1 Pass  4:  I=  30 to  35 NPSUse= 18 ParTrn=T ParDer=T DoDerP=T.
 JobTyp=1 Pass  5:  I=  36 to  40 NPSUse= 18 ParTrn=T ParDer=T DoDerP=T.
 Spin components of T(2) and E(2):
     alpha-alpha T2 =       0.1172073694D+00 E2=     -0.7479036650D-01
     alpha-beta  T2 =       0.6014397608D+00 E2=     -0.3954660131D+00
     beta-beta   T2 =       0.1172073694D+00 E2=     -0.7479036650D-01
 E2(B2PLYP) =    -0.5450467461D+00 E(B2PLYP) =    -0.57109774604801D+03
          IDoAtm=111111111111111111
          Differentiating once with respect to electric field.
                with respect to dipole field.
          Differentiating once with respect to nuclear coordinates.
 Keep R1 ints in memory in canonical form, NReq=454076225.
          There are     1 degrees of freedom in the 1st order CPHF.  IDoFFX=0 NUNeed=     1.
 LinEq1:  Iter=  0 NonCon=     1 RMS=2.03D-03 Max=6.88D-02 NDo=     1
 AX will form     1 AO Fock derivatives at one time.
 LinEq1:  Iter=  1 NonCon=     1 RMS=8.11D-04 Max=1.04D-02 NDo=     1
 LinEq1:  Iter=  2 NonCon=     1 RMS=2.90D-04 Max=9.19D-03 NDo=     1
 LinEq1:  Iter=  3 NonCon=     1 RMS=1.57D-04 Max=3.35D-03 NDo=     1
 LinEq1:  Iter=  4 NonCon=     1 RMS=5.94D-05 Max=1.53D-03 NDo=     1
 LinEq1:  Iter=  5 NonCon=     1 RMS=3.34D-05 Max=1.04D-03 NDo=     1
 LinEq1:  Iter=  6 NonCon=     1 RMS=1.57D-05 Max=4.92D-04 NDo=     1
 LinEq1:  Iter=  7 NonCon=     1 RMS=7.96D-06 Max=1.87D-04 NDo=     1
 LinEq1:  Iter=  8 NonCon=     1 RMS=3.28D-06 Max=8.99D-05 NDo=     1
 LinEq1:  Iter=  9 NonCon=     1 RMS=1.30D-06 Max=3.94D-05 NDo=     1
 LinEq1:  Iter= 10 NonCon=     1 RMS=5.84D-07 Max=2.28D-05 NDo=     1
 LinEq1:  Iter= 11 NonCon=     1 RMS=2.65D-07 Max=1.09D-05 NDo=     1
 LinEq1:  Iter= 12 NonCon=     1 RMS=1.48D-07 Max=5.54D-06 NDo=     1
 LinEq1:  Iter= 13 NonCon=     1 RMS=5.00D-08 Max=1.32D-06 NDo=     1
 LinEq1:  Iter= 14 NonCon=     1 RMS=3.06D-08 Max=1.08D-06 NDo=     1
 LinEq1:  Iter= 15 NonCon=     1 RMS=1.12D-08 Max=3.72D-07 NDo=     1
 LinEq1:  Iter= 16 NonCon=     1 RMS=6.10D-09 Max=1.39D-07 NDo=     1
 LinEq1:  Iter= 17 NonCon=     1 RMS=1.43D-09 Max=4.13D-08 NDo=     1
 LinEq1:  Iter= 18 NonCon=     1 RMS=5.30D-10 Max=8.34D-09 NDo=     1
 LinEq1:  Iter= 19 NonCon=     1 RMS=2.46D-10 Max=5.64D-09 NDo=     1
 LinEq1:  Iter= 20 NonCon=     1 RMS=6.99D-11 Max=1.63D-09 NDo=     1
 LinEq1:  Iter= 21 NonCon=     0 RMS=3.19D-11 Max=3.71D-10 NDo=     1
 Linear equations converged to 1.000D-10 1.000D-09 after    21 iterations.
 End of Minotr F.D. properties file   721 does not exist.
 End of Minotr F.D. properties file   722 does not exist.
 End of Minotr F.D. properties file   788 does not exist.
 Calling FoFJK, ICntrl=  10002127 FMM=F ISym2X=0 I1Cent= 0 IOpClX= 0 NMat=1 NMatS=1 NMatT=0.
 ***** Axes restored to original set *****
 -------------------------------------------------------------------
 Center     Atomic                   Forces (Hartrees/Bohr)
 Number     Number              X              Y              Z
 -------------------------------------------------------------------
      1        6           0.001836801   -0.000895441   -0.000000432
      2        6          -0.000041759    0.000204080   -0.000001478
      3        6          -0.000019514   -0.000499393   -0.000000551
      4        6          -0.001224774    0.001911391   -0.000000065
      5        6           0.000265056   -0.000423373    0.000000180
      6        6          -0.000573225    0.000218881    0.000000191
      7        8           0.000370833   -0.001132059    0.000000199
      8        6           0.000382060    0.000228970    0.000006001
      9        8           0.000427674   -0.000397165   -0.000001138
     10        8          -0.000454874    0.000068945   -0.000002085
     11        8          -0.001006134    0.000756543    0.000000155
     12        1          -0.000078312   -0.000082015   -0.000000115
     13        1          -0.000045708   -0.000019764   -0.000000074
     14        1           0.000010829   -0.000008768    0.000000003
     15        1          -0.000108735    0.000300847   -0.000000064
     16        1          -0.000235680    0.000233831   -0.000000547
     17        1           0.000000949   -0.000391959   -0.000000087
     18        1           0.000494511   -0.000073551   -0.000000092
 -------------------------------------------------------------------
 Cartesian Forces:  Max     0.001911391 RMS     0.000520585

 GradGradGradGradGradGradGradGradGradGradGradGradGradGradGradGradGradGrad
 Berny optimization.
 Using GEDIIS/GDIIS optimizer.
 FormGI is forming the generalized inverse of G from B-inverse, IUseBI=4.
 Internal  Forces:  Max     0.001505359 RMS     0.000407404
 Search for a local minimum.
 Step number   2 out of a maximum of   89
 All quantities printed in internal units (Hartrees-Bohrs-Radians)
 Mixed Optimization -- En-DIIS/RFO-DIIS
 Update second derivatives using D2CorX and points    1    2
 DE= -1.75D-04 DEPred=-1.84D-04 R= 9.52D-01
 TightC=F SS=  1.41D+00  RLast= 2.79D-02 DXNew= 5.0454D-01 8.3667D-02
 Trust test= 9.52D-01 RLast= 2.79D-02 DXMaxT set to 3.00D-01
 ITU=  1  0
 Use linear search instead of GDIIS.
     Eigenvalues ---    0.01776   0.01813   0.01844   0.02003   0.02053
     Eigenvalues ---    0.02087   0.02136   0.02164   0.02200   0.02234
     Eigenvalues ---    0.02372   0.02394   0.02522   0.02893   0.02994
     Eigenvalues ---    0.15797   0.16000   0.16000   0.16000   0.16000
     Eigenvalues ---    0.16000   0.16415   0.22358   0.22524   0.24560
     Eigenvalues ---    0.24801   0.25000   0.25000   0.25000   0.26974
     Eigenvalues ---    0.35113   0.35306   0.35873   0.39292   0.40879
     Eigenvalues ---    0.42343   0.43100   0.45466   0.47170   0.49365
     Eigenvalues ---    0.52608   0.53408   0.53691   0.53952   0.54401
     Eigenvalues ---    0.56802   0.64826   0.66800
 RFO step:  Lambda=-4.78705669D-05 EMin= 1.77608627D-02
 Quartic linear search produced a step of -0.03571.
 Iteration  1 RMS(Cart)=  0.00644596 RMS(Int)=  0.00001719
 Iteration  2 RMS(Cart)=  0.00002256 RMS(Int)=  0.00000011
 Iteration  3 RMS(Cart)=  0.00000000 RMS(Int)=  0.00000011
 Variable       Old X    -DE/DX   Delta X   Delta X   Delta X     New X
                                 (Linear)    (Quad)   (Total)
    R1        2.69852   0.00025  -0.00003   0.00077   0.00073   2.69925
    R2        2.64844  -0.00052  -0.00016  -0.00033  -0.00050   2.64795
    R3        2.53998   0.00083  -0.00046   0.00351   0.00305   2.54302
    R4        2.68932  -0.00050  -0.00018  -0.00030  -0.00048   2.68884
    R5        2.68834  -0.00001  -0.00012   0.00053   0.00042   2.68876
    R6        2.61292  -0.00039  -0.00015  -0.00012  -0.00027   2.61265
    R7        2.04269   0.00009   0.00016  -0.00047  -0.00032   2.04238
    R8        2.66951  -0.00055  -0.00013  -0.00065  -0.00078   2.66873
    R9        2.55933   0.00074  -0.00039   0.00308   0.00269   2.56202
   R10        2.62148  -0.00021  -0.00020   0.00050   0.00030   2.62177
   R11        2.05060  -0.00005   0.00017  -0.00092  -0.00075   2.04985
   R12        2.04876  -0.00001   0.00017  -0.00081  -0.00064   2.04812
   R13        1.82578   0.00004  -0.00007   0.00038   0.00031   1.82609
   R14        2.48206   0.00016  -0.00029   0.00156   0.00127   2.48333
   R15        2.46738   0.00017  -0.00028   0.00155   0.00127   2.46865
   R16        1.83450   0.00013  -0.00008   0.00061   0.00053   1.83503
   R17        1.83618   0.00019  -0.00008   0.00073   0.00065   1.83683
   R18        1.82992   0.00007  -0.00007   0.00042   0.00036   1.83028
    A1        2.06380   0.00037   0.00001   0.00150   0.00152   2.06531
    A2        2.08185   0.00055   0.00010   0.00156   0.00167   2.08351
    A3        2.13754  -0.00092  -0.00012  -0.00307  -0.00319   2.13436
    A4        2.09308  -0.00026  -0.00008  -0.00049  -0.00057   2.09250
    A5        2.13149   0.00151   0.00018   0.00490   0.00508   2.13657
    A6        2.05861  -0.00125  -0.00010  -0.00441  -0.00451   2.05411
    A7        2.10542  -0.00030   0.00010  -0.00171  -0.00161   2.10381
    A8        2.10280   0.00008  -0.00013   0.00081   0.00069   2.10348
    A9        2.07496   0.00021   0.00003   0.00090   0.00093   2.07589
   A10        2.07724   0.00066  -0.00008   0.00289   0.00281   2.08005
   A11        2.05109  -0.00060   0.00011  -0.00283  -0.00271   2.04838
   A12        2.15485  -0.00006  -0.00003  -0.00006  -0.00009   2.15476
   A13        2.11463  -0.00028   0.00005  -0.00146  -0.00140   2.11323
   A14        2.09102   0.00014   0.00003   0.00050   0.00053   2.09155
   A15        2.07753   0.00014  -0.00008   0.00096   0.00087   2.07841
   A16        2.11220  -0.00019  -0.00000  -0.00073  -0.00074   2.11147
   A17        2.08270   0.00010   0.00005   0.00020   0.00025   2.08295
   A18        2.08828   0.00009  -0.00005   0.00053   0.00049   2.08877
   A19        1.95813  -0.00059  -0.00012  -0.00298  -0.00310   1.95503
   A20        2.05634  -0.00063  -0.00003  -0.00231  -0.00234   2.05400
   A21        2.10281   0.00130   0.00015   0.00432   0.00447   2.10728
   A22        2.12404  -0.00066  -0.00012  -0.00201  -0.00213   2.12191
   A23        2.02326  -0.00055  -0.00000  -0.00331  -0.00331   2.01995
   A24        2.01919  -0.00064  -0.00001  -0.00382  -0.00383   2.01536
   A25        1.94095  -0.00090  -0.00015  -0.00476  -0.00490   1.93605
    D1        0.00001  -0.00000  -0.00000  -0.00001  -0.00001  -0.00000
    D2        3.14159  -0.00000  -0.00000  -0.00000  -0.00000   3.14159
    D3       -3.14158  -0.00000  -0.00000  -0.00000  -0.00000  -3.14158
    D4        0.00000   0.00000  -0.00000   0.00000   0.00000   0.00000
    D5       -0.00000   0.00000   0.00000   0.00000   0.00000   0.00000
    D6        3.14159   0.00000   0.00000   0.00000   0.00000  -3.14159
    D7        3.14158  -0.00000   0.00000  -0.00000  -0.00000   3.14158
    D8       -0.00001  -0.00000   0.00000  -0.00000  -0.00000  -0.00001
    D9        3.14158   0.00000  -0.00000   0.00000   0.00000   3.14159
   D10       -0.00000   0.00000  -0.00000   0.00001   0.00001   0.00000
   D11       -0.00001   0.00000   0.00000   0.00001   0.00001   0.00000
   D12        3.14159   0.00000   0.00000   0.00001   0.00001  -3.14159
   D13       -3.14159   0.00000   0.00000   0.00000   0.00000  -3.14159
   D14        0.00001   0.00000  -0.00000   0.00000   0.00000   0.00001
   D15       -3.14148  -0.00000  -0.00000  -0.00003  -0.00003  -3.14151
   D16        0.00007   0.00000   0.00000   0.00005   0.00005   0.00012
   D17        0.00010  -0.00000  -0.00000  -0.00002  -0.00003   0.00008
   D18       -3.14153   0.00000   0.00000   0.00006   0.00006  -3.14147
   D19        0.00000  -0.00000  -0.00000  -0.00000  -0.00000  -0.00000
   D20       -3.14158  -0.00000  -0.00000  -0.00001  -0.00001  -3.14159
   D21        3.14159  -0.00000   0.00000  -0.00000  -0.00000   3.14159
   D22        0.00000  -0.00000   0.00000  -0.00000  -0.00000  -0.00000
   D23        0.00000  -0.00000  -0.00000  -0.00000  -0.00000   0.00000
   D24       -3.14159   0.00000   0.00000   0.00000   0.00000  -3.14159
   D25        3.14159   0.00000  -0.00000   0.00000   0.00000   3.14159
   D26       -0.00000   0.00000   0.00000   0.00000   0.00000  -0.00000
   D27       -3.14158  -0.00000   0.00000  -0.00000  -0.00000  -3.14158
   D28        0.00002  -0.00000   0.00000  -0.00000  -0.00000   0.00002
   D29       -0.00000   0.00000   0.00000   0.00000   0.00000  -0.00000
   D30        3.14159   0.00000   0.00000   0.00000   0.00000   3.14159
   D31        3.14159  -0.00000  -0.00000  -0.00000  -0.00000   3.14159
   D32       -0.00000  -0.00000  -0.00000  -0.00000  -0.00000  -0.00000
   D33       -3.14152   0.00000   0.00000   0.00005   0.00006  -3.14147
   D34        0.00011  -0.00000  -0.00000  -0.00003  -0.00003   0.00008
   D35       -3.14148  -0.00000  -0.00000  -0.00004  -0.00005  -3.14152
   D36        0.00007   0.00000   0.00000   0.00004   0.00004   0.00011
         Item               Value     Threshold  Converged?
 Maximum Force            0.001505     0.000450     NO 
 RMS     Force            0.000407     0.000300     NO 
 Maximum Displacement     0.031443     0.001800     NO 
 RMS     Displacement     0.006452     0.001200     NO 
 Predicted change in Energy=-2.418089D-05
 GradGradGradGradGradGradGradGradGradGradGradGradGradGradGradGradGradGrad

                          Input orientation:                          
 ---------------------------------------------------------------------
 Center     Atomic      Atomic             Coordinates (Angstroms)
 Number     Number       Type             X           Y           Z
 ---------------------------------------------------------------------
      1          6           0       -0.217126    1.277698    0.000011
      2          6           0       -0.424656   -0.135527    0.000006
      3          6           0        0.692816   -1.016336   -0.000010
      4          6           0        1.981678   -0.516038   -0.000020
      5          6           0        2.177326    0.882575   -0.000018
      6          6           0        1.099772    1.756480   -0.000001
      7          8           0        2.998311   -1.413008   -0.000039
      8          6           0       -1.723842   -0.715663    0.000025
      9          8           0       -1.806882   -2.027161    0.000115
     10          8           0       -2.791330    0.037348   -0.000094
     11          8           0       -1.281442    2.101207    0.000039
     12          1           0        0.547540   -2.087308   -0.000019
     13          1           0        3.183965    1.286704   -0.000029
     14          1           0        1.276127    2.825856    0.000003
     15          1           0        3.862630   -0.980878   -0.000032
     16          1           0       -2.706516   -2.392679    0.000014
     17          1           0       -3.638749   -0.438764   -0.000010
     18          1           0       -1.001447    3.028394    0.000045
 ---------------------------------------------------------------------
                    Distance matrix (angstroms):
                    1          2          3          4          5
     1  C    0.000000
     2  C    1.428382   0.000000
     3  C    2.467911   1.422873   0.000000
     4  C    2.837644   2.436233   1.382557   0.000000
     5  C    2.426833   2.794073   2.410318   1.412232   0.000000
     6  C    1.401232   2.429727   2.802520   2.437642   1.387383
     7  O    4.192724   3.653582   2.339371   1.355765   2.437975
     8  C    2.498736   1.422828   2.435290   3.710892   4.215860
     9  O    3.667345   2.342824   2.696341   4.078808   4.933607
    10  O    2.857446   2.372979   3.639989   4.804981   5.040035
    11  O    1.345710   2.395216   3.690090   4.183052   3.667170
    12  H    3.450794   2.180507   1.080780   2.127355   3.387685
    13  H    3.401103   3.878775   3.392612   2.166882   1.084732
    14  H    2.150952   3.415034   3.886218   3.415562   2.142079
    15  H    4.663215   4.369834   3.170013   1.937540   2.512511
    16  H    4.434944   3.209613   3.667394   5.049845   5.880408
    17  H    3.828021   3.228365   4.369901   5.620957   5.964282
    18  H    1.918358   3.216067   4.385244   4.632714   3.835249
                    6          7          8          9         10
     6  C    0.000000
     7  O    3.694605   0.000000
     8  C    3.752904   4.773365   0.000000
     9  O    4.771224   4.844281   1.314124   0.000000
    10  O    4.253950   5.968540   1.306353   2.287211   0.000000
    11  O    2.406038   5.537688   2.851399   4.161671   2.557201
    12  H    3.883254   2.541841   2.653409   2.355190   3.957552
    13  H    2.136481   2.706088   5.300570   5.990848   6.104510
    14  H    1.083821   4.575357   4.641354   5.749497   4.931529
    15  H    3.889282   0.966326   5.592764   5.765247   6.731417
    16  H    5.630573   5.788333   1.943716   0.971054   2.431507
    17  H    5.222325   6.708182   1.934824   2.424611   0.972009
    18  H    2.456194   5.976966   3.813111   5.119312   3.485690
                   11         12         13         14         15
    11  O    0.000000
    12  H    4.570430   0.000000
    13  H    4.539083   4.281903   0.000000
    14  H    2.658246   4.966892   2.451293   0.000000
    15  H    5.996727   3.494855   2.366963   4.602307   0.000000
    16  H    4.714429   3.268353   6.945187   6.564644   6.719142
    17  H    3.465306   4.499190   7.037518   5.900317   7.520943
    18  H    0.968542   5.345069   4.533339   2.286562   6.303453
                   16         17         18
    16  H    0.000000
    17  H    2.164911   0.000000
    18  H    5.682894   4.356207   0.000000
 Stoichiometry    C7H7O4(1+)
 Framework group  C1[X(C7H7O4)]
 Deg. of freedom    48
 Full point group                 C1      NOp   1
 Largest Abelian subgroup         C1      NOp   1
 Largest concise Abelian subgroup C1      NOp   1
                         Standard orientation:                         
 ---------------------------------------------------------------------
 Center     Atomic      Atomic             Coordinates (Angstroms)
 Number     Number       Type             X           Y           Z
 ---------------------------------------------------------------------
      1          6           0        0.219724    1.276890   -0.000009
      2          6           0        0.424223   -0.136777   -0.000005
      3          6           0       -0.695135   -1.015188    0.000011
      4          6           0       -1.982921   -0.512128    0.000021
      5          6           0       -2.175570    0.886902    0.000019
      6          6           0       -1.096145    1.758494    0.000003
      7          8           0       -3.001475   -1.406916    0.000040
      8          6           0        1.722162   -0.719698   -0.000024
      9          8           0        1.802390   -2.031370   -0.000113
     10          8           0        2.791262    0.031023    0.000095
     11          8           0        1.285803    2.098114   -0.000037
     12          1           0       -0.552156   -2.086468    0.000020
     13          1           0       -3.181340    1.293189    0.000030
     14          1           0       -1.270206    2.828247   -0.000002
     15          1           0       -3.864866   -0.972933    0.000033
     16          1           0        2.701238   -2.398817   -0.000013
     17          1           0        3.637658   -0.446905    0.000011
     18          1           0        1.007797    3.025900   -0.000044
 ---------------------------------------------------------------------
 Rotational constants (GHZ):      1.7655735      0.9044718      0.5980840
 Standard basis: 6-31+G(d,p) (6D, 7F)
 There are   244 symmetry adapted cartesian basis functions of A   symmetry.
 There are   244 symmetry adapted basis functions of A   symmetry.
   244 basis functions,   401 primitive gaussians,   244 cartesian basis functions
    40 alpha electrons       40 beta electrons
       nuclear repulsion energy       605.8023809819 Hartrees.
 NAtoms=   18 NActive=   18 NUniq=   18 SFac= 1.00D+00 NAtFMM=   60 NAOKFM=F Big=F
 Integral buffers will be    131072 words long.
 Regular integral format.
 Two-electron integral symmetry is turned on.
 Nuclear repulsion after empirical dispersion term =      605.7947568997 Hartrees.
 One-electron integrals computed using PRISM.
 NBasis=   244 RedAO= T EigKep=  3.29D-06  NBF=   244
 NBsUse=   244 1.00D-06 EigRej= -1.00D+00 NBFU=   244
 Initial guess from the checkpoint file:  "B2PLYPD3DHByang.chk"
 B after Tr=     0.000000   -0.000000    0.000000
         Rot=    1.000000   -0.000000   -0.000001   -0.000858 Ang=  -0.10 deg.
 ExpMin= 4.38D-02 ExpMax= 5.48D+03 ExpMxC= 8.25D+02 IAcc=2 IRadAn=         4 AccDes= 0.00D+00
 Harris functional with IExCor=  419 and IRadAn=       4 diagonalized for initial guess.
 HarFok:  IExCor=  419 AccDes= 0.00D+00 IRadAn=         4 IDoV= 1 UseB2=F ITyADJ=14
 ICtDFT=  3500011 ScaDFX=  1.000000  1.000000  1.000000  1.000000
 FoFCou: FMM=F IPFlag=           0 FMFlag=      100000 FMFlg1=           0
         NFxFlg=           0 DoJE=T BraDBF=F KetDBF=T FulRan=T
         wScrn=  0.000000 ICntrl=     500 IOpCl=  0 I1Cent=   200000004 NGrid=           0
         NMat0=    1 NMatS0=      1 NMatT0=    0 NMatD0=    1 NMtDS0=    0 NMtDT0=    0
 Petite list used in FoFCou.
 Keep R1 ints in memory in canonical form, NReq=454277305.
 Requested convergence on RMS density matrix=1.00D-08 within 128 cycles.
 Requested convergence on MAX density matrix=1.00D-06.
 Requested convergence on             energy=1.00D-06.
 No special actions if energy rises.
 SCF Done:  E(RB2PLYP) =  -570.552602424     A.U. after   11 cycles
            NFock= 11  Conv=0.54D-08     -V/T= 2.0068
 DoSCS=T DFT=T ScalE2(SS,OS)=  0.270000  0.270000
 ExpMin= 4.38D-02 ExpMax= 5.48D+03 ExpMxC= 8.25D+02 IAcc=3 IRadAn=         5 AccDes= 0.00D+00
 HarFok:  IExCor=  205 AccDes= 0.00D+00 IRadAn=         5 IDoV=-2 UseB2=F ITyADJ=14
 ICtDFT= 12500011 ScaDFX=  1.000000  1.000000  1.000000  1.000000
 Range of M.O.s used for correlation:    12   244
 NBasis=   244 NAE=    40 NBE=    40 NFC=    11 NFV=     0
 NROrb=    233 NOA=    29 NOB=    29 NVA=   204 NVB=   204

 **** Warning!!: The largest alpha MO coefficient is  0.15715439D+03

 DoSCS=T DFT=T ScalE2(SS,OS)=  0.270000  0.270000
 Fully direct method using O(ONN) memory.
 JobTyp=1 Pass  1:  I=  12 to  17 NPSUse= 18 ParTrn=T ParDer=T DoDerP=T.
 JobTyp=1 Pass  2:  I=  18 to  23 NPSUse= 18 ParTrn=T ParDer=T DoDerP=T.
 JobTyp=1 Pass  3:  I=  24 to  29 NPSUse= 18 ParTrn=T ParDer=T DoDerP=T.
 JobTyp=1 Pass  4:  I=  30 to  35 NPSUse= 18 ParTrn=T ParDer=T DoDerP=T.
 JobTyp=1 Pass  5:  I=  36 to  40 NPSUse= 18 ParTrn=T ParDer=T DoDerP=T.
 Spin components of T(2) and E(2):
     alpha-alpha T2 =       0.1172654610D+00 E2=     -0.7480054572D-01
     alpha-beta  T2 =       0.6017962042D+00 E2=     -0.3955577594D+00
     beta-beta   T2 =       0.1172654610D+00 E2=     -0.7480054572D-01
 E2(B2PLYP) =    -0.5451588509D+00 E(B2PLYP) =    -0.57109776127482D+03
          IDoAtm=111111111111111111
          Differentiating once with respect to electric field.
                with respect to dipole field.
          Differentiating once with respect to nuclear coordinates.
 Keep R1 ints in memory in canonical form, NReq=454076225.
          There are     1 degrees of freedom in the 1st order CPHF.  IDoFFX=0 NUNeed=     1.
 LinEq1:  Iter=  0 NonCon=     1 RMS=2.03D-03 Max=6.91D-02 NDo=     1
 AX will form     1 AO Fock derivatives at one time.
 LinEq1:  Iter=  1 NonCon=     1 RMS=8.13D-04 Max=1.04D-02 NDo=     1
 LinEq1:  Iter=  2 NonCon=     1 RMS=2.91D-04 Max=9.21D-03 NDo=     1
 LinEq1:  Iter=  3 NonCon=     1 RMS=1.57D-04 Max=3.37D-03 NDo=     1
 LinEq1:  Iter=  4 NonCon=     1 RMS=5.95D-05 Max=1.53D-03 NDo=     1
 LinEq1:  Iter=  5 NonCon=     1 RMS=3.34D-05 Max=1.04D-03 NDo=     1
 LinEq1:  Iter=  6 NonCon=     1 RMS=1.57D-05 Max=4.98D-04 NDo=     1
 LinEq1:  Iter=  7 NonCon=     1 RMS=7.97D-06 Max=1.90D-04 NDo=     1
 LinEq1:  Iter=  8 NonCon=     1 RMS=3.30D-06 Max=9.07D-05 NDo=     1
 LinEq1:  Iter=  9 NonCon=     1 RMS=1.32D-06 Max=4.02D-05 NDo=     1
 LinEq1:  Iter= 10 NonCon=     1 RMS=5.93D-07 Max=2.34D-05 NDo=     1
 LinEq1:  Iter= 11 NonCon=     1 RMS=2.71D-07 Max=1.10D-05 NDo=     1
 LinEq1:  Iter= 12 NonCon=     1 RMS=1.50D-07 Max=5.55D-06 NDo=     1
 LinEq1:  Iter= 13 NonCon=     1 RMS=5.11D-08 Max=1.37D-06 NDo=     1
 LinEq1:  Iter= 14 NonCon=     1 RMS=3.11D-08 Max=1.09D-06 NDo=     1
 LinEq1:  Iter= 15 NonCon=     1 RMS=1.14D-08 Max=3.70D-07 NDo=     1
 LinEq1:  Iter= 16 NonCon=     1 RMS=6.15D-09 Max=1.41D-07 NDo=     1
 LinEq1:  Iter= 17 NonCon=     1 RMS=1.44D-09 Max=4.15D-08 NDo=     1
 LinEq1:  Iter= 18 NonCon=     1 RMS=5.41D-10 Max=8.64D-09 NDo=     1
 LinEq1:  Iter= 19 NonCon=     1 RMS=2.50D-10 Max=5.63D-09 NDo=     1
 LinEq1:  Iter= 20 NonCon=     1 RMS=7.11D-11 Max=1.68D-09 NDo=     1
 LinEq1:  Iter= 21 NonCon=     0 RMS=3.25D-11 Max=3.87D-10 NDo=     1
 Linear equations converged to 1.000D-10 1.000D-09 after    21 iterations.
 End of Minotr F.D. properties file   721 does not exist.
 End of Minotr F.D. properties file   722 does not exist.
 End of Minotr F.D. properties file   788 does not exist.
 Calling FoFJK, ICntrl=  10002127 FMM=F ISym2X=0 I1Cent= 0 IOpClX= 0 NMat=1 NMatS=1 NMatT=0.
 ***** Axes restored to original set *****
[...]
 8634096753,-0.9782471963,-0.000030091\H,-2.7108191631,-2.3888945703,0.
 0000381106\H,-3.63669527,-0.4328931683,-0.0000017882\H,-1.0045372624,3
 .0232962452,0.000048208\\Version=ES64L-G09RevE.01\State=1-A\HF=-570.55
 26209\MP2=-571.097767\RMSD=1.921e-09\RMSF=7.367e-05\ZeroPoint=0.135107
 9\Thermal=0.1445521\Dipole=-1.5515182,0.1307662,0.0000217\DipoleDeriv=
 0.9576986,-1.0745189,-0.0000262,0.067511,0.8335212,0.0000164,-0.000029
 7,0.0000281,0.1503448,-1.2459905,-0.8728847,-0.0000006,-0.5058637,-0.4
 41659,0.0000032,-0.0000017,-0.0000065,-0.0547237,0.2130834,0.7317061,0
 .0000048,-0.2625882,-0.0503691,0.0000031,0.000006,0.0000015,-0.1115908
 ,0.9697927,-1.1686202,-0.0000159,-1.1902023,-0.0097606,0.0000068,-0.00
 00095,0.0000144,0.1338789,0.1182011,-0.1616568,-0.0000041,0.3761607,0.
 4329635,0.0000012,0.0000018,0.0000054,-0.0532174,-0.4278273,0.6606005,
 0.0000123,-0.0015917,0.0789178,0.0000013,0.,-0.0000018,-0.1263275,-1.2
 234979,0.6323478,0.0000127,0.8073595,-0.503377,-0.0000046,0.0000182,-0
 .0000087,-0.3702832,2.7923661,0.7821771,0.0000431,0.5880876,1.9238477,
 -0.0001198,0.0000513,-0.0001245,0.3828377,-0.5848539,-0.3662238,0.0000
 417,-0.8034729,-1.5143921,0.0000721,0.0001186,0.0001345,-0.2882972,-1.
 7031765,-0.0332612,-0.0000701,0.5186281,-0.2498859,0.00001,-0.0001808,
 -0.0000147,-0.2690703,-0.673321,0.9135308,0.0000191,0.4510843,-1.06514
 32,-0.0000159,0.0000375,-0.000042,-0.3228182,0.0942368,-0.0132609,-0.0
 000003,0.0091418,0.0958262,-0.0000016,-0.0000074,-0.000002,0.1521779,0
 .0038096,-0.0078831,0.0000011,0.0077236,0.1034881,-0.0000003,-0.000000
 6,0.0000006,0.1394695,0.0764301,0.0400342,0.0000013,0.0160058,-0.00658
 64,-0.000002,0.0000029,-0.0000048,0.1572637,0.441157,-0.0824642,-0.000
 0018,-0.1121287,0.2015879,-0.0000023,-0.0000043,-0.0000019,0.3605139,0
 .3490648,0.1547996,-0.000023,0.1778424,0.4801376,0.0000079,-0.0000613,
 -0.0000259,0.3832749,0.577484,-0.0091816,0.0000063,-0.0429624,0.244616
 3,0.0000229,0.000064,0.0000382,0.3807807,0.2653431,-0.1252408,-0.00000
 05,-0.1007349,0.4462671,0.0000016,-0.0000048,0.00001,0.3557863\Polar=1
 39.136893,9.2972265,114.1225398,-0.000325,-0.0002551,47.126877\PG=C01 
 [X(C7H7O4)]\NImag=1\\0.70180806,-0.01988016,0.69806808,-0.00000706,0.0
 0000874,0.13257114,-0.13677491,-0.03423922,-0.00000103,0.67766401,-0.0
 1556516,-0.27222191,-0.00000332,0.00200264,0.68899264,-0.00000022,-0.0
 0000244,-0.04142006,-0.00000264,-0.00000088,0.09901858,0.05060014,0.04
 051535,-0.00000018,-0.21268460,0.08603112,0.00000187,0.71874025,0.0194
 1073,-0.03370400,-0.00000028,0.10651667,-0.19755838,-0.00000084,0.0334
 9760,0.74512142,-0.00000026,-0.00000012,-0.01058935,0.00000312,-0.0000
 0050,-0.02728014,-0.00000362,0.00000642,0.09520667,-0.03629962,-0.0254
 2470,0.00000022,-0.04928015,0.01925346,0.00000018,-0.32533572,-0.11849
 718,0.00000061,0.75194618,-0.03824759,-0.03061212,-0.00000015,-0.01028
 459,0.03361124,-0.00000014,-0.06447384,-0.16344578,-0.00000063,0.00337
 340,0.68453449,0.00000011,-0.00000060,0.00949995,0.00000004,0.00000067
 ,-0.01323994,0.00000137,-0.00000084,-0.04148274,-0.00000394,0.00000484
 ,0.11474065,-0.05462875,0.00617661,0.00000056,-0.00974137,0.00897466,0
 .,0.01600433,-0.03325446,-0.00000041,-0.13983797,-0.06949736,0.0000004
 8,0.75935146,0.04870873,0.05091794,0.00000030,0.01592132,-0.02829239,0
 .,-0.06174224,-0.01301809,-0.00000003,0.00033969,-0.29480106,-0.000001
 33,-0.00283559,0.67740042,0.00000090,0.00000070,-0.01416204,0.00000020
 ,-0.00000029,0.00990086,-0.00000086,0.00000023,-0.01034202,0.00000097,
 -0.00000037,-0.04224914,-0.00000592,0.00000332,0.10961898,-0.27184106,
 -0.04777181,0.00000183,0.00667762,-0.04734581,-0.00000009,-0.04967009,
 0.00641413,0.00000023,0.05261989,0.05771363,-0.00000018,-0.27619192,0.
 09156385,0.00000259,0.68531979,-0.10913959,-0.16452643,-0.00000051,-0.
 02435867,-0.00739528,0.00000029,-0.00002690,-0.00230294,-0.00000021,0.
 02352573,-0.03322846,-0.00000033,0.15114210,-0.22872149,-0.00000277,-0
 .01748702,0.76300011,0.00000084,-0.00000113,-0.04781109,-0.00000031,0.
 00000074,-0.00583894,0.00000051,-0.00000025,0.01183850,-0.00000033,-0.
 00000051,-0.01203863,0.00000326,-0.00000245,-0.03425956,-0.00000571,0.
 00000662,0.09656297,0.00532244,-0.00033092,-0.00000031,-0.00072977,-0.
 00664828,0.00000006,-0.05953008,0.03344126,0.00000076,-0.23579763,0.14
 023509,0.00000284,0.00080089,0.00553509,0.00000010,-0.00462249,-0.0016
 0096,0.00000014,0.70950342,0.00273028,0.00384259,0.00000023,0.00095686
 ,-0.00325639,0.00000009,-0.00423309,0.01757285,-0.00000004,0.08646098,
 -0.20170015,-0.00000280,0.04431122,-0.03807417,-0.00000085,-0.00924565
 ,-0.00322774,-0.00000007,0.04924690,0.37637753,-0.00000012,0.00000008,
 -0.00180650,-0.00000010,-0.00000012,0.00515666,0.00000048,0.00000004,0
 .00605880,0.00000166,-0.00000307,-0.03335185,0.00000026,-0.00000019,0.
 00425333,0.00000020,-0.00000003,0.00692133,0.00000062,0.00000607,0.019
 50203,0.01767768,-0.04650005,0.00000070,-0.23841525,-0.06316331,0.0000
 0082,-0.05614494,0.00299294,-0.00000033,0.00451995,0.02298617,-0.00000
 022,0.00448326,-0.00716448,0.,-0.00080526,-0.00291497,-0.00000011,0.00
 380344,-0.00661532,-0.00000005,0.79451557,-0.03356799,-0.01908252,0.00
 000026,-0.06498948,-0.13475345,0.00000136,0.00453577,0.02250302,-0.000
 00112,0.00676795,0.00666935,-0.00000004,0.00263065,-0.00642768,-0.0000
 0013,-0.00063246,-0.00887730,-0.00000016,0.00468013,-0.00365863,0.0000
 0002,-0.00362780,0.75535745,0.00000154,0.00000061,-0.00642402,0.000001
 24,0.00000112,-0.06388857,-0.00000003,-0.00000041,-0.00678644,0.000000
 39,0.00000072,0.00670751,0.00000030,-0.00000083,-0.00153452,-0.0000008
 9,-0.00000019,0.00671596,0.00000004,-0.00000016,0.00051917,0.00001883,
 -0.00004874,0.18822448,-0.00830723,0.00816527,0.00000032,-0.00681476,-
 0.04806874,0.00000465,-0.00292408,-0.00395896,0.00000038,0.00204727,-0
 .00198039,-0.00000038,-0.00025583,-0.00100096,-0.00000009,-0.00123325,
 -0.00203269,-0.00000020,-0.00118373,0.00085645,0.00000004,-0.13549103,
 -0.05921436,-0.00000166,0.59289663,-0.00252856,0.01759871,0.00000003,-
 0.03670266,-0.04623534,0.00000266,0.00969739,-0.00626319,0.00000099,-0
 .00090307,-0.00835580,-0.00000008,-0.00045492,0.00226515,-0.00000009,-
 0.00216461,0.00134967,0.00000011,-0.00296602,0.00352126,0.00000003,0.0
 1028636,-0.38467421,0.00003380,0.18336260,0.57431102,-0.00000064,-0.00
 000249,0.00341636,0.00000353,0.00000296,0.00925636,-0.00000047,0.00000
 090,0.00237587,-0.00000049,0.00000044,-0.00200877,-0.00000008,0.000000
 45,0.00022169,0.00000091,-0.00000031,-0.00100673,0.00000031,-0.0000001
 6,0.00009109,-0.00000771,0.00002517,-0.05467836,0.00005061,-0.00002912
 ,0.02384174,-0.01193254,0.01919104,-0.00000037,-0.06431130,0.01525956,
 -0.00000370,0.00704966,-0.00951671,0.00000015,-0.00427990,-0.01092609,
 0.00000036,-0.00247314,0.00730085,0.00000006,0.00421026,0.00190916,0.0
 0000015,-0.00357804,0.00353815,0.00000003,-0.32576516,0.16456366,-0.00
 002325,0.00421486,0.02013012,-0.00000344,0.76296296,0.00427192,-0.0084
 4366,-0.00000003,0.00709737,0.02299292,-0.00000157,-0.00723744,-0.0018
 4340,-0.00000013,0.00187436,0.00618940,0.00000008,0.00091373,-0.003265
 78,-0.00000004,-0.00224919,-0.00065238,-0.00000018,0.00027678,-0.00146
 564,0.,0.09338711,-0.21658603,0.00002286,0.05193954,-0.05435926,0.0000
 0966,0.03406692,0.41287776,-0.00000162,0.00000130,0.00052591,-0.000002
 51,-0.00000196,0.00701286,0.00000162,-0.00000036,0.00312895,-0.0000002
 5,-0.00000149,0.00010531,-0.00000013,0.00000074,0.00029331,0.,0.000000
 25,-0.00057701,-0.00000026,0.00000045,-0.00021323,-0.00001210,0.000020
 43,-0.05467783,-0.00000538,0.00000954,0.02624550,-0.00001906,-0.000060
 61,0.02522084,-0.25553955,0.08637395,0.00000465,0.02656736,0.01182018,
 0.00000005,-0.01756968,-0.00148559,-0.00000012,0.01399253,0.01000771,-
 0.00000013,0.00317052,-0.01684892,-0.00000012,-0.05959024,0.03697359,0
 .00000171,-0.00598585,0.00211667,0.00000016,-0.02298612,-0.00453902,-0
 .00000057,0.00289061,0.00436768,-0.00000029,0.00929252,-0.01128027,0.0
 0000014,0.39272033,0.13863786,-0.20083283,-0.00000470,0.02574869,-0.04
 212151,-0.00000135,0.00308334,-0.00433233,0.00000011,-0.00790075,-0.00
 250428,0.00000021,-0.00511931,0.00187193,-0.00000009,0.00749079,0.0099
 1487,-0.00000001,0.00585494,-0.00237274,-0.00000016,0.02085860,0.00573
 845,-0.00000021,-0.00227491,-0.00721620,0.00000090,-0.01644406,-0.0026
 6238,-0.00000094,-0.00295176,0.70541107,0.00000565,-0.00000390,-0.0375
 6545,-0.00000021,-0.00000086,0.00243543,0.00000030,0.00000015,0.003077
 19,-0.00000044,-0.00000006,-0.00142139,-0.00000016,0.00000016,0.008086
 28,0.00000112,-0.00000047,0.01085546,0.00000026,-0.00000013,-0.0002418
 0,0.00000068,0.00000026,-0.00302245,-0.00000004,-0.00000075,0.00015163
 ,-0.00000091,-0.00000015,0.00284888,-0.00000538,0.00001140,0.02439745,
 -0.00446680,0.00125205,0.,0.00657578,0.02434817,0.00000006,-0.06439559
 ,-0.04183480,-0.00000049,0.00200692,-0.03090430,-0.00000027,-0.0060647
 8,-0.00119588,0.00000009,-0.00059868,0.00066575,0.00000004,0.00181290,
 0.00046413,-0.00000002,0.00180958,0.00368219,-0.00000018,-0.00499165,-
 0.00172209,0.00000087,0.00031580,-0.00043645,0.00000003,0.00045600,0.0
 0167729,0.00000002,0.06734691,0.00341765,0.00176910,-0.00000014,-0.002
 79759,-0.01153538,0.00000001,-0.04168879,-0.35389379,-0.00000416,0.001
 10037,-0.00529390,-0.00000003,-0.00113614,-0.00065642,-0.00000006,-0.0
 0125788,0.00060169,0.00000003,0.00103302,0.00008100,0.,-0.00040797,-0.
 00198109,0.00000007,-0.00284357,0.00045282,0.00000005,0.00009416,0.000
 06985,0.,-0.00078050,-0.00045926,0.00000003,0.04537059,0.37043121,0.00
 000012,0.00000004,0.00443906,-0.00000039,-0.00000040,-0.00081985,-0.00
 000059,-0.00000405,-0.03201699,0.00000038,0.00000013,0.00681218,0.0000
 0012,-0.00000015,0.00695186,-0.00000013,-0.00000003,-0.00107675,-0.000
 00011,0.00000004,-0.00342273,-0.00000008,0.00000013,-0.00242550,0.0000
 0097,-0.00000006,0.00094289,-0.00000017,0.,-0.00007869,-0.00000002,0.,
 0.00077164,0.00000006,0.00000415,0.02195560,-0.00117088,0.00344772,0.0
 0000017,0.00054485,0.00041758,-0.00000002,0.00117088,-0.00021699,0.000
 00003,-0.00139976,0.00264005,0.00000006,-0.30759621,-0.10040744,0.0000
 0190,-0.01685327,-0.01048080,0.00000011,0.00254620,-0.00003629,-0.0000
 0004,-0.00016399,-0.00001520,0.,-0.00002257,-0.00000287,0.,0.00005020,
 -0.00003391,0.00000002,-0.00121340,-0.00032953,-0.00000003,0.00003053,
 0.00008862,0.,0.32297332,0.00385619,-0.00263244,-0.00000014,0.00156786
 ,-0.00050721,0.00000007,-0.00050574,-0.00639503,-0.00000010,-0.0294425
 2,-0.00456933,0.00000021,-0.10168893,-0.10319152,0.00000059,0.02008911
 ,0.01151054,-0.00000014,-0.00040350,0.00281823,0.00000002,-0.00056874,
 -0.00059101,-0.00000004,-0.00005116,0.00035760,-0.00000001,0.00028990,
 -0.00011472,0.00000002,0.00107684,0.00054706,0.00000003,-0.00152238,-0
 .00018831,0.,0.10617963,0.10354871,0.00000012,-0.00000006,0.00921940,-
 0.00000006,-0.00000009,-0.00085964,0.00000006,0.,0.00571388,-0.0000000
 8,-0.00000014,0.00487108,0.00000191,0.00000052,-0.03753892,0.00000028,
 0.00000010,0.00366067,-0.00000005,0.00000007,-0.00244797,0.00000004,0.
 00000005,-0.00078056,0.00000010,0.,0.00031876,-0.00000004,0.00000003,-
 0.00009567,-0.00000004,0.,-0.00102086,-0.00000003,-0.00000002,-0.00130
 533,-0.00000213,-0.00000055,0.02366380,-0.00197223,-0.03009514,-0.0000
 0031,-0.00471592,-0.00038476,0.00000006,-0.00124645,0.00060042,0.,-0.0
 0390992,0.00237596,0.00000012,0.00792029,0.02657164,0.00000019,-0.0675
 2589,-0.04853104,-0.00000010,0.00004979,0.00159203,0.,0.00032040,-0.00
 144089,-0.00000003,-0.00059804,-0.00024080,-0.00000003,0.00009289,-0.0
 0004115,0.00000004,0.00292503,-0.00074711,-0.00000008,0.00011072,-0.00
 005596,0.,0.00081854,0.00007854,-0.00000004,0.06897507,0.00316045,-0.0
 0766539,-0.00000015,-0.00163837,0.00078351,-0.00000003,0.00006774,0.00
 056388,0.00000001,0.00310610,0.00092869,-0.00000010,-0.00459598,-0.014
 44768,-0.00000010,-0.04842258,-0.34171902,-0.00000269,-0.00006784,-0.0
 0098954,0.,0.00068737,-0.00024775,0.00000001,-0.00021613,-0.00011844,0
 .,-0.00025942,0.00012637,-0.00000003,0.00046127,0.00292139,0.00000007,
 -0.00002220,-0.00003926,0.,-0.00006991,0.00081378,0.00000005,0.0496254
 2,0.35881989,-0.00000017,0.00000006,0.00198951,0.00000008,-0.00000009,
 0.00535275,0.00000008,0.00000002,-0.00167240,0.00000002,-0.00000016,0.
 00811308,-0.00000023,-0.00000018,0.00132752,0.00000020,-0.00000267,-0.
 03083807,0.00000001,0.,-0.00004473,0.00000001,0.00000003,0.00066087,0.
 ,0.,-0.00017792,-0.00000001,0.,-0.00003581,-0.00000004,0.00000006,-0.0
 0354179,0.,0.,-0.00021425,-0.00000006,0.00000003,-0.00408630,0.0000001
 0,0.00000292,0.02253185,-0.00026005,0.00018330,0.00000005,0.00014107,-
 0.00058392,0.00000001,-0.00126444,0.00491171,0.00000010,-0.03169942,-0
 .01639719,-0.00000027,0.00471574,-0.00296772,-0.00000005,-0.00049749,-
 0.00049032,0.00000002,-0.41306213,-0.17082759,-0.00000314,-0.00166111,
 -0.00056744,-0.00000003,0.00027558,0.00076193,-0.00000009,0.00080900,-
 0.00033349,0.00000010,0.00077909,-0.00063166,-0.00000004,0.00027581,0.
 00008280,0.,0.00020461,0.00122618,0.,0.00026604,-0.00021089,0.,0.44136
 290,-0.00016372,0.00047598,0.00000003,-0.00041129,0.00066827,-0.000000
 08,0.00502563,-0.00338520,-0.00000003,0.03387026,0.00907239,0.00000022
 ,0.00353508,0.00198701,0.,-0.00022497,-0.00037096,0.,-0.22784279,-0.14
 926367,-0.00000269,0.00099153,0.00016086,0.,-0.00015262,-0.00040247,0.
 00000002,-0.00025699,0.00016083,-0.00000005,0.00020058,-0.00044252,0.,
 0.00033691,0.00013978,0.00000003,-0.00094317,-0.00156480,0.,-0.0000439
 9,0.00003011,0.,0.18580880,0.14265702,0.,0.00000003,0.00015315,0.00000
 006,-0.00000008,0.00231193,0.00000003,-0.00000012,0.00113079,0.0000008
 7,0.00000020,-0.00516562,0.00000002,0.00000002,0.00011427,-0.00000002,
 0.,-0.00069111,-0.00000436,-0.00000263,-0.00067883,0.00000006,0.,0.000
 32010,0.,-0.00000002,-0.00000378,-0.00000004,0.00000003,-0.00016197,0.
 ,0.,-0.00010275,0.,0.00000002,-0.00084772,0.,0.,0.00042663,0.,0.,0.000
 00822,0.00000336,0.00000255,0.00313826,0.00027849,-0.00192724,0.000000
 03,0.00510940,0.00311645,-0.00000096,-0.00130745,0.00070571,0.00000002
 ,0.00022437,0.00099355,0.00000011,0.00014832,-0.00037897,-0.00000002,0
 .00015731,-0.00038388,0.00000003,0.00034010,-0.00037924,0.,-0.00262126
 ,0.00215634,0.00000091,-0.44726184,-0.17652366,-0.00004327,0.00016404,
 0.00532949,-0.00000064,-0.00079083,0.00098670,0.00000014,0.00017828,-0
 .00043740,-0.00000017,0.00000070,-0.00005477,-0.00000001,-0.00001230,0
 .00002902,-0.00000001,-0.00011239,0.00005426,0.,0.44443252,-0.00136007
 ,-0.00080543,0.00000028,0.00511862,-0.00402678,0.00000127,0.00054191,0
 .00043344,-0.00000050,-0.00031244,0.00148234,0.,0.00035746,-0.00047548
 ,0.,0.00004619,-0.00060982,-0.00000009,0.00063830,-0.00056966,0.,-0.05
 124058,-0.02438993,-0.00000446,-0.12350800,-0.09318147,-0.00000866,0.0
 0125296,0.00496812,0.00000016,-0.00027166,0.00088961,0.00000005,-0.000
 45346,0.00060445,0.00000014,0.00001168,0.00001547,0.00000001,-0.000107
 12,-0.00000533,-0.00000001,-0.00014174,0.00005884,0.,0.16544372,0.1189
 8920,0.00000037,0.00000096,0.00229691,-0.00000176,0.00000081,0.0044700
 4,0.00000031,-0.00000033,-0.00160331,0.00000009,-0.00000025,0.00066238
 ,-0.00000003,-0.00000010,-0.00000394,-0.00000030,0.00000030,-0.0005800
 0,-0.00000007,0.00000006,-0.00006028,0.00000709,0.00000444,-0.00468680
 ,-0.00004931,-0.00001738,-0.00362768,-0.00000028,-0.00000008,-0.004293
 59,0.00000031,-0.00000043,0.00012172,-0.00000026,0.00000005,-0.0003043
 6,0.,0.00000001,-0.00003528,0.00000005,0.,-0.00008331,0.00000003,0.,0.
 00004986,0.00004363,0.00001224,0.00520694,0.00124073,-0.00251675,0.000
 00020,0.00450331,0.00721513,-0.00000025,-0.00208331,-0.00051992,-0.000
 00016,0.00020212,0.00233665,-0.00000009,0.00039740,-0.00087789,0.00000
 005,-0.00028879,-0.00024933,-0.00000005,0.00045852,-0.00073336,0.,-0.0
 4137999,-0.02119624,0.00000349,0.00656094,-0.00431894,0.00000017,-0.37
 594579,-0.17606024,0.00004011,-0.00147208,0.00098315,0.00000002,-0.000
 11132,0.00006701,0.00000002,0.00000043,-0.00004711,0.,0.00001535,0.000
 02208,0.,-0.00018883,0.00009248,0.00000002,0.00106251,0.00386792,0.000
 00011,0.40681658,0.00143477,-0.00109977,-0.00000005,0.00376166,-0.0016
 8483,0.00000148,0.00009673,0.00067020,0.00000012,0.00035342,0.00042281
 ,-0.00000008,0.00013931,-0.00033526,-0.00000003,-0.00031223,-0.0001076
 1,0.00000003,0.00007626,-0.00010941,-0.00000001,0.03356846,0.01195038,
 -0.00000409,0.00048688,-0.00062307,0.00000038,-0.23147196,-0.15672619,
 0.00003230,-0.00112438,-0.00162258,-0.00000013,0.00003189,-0.00000817,
 0.00000008,-0.00000829,-0.00001284,0.,-0.00000451,0.00002384,0.,-0.000
 00900,0.00001040,0.,0.00150659,-0.00318172,-0.00000038,0.19212905,0.15
 240396,0.00000058,-0.00000043,-0.00142449,0.00000018,0.00000212,0.0057
 2571,-0.00000085,-0.00000010,0.00185821,0.00000011,0.00000066,-0.00037
 779,0.00000005,-0.00000023,-0.00004933,0.00000009,-0.00000012,-0.00002
 582,0.00000003,-0.00000019,-0.00017063,-0.00000740,-0.00000192,-0.0042
 5927,-0.00000005,0.00000003,-0.00500984,0.00005073,0.00003020,-0.00483
 350,-0.00000001,0.00000005,-0.00048050,0.00000005,0.,0.00022947,0.,-0.
 00000001,0.00007850,-0.00000001,0.,0.00001932,-0.00000004,0.00000003,-
 0.00003044,0.00000027,-0.00000039,0.00255247,-0.00004366,-0.00002957,0
 .00585567,0.00626607,0.04338067,0.00000052,-0.00431539,0.00332102,0.00
 000014,0.00059116,0.00079341,0.,0.00028085,0.00004914,0.,-0.00020225,-
 0.00052109,0.,0.00073356,0.00347984,-0.00000001,-0.00014799,-0.0002031
 3,0.,-0.00169576,0.00077420,-0.00000012,0.00019812,-0.00007787,0.00000
 012,-0.00087634,-0.00148507,-0.00000012,-0.08764626,-0.16892227,-0.000
 00090,-0.00029040,0.00015159,0.,0.00007981,-0.00007940,-0.00000001,-0.
 00151337,-0.00165613,0.00000003,-0.00008398,0.00012402,0.,0.00001001,0
 .00011633,0.,0.00021223,-0.00065463,-0.00000005,0.08839992,-0.00517575
 ,-0.03104590,-0.00000040,0.00673018,0.00254027,0.00000009,-0.00318454,
 -0.00072269,-0.00000009,0.00245492,0.00160017,0.,0.00040185,-0.0027354
 4,-0.00000004,-0.00620347,0.00536256,0.00000016,-0.00115746,0.00047430
 ,0.00000003,-0.00355533,-0.00110991,-0.00000005,0.00049176,0.00157322,
 -0.00000017,0.00127875,-0.00126582,0.00000026,-0.11411637,-0.46272776,
 -0.00000568,0.00026261,-0.00009433,-0.00000002,-0.00024088,0.00015582,
 0.,0.00084847,0.00022094,0.,0.00018627,0.00000813,0.,-0.00023669,-0.00
 019585,0.00000008,-0.00019368,0.00002986,-0.00000014,0.12140935,0.4879
 3244,-0.00000016,-0.00000134,-0.00290839,0.00000056,0.00000019,0.00270
 596,-0.00000003,-0.00000015,0.00138451,0.00000002,-0.00000004,-0.00017
 625,0.,-0.00000002,-0.00062863,-0.00000014,0.00000008,-0.00181117,-0.0
 0000002,0.00000002,-0.00006386,-0.00000023,-0.00000003,0.00001623,0.00
 000004,0.00000029,-0.00034880,-0.00000019,-0.00000005,-0.00041424,-0.0
 0000031,-0.00000485,-0.00534869,0.00000004,0.,0.00040947,0.,0.,0.00021
 782,0.00000005,0.00000002,0.00069147,0.,0.,0.00002902,-0.00000006,-0.0
 0000003,-0.00008175,0.00000002,-0.00000005,0.00034228,0.00000040,0.000
 00596,0.00598504\\-0.00003280,-0.00003744,0.,0.00008436,0.00011958,0.0
 0000034,0.00000677,-0.00013889,0.00000021,-0.00000605,0.00003831,0.000
 00003,0.00009241,0.00015454,-0.00000006,0.00012462,0.00005578,-0.00000
 004,-0.00004525,-0.00010798,-0.00000012,0.00009907,-0.00004406,-0.0000
 0108,0.00006062,-0.00016925,-0.00000019,-0.00005461,0.00024378,0.00000
 072,-0.00019217,-0.00006229,-0.00000012,-0.00000480,0.00005862,0.00000
 004,-0.00006993,-0.00002428,0.00000003,-0.00003036,-0.00007036,0.,0.00
 000140,0.00005626,0.00000007,-0.00007648,0.00002054,0.00000036,-0.0000
 2364,-0.00008329,-0.00000023,0.00006685,-0.00000958,0.00000005\\\@


 THE POLHOLDE ROLLS WITHOUT SLIPPING ON THE HERPOLHOLDE LYING IN
 THE INVARIABLE PLANE.
 H.GOLDSTEIN, "CLASSICAL MECHANICS", PG 161
 Job cpu time:       0 days  3 hours 42 minutes 52.6 seconds.
 File lengths (MBytes):  RWF=  19011 Int=      0 D2E=      0 Chk=      7 Scr=      1
 Normal termination of Gaussian 09 at Tue Dec 17 22:19:29 2024.
