 Entering Gaussian System, Link 0=g09
 Input=B2PLYPD3DHB.gjf
 Output=B2PLYPD3DHB.log
 Initial command:
 /home/c612/g09E/g09/l1.exe "/mnt/ja_sm883/scratch/Gau-1853587.inp" -scrdir="/mnt/ja_sm883/scratch/"
 Default is to use a total of  18 processors:
                               18 via shared-memory
                                1 via Linda
 Entering Link 1 = /home/c612/g09E/g09/l1.exe PID=   1853589.
  
 Copyright (c) 1988,1990,1992,1993,1995,1998,2003,2009,2015,
            Gaussian, Inc.  All Rights Reserved.
  
 This is part of the Gaussian(R) 09 program.  It is based on
 the Gaussian(R) 03 system (copyright 2003, Gaussian, Inc.),
 the Gaussian(R) 98 system (copyright 1998, Gaussian, Inc.),
 the Gaussian(R) 94 system (copyright 1995, Gaussian, Inc.),
 the Gaussian 92(TM) system (copyright 1992, Gaussian, Inc.),
 the Gaussian 90(TM) system (copyright 1990, Gaussian, Inc.),
 the Gaussian 88(TM) system (copyright 1988, Gaussian, Inc.),
 the Gaussian 86(TM) system (copyright 1986, Carnegie Mellon
 University), and the Gaussian 82(TM) system (copyright 1983,
 Carnegie Mellon University). Gaussian is a federally registered
 trademark of Gaussian, Inc.
  
 This software contains proprietary and confidential information,
 including trade secrets, belonging to Gaussian, Inc.
  
 This software is provided under written license and may be
 used, copied, transmitted, or stored only in accord with that
 written license.
  
 The following legend is applicable only to US Government
 contracts under FAR:
  
                    RESTRICTED RIGHTS LEGEND
  
 Use, reproduction and disclosure by the US Government is
 subject to restrictions as set forth in subparagraphs (a)
 and (c) of the Commercial Computer Software - Restricted
 Rights clause in FAR 52.227-19.
  
 Gaussian, Inc.
 340 Quinnipiac St., Bldg. 40, Wallingford CT 06492
  
  
 ---------------------------------------------------------------
 Warning -- This program may not be used in any manner that
 competes with the business of Gaussian, Inc. or will provide
 assistance to any competitor of Gaussian, Inc.  The licensee
 of this program is prohibited from giving any competitor of
 Gaussian, Inc. access to this program.  By using this program,
 the user acknowledges that Gaussian, Inc. is engaged in the
 business of creating and licensing software in the field of
 computational chemistry and represents and warrants to the
 licensee that it is not a competitor of Gaussian, Inc. and that
 it will not use this program in any manner prohibited above.
 ---------------------------------------------------------------
  

 Cite this work as:
 Gaussian 09, Revision E.01,
 M. J. Frisch, G. W. Trucks, H. B. Schlegel, G. E. Scuseria, 
 M. A. Robb, J. R. Cheeseman, G. Scalmani, V. Barone, B. Mennucci, 
 G. A. Petersson, H. Nakatsuji, M. Caricato, X. Li, H. P. Hratchian, 
 A. F. Izmaylov, J. Bloino, G. Zheng, J. L. Sonnenberg, M. Hada, 
 M. Ehara, K. Toyota, R. Fukuda, J. Hasegawa, M. Ishida, T. Nakajima, 
 Y. Honda, O. Kitao, H. Nakai, T. Vreven, J. A. Montgomery, Jr., 
 J. E. Peralta, F. Ogliaro, M. Bearpark, J. J. Heyd, E. Brothers, 
 K. N. Kudin, V. N. Staroverov, T. Keith, R. Kobayashi, J. Normand, 
 K. Raghavachari, A. Rendell, J. C. Burant, S. S. Iyengar, J. Tomasi, 
 M. Cossi, N. Rega, J. M. Millam, M. Klene, J. E. Knox, J. B. Cross, 
 V. Bakken, C. Adamo, J. Jaramillo, R. Gomperts, R. E. Stratmann, 
 O. Yazyev, A. J. Austin, R. Cammi, C. Pomelli, J. W. Ochterski, 
 R. L. Martin, K. Morokuma, V. G. Zakrzewski, G. A. Voth, 
 P. Salvador, J. J. Dannenberg, S. Dapprich, A. D. Daniels, 
 O. Farkas, J. B. Foresman, J. V. Ortiz, J. Cioslowski, 
 and D. J. Fox, Gaussian, Inc., Wallingford CT, 2013.
 
 ******************************************
 Gaussian 09:  ES64L-G09RevE.01 30-Nov-2015
                17-Dec-2024 
 ******************************************
 %chk=B2PLYPD3DHB.chk
 -----------------------------------------------------
 # opt freq B2PLYP/6-31+g(d,p) empiricaldispersion=gd3
 -----------------------------------------------------
 1/18=20,19=15,38=1/1,3;
 2/9=110,12=2,17=6,18=5,40=1/2;
 3/5=1,6=6,7=111,11=9,16=1,25=1,30=1,71=1,74=-47,124=31/1,2,3;
 4//1;
 5/5=2,38=5/2;
 8/6=4,10=2/1;
 9/15=2,16=-3/6;
 10/5=1/2;
 6/7=2,8=2,9=2,10=2/1;
 7/12=2/1,2,3,16;
 1/18=20,19=15/3(2);
 2/9=110/2;
 99//99;
 2/9=110/2;
 3/5=1,6=6,7=111,11=9,16=1,25=1,30=1,71=1,74=-47,124=31/1,2,3;
 4/5=5,16=3,69=1/1;
 5/5=2,38=5/2;
 8/6=4,10=2/1;
 9/15=2,16=-3/6;
 10/5=1/2;
 7/12=2/1,2,3,16;
 1/18=20,19=15/3(-8);
 2/9=110/2;
 6/7=2,8=2,9=2,10=2/1;
 99//99;
 ----------
 [No Title]
 ----------
 Symbolic Z-matrix:
 Charge =  0 Multiplicity = 1
 C                     0.23361   1.27446   0.00001 
 C                     0.4678   -0.12076   0.00001 
 C                    -0.63122  -0.99704   0.00001 
 C                    -1.93805  -0.52003   0.00001 
 C                    -2.16608   0.85946   0.00001 
 C                    -1.08726   1.7407    0.00002 
 O                    -2.95013  -1.44966  -0.00002 
 C                     1.84875  -0.67341  -0.00002 
 O                     1.85843  -2.04078   0.00013 
 O                     2.88322  -0.03801  -0.0002 
 O                     1.2852    2.13941   0.00003 
 H                    -0.46529  -2.06661   0.00001 
 H                    -3.18074   1.25079  0. 
 H                    -1.27179   2.81238   0.00002 
 H                    -3.80969  -1.00982   0.00014 
 H                     2.79343  -2.30235   0.00005 
 H                     0.95503   3.04763   0.00005 
 

 GradGradGradGradGradGradGradGradGradGradGradGradGradGradGradGradGradGrad
 Berny optimization.
 Initialization pass.
                           ----------------------------
                           !    Initial Parameters    !
                           ! (Angstroms and Degrees)  !
 --------------------------                            --------------------------
 ! Name  Definition              Value          Derivative Info.                !
 --------------------------------------------------------------------------------
 ! R1    R(1,2)                  1.4147         estimate D2E/DX2                !
 ! R2    R(1,6)                  1.4007         estimate D2E/DX2                !
 ! R3    R(1,11)                 1.3616         estimate D2E/DX2                !
 ! R4    R(2,3)                  1.4056         estimate D2E/DX2                !
 ! R5    R(2,8)                  1.4874         estimate D2E/DX2                !
 ! R6    R(3,4)                  1.3912         estimate D2E/DX2                !
 ! R7    R(3,12)                 1.0824         estimate D2E/DX2                !
 ! R8    R(4,5)                  1.3982         estimate D2E/DX2                !
 ! R9    R(4,7)                  1.3742         estimate D2E/DX2                !
 ! R10   R(5,6)                  1.393          estimate D2E/DX2                !
 ! R11   R(5,13)                 1.0875         estimate D2E/DX2                !
 ! R12   R(6,14)                 1.0874         estimate D2E/DX2                !
 ! R13   R(7,15)                 0.9656         estimate D2E/DX2                !
 ! R14   R(8,9)                  1.3674         estimate D2E/DX2                !
 ! R15   R(8,10)                 1.214          estimate D2E/DX2                !
 ! R16   R(9,16)                 0.9709         estimate D2E/DX2                !
 ! R17   R(11,17)                0.9664         estimate D2E/DX2                !
 ! A1    A(2,1,6)              118.9707         estimate D2E/DX2                !
 ! A2    A(2,1,11)             119.9096         estimate D2E/DX2                !
 ! A3    A(6,1,11)             121.1197         estimate D2E/DX2                !
 ! A4    A(1,2,3)              119.0378         estimate D2E/DX2                !
 ! A5    A(1,2,8)              121.3397         estimate D2E/DX2                !
 ! A6    A(3,2,8)              119.6224         estimate D2E/DX2                !
 ! A7    A(2,3,4)              121.3809         estimate D2E/DX2                !
 ! A8    A(2,3,12)             119.7476         estimate D2E/DX2                !
 ! A9    A(4,3,12)             118.8715         estimate D2E/DX2                !
 ! A10   A(3,4,5)              119.4391         estimate D2E/DX2                !
 ! A11   A(3,4,7)              117.379          estimate D2E/DX2                !
 ! A12   A(5,4,7)              123.1819         estimate D2E/DX2                !
 ! A13   A(4,5,6)              119.8576         estimate D2E/DX2                !
 ! A14   A(4,5,13)             120.4769         estimate D2E/DX2                !
 ! A15   A(6,5,13)             119.6655         estimate D2E/DX2                !
 ! A16   A(1,6,5)              121.3139         estimate D2E/DX2                !
 ! A17   A(1,6,14)             119.2117         estimate D2E/DX2                !
 ! A18   A(5,6,14)             119.4743         estimate D2E/DX2                !
 ! A19   A(4,7,15)             110.3328         estimate D2E/DX2                !
 ! A20   A(2,8,9)              112.2169         estimate D2E/DX2                !
 ! A21   A(2,8,10)             126.6291         estimate D2E/DX2                !
 ! A22   A(9,8,10)             121.1539         estimate D2E/DX2                !
 ! A23   A(8,9,16)             106.0351         estimate D2E/DX2                !
 ! A24   A(1,11,17)            109.46           estimate D2E/DX2                !
 ! D1    D(6,1,2,3)             -0.0004         estimate D2E/DX2                !
 ! D2    D(6,1,2,8)            179.9993         estimate D2E/DX2                !
 ! D3    D(11,1,2,3)           179.9991         estimate D2E/DX2                !
 ! D4    D(11,1,2,8)            -0.0013         estimate D2E/DX2                !
 ! D5    D(2,1,6,5)             -0.0003         estimate D2E/DX2                !
 ! D6    D(2,1,6,14)           179.9999         estimate D2E/DX2                !
 ! D7    D(11,1,6,5)          -179.9998         estimate D2E/DX2                !
 ! D8    D(11,1,6,14)            0.0005         estimate D2E/DX2                !
 ! D9    D(2,1,11,17)         -179.9986         estimate D2E/DX2                !
 ! D10   D(6,1,11,17)            0.0008         estimate D2E/DX2                !
 ! D11   D(1,2,3,4)              0.0008         estimate D2E/DX2                !
 ! D12   D(1,2,3,12)          -179.9996         estimate D2E/DX2                !
 ! D13   D(8,2,3,4)           -179.9989         estimate D2E/DX2                !
 ! D14   D(8,2,3,12)             0.0008         estimate D2E/DX2                !
 ! D15   D(1,2,8,9)            179.9934         estimate D2E/DX2                !
 ! D16   D(1,2,8,10)            -0.0101         estimate D2E/DX2                !
 ! D17   D(3,2,8,9)             -0.007          estimate D2E/DX2                !
 ! D18   D(3,2,8,10)           179.9895         estimate D2E/DX2                !
 ! D19   D(2,3,4,5)             -0.0004         estimate D2E/DX2                !
 ! D20   D(2,3,4,7)            179.9987         estimate D2E/DX2                !
 ! D21   D(12,3,4,5)           179.9999         estimate D2E/DX2                !
 ! D22   D(12,3,4,7)            -0.001          estimate D2E/DX2                !
 ! D23   D(3,4,5,6)             -0.0003         estimate D2E/DX2                !
 ! D24   D(3,4,5,13)           179.9996         estimate D2E/DX2                !
 ! D25   D(7,4,5,6)           -179.9993         estimate D2E/DX2                !
 ! D26   D(7,4,5,13)             0.0006         estimate D2E/DX2                !
 ! D27   D(3,4,7,15)           179.9901         estimate D2E/DX2                !
 ! D28   D(5,4,7,15)            -0.0108         estimate D2E/DX2                !
 ! D29   D(4,5,6,1)              0.0007         estimate D2E/DX2                !
 ! D30   D(4,5,6,14)          -179.9996         estimate D2E/DX2                !
 ! D31   D(13,5,6,1)          -179.9992         estimate D2E/DX2                !
 ! D32   D(13,5,6,14)            0.0005         estimate D2E/DX2                !
 ! D33   D(2,8,9,16)           179.9971         estimate D2E/DX2                !
 ! D34   D(10,8,9,16)            0.0004         estimate D2E/DX2                !
 --------------------------------------------------------------------------------
 Trust Radius=3.00D-01 FncErr=1.00D-07 GrdErr=1.00D-07
 Number of steps in this run=     85 maximum allowed number of steps=    102.
 GradGradGradGradGradGradGradGradGradGradGradGradGradGradGradGradGradGrad

                          Input orientation:                          
 ---------------------------------------------------------------------
 Center     Atomic      Atomic             Coordinates (Angstroms)
 Number     Number       Type             X           Y           Z
 ---------------------------------------------------------------------
      1          6           0        0.233610    1.274455    0.000012
      2          6           0        0.467803   -0.120760    0.000005
      3          6           0       -0.631221   -0.997043    0.000010
      4          6           0       -1.938045   -0.520034    0.000006
      5          6           0       -2.166080    0.859462    0.000006
      6          6           0       -1.087262    1.740701    0.000016
      7          8           0       -2.950129   -1.449657   -0.000017
      8          6           0        1.848747   -0.673412   -0.000016
      9          8           0        1.858429   -2.040780    0.000127
     10          8           0        2.883217   -0.038006   -0.000201
     11          8           0        1.285199    2.139413    0.000026
     12          1           0       -0.465286   -2.066607    0.000012
     13          1           0       -3.180735    1.250794   -0.000003
     14          1           0       -1.271786    2.812376    0.000023
     15          1           0       -3.809685   -1.009819    0.000138
     16          1           0        2.793425   -2.302353    0.000054
     17          1           0        0.955029    3.047625    0.000051
 ---------------------------------------------------------------------
                    Distance matrix (angstroms):
                    1          2          3          4          5
     1  C    0.000000
     2  C    1.414734   0.000000
     3  C    2.430563   1.405605   0.000000
     4  C    2.817140   2.438755   1.391160   0.000000
     5  C    2.435309   2.810369   2.408818   1.398216   0.000000
     6  C    1.400746   2.425544   2.775467   2.415524   1.392993
     7  O    4.190105   3.667182   2.362667   1.374232   2.438599
     8  C    2.530386   1.487424   2.500995   3.789897   4.297504
     9  O    3.691994   2.370721   2.699582   4.089729   4.960653
    10  O    2.956852   2.416831   3.642942   4.845299   5.128435
    11  O    1.361614   2.403439   3.675598   4.178751   3.680978
    12  H    3.413378   2.158003   1.082359   2.135628   3.384462
    13  H    3.414427   3.897819   3.398940   2.163356   1.087504
    14  H    2.152073   3.410199   3.862900   3.398361   2.147937
    15  H    4.643936   4.368905   3.178490   1.934664   2.489106
    16  H    4.398432   3.188709   3.664974   5.056033   5.881646
    17  H    1.914309   3.205628   4.344598   4.593263   3.811742
                    6          7          8          9         10
     6  C    0.000000
     7  O    3.694409   0.000000
     8  C    3.801064   4.861252   0.000000
     9  O    4.793401   4.844756   1.367402   0.000000
    10  O    4.350690   6.001723   1.214030   2.249732   0.000000
    11  O    2.405731   5.551525   2.868723   4.219313   2.700892
    12  H    3.857778   2.560287   2.701063   2.323859   3.915060
    13  H    2.150032   2.710279   5.385003   6.018940   6.199397
    14  H    1.087445   4.580585   4.678509   5.775064   5.038723
    15  H    3.870006   0.965554   5.668423   5.761111   6.763088
    16  H    5.604107   5.806505   1.883047   0.970895   2.266127
    17  H    2.424666   5.956157   3.826859   5.167978   3.638547
                   11         12         13         14         15
    11  O    0.000000
    12  H    4.555744   0.000000
    13  H    4.553483   4.287052   0.000000
    14  H    2.644060   4.945191   2.466298   0.000000
    15  H    5.989616   3.507393   2.346476   4.588039   0.000000
    16  H    4.690845   3.267227   6.950931   6.533482   6.728425
    17  H    0.966365   5.307793   4.509229   2.239207   6.258223
                   16         17
    16  H    0.000000
    17  H    5.657028   0.000000
 Stoichiometry    C7H6O4
 Framework group  C1[X(C7H6O4)]
 Deg. of freedom    45
 Full point group                 C1      NOp   1
 Largest Abelian subgroup         C1      NOp   1
 Largest concise Abelian subgroup C1      NOp   1
                         Standard orientation:                         
 ---------------------------------------------------------------------
 Center     Atomic      Atomic             Coordinates (Angstroms)
 Number     Number       Type             X           Y           Z
 ---------------------------------------------------------------------
      1          6           0        0.233610    1.274455    0.000012
      2          6           0        0.467803   -0.120760    0.000005
      3          6           0       -0.631221   -0.997043    0.000010
      4          6           0       -1.938045   -0.520034    0.000006
      5          6           0       -2.166080    0.859462    0.000006
      6          6           0       -1.087262    1.740701    0.000016
      7          8           0       -2.950129   -1.449657   -0.000017
      8          6           0        1.848747   -0.673412   -0.000016
      9          8           0        1.858429   -2.040780    0.000127
     10          8           0        2.883217   -0.038006   -0.000201
     11          8           0        1.285199    2.139413    0.000026
     12          1           0       -0.465286   -2.066607    0.000012
     13          1           0       -3.180735    1.250794   -0.000003
     14          1           0       -1.271786    2.812376    0.000023
     15          1           0       -3.809685   -1.009818    0.000138
     16          1           0        2.793425   -2.302353    0.000054
     17          1           0        0.955029    3.047625    0.000051
 ---------------------------------------------------------------------
 Rotational constants (GHZ):      1.7524450      0.9123726      0.5999971
 Standard basis: 6-31+G(d,p) (6D, 7F)
 There are   239 symmetry adapted cartesian basis functions of A   symmetry.
 There are   239 symmetry adapted basis functions of A   symmetry.
   239 basis functions,   394 primitive gaussians,   239 cartesian basis functions
    40 alpha electrons       40 beta electrons
       nuclear repulsion energy       589.1190713487 Hartrees.
 NAtoms=   17 NActive=   17 NUniq=   17 SFac= 1.00D+00 NAtFMM=   60 NAOKFM=F Big=F
 Integral buffers will be    131072 words long.
 Regular integral format.
 Two-electron integral symmetry is turned on.
 Nuclear repulsion after empirical dispersion term =      589.1119372863 Hartrees.
 One-electron integrals computed using PRISM.
 NBasis=   239 RedAO= T EigKep=  3.24D-06  NBF=   239
 NBsUse=   239 1.00D-06 EigRej= -1.00D+00 NBFU=   239
 ExpMin= 4.38D-02 ExpMax= 5.48D+03 ExpMxC= 8.25D+02 IAcc=2 IRadAn=         4 AccDes= 0.00D+00
 Harris functional with IExCor=  419 and IRadAn=       4 diagonalized for initial guess.
 HarFok:  IExCor=  419 AccDes= 0.00D+00 IRadAn=         4 IDoV= 1 UseB2=F ITyADJ=14
 ICtDFT=  3500011 ScaDFX=  1.000000  1.000000  1.000000  1.000000
 FoFCou: FMM=F IPFlag=           0 FMFlag=      100000 FMFlg1=           0
         NFxFlg=           0 DoJE=T BraDBF=F KetDBF=T FulRan=T
         wScrn=  0.000000 ICntrl=     500 IOpCl=  0 I1Cent=   200000004 NGrid=           0
         NMat0=    1 NMatS0=      1 NMatT0=    0 NMatD0=    1 NMtDS0=    0 NMtDT0=    0
 Petite list used in FoFCou.
 Keep R1 ints in memory in canonical form, NReq=418393415.
 Requested convergence on RMS density matrix=1.00D-08 within 128 cycles.
 Requested convergence on MAX density matrix=1.00D-06.
 Requested convergence on             energy=1.00D-06.
 No special actions if energy rises.
 SCF Done:  E(RB2PLYP) =  -570.218661922     A.U. after   16 cycles
            NFock= 16  Conv=0.31D-08     -V/T= 2.0069
 DoSCS=T DFT=T ScalE2(SS,OS)=  0.270000  0.270000
 ExpMin= 4.38D-02 ExpMax= 5.48D+03 ExpMxC= 8.25D+02 IAcc=3 IRadAn=         5 AccDes= 0.00D+00
 HarFok:  IExCor=  205 AccDes= 0.00D+00 IRadAn=         5 IDoV=-2 UseB2=F ITyADJ=14
 ICtDFT= 12500011 ScaDFX=  1.000000  1.000000  1.000000  1.000000
 Range of M.O.s used for correlation:    12   239
 NBasis=   239 NAE=    40 NBE=    40 NFC=    11 NFV=     0
 NROrb=    228 NOA=    29 NOB=    29 NVA=   199 NVB=   199

 **** Warning!!: The largest alpha MO coefficient is  0.16198602D+03

 DoSCS=T DFT=T ScalE2(SS,OS)=  0.270000  0.270000
 Fully direct method using O(ONN) memory.
 JobTyp=1 Pass  1:  I=  12 to  17 NPSUse= 18 ParTrn=T ParDer=T DoDerP=T.
 JobTyp=1 Pass  2:  I=  18 to  23 NPSUse= 18 ParTrn=T ParDer=T DoDerP=T.
 JobTyp=1 Pass  3:  I=  24 to  29 NPSUse= 18 ParTrn=T ParDer=T DoDerP=T.
 JobTyp=1 Pass  4:  I=  30 to  35 NPSUse= 18 ParTrn=T ParDer=T DoDerP=T.
 JobTyp=1 Pass  5:  I=  36 to  40 NPSUse= 18 ParTrn=T ParDer=T DoDerP=T.
 Spin components of T(2) and E(2):
     alpha-alpha T2 =       0.1208079895D+00 E2=     -0.7590971857D-01
     alpha-beta  T2 =       0.6097763394D+00 E2=     -0.3977323401D+00
     beta-beta   T2 =       0.1208079895D+00 E2=     -0.7590971857D-01
 E2(B2PLYP) =    -0.5495517773D+00 E(B2PLYP) =    -0.57076821369956D+03
          IDoAtm=11111111111111111
          Differentiating once with respect to electric field.
                with respect to dipole field.
          Differentiating once with respect to nuclear coordinates.
 Keep R1 ints in memory in canonical form, NReq=418199641.
          There are     1 degrees of freedom in the 1st order CPHF.  IDoFFX=0 NUNeed=     1.
 LinEq1:  Iter=  0 NonCon=     1 RMS=1.99D-03 Max=4.46D-02 NDo=     1
 AX will form     1 AO Fock derivatives at one time.
 LinEq1:  Iter=  1 NonCon=     1 RMS=8.98D-04 Max=1.66D-02 NDo=     1
 LinEq1:  Iter=  2 NonCon=     1 RMS=3.13D-04 Max=5.11D-03 NDo=     1
 LinEq1:  Iter=  3 NonCon=     1 RMS=2.47D-04 Max=7.62D-03 NDo=     1
 LinEq1:  Iter=  4 NonCon=     1 RMS=1.01D-04 Max=2.70D-03 NDo=     1
 LinEq1:  Iter=  5 NonCon=     1 RMS=4.65D-05 Max=1.24D-03 NDo=     1
 LinEq1:  Iter=  6 NonCon=     1 RMS=2.35D-05 Max=9.33D-04 NDo=     1
 LinEq1:  Iter=  7 NonCon=     1 RMS=1.13D-05 Max=4.32D-04 NDo=     1
 LinEq1:  Iter=  8 NonCon=     1 RMS=4.12D-06 Max=1.17D-04 NDo=     1
 LinEq1:  Iter=  9 NonCon=     1 RMS=2.28D-06 Max=5.11D-05 NDo=     1
 LinEq1:  Iter= 10 NonCon=     1 RMS=6.94D-07 Max=1.27D-05 NDo=     1
 LinEq1:  Iter= 11 NonCon=     1 RMS=2.90D-07 Max=7.36D-06 NDo=     1
 LinEq1:  Iter= 12 NonCon=     1 RMS=1.40D-07 Max=2.18D-06 NDo=     1
 LinEq1:  Iter= 13 NonCon=     1 RMS=5.58D-08 Max=1.71D-06 NDo=     1
 LinEq1:  Iter= 14 NonCon=     1 RMS=3.45D-08 Max=9.28D-07 NDo=     1
 LinEq1:  Iter= 15 NonCon=     1 RMS=1.05D-08 Max=2.73D-07 NDo=     1
 LinEq1:  Iter= 16 NonCon=     1 RMS=5.15D-09 Max=1.23D-07 NDo=     1
 LinEq1:  Iter= 17 NonCon=     1 RMS=1.73D-09 Max=4.91D-08 NDo=     1
 LinEq1:  Iter= 18 NonCon=     1 RMS=5.70D-10 Max=9.97D-09 NDo=     1
 LinEq1:  Iter= 19 NonCon=     1 RMS=2.95D-10 Max=4.56D-09 NDo=     1
 LinEq1:  Iter= 20 NonCon=     1 RMS=1.05D-10 Max=1.82D-09 NDo=     1
 LinEq1:  Iter= 21 NonCon=     0 RMS=4.61D-11 Max=4.24D-10 NDo=     1
 Linear equations converged to 1.000D-10 1.000D-09 after    21 iterations.
 End of Minotr F.D. properties file   721 does not exist.
 End of Minotr F.D. properties file   722 does not exist.
 End of Minotr F.D. properties file   788 does not exist.

 **********************************************************************

            Population analysis using the SCF density.

 **********************************************************************

 Orbital symmetries:
       Occupied  (A) (A) (A) (A) (A) (A) (A) (A) (A) (A) (A) (A)
                 (A) (A) (A) (A) (A) (A) (A) (A) (A) (A) (A) (A)
                 (A) (A) (A) (A) (A) (A) (A) (A) (A) (A) (A) (A)
                 (A) (A) (A) (A)
       Virtual   (A) (A) (A) (A) (A) (A) (A) (A) (A) (A) (A) (A)
                 (A) (A) (A) (A) (A) (A) (A) (A) (A) (A) (A) (A)
                 (A) (A) (A) (A) (A) (A) (A) (A) (A) (A) (A) (A)
                 (A) (A) (A) (A) (A) (A) (A) (A) (A) (A) (A) (A)
                 (A) (A) (A) (A) (A) (A) (A) (A) (A) (A) (A) (A)
                 (A) (A) (A) (A) (A) (A) (A) (A) (A) (A) (A) (A)
                 (A) (A) (A) (A) (A) (A) (A) (A) (A) (A) (A) (A)
                 (A) (A) (A) (A) (A) (A) (A) (A) (A) (A) (A) (A)
                 (A) (A) (A) (A) (A) (A) (A) (A) (A) (A) (A) (A)
                 (A) (A) (A) (A) (A) (A) (A) (A) (A) (A) (A) (A)
                 (A) (A) (A) (A) (A) (A) (A) (A) (A) (A) (A) (A)
                 (A) (A) (A) (A) (A) (A) (A) (A) (A) (A) (A) (A)
                 (A) (A) (A) (A) (A) (A) (A) (A) (A) (A) (A) (A)
                 (A) (A) (A) (A) (A) (A) (A) (A) (A) (A) (A) (A)
                 (A) (A) (A) (A) (A) (A) (A) (A) (A) (A) (A) (A)
                 (A) (A) (A) (A) (A) (A) (A) (A) (A) (A) (A) (A)
                 (A) (A) (A) (A) (A) (A) (A)
 The electronic state is 1-A.
 Alpha  occ. eigenvalues --  -19.79606 -19.78992 -19.78891 -19.73762 -10.77788
 Alpha  occ. eigenvalues --  -10.71842 -10.70702 -10.66216 -10.66198 -10.65555
 Alpha  occ. eigenvalues --  -10.65062  -1.25564  -1.22004  -1.21563  -1.15805
 Alpha  occ. eigenvalues --   -0.99678  -0.90270  -0.86684  -0.77686  -0.73968
 Alpha  occ. eigenvalues --   -0.70013  -0.64598  -0.63450  -0.59067  -0.57461
 Alpha  occ. eigenvalues --   -0.56556  -0.53166  -0.53061  -0.50795  -0.49887
 Alpha  occ. eigenvalues --   -0.49764  -0.48059  -0.47495  -0.45125  -0.43557
 Alpha  occ. eigenvalues --   -0.39263  -0.38738  -0.34870  -0.31736  -0.26387
 Alpha virt. eigenvalues --   -0.01013   0.01744   0.02531   0.03943   0.04406
 Alpha virt. eigenvalues --    0.04985   0.07237   0.07803   0.07850   0.09057
 Alpha virt. eigenvalues --    0.09933   0.10485   0.10648   0.12290   0.12341
 Alpha virt. eigenvalues --    0.13873   0.15136   0.15584   0.16543   0.17023
 Alpha virt. eigenvalues --    0.17786   0.18613   0.19519   0.19531   0.20215
 Alpha virt. eigenvalues --    0.20737   0.23221   0.23524   0.23712   0.24205
 Alpha virt. eigenvalues --    0.24429   0.24880   0.25648   0.25781   0.27970
 Alpha virt. eigenvalues --    0.28384   0.28734   0.29188   0.30281   0.31164
 Alpha virt. eigenvalues --    0.31333   0.32081   0.32967   0.33694   0.34806
 Alpha virt. eigenvalues --    0.34872   0.35176   0.36220   0.36537   0.37500
 Alpha virt. eigenvalues --    0.39020   0.39898   0.41556   0.41834   0.43665
 Alpha virt. eigenvalues --    0.44372   0.46705   0.47620   0.50020   0.52448
 Alpha virt. eigenvalues --    0.53069   0.55462   0.61435   0.68605   0.71905
 Alpha virt. eigenvalues --    0.73400   0.77035   0.77466   0.79364   0.81052
 Alpha virt. eigenvalues --    0.81716   0.83034   0.83964   0.85819   0.86704
 Alpha virt. eigenvalues --    0.88991   0.92620   0.93341   0.94807   0.95824
 Alpha virt. eigenvalues --    1.02661   1.03418   1.08181   1.09115   1.10518
 Alpha virt. eigenvalues --    1.12357   1.15440   1.17889   1.18126   1.22826
 Alpha virt. eigenvalues --    1.25340   1.26484   1.27263   1.29601   1.29867
 Alpha virt. eigenvalues --    1.31052   1.32078   1.32248   1.34795   1.35729
 Alpha virt. eigenvalues --    1.36318   1.38234   1.40846   1.41617   1.41931
 Alpha virt. eigenvalues --    1.44068   1.46673   1.46833   1.47432   1.48703
 Alpha virt. eigenvalues --    1.50019   1.50645   1.52067   1.52471   1.55321
 Alpha virt. eigenvalues --    1.57943   1.61098   1.68754   1.68988   1.69355
 Alpha virt. eigenvalues --    1.71197   1.79129   1.81844   1.85608   1.87074
 Alpha virt. eigenvalues --    1.88359   1.91550   1.96805   1.97534   1.98616
 Alpha virt. eigenvalues --    2.00403   2.01125   2.01484   2.02456   2.05777
 Alpha virt. eigenvalues --    2.05916   2.10703   2.13231   2.15232   2.18469
 Alpha virt. eigenvalues --    2.19151   2.21280   2.26168   2.35367   2.36035
 Alpha virt. eigenvalues --    2.38716   2.44547   2.44735   2.47515   2.49585
 Alpha virt. eigenvalues --    2.51912   2.52855   2.54802   2.58556   2.61148
 Alpha virt. eigenvalues --    2.62638   2.63399   2.65790   2.67649   2.67854
 Alpha virt. eigenvalues --    2.71649   2.72750   2.73172   2.75764   2.78240
 Alpha virt. eigenvalues --    2.80563   2.82211   2.85945   2.88199   2.88762
 Alpha virt. eigenvalues --    2.91662   2.96898   3.01357   3.09626   3.16169
 Alpha virt. eigenvalues --    3.18885   3.23000   3.26892   3.30473   3.35256
 Alpha virt. eigenvalues --    3.39996   3.45030   3.54673   3.61622   3.65724
 Alpha virt. eigenvalues --    3.67727   3.69061   3.95014   4.36038   4.41487
 Alpha virt. eigenvalues --    4.45579   4.48875   4.51057   4.61726   4.65941
 Alpha virt. eigenvalues --    4.71806   4.76226   4.99195   5.10073
          Condensed to atoms (all electrons):
               1          2          3          4          5          6
     1  C   12.673515  -2.846006  -1.308111   0.065598   0.528650  -1.543107
     2  C   -2.846006  11.555280  -1.892485   0.626745  -0.896000  -0.968808
     3  C   -1.308111  -1.892485  12.723695  -3.442584  -0.039504  -0.529383
     4  C    0.065598   0.626745  -3.442584   9.238383  -0.211509   0.431284
     5  C    0.528650  -0.896000  -0.039504  -0.211509   6.425389  -0.282365
     6  C   -1.543107  -0.968808  -0.529383   0.431284  -0.282365   8.705171
     7  O   -0.019117   0.050146  -0.063990   0.039631  -0.092851   0.061243
     8  C   -0.812867   0.170843   0.284354  -0.647157   0.064177  -0.290736
     9  O    0.044020  -0.125144  -0.045725   0.089792   0.001425   0.003256
    10  O   -0.199001  -0.099845   0.061349   0.050673  -0.000660   0.022515
    11  O    0.256656  -0.399852   0.096802  -0.018322   0.067767   0.158035
    12  H   -0.000022   0.057055   0.148425   0.107759   0.013754  -0.000438
    13  H   -0.017273   0.018138  -0.027553   0.044701   0.215516   0.095350
    14  H    0.056501  -0.006818  -0.008843  -0.011476   0.111994   0.180701
    15  H   -0.003875  -0.004273   0.117740  -0.027965  -0.069929  -0.010892
    16  H   -0.004918   0.026186  -0.003681  -0.008336  -0.000380   0.005270
    17  H    0.014317   0.180124  -0.019976   0.006029  -0.015806  -0.183767
               7          8          9         10         11         12
     1  C   -0.019117  -0.812867   0.044020  -0.199001   0.256656  -0.000022
     2  C    0.050146   0.170843  -0.125144  -0.099845  -0.399852   0.057055
     3  C   -0.063990   0.284354  -0.045725   0.061349   0.096802   0.148425
     4  C    0.039631  -0.647157   0.089792   0.050673  -0.018322   0.107759
     5  C   -0.092851   0.064177   0.001425  -0.000660   0.067767   0.013754
     6  C    0.061243  -0.290736   0.003256   0.022515   0.158035  -0.000438
     7  O    8.392961  -0.007009   0.000229   0.000068   0.000209  -0.005150
     8  C   -0.007009   5.875007   0.062379   0.506388  -0.164011   0.008504
     9  O    0.000229   0.062379   8.438813  -0.141238  -0.000610  -0.003949
    10  O    0.000068   0.506388  -0.141238   8.297379  -0.009848  -0.000065
    11  O    0.000209  -0.164011  -0.000610  -0.009848   8.348714  -0.000320
    12  H   -0.005150   0.008504  -0.003949  -0.000065  -0.000320   0.482109
    13  H   -0.010063   0.001578   0.000005   0.000006  -0.000431  -0.000126
    14  H   -0.000471   0.010517   0.000015   0.000006  -0.013377   0.000009
    15  H    0.220209   0.002551   0.000014   0.000001  -0.000005  -0.000048
    16  H    0.000001   0.014853   0.210408   0.004555   0.000116   0.000177
    17  H   -0.000005   0.028275  -0.000033   0.001511   0.186813   0.000003
              13         14         15         16         17
     1  C   -0.017273   0.056501  -0.003875  -0.004918   0.014317
     2  C    0.018138  -0.006818  -0.004273   0.026186   0.180124
     3  C   -0.027553  -0.008843   0.117740  -0.003681  -0.019976
     4  C    0.044701  -0.011476  -0.027965  -0.008336   0.006029
     5  C    0.215516   0.111994  -0.069929  -0.000380  -0.015806
     6  C    0.095350   0.180701  -0.010892   0.005270  -0.183767
     7  O   -0.010063  -0.000471   0.220209   0.000001  -0.000005
     8  C    0.001578   0.010517   0.002551   0.014853   0.028275
     9  O    0.000005   0.000015   0.000014   0.210408  -0.000033
    10  O    0.000006   0.000006   0.000001   0.004555   0.001511
    11  O   -0.000431  -0.013377  -0.000005   0.000116   0.186813
    12  H   -0.000126   0.000009  -0.000048   0.000177   0.000003
    13  H    0.539973  -0.003684   0.004811   0.000000  -0.000013
    14  H   -0.003684   0.543517  -0.000005  -0.000000   0.007163
    15  H    0.004811  -0.000005   0.408251   0.000000   0.000000
    16  H    0.000000  -0.000000   0.000000   0.358842  -0.000000
    17  H   -0.000013   0.007163   0.000000  -0.000000   0.424832
 Mulliken charges:
               1
     1  C   -0.884962
     2  C    0.554714
     3  C   -0.050532
     4  C   -0.333248
     5  C    0.180331
     6  C    0.146672
     7  O   -0.566042
     8  C    0.892355
     9  O   -0.533656
    10  O   -0.493794
    11  O   -0.508333
    12  H    0.192324
    13  H    0.139066
    14  H    0.134248
    15  H    0.363415
    16  H    0.396908
    17  H    0.370533
 Sum of Mulliken charges =  -0.00000
 Mulliken charges with hydrogens summed into heavy atoms:
               1
     1  C   -0.884962
     2  C    0.554714
     3  C    0.141793
     4  C   -0.333248
     5  C    0.319397
     6  C    0.280921
     7  O   -0.202627
     8  C    0.892355
     9  O   -0.136748
    10  O   -0.493794
    11  O   -0.137800
 Electronic spatial extent (au):  <R**2>=           1751.5443
 Charge=             -0.0000 electrons
 Dipole moment (field-independent basis, Debye):
    X=             -3.9187    Y=              1.8343    Z=              0.0005  Tot=              4.3268
 Quadrupole moment (field-independent basis, Debye-Ang):
   XX=            -58.9503   YY=            -53.6003   ZZ=            -65.8638
   XY=            -10.8441   XZ=             -0.0001   YZ=              0.0004
 Traceless Quadrupole moment (field-independent basis, Debye-Ang):
   XX=              0.5212   YY=              5.8712   ZZ=             -6.3924
   XY=            -10.8441   XZ=             -0.0001   YZ=              0.0004
 Octapole moment (field-independent basis, Debye-Ang**2):
  XXX=            -62.9242  YYY=             34.7387  ZZZ=             -0.0003  XYY=             23.8903
  XXY=            -19.9595  XXZ=              0.0083  XZZ=              8.2911  YZZ=             -3.2950
  YYZ=             -0.0001  XYZ=              0.0021
 Hexadecapole moment (field-independent basis, Debye-Ang**3):
 XXXX=          -1150.2681 YYYY=           -602.8656 ZZZZ=            -69.3607 XXXY=            -82.2177
 XXXZ=              0.0000 YYYX=            -27.6478 YYYZ=              0.0065 ZZZX=              0.0060
 ZZZY=              0.0025 XXYY=           -320.8885 XXZZ=           -247.2325 YYZZ=           -146.5763
 XXYZ=             -0.0040 YYXZ=              0.0000 ZZXY=              4.1341
 N-N= 5.891119372863D+02 E-N=-2.513481874705D+03  KE= 5.663113253180D+02
 Calling FoFJK, ICntrl=  10002127 FMM=F ISym2X=0 I1Cent= 0 IOpClX= 0 NMat=1 NMatS=1 NMatT=0.
 ***** Axes restored to original set *****
 -------------------------------------------------------------------
 Center     Atomic                   Forces (Hartrees/Bohr)
 Number     Number              X              Y              Z
 -------------------------------------------------------------------
      1        6          -0.001683031   -0.001263489    0.000000033
      2        6          -0.000531496    0.000608991    0.000002117
      3        6           0.000664642   -0.001771155   -0.000000205
      4        6           0.000254717    0.001828961   -0.000000056
      5        6          -0.001867729   -0.000326444    0.000000019
      6        6           0.000599230    0.001181477    0.000000085
      7        8          -0.000693264   -0.000675109    0.000000704
      8        6          -0.002754495   -0.001910224   -0.000006643
      9        8          -0.001266318   -0.001265039    0.000002607
     10        8           0.003592352    0.003245202    0.000001859
     11        8           0.001952610    0.001013896    0.000000296
     12        1          -0.000017099    0.001120889   -0.000000050
     13        1           0.001301383   -0.000485610    0.000000057
     14        1           0.000226920   -0.001368282   -0.000000075
     15        1           0.001051028    0.000139778   -0.000000596
     16        1          -0.000474574    0.000846247   -0.000000054
     17        1          -0.000354876   -0.000920090   -0.000000098
 -------------------------------------------------------------------
 Cartesian Forces:  Max     0.003592352 RMS     0.001165033

 GradGradGradGradGradGradGradGradGradGradGradGradGradGradGradGradGradGrad
 Berny optimization.
 FormGI is forming the generalized inverse of G from B-inverse, IUseBI=4.
 Internal  Forces:  Max     0.004756865 RMS     0.000808125
 Search for a local minimum.
 Step number   1 out of a maximum of   85
 All quantities printed in internal units (Hartrees-Bohrs-Radians)
 Mixed Optimization -- En-DIIS/RFO-DIIS
 Second derivative matrix not updated -- first step.
 ITU=  0
     Eigenvalues ---    0.00932   0.01296   0.01645   0.01962   0.02032
     Eigenvalues ---    0.02033   0.02097   0.02109   0.02123   0.02125
     Eigenvalues ---    0.02136   0.02150   0.02164   0.02200   0.16000
     Eigenvalues ---    0.16000   0.16000   0.16000   0.16000   0.16000
     Eigenvalues ---    0.22368   0.23487   0.24600   0.25000   0.25000
     Eigenvalues ---    0.25000   0.25000   0.25000   0.33733   0.35103
     Eigenvalues ---    0.35110   0.35711   0.40966   0.41716   0.44440
     Eigenvalues ---    0.45420   0.46208   0.46794   0.50172   0.51479
     Eigenvalues ---    0.52623   0.53194   0.54127   0.54296   0.98078
 RFO step:  Lambda=-1.16430402D-04 EMin= 9.32301991D-03
 Linear search not attempted -- first point.
 Iteration  1 RMS(Cart)=  0.00439204 RMS(Int)=  0.00000588
 Iteration  2 RMS(Cart)=  0.00000757 RMS(Int)=  0.00000025
 Iteration  3 RMS(Cart)=  0.00000000 RMS(Int)=  0.00000025
 Variable       Old X    -DE/DX   Delta X   Delta X   Delta X     New X
                                 (Linear)    (Quad)   (Total)
    R1        2.67346  -0.00154   0.00000  -0.00367  -0.00367   2.66979
    R2        2.64703  -0.00057   0.00000  -0.00128  -0.00128   2.64575
    R3        2.57308   0.00130   0.00000   0.00246   0.00246   2.57554
    R4        2.65621  -0.00079   0.00000  -0.00185  -0.00185   2.65436
    R5        2.81082  -0.00118   0.00000  -0.00350  -0.00350   2.80733
    R6        2.62891  -0.00015   0.00000  -0.00028  -0.00028   2.62863
    R7        2.04536  -0.00111   0.00000  -0.00311  -0.00311   2.04225
    R8        2.64225  -0.00063   0.00000  -0.00126  -0.00126   2.64098
    R9        2.59692   0.00010   0.00000   0.00019   0.00019   2.59711
   R10        2.63238   0.00035   0.00000   0.00081   0.00081   2.63319
   R11        2.05509  -0.00139   0.00000  -0.00396  -0.00396   2.05113
   R12        2.05497  -0.00139   0.00000  -0.00395  -0.00395   2.05103
   R13        1.82463  -0.00087   0.00000  -0.00160  -0.00160   1.82303
   R14        2.58402   0.00041   0.00000   0.00080   0.00080   2.58482
   R15        2.29418   0.00476   0.00000   0.00485   0.00485   2.29903
   R16        1.83473  -0.00069   0.00000  -0.00129  -0.00129   1.83343
   R17        1.82617  -0.00075   0.00000  -0.00138  -0.00138   1.82479
    A1        2.07643   0.00004   0.00000  -0.00003  -0.00003   2.07640
    A2        2.09282  -0.00065   0.00000  -0.00252  -0.00252   2.09030
    A3        2.11394   0.00061   0.00000   0.00255   0.00255   2.11649
    A4        2.07760   0.00070   0.00000   0.00255   0.00255   2.08015
    A5        2.11778  -0.00042   0.00000  -0.00157  -0.00157   2.11621
    A6        2.08781  -0.00028   0.00000  -0.00098  -0.00098   2.08682
    A7        2.11850  -0.00061   0.00000  -0.00277  -0.00277   2.11573
    A8        2.08999   0.00015   0.00000   0.00041   0.00041   2.09040
    A9        2.07470   0.00046   0.00000   0.00235   0.00235   2.07705
   A10        2.08461   0.00038   0.00000   0.00187   0.00187   2.08648
   A11        2.04865  -0.00045   0.00000  -0.00198  -0.00198   2.04667
   A12        2.14993   0.00007   0.00000   0.00010   0.00010   2.15003
   A13        2.09191  -0.00036   0.00000  -0.00115  -0.00115   2.09076
   A14        2.10272   0.00020   0.00000   0.00070   0.00070   2.10342
   A15        2.08856   0.00016   0.00000   0.00045   0.00045   2.08900
   A16        2.11733  -0.00015   0.00000  -0.00048  -0.00048   2.11684
   A17        2.08064   0.00008   0.00000   0.00027   0.00027   2.08091
   A18        2.08522   0.00007   0.00000   0.00021   0.00021   2.08543
   A19        1.92567  -0.00111   0.00000  -0.00692  -0.00692   1.91875
   A20        1.95855  -0.00151   0.00000  -0.00603  -0.00603   1.95253
   A21        2.21010  -0.00026   0.00000  -0.00103  -0.00103   2.20907
   A22        2.11454   0.00176   0.00000   0.00706   0.00706   2.12159
   A23        1.85066  -0.00125   0.00000  -0.00781  -0.00781   1.84285
   A24        1.91044  -0.00118   0.00000  -0.00735  -0.00735   1.90309
    D1       -0.00001  -0.00000   0.00000  -0.00000  -0.00000  -0.00001
    D2        3.14158  -0.00000   0.00000  -0.00000  -0.00000   3.14158
    D3        3.14158  -0.00000   0.00000  -0.00001  -0.00001   3.14157
    D4       -0.00002  -0.00000   0.00000  -0.00001  -0.00001  -0.00003
    D5       -0.00001   0.00000   0.00000   0.00000   0.00000  -0.00000
    D6        3.14159   0.00000   0.00000   0.00000   0.00000  -3.14159
    D7       -3.14159   0.00000   0.00000   0.00000   0.00000  -3.14159
    D8        0.00001   0.00000   0.00000   0.00000   0.00000   0.00001
    D9       -3.14157  -0.00000   0.00000  -0.00000  -0.00000  -3.14157
   D10        0.00001  -0.00000   0.00000  -0.00000  -0.00000   0.00001
   D11        0.00001   0.00000   0.00000   0.00000   0.00000   0.00002
   D12       -3.14158   0.00000   0.00000   0.00000   0.00000  -3.14158
   D13       -3.14157   0.00000   0.00000   0.00000   0.00000  -3.14157
   D14        0.00001   0.00000   0.00000   0.00000   0.00000   0.00002
   D15        3.14148  -0.00000   0.00000  -0.00016  -0.00016   3.14132
   D16       -0.00018   0.00000   0.00000   0.00012   0.00012  -0.00006
   D17       -0.00012  -0.00000   0.00000  -0.00016  -0.00016  -0.00028
   D18        3.14141   0.00000   0.00000   0.00012   0.00012   3.14153
   D19       -0.00001   0.00000   0.00000   0.00000   0.00000  -0.00001
   D20        3.14157   0.00000   0.00000   0.00000   0.00000   3.14157
   D21        3.14159   0.00000   0.00000   0.00000   0.00000  -3.14159
   D22       -0.00002   0.00000   0.00000   0.00000   0.00000  -0.00002
   D23       -0.00000  -0.00000   0.00000  -0.00000  -0.00000  -0.00001
   D24        3.14159   0.00000   0.00000   0.00000   0.00000   3.14159
   D25       -3.14158  -0.00000   0.00000  -0.00000  -0.00000  -3.14158
   D26        0.00001   0.00000   0.00000   0.00000   0.00000   0.00001
   D27        3.14142   0.00000   0.00000   0.00002   0.00002   3.14144
   D28       -0.00019   0.00000   0.00000   0.00002   0.00002  -0.00017
   D29        0.00001   0.00000   0.00000   0.00000   0.00000   0.00001
   D30       -3.14159   0.00000   0.00000   0.00000   0.00000  -3.14158
   D31       -3.14158  -0.00000   0.00000  -0.00000  -0.00000  -3.14158
   D32        0.00001  -0.00000   0.00000  -0.00000  -0.00000   0.00001
   D33        3.14154   0.00000   0.00000   0.00013   0.00013  -3.14151
   D34        0.00001  -0.00000   0.00000  -0.00013  -0.00013  -0.00012
         Item               Value     Threshold  Converged?
 Maximum Force            0.004757     0.000450     NO 
 RMS     Force            0.000808     0.000300     NO 
 Maximum Displacement     0.017278     0.001800     NO 
 RMS     Displacement     0.004396     0.001200     NO 
 Predicted change in Energy=-5.823917D-05
 GradGradGradGradGradGradGradGradGradGradGradGradGradGradGradGradGradGrad

                          Input orientation:                          
 ---------------------------------------------------------------------
 Center     Atomic      Atomic             Coordinates (Angstroms)
 Number     Number       Type             X           Y           Z
 ---------------------------------------------------------------------
      1          6           0        0.233493    1.273195   -0.000010
      2          6           0        0.466628   -0.120230   -0.000053
      3          6           0       -0.629861   -0.998122   -0.000040
      4          6           0       -1.936192   -0.520190   -0.000003
      5          6           0       -2.165674    0.858388    0.000029
      6          6           0       -1.086506    1.739879    0.000033
      7          8           0       -2.947203   -1.451128   -0.000020
      8          6           0        1.846426   -0.670760   -0.000123
      9          8           0        1.849286   -2.038585    0.000193
     10          8           0        2.881765   -0.031870   -0.000207
     11          8           0        1.288727    2.135765    0.000002
     12          1           0       -0.462462   -2.065791   -0.000065
     13          1           0       -3.178543    1.248534    0.000052
     14          1           0       -1.270426    2.809538    0.000066
     15          1           0       -3.803494   -1.006799    0.000146
     16          1           0        2.784357   -2.297336    0.000194
     17          1           0        0.954908    3.041865    0.000053
 ---------------------------------------------------------------------
                    Distance matrix (angstroms):
                    1          2          3          4          5
     1  C    0.000000
     2  C    1.412793   0.000000
     3  C    2.429869   1.404629   0.000000
     4  C    2.814918   2.435879   1.391013   0.000000
     5  C    2.434762   2.808327   2.409429   1.397548   0.000000
     6  C    1.400068   2.423268   2.775819   2.414514   1.393424
     7  O    4.187931   3.664087   2.361205   1.374332   2.438166
     8  C    2.525968   1.485573   2.497832   3.785613   4.293628
     9  O    3.684925   2.364705   2.688630   4.078647   4.950995
    10  O    2.952378   2.416753   3.642136   4.842640   5.125348
    11  O    1.362917   2.401116   3.674537   4.177822   3.683011
    12  H    3.410746   2.156019   1.080713   2.135594   3.384045
    13  H    3.412125   3.893685   3.397534   2.161440   1.085411
    14  H    2.149913   3.406009   3.861165   3.395635   2.146731
    15  H    4.636339   4.361186   3.173645   1.929665   2.482213
    16  H    4.388120   3.179884   3.653060   5.043990   5.870384
    17  H    1.910139   3.199572   4.339698   4.587668   3.808622
                    6          7          8          9         10
     6  C    0.000000
     7  O    3.693876   0.000000
     8  C    3.796481   4.856733   0.000000
     9  O    4.784941   4.832330   1.367828   0.000000
    10  O    4.345833   5.999264   1.216596   2.256749   0.000000
    11  O    2.407998   5.550577   2.861400   4.211819   2.690058
    12  H    3.856495   2.559639   2.697605   2.311907   3.914165
    13  H    2.148962   2.709555   5.379033   6.007013   6.194091
    14  H    1.085356   4.578739   4.671963   5.765145   5.031331
    15  H    3.863453   0.964708   5.659904   5.746173   6.755973
    16  H    5.593092   5.793691   1.877622   0.970212   2.267559
    17  H    2.421268   5.950921   3.818165   5.158573   3.627757
                   11         12         13         14         15
    11  O    0.000000
    12  H    4.551894   0.000000
    13  H    4.554522   4.285073   0.000000
    14  H    2.646363   4.941826   2.465287   0.000000
    15  H    5.983847   3.504848   2.340319   4.580487   0.000000
    16  H    4.678600   3.255065   6.937533   6.520846   6.713067
    17  H    0.965635   5.300669   4.505713   2.237430   6.247725
                   16         17
    16  H    0.000000
    17  H    5.643930   0.000000
 Stoichiometry    C7H6O4
 Framework group  C1[X(C7H6O4)]
 Deg. of freedom    45
 Full point group                 C1      NOp   1
 Largest Abelian subgroup         C1      NOp   1
 Largest concise Abelian subgroup C1      NOp   1
                         Standard orientation:                         
 ---------------------------------------------------------------------
 Center     Atomic      Atomic             Coordinates (Angstroms)
 Number     Number       Type             X           Y           Z
 ---------------------------------------------------------------------
      1          6           0        0.237847    1.272241   -0.000000
      2          6           0        0.466558   -0.121916   -0.000043
      3          6           0       -0.632711   -0.996324   -0.000030
      4          6           0       -1.937519   -0.514249    0.000007
      5          6           0       -2.162625    0.865051    0.000039
      6          6           0       -1.080664    1.743112    0.000043
      7          8           0       -2.951480   -1.441974   -0.000010
      8          6           0        1.844602   -0.676823   -0.000113
      9          8           0        1.843121   -2.044650    0.000203
     10          8           0        2.881963   -0.041222   -0.000197
     11          8           0        1.295812    2.131458    0.000012
     12          1           0       -0.468701   -2.064520   -0.000055
     13          1           0       -3.174250    1.258409    0.000062
     14          1           0       -1.261189    2.813349    0.000076
     15          1           0       -3.806356   -0.994930    0.000156
     16          1           0        2.777367   -2.306367    0.000204
     17          1           0        0.964871    3.038612    0.000063
 ---------------------------------------------------------------------
 Rotational constants (GHZ):      1.7559425      0.9142612      0.6012238
 Standard basis: 6-31+G(d,p) (6D, 7F)
 There are   239 symmetry adapted cartesian basis functions of A   symmetry.
 There are   239 symmetry adapted basis functions of A   symmetry.
   239 basis functions,   394 primitive gaussians,   239 cartesian basis functions
    40 alpha electrons       40 beta electrons
       nuclear repulsion energy       589.5119373061 Hartrees.
 NAtoms=   17 NActive=   17 NUniq=   17 SFac= 1.00D+00 NAtFMM=   60 NAOKFM=F Big=F
 Integral buffers will be    131072 words long.
 Regular integral format.
 Two-electron integral symmetry is turned on.
 Nuclear repulsion after empirical dispersion term =      589.5048070849 Hartrees.
 One-electron integrals computed using PRISM.
 NBasis=   239 RedAO= T EigKep=  3.24D-06  NBF=   239
 NBsUse=   239 1.00D-06 EigRej= -1.00D+00 NBFU=   239
 Initial guess from the checkpoint file:  "B2PLYPD3DHB.chk"
 B after Tr=    -0.000000   -0.000000   -0.000000
         Rot=    0.999999    0.000002   -0.000001    0.001546 Ang=   0.18 deg.
 Keep R1 ints in memory in canonical form, NReq=418393415.
 Requested convergence on RMS density matrix=1.00D-08 within 128 cycles.
 Requested convergence on MAX density matrix=1.00D-06.
 Requested convergence on             energy=1.00D-06.
 No special actions if energy rises.
 SCF Done:  E(RB2PLYP) =  -570.218556298     A.U. after   11 cycles
            NFock= 11  Conv=0.45D-08     -V/T= 2.0069
 DoSCS=T DFT=T ScalE2(SS,OS)=  0.270000  0.270000
 ExpMin= 4.38D-02 ExpMax= 5.48D+03 ExpMxC= 8.25D+02 IAcc=3 IRadAn=         5 AccDes= 0.00D+00
 HarFok:  IExCor=  205 AccDes= 0.00D+00 IRadAn=         5 IDoV=-2 UseB2=F ITyADJ=14
 ICtDFT= 12500011 ScaDFX=  1.000000  1.000000  1.000000  1.000000
 Range of M.O.s used for correlation:    12   239
 NBasis=   239 NAE=    40 NBE=    40 NFC=    11 NFV=     0
 NROrb=    228 NOA=    29 NOB=    29 NVA=   199 NVB=   199

 **** Warning!!: The largest alpha MO coefficient is  0.16262414D+03

 DoSCS=T DFT=T ScalE2(SS,OS)=  0.270000  0.270000
 Fully direct method using O(ONN) memory.
 JobTyp=1 Pass  1:  I=  12 to  17 NPSUse= 18 ParTrn=T ParDer=T DoDerP=T.
 JobTyp=1 Pass  2:  I=  18 to  23 NPSUse= 18 ParTrn=T ParDer=T DoDerP=T.
 JobTyp=1 Pass  3:  I=  24 to  29 NPSUse= 18 ParTrn=T ParDer=T DoDerP=T.
 JobTyp=1 Pass  4:  I=  30 to  35 NPSUse= 18 ParTrn=T ParDer=T DoDerP=T.
 JobTyp=1 Pass  5:  I=  36 to  40 NPSUse= 18 ParTrn=T ParDer=T DoDerP=T.
 Spin components of T(2) and E(2):
     alpha-alpha T2 =       0.1208624859D+00 E2=     -0.7594235801D-01
     alpha-beta  T2 =       0.6098509771D+00 E2=     -0.3978165440D+00
     beta-beta   T2 =       0.1208624859D+00 E2=     -0.7594235801D-01
 E2(B2PLYP) =    -0.5497012600D+00 E(B2PLYP) =    -0.57076825755841D+03
          IDoAtm=11111111111111111
          Differentiating once with respect to electric field.
                with respect to dipole field.
          Differentiating once with respect to nuclear coordinates.
 Keep R1 ints in memory in canonical form, NReq=418199641.
          There are     1 degrees of freedom in the 1st order CPHF.  IDoFFX=0 NUNeed=     1.
 LinEq1:  Iter=  0 NonCon=     1 RMS=1.99D-03 Max=4.46D-02 NDo=     1
 AX will form     1 AO Fock derivatives at one time.
 LinEq1:  Iter=  1 NonCon=     1 RMS=9.02D-04 Max=1.68D-02 NDo=     1
 LinEq1:  Iter=  2 NonCon=     1 RMS=3.15D-04 Max=5.09D-03 NDo=     1
 LinEq1:  Iter=  3 NonCon=     1 RMS=2.50D-04 Max=7.69D-03 NDo=     1
 LinEq1:  Iter=  4 NonCon=     1 RMS=1.02D-04 Max=2.74D-03 NDo=     1
 LinEq1:  Iter=  5 NonCon=     1 RMS=4.67D-05 Max=1.25D-03 NDo=     1
 LinEq1:  Iter=  6 NonCon=     1 RMS=2.37D-05 Max=9.45D-04 NDo=     1
 LinEq1:  Iter=  7 NonCon=     1 RMS=1.14D-05 Max=4.39D-04 NDo=     1
 LinEq1:  Iter=  8 NonCon=     1 RMS=4.14D-06 Max=1.18D-04 NDo=     1
 LinEq1:  Iter=  9 NonCon=     1 RMS=2.27D-06 Max=4.92D-05 NDo=     1
 LinEq1:  Iter= 10 NonCon=     1 RMS=6.94D-07 Max=1.31D-05 NDo=     1
 LinEq1:  Iter= 11 NonCon=     1 RMS=2.91D-07 Max=7.39D-06 NDo=     1
 LinEq1:  Iter= 12 NonCon=     1 RMS=1.41D-07 Max=2.11D-06 NDo=     1
 LinEq1:  Iter= 13 NonCon=     1 RMS=5.60D-08 Max=1.73D-06 NDo=     1
 LinEq1:  Iter= 14 NonCon=     1 RMS=3.47D-08 Max=9.53D-07 NDo=     1
 LinEq1:  Iter= 15 NonCon=     1 RMS=1.07D-08 Max=2.77D-07 NDo=     1
 LinEq1:  Iter= 16 NonCon=     1 RMS=5.22D-09 Max=1.23D-07 NDo=     1
 LinEq1:  Iter= 17 NonCon=     1 RMS=1.75D-09 Max=4.85D-08 NDo=     1
 LinEq1:  Iter= 18 NonCon=     1 RMS=5.81D-10 Max=9.72D-09 NDo=     1
 LinEq1:  Iter= 19 NonCon=     1 RMS=3.01D-10 Max=4.52D-09 NDo=     1
 LinEq1:  Iter= 20 NonCon=     1 RMS=1.06D-10 Max=1.84D-09 NDo=     1
 LinEq1:  Iter= 21 NonCon=     0 RMS=4.69D-11 Max=4.43D-10 NDo=     1
 Linear equations converged to 1.000D-10 1.000D-09 after    21 iterations.
 End of Minotr F.D. properties file   721 does not exist.
 End of Minotr F.D. properties file   722 does not exist.
 End of Minotr F.D. properties file   788 does not exist.
 Calling FoFJK, ICntrl=  10002127 FMM=F ISym2X=0 I1Cent= 0 IOpClX= 0 NMat=1 NMatS=1 NMatT=0.
 ***** Axes restored to original set *****
 -------------------------------------------------------------------
 Center     Atomic                   Forces (Hartrees/Bohr)
 Number     Number              X              Y              Z
 -------------------------------------------------------------------
      1        6          -0.000857684   -0.000534070   -0.000000758
      2        6          -0.000091492    0.000288352   -0.000008025
      3        6           0.000048173   -0.000326089   -0.000001402
      4        6           0.000452933    0.000593648    0.000000276
      5        6          -0.000220130   -0.000345288    0.000000144
      6        6           0.000433874    0.000279144    0.000000566
      7        8          -0.000356151   -0.000223788    0.000000728
      8        6          -0.001143003    0.000121342    0.000029538
      9        8           0.000872428    0.000181971   -0.000008481
     10        8           0.000560796   -0.000523734   -0.000011359
     11        8           0.000404477    0.000533219   -0.000000326
     12        1          -0.000090282    0.000080707   -0.000000241
     13        1          -0.000004142    0.000040633   -0.000000046
     14        1          -0.000083559    0.000048975    0.000000049
     15        1          -0.000166468   -0.000063459   -0.000000433
     16        1           0.000261839   -0.000332820   -0.000000251
     17        1          -0.000021609    0.000181256    0.000000019
 -------------------------------------------------------------------
 Cartesian Forces:  Max     0.001143003 RMS     0.000337602

 GradGradGradGradGradGradGradGradGradGradGradGradGradGradGradGradGradGrad
 Berny optimization.
 Using GEDIIS/GDIIS optimizer.
 FormGI is forming the generalized inverse of G from B-inverse, IUseBI=4.
 Internal  Forces:  Max     0.001384932 RMS     0.000281558
 Search for a local minimum.
 Step number   2 out of a maximum of   85
 All quantities printed in internal units (Hartrees-Bohrs-Radians)
 Mixed Optimization -- En-DIIS/RFO-DIIS
 Swapping is turned off.
 Update second derivatives using D2CorX and points    1    2
 DE= -4.39D-05 DEPred=-5.82D-05 R= 7.53D-01
 TightC=F SS=  1.41D+00  RLast= 2.02D-02 DXNew= 5.0454D-01 6.0485D-02
 Trust test= 7.53D-01 RLast= 2.02D-02 DXMaxT set to 3.00D-01
 ITU=  1  0
     Eigenvalues ---    0.00932   0.01299   0.01646   0.01962   0.02032
     Eigenvalues ---    0.02033   0.02097   0.02109   0.02123   0.02125
     Eigenvalues ---    0.02136   0.02150   0.02164   0.02200   0.15630
     Eigenvalues ---    0.16000   0.16000   0.16000   0.16000   0.16377
     Eigenvalues ---    0.22336   0.22963   0.24592   0.24963   0.25000
     Eigenvalues ---    0.25000   0.25000   0.30053   0.33773   0.35103
     Eigenvalues ---    0.35558   0.36811   0.41594   0.42505   0.44591
     Eigenvalues ---    0.45004   0.46200   0.47037   0.50539   0.51134
     Eigenvalues ---    0.51745   0.53548   0.54210   0.55514   0.93993
 En-DIIS/RFO-DIIS IScMMF=        0 using points:     2    1
 RFO step:  Lambda=-9.28233962D-06.
 DidBck=F Rises=F RFO-DIIS coefs:    0.81314    0.18686
 Iteration  1 RMS(Cart)=  0.00169276 RMS(Int)=  0.00000115
 Iteration  2 RMS(Cart)=  0.00000142 RMS(Int)=  0.00000017
 Iteration  3 RMS(Cart)=  0.00000000 RMS(Int)=  0.00000017
 Variable       Old X    -DE/DX   Delta X   Delta X   Delta X     New X
                                 (Linear)    (Quad)   (Total)
    R1        2.66979   0.00043   0.00069  -0.00016   0.00053   2.67032
    R2        2.64575  -0.00015   0.00024  -0.00063  -0.00039   2.64536
    R3        2.57554   0.00075  -0.00046   0.00183   0.00137   2.57691
    R4        2.65436   0.00025   0.00034  -0.00001   0.00033   2.65470
    R5        2.80733   0.00072   0.00065   0.00078   0.00143   2.80876
    R6        2.62863   0.00021   0.00005   0.00030   0.00035   2.62899
    R7        2.04225  -0.00009   0.00058  -0.00106  -0.00048   2.04178
    R8        2.64098  -0.00017   0.00024  -0.00067  -0.00043   2.64055
    R9        2.59711   0.00058  -0.00004   0.00098   0.00095   2.59806
   R10        2.63319   0.00016  -0.00015   0.00046   0.00031   2.63350
   R11        2.05113   0.00002   0.00074  -0.00103  -0.00029   2.05084
   R12        2.05103   0.00006   0.00074  -0.00092  -0.00019   2.05084
   R13        1.82303   0.00012   0.00030  -0.00025   0.00005   1.82308
   R14        2.58482   0.00016  -0.00015   0.00047   0.00032   2.58514
   R15        2.29903   0.00020  -0.00091   0.00148   0.00057   2.29961
   R16        1.83343   0.00034   0.00024   0.00017   0.00041   1.83384
   R17        1.82479   0.00017   0.00026  -0.00011   0.00015   1.82493
    A1        2.07640   0.00020   0.00001   0.00066   0.00067   2.07707
    A2        2.09030   0.00025   0.00047   0.00012   0.00059   2.09088
    A3        2.11649  -0.00045  -0.00048  -0.00078  -0.00126   2.11523
    A4        2.08015  -0.00025  -0.00048  -0.00003  -0.00051   2.07965
    A5        2.11621   0.00022   0.00029   0.00023   0.00053   2.11673
    A6        2.08682   0.00003   0.00018  -0.00020  -0.00002   2.08680
    A7        2.11573  -0.00005   0.00052  -0.00085  -0.00034   2.11539
    A8        2.09040   0.00011  -0.00008   0.00058   0.00050   2.09090
    A9        2.07705  -0.00006  -0.00044   0.00028  -0.00016   2.07689
   A10        2.08648   0.00015  -0.00035   0.00099   0.00064   2.08712
   A11        2.04667   0.00000   0.00037  -0.00052  -0.00015   2.04652
   A12        2.15003  -0.00016  -0.00002  -0.00047  -0.00049   2.14954
   A13        2.09076  -0.00001   0.00021  -0.00043  -0.00021   2.09055
   A14        2.10342   0.00004  -0.00013   0.00046   0.00033   2.10375
   A15        2.08900  -0.00004  -0.00008  -0.00003  -0.00012   2.08889
   A16        2.11684  -0.00004   0.00009  -0.00034  -0.00025   2.11659
   A17        2.08091   0.00009  -0.00005   0.00054   0.00049   2.08140
   A18        2.08543  -0.00005  -0.00004  -0.00020  -0.00024   2.08519
   A19        1.91875   0.00024   0.00129  -0.00068   0.00062   1.91937
   A20        1.95253   0.00106   0.00113   0.00181   0.00294   1.95546
   A21        2.20907   0.00033   0.00019   0.00078   0.00097   2.21004
   A22        2.12159  -0.00138  -0.00132  -0.00259  -0.00391   2.11768
   A23        1.84285   0.00047   0.00146   0.00027   0.00173   1.84458
   A24        1.90309   0.00008   0.00137  -0.00157  -0.00019   1.90289
    D1       -0.00001   0.00000   0.00000   0.00002   0.00002   0.00001
    D2        3.14158   0.00000   0.00000   0.00002   0.00002  -3.14159
    D3        3.14157   0.00000   0.00000   0.00001   0.00002   3.14159
    D4       -0.00003   0.00000   0.00000   0.00001   0.00001  -0.00002
    D5       -0.00000  -0.00000  -0.00000  -0.00001  -0.00001  -0.00001
    D6       -3.14159  -0.00000  -0.00000  -0.00001  -0.00001   3.14159
    D7       -3.14159  -0.00000  -0.00000  -0.00000  -0.00000  -3.14159
    D8        0.00001  -0.00000  -0.00000  -0.00000  -0.00000   0.00001
    D9       -3.14157   0.00000   0.00000   0.00000   0.00000  -3.14157
   D10        0.00001  -0.00000   0.00000  -0.00000  -0.00000   0.00001
   D11        0.00002  -0.00000  -0.00000  -0.00002  -0.00002  -0.00001
   D12       -3.14158  -0.00000  -0.00000  -0.00001  -0.00001   3.14159
   D13       -3.14157  -0.00000  -0.00000  -0.00002  -0.00002  -3.14159
   D14        0.00002  -0.00000  -0.00000  -0.00001  -0.00001   0.00001
   D15        3.14132   0.00001   0.00003   0.00041   0.00044  -3.14143
   D16       -0.00006  -0.00001  -0.00002  -0.00044  -0.00046  -0.00052
   D17       -0.00028   0.00001   0.00003   0.00041   0.00044   0.00016
   D18        3.14153  -0.00001  -0.00002  -0.00044  -0.00046   3.14107
   D19       -0.00001   0.00000  -0.00000   0.00001   0.00001   0.00000
   D20        3.14157   0.00000  -0.00000   0.00001   0.00001   3.14158
   D21       -3.14159  -0.00000  -0.00000  -0.00000  -0.00000   3.14159
   D22       -0.00002  -0.00000  -0.00000   0.00000   0.00000  -0.00002
   D23       -0.00001   0.00000   0.00000   0.00000   0.00000  -0.00001
   D24        3.14159  -0.00000  -0.00000  -0.00000  -0.00000   3.14159
   D25       -3.14158   0.00000   0.00000   0.00000   0.00000  -3.14158
   D26        0.00001  -0.00000  -0.00000  -0.00000  -0.00000   0.00001
   D27        3.14144   0.00000  -0.00000   0.00002   0.00002   3.14146
   D28       -0.00017   0.00000  -0.00000   0.00002   0.00002  -0.00015
   D29        0.00001  -0.00000  -0.00000  -0.00000  -0.00000   0.00001
   D30       -3.14158  -0.00000  -0.00000  -0.00000  -0.00000  -3.14159
   D31       -3.14158   0.00000   0.00000   0.00000   0.00000  -3.14158
   D32        0.00001  -0.00000   0.00000  -0.00000  -0.00000   0.00001
   D33       -3.14151  -0.00001  -0.00002  -0.00041  -0.00043   3.14124
   D34       -0.00012   0.00001   0.00002   0.00039   0.00041   0.00029
         Item               Value     Threshold  Converged?
 Maximum Force            0.001385     0.000450     NO 
 RMS     Force            0.000282     0.000300     YES
 Maximum Displacement     0.008203     0.001800     NO 
 RMS     Displacement     0.001693     0.001200     NO 
 Predicted change in Energy=-7.382951D-06
 GradGradGradGradGradGradGradGradGradGradGradGradGradGradGradGradGradGrad

                          Input orientation:                          
 ---------------------------------------------------------------------
 Center     Atomic      Atomic             Coordinates (Angstroms)
 Number     Number       Type             X           Y           Z
 ---------------------------------------------------------------------
      1          6           0        0.232884    1.273020    0.000059
      2          6           0        0.466377   -0.120628    0.000127
      3          6           0       -0.630496   -0.998320    0.000107
      4          6           0       -1.936705   -0.519517    0.000030
      5          6           0       -2.166178    0.858831   -0.000034
      6          6           0       -1.086715    1.740221   -0.000012
      7          8           0       -2.948524   -1.450319    0.000002
      8          6           0        1.846714   -0.671854    0.000207
      9          8           0        1.853183   -2.039837    0.000052
     10          8           0        2.883124   -0.034125   -0.000283
     11          8           0        1.287977    2.136904    0.000085
     12          1           0       -0.463971   -2.065872    0.000156
     13          1           0       -3.178784    1.249234   -0.000101
     14          1           0       -1.270672    2.809775   -0.000058
     15          1           0       -3.804902   -1.006104    0.000070
     16          1           0        2.788698   -2.297797   -0.000213
     17          1           0        0.953222    3.042740    0.000054
 ---------------------------------------------------------------------
                    Distance matrix (angstroms):
                    1          2          3          4          5
     1  C    0.000000
     2  C    1.413072   0.000000
     3  C    2.429900   1.404804   0.000000
     4  C    2.814303   2.435963   1.391199   0.000000
     5  C    2.434553   2.808859   2.409841   1.397319   0.000000
     6  C    1.399863   2.423810   2.776283   2.414311   1.393589
     7  O    4.187831   3.664646   2.361685   1.374835   2.438081
     8  C    2.527248   1.486331   2.498630   3.786484   4.294915
     9  O    3.687870   2.367825   2.693217   4.083457   4.955557
    10  O    2.955063   2.418294   3.643514   4.844208   5.127652
    11  O    1.363641   2.402390   3.675618   4.177935   3.683023
    12  H    3.410837   2.156276   1.080462   2.135453   3.383991
    13  H    3.411750   3.894062   3.397833   2.161305   1.085258
    14  H    2.149953   3.406553   3.861530   3.395259   2.146651
    15  H    4.636607   4.362098   3.174416   1.930525   2.482620
    16  H    4.391232   3.183275   3.657804   5.048932   5.874955
    17  H    1.910706   3.200612   4.340315   4.587085   3.807901
                    6          7          8          9         10
     6  C    0.000000
     7  O    3.694033   0.000000
     8  C    3.797777   4.858015   0.000000
     9  O    4.788720   4.837760   1.367998   0.000000
    10  O    4.348324   6.001143   1.216899   2.254697   0.000000
    11  O    2.407596   5.551226   2.863793   4.214810   2.694041
    12  H    3.856703   2.559669   2.698621   2.317301   3.915487
    13  H    2.148912   2.709356   5.380168   6.011545   6.196268
    14  H    1.085258   4.578601   4.673311   5.768640   5.034063
    15  H    3.864045   0.964734   5.661492   5.751742   6.758286
    16  H    5.596822   5.799477   1.879102   0.970429   2.265640
    17  H    2.420309   5.950731   3.820542   5.161639   3.632027
                   11         12         13         14         15
    11  O    0.000000
    12  H    4.553312   0.000000
    13  H    4.554109   4.284873   0.000000
    14  H    2.645646   4.941933   2.464990   0.000000
    15  H    5.984640   3.504986   2.340636   4.580748   0.000000
    16  H    4.681745   3.260928   6.942065   6.524245   6.718931
    17  H    0.965712   5.301543   4.504457   2.236063   6.247630
                   16         17
    16  H    0.000000
    17  H    5.647150   0.000000
 Stoichiometry    C7H6O4
 Framework group  C1[X(C7H6O4)]
 Deg. of freedom    45
 Full point group                 C1      NOp   1
 Largest Abelian subgroup         C1      NOp   1
 Largest concise Abelian subgroup C1      NOp   1
                         Standard orientation:                         
 ---------------------------------------------------------------------
 Center     Atomic      Atomic             Coordinates (Angstroms)
 Number     Number       Type             X           Y           Z
 ---------------------------------------------------------------------
      1          6           0        0.235320    1.272563    0.000039
      2          6           0        0.466351   -0.121495    0.000106
      3          6           0       -0.632070   -0.997249    0.000086
      4          6           0       -1.937432   -0.516139    0.000009
      5          6           0       -2.164470    0.862612   -0.000054
      6          6           0       -1.083451    1.742094   -0.000033
      7          8           0       -2.950893   -1.445153   -0.000019
      8          6           0        1.845712   -0.675159    0.000186
      9          8           0        1.849765   -2.043151    0.000031
     10          8           0        2.883247   -0.039261   -0.000304
     11          8           0        1.291937    2.134582    0.000064
     12          1           0       -0.467432   -2.065093    0.000136
     13          1           0       -3.176384    1.254803   -0.000122
     14          1           0       -1.265519    2.811971   -0.000078
     15          1           0       -3.806485   -0.999426    0.000049
     16          1           0        2.784823   -2.302763   -0.000234
     17          1           0        0.958783    3.041008    0.000033
 ---------------------------------------------------------------------
 Rotational constants (GHZ):      1.7548107      0.9133748      0.6007078
 Standard basis: 6-31+G(d,p) (6D, 7F)
 There are   239 symmetry adapted cartesian basis functions of A   symmetry.
 There are   239 symmetry adapted basis functions of A   symmetry.
   239 basis functions,   394 primitive gaussians,   239 cartesian basis functions
    40 alpha electrons       40 beta electrons
       nuclear repulsion energy       589.3310816708 Hartrees.
 NAtoms=   17 NActive=   17 NUniq=   17 SFac= 1.00D+00 NAtFMM=   60 NAOKFM=F Big=F
 Integral buffers will be    131072 words long.
 Regular integral format.
 Two-electron integral symmetry is turned on.
 Nuclear repulsion after empirical dispersion term =      589.3239508701 Hartrees.
 One-electron integrals computed using PRISM.
 NBasis=   239 RedAO= T EigKep=  3.24D-06  NBF=   239
 NBsUse=   239 1.00D-06 EigRej= -1.00D+00 NBFU=   239
 Initial guess from the checkpoint file:  "B2PLYPD3DHB.chk"
 B after Tr=     0.000000   -0.000000   -0.000000
         Rot=    1.000000   -0.000003    0.000001   -0.000666 Ang=  -0.08 deg.
 Keep R1 ints in memory in canonical form, NReq=418393415.
 Requested convergence on RMS density matrix=1.00D-08 within 128 cycles.
 Requested convergence on MAX density matrix=1.00D-06.
 Requested convergence on             energy=1.00D-06.
 No special actions if energy rises.
 SCF Done:  E(RB2PLYP) =  -570.218539475     A.U. after   10 cycles
            NFock= 10  Conv=0.63D-08     -V/T= 2.0069
 DoSCS=T DFT=T ScalE2(SS,OS)=  0.270000  0.270000
 ExpMin= 4.38D-02 ExpMax= 5.48D+03 ExpMxC= 8.25D+02 IAcc=3 IRadAn=         5 AccDes= 0.00D+00
 HarFok:  IExCor=  205 AccDes= 0.00D+00 IRadAn=         5 IDoV=-2 UseB2=F ITyADJ=14
 ICtDFT= 12500011 ScaDFX=  1.000000  1.000000  1.000000  1.000000
 Range of M.O.s used for correlation:    12   239
 NBasis=   239 NAE=    40 NBE=    40 NFC=    11 NFV=     0
 NROrb=    228 NOA=    29 NOB=    29 NVA=   199 NVB=   199

 **** Warning!!: The largest alpha MO coefficient is  0.16258534D+03

 DoSCS=T DFT=T ScalE2(SS,OS)=  0.270000  0.270000
 Fully direct method using O(ONN) memory.
 JobTyp=1 Pass  1:  I=  12 to  17 NPSUse= 18 ParTrn=T ParDer=T DoDerP=T.
 JobTyp=1 Pass  2:  I=  18 to  23 NPSUse= 18 ParTrn=T ParDer=T DoDerP=T.
 JobTyp=1 Pass  3:  I=  24 to  29 NPSUse= 18 ParTrn=T ParDer=T DoDerP=T.
 JobTyp=1 Pass  4:  I=  30 to  35 NPSUse= 18 ParTrn=T ParDer=T DoDerP=T.
 JobTyp=1 Pass  5:  I=  36 to  40 NPSUse= 18 ParTrn=T ParDer=T DoDerP=T.
 Spin components of T(2) and E(2):
     alpha-alpha T2 =       0.1208800856D+00 E2=     -0.7594136750D-01
     alpha-beta  T2 =       0.6100041664D+00 E2=     -0.3978431009D+00
     beta-beta   T2 =       0.1208800856D+00 E2=     -0.7594136750D-01
 E2(B2PLYP) =    -0.5497258358D+00 E(B2PLYP) =    -0.57076826531110D+03
          IDoAtm=11111111111111111
          Differentiating once with respect to electric field.
                with respect to dipole field.
          Differentiating once with respect to nuclear coordinates.
 Keep R1 ints in memory in canonical form, NReq=418199641.
          There are     1 degrees of freedom in the 1st order CPHF.  IDoFFX=0 NUNeed=     1.
 LinEq1:  Iter=  0 NonCon=     1 RMS=1.99D-03 Max=4.46D-02 NDo=     1
 AX will form     1 AO Fock derivatives at one time.
 LinEq1:  Iter=  1 NonCon=     1 RMS=9.03D-04 Max=1.71D-02 NDo=     1
 LinEq1:  Iter=  2 NonCon=     1 RMS=3.16D-04 Max=5.10D-03 NDo=     1
 LinEq1:  Iter=  3 NonCon=     1 RMS=2.50D-04 Max=7.82D-03 NDo=     1
 LinEq1:  Iter=  4 NonCon=     1 RMS=1.02D-04 Max=2.74D-03 NDo=     1
 LinEq1:  Iter=  5 NonCon=     1 RMS=4.68D-05 Max=1.25D-03 NDo=     1
 LinEq1:  Iter=  6 NonCon=     1 RMS=2.38D-05 Max=9.46D-04 NDo=     1
 LinEq1:  Iter=  7 NonCon=     1 RMS=1.14D-05 Max=4.40D-04 NDo=     1
 LinEq1:  Iter=  8 NonCon=     1 RMS=4.15D-06 Max=1.19D-04 NDo=     1
 LinEq1:  Iter=  9 NonCon=     1 RMS=2.28D-06 Max=4.91D-05 NDo=     1
 LinEq1:  Iter= 10 NonCon=     1 RMS=6.96D-07 Max=1.33D-05 NDo=     1
 LinEq1:  Iter= 11 NonCon=     1 RMS=2.92D-07 Max=7.41D-06 NDo=     1
 LinEq1:  Iter= 12 NonCon=     1 RMS=1.41D-07 Max=2.08D-06 NDo=     1
 LinEq1:  Iter= 13 NonCon=     1 RMS=5.62D-08 Max=1.74D-06 NDo=     1
 LinEq1:  Iter= 14 NonCon=     1 RMS=3.49D-08 Max=9.65D-07 NDo=     1
 LinEq1:  Iter= 15 NonCon=     1 RMS=1.08D-08 Max=2.80D-07 NDo=     1
 LinEq1:  Iter= 16 NonCon=     1 RMS=5.26D-09 Max=1.23D-07 NDo=     1
 LinEq1:  Iter= 17 NonCon=     1 RMS=1.76D-09 Max=4.83D-08 NDo=     1
 LinEq1:  Iter= 18 NonCon=     1 RMS=5.88D-10 Max=9.68D-09 NDo=     1
 LinEq1:  Iter= 19 NonCon=     1 RMS=3.05D-10 Max=4.53D-09 NDo=     1
 LinEq1:  Iter= 20 NonCon=     1 RMS=1.07D-10 Max=1.85D-09 NDo=     1
 LinEq1:  Iter= 21 NonCon=     0 RMS=4.76D-11 Max=4.50D-10 NDo=     1
 Linear equations converged to 1.000D-10 1.000D-09 after    21 iterations.
 End of Minotr F.D. properties file   721 does not exist.
 End of Minotr F.D. properties file   722 does not exist.
 End of Minotr F.D. properties file   788 does not exist.
 Calling FoFJK, ICntrl=  10002127 FMM=F ISym2X=0 I1Cent= 0 IOpClX= 0 NMat=1 NMatS=1 NMatT=0.
 ***** Axes restored to original set *****
 -------------------------------------------------------------------
 Center     Atomic                   Forces (Hartrees/Bohr)
 Number     Number              X              Y              Z
 -------------------------------------------------------------------
      1        6          -0.000256258   -0.000176141    0.000002200
      2        6           0.000172134    0.000015490    0.000024646
      3        6           0.000054614    0.000006639    0.000002808
      4        6           0.000144689    0.000188764   -0.000001557
      5        6           0.000008428   -0.000164945   -0.000000064
      6        6           0.000175963   -0.000001790   -0.000001302
      7        8          -0.000057954   -0.000112538    0.000000312
      8        6          -0.000065417   -0.000040589   -0.000090059
      9        8          -0.000084862    0.000077773    0.000026797
     10        8          -0.000054434   -0.000014518    0.000034113
     11        8           0.000166132    0.000083893    0.000001480
     12        1           0.000013705   -0.000118988    0.000000573
     13        1          -0.000101026    0.000045440    0.000000209
     14        1          -0.000045102    0.000104993   -0.000000224
     15        1          -0.000091208   -0.000005796   -0.000000417
     16        1           0.000028441    0.000029950    0.000000616
     17        1          -0.000007845    0.000082364   -0.000000130
 -------------------------------------------------------------------
 Cartesian Forces:  Max     0.000256258 RMS     0.000086841

 GradGradGradGradGradGradGradGradGradGradGradGradGradGradGradGradGradGrad
 Berny optimization.
 Using GEDIIS/GDIIS optimizer.
 FormGI is forming the generalized inverse of G from B-inverse, IUseBI=4.
 Internal  Forces:  Max     0.000230732 RMS     0.000057568
 Search for a local minimum.
 Step number   3 out of a maximum of   85
 All quantities printed in internal units (Hartrees-Bohrs-Radians)
 Mixed Optimization -- En-DIIS/RFO-DIIS
 Swapping is turned off.
 Update second derivatives using D2CorX and points    1    2    3
 DE= -7.75D-06 DEPred=-7.38D-06 R= 1.05D+00
 TightC=F SS=  1.41D+00  RLast= 6.38D-03 DXNew= 5.0454D-01 1.9141D-02
 Trust test= 1.05D+00 RLast= 6.38D-03 DXMaxT set to 3.00D-01
 ITU=  1  1  0
     Eigenvalues ---    0.00932   0.01308   0.01646   0.01962   0.02032
     Eigenvalues ---    0.02033   0.02097   0.02109   0.02123   0.02125
     Eigenvalues ---    0.02136   0.02150   0.02164   0.02200   0.15677
     Eigenvalues ---    0.16000   0.16000   0.16000   0.16118   0.16379
     Eigenvalues ---    0.21852   0.22631   0.24538   0.24844   0.25000
     Eigenvalues ---    0.25000   0.25023   0.29744   0.35089   0.35180
     Eigenvalues ---    0.35617   0.38627   0.41569   0.43475   0.44082
     Eigenvalues ---    0.45027   0.45946   0.46858   0.48234   0.51097
     Eigenvalues ---    0.52015   0.53969   0.54245   0.54456   0.94723
 En-DIIS/RFO-DIIS IScMMF=        0 using points:     3    2    1
 RFO step:  Lambda=-4.17636955D-07.
 DidBck=F Rises=F RFO-DIIS coefs:    0.97208    0.01783    0.01009
 Iteration  1 RMS(Cart)=  0.00065871 RMS(Int)=  0.00000053
 Iteration  2 RMS(Cart)=  0.00000066 RMS(Int)=  0.00000032
 Variable       Old X    -DE/DX   Delta X   Delta X   Delta X     New X
                                 (Linear)    (Quad)   (Total)
    R1        2.67032   0.00001   0.00002   0.00002   0.00004   2.67036
    R2        2.64536  -0.00005   0.00002  -0.00016  -0.00014   2.64522
    R3        2.57691   0.00023  -0.00006   0.00061   0.00055   2.57746
    R4        2.65470   0.00000   0.00001   0.00001   0.00002   2.65472
    R5        2.80876  -0.00018  -0.00000  -0.00045  -0.00046   2.80830
    R6        2.62899   0.00004  -0.00001   0.00011   0.00010   2.62909
    R7        2.04178   0.00012   0.00004   0.00022   0.00027   2.04205
    R8        2.64055  -0.00003   0.00002  -0.00012  -0.00010   2.64045
    R9        2.59806   0.00019  -0.00003   0.00046   0.00044   2.59850
   R10        2.63350   0.00011  -0.00002   0.00028   0.00027   2.63377
   R11        2.05084   0.00011   0.00005   0.00021   0.00026   2.05110
   R12        2.05084   0.00011   0.00005   0.00023   0.00027   2.05111
   R13        1.82308   0.00008   0.00001   0.00013   0.00014   1.82322
[...]
 ! D30   D(4,5,6,14)          -179.9999         -DE/DX =    0.0                 !
 ! D31   D(13,5,6,1)          -179.9993         -DE/DX =    0.0                 !
 ! D32   D(13,5,6,14)            0.0003         -DE/DX =    0.0                 !
 ! D33   D(2,8,9,16)           179.9617         -DE/DX =    0.0                 !
 ! D34   D(10,8,9,16)            0.033          -DE/DX =    0.0                 !
 --------------------------------------------------------------------------------
 GradGradGradGradGradGradGradGradGradGradGradGradGradGradGradGradGradGrad

 1\1\ WCSS.PL-BEM-JP\Freq\RB2PLYP-FC\6-31+G(d,p)\C7H6O4\C612\17-Dec-202
 4\0\\#N Geom=AllCheck Guess=TCheck SCRF=Check GenChk RB2PLYP(FC)/6-31+
 G(d,p) Freq\\[No Title]\\0,1\C,0.2328365223,1.2731671524,0.0001095586\
 C,0.46656398,-0.1204589019,0.0002523656\C,-0.6300993572,-0.9984551948,
 0.0002079914\C,-1.9363213924,-0.5194083252,0.0000531057\C,-2.166067639
 8,0.858776342,-0.0000748748\C,-1.086554493,1.7405039739,-0.0000401296\
 O,-2.9483421867,-1.4505954325,0.0000185906\C,1.8463592883,-0.671995339
 1,0.0004289607\O,1.8524264666,-2.0398452509,-0.0000119052\O,2.88313214
 38,-0.0347715798,-0.0003907115\O,1.2882761566,2.1374654338,0.000148995
 \H,-0.4636377495,-2.0662319398,0.0003065967\H,-3.1788836467,1.24921940
 95,-0.0002033791\H,-1.2709035136,2.8102134759,-0.0001376249\H,-3.80518
 14772,-1.0070128504,-0.0000029236\H,2.788031506,-2.2976730762,-0.00047
 88793\H,0.9535953926,3.0434571031,0.0000632638\\Version=ES64L-G09RevE.
 01\State=1-A\HF=-570.218517\MP2=-570.7682654\RMSD=3.599e-09\RMSF=5.993
 e-05\ZeroPoint=0.1228343\Thermal=0.131937\Dipole=-1.4634572,0.7187737,
 0.0001099\DipoleDeriv=0.6800177,0.8793704,0.0000461,0.5060667,0.611994
 5,0.0000348,-0.0001182,0.00012,0.0762605,-0.5924476,0.4054455,-0.00000
 27,-0.0414159,-0.1099059,-0.000015,-0.0000309,-0.0000244,-0.0193841,0.
 0682726,-0.4699866,0.0000466,0.1861065,-0.0476286,-0.0000016,-0.000130
 3,0.0000446,-0.1218382,0.8413967,0.9396559,0.0000106,0.916432,0.347555
 4,0.0000356,0.0000333,0.0000859,0.0675342,-0.0463309,0.1384707,0.00001
 9,-0.3848438,0.1309711,-0.0000404,0.0000084,0.0000053,-0.1449074,-0.11
 79179,-0.472955,0.0000183,0.1080911,0.03057,-0.0000112,0.0000419,-0.00
 01045,-0.1708848,-1.0983256,-0.6910664,-0.0000149,-0.741227,-0.6556757
 ,-0.0000164,-0.0000506,-0.0000526,-0.3807412,1.8894299,-0.2990525,-0.0
 000331,-0.2743152,1.7909313,0.0000139,-0.0002219,0.0001543,0.2956013,-
 0.5108176,0.2516436,-0.0000136,0.2529724,-1.4029086,0.0000445,0.000000
 9,-0.0004207,-0.3823572,-1.2342802,-0.1390338,-0.0000295,-0.0612089,-0
 .6516041,-0.0000809,0.0004296,0.0002074,-0.3450455,-0.730143,-0.747250
 5,-0.0000253,-0.6263402,-0.8718403,-0.0000405,-0.0000144,-0.0000635,-0
 .3373331,0.1256434,-0.0088683,-0.0000117,-0.0073184,0.0389276,0.000013
 2,-0.0000008,0.0000044,0.1461587,-0.1020335,0.0324504,-0.0000243,0.028
 002,0.0684835,0.0000088,-0.0000329,0.0000112,0.1482392,0.0562855,-0.01
 64302,-0.0000048,0.0038802,-0.1093736,0.0000168,0.0000097,0.0000282,0.
 1513818,0.3241591,0.0860762,-0.0000025,0.1353886,0.1895442,0.0000035,0
 .0000204,0.000004,0.3417623,0.2186309,-0.0510533,0.0000399,-0.1029419,
 0.3527698,0.0000225,0.0000669,-0.0000148,0.3424396,0.2284607,0.1625838
 ,-0.0000181,0.1026718,0.2871895,0.0000123,-0.0000113,0.0000153,0.33311
 41\Polar=128.4523812,-0.2994793,110.8391194,-0.0008805,-0.0030808,52.0
 655954\PG=C01 [X(C7H6O4)]\NImag=1\\0.68525992,0.00429286,0.70038889,0.
 00005444,-0.00004766,0.12076235,-0.14056939,0.06176044,-0.00001995,0.6
 5029188,0.01195005,-0.28603696,0.00002545,0.02304116,0.69325438,-0.000
 01911,0.00003034,-0.03853312,0.00003338,-0.00004215,0.09685567,0.05468
 675,-0.05805672,0.00001221,-0.23988212,-0.08007600,-0.00002367,0.70544
 995,-0.01976809,-0.03688141,0.00000128,-0.12498507,-0.21089644,0.00000
 615,-0.01553096,0.75444357,0.00000577,-0.00000560,-0.01467723,-0.00001
 980,0.00000788,-0.02819304,0.00006223,-0.00005224,0.09890123,-0.037208
 28,0.03591816,-0.00000771,-0.05136187,-0.03764579,-0.00000070,-0.30303
 887,0.11537024,-0.00003222,0.71442136,0.03899939,-0.04383151,0.0000079
 4,0.00700331,0.05530712,-0.00000864,0.04442343,-0.16015417,0.00001348,
 -0.01631365,0.69653536,-0.00000802,0.00001009,0.01165226,-0.00000692,-
 0.00000876,-0.01380543,-0.00002376,0.00001915,-0.04156102,0.00005262,-
 0.00003836,0.11113664,-0.05250212,0.00099892,-0.00000379,-0.00907696,-
 0.01510177,-0.00000035,0.01412596,0.03222867,-0.00000142,-0.14110733,0
 .08151996,-0.00001744,0.74714395,-0.04528734,0.06075608,-0.00001029,-0
 .01864628,-0.04744052,0.00000284,0.07269806,-0.00936267,0.00000610,0.0
 0535633,-0.31803432,0.00001989,-0.01008890,0.69058596,-0.00000056,-0.0
 0000636,-0.01480657,0.00000030,0.00000229,0.01254603,-0.00000341,0.000
 00427,-0.00982269,-0.00001118,0.00002855,-0.03900484,0.00006455,-0.000
 04605,0.09641905,-0.28604279,0.03469654,-0.00002555,0.01229363,0.06579
 899,0.00000013,-0.05901230,-0.00602286,-0.00000589,0.05560532,-0.06225
 663,0.00001378,-0.26493293,-0.08685812,-0.00001632,0.68740790,0.107494
 42,-0.15889232,0.00001789,0.02827295,-0.00591068,0.00000624,-0.0058831
 2,-0.00365467,0.00000057,-0.01755716,-0.04100592,-0.00000085,-0.144701
 76,-0.21773883,0.00000124,0.01187205,0.74575956,-0.00002566,0.00000934
 ,-0.04121443,-0.00000230,0.00000909,-0.00888233,-0.00000671,-0.0000007
 6,0.01257006,0.00000937,-0.00000359,-0.01280612,-0.00001145,0.00000760
 ,-0.03065756,0.00005068,-0.00004931,0.09167643,0.00727555,-0.00121531,
 0.00000073,-0.00034999,0.00702374,-0.00000159,-0.05215851,-0.03536677,
 -0.00000368,-0.20758890,-0.12617537,-0.00000544,0.00136222,-0.00269437
 ,-0.00000060,-0.00724892,0.00059685,-0.00000117,0.67158365,-0.00071860
 ,0.00496460,-0.00000064,0.00042128,-0.00690386,0.00000183,0.00575070,0
 .01585085,0.00000053,-0.07156734,-0.19493778,-0.00000151,-0.04449893,-
 0.03648667,-0.00000178,0.00753132,-0.00253050,0.00000144,-0.06706773,0
 .37571136,0.00000166,-0.00000076,-0.00203051,0.,0.00000108,0.00499573,
 -0.00000587,-0.00000325,0.00486229,-0.00000599,-0.00000204,-0.03164961
 ,0.00000374,0.00000341,0.00352822,-0.00000295,0.00000108,0.00778780,0.
 00001957,-0.00000464,0.01915518,0.01535258,0.02891168,0.00000173,-0.17
 813448,0.03731137,-0.00004099,-0.03702304,-0.00077939,-0.00000181,0.00
 254031,-0.01209611,0.00000314,0.00338369,0.00410299,-0.00000024,-0.002
 16108,-0.00126268,0.00000262,0.00265501,0.00361451,0.00000008,0.882749
 20,0.03325389,-0.00779895,0.00000519,0.05129752,-0.12165847,0.00001446
 ,-0.01273880,0.02081861,-0.00000641,-0.00529523,0.00103448,-0.00000228
 ,-0.00273104,-0.00437409,0.00000063,0.00187227,-0.00667478,0.00000142,
 -0.00392624,-0.00212967,0.00000005,0.15443679,0.64016792,-0.00000165,-
 0.00000737,-0.00215567,-0.00000421,-0.00000134,-0.06784770,0.00000185,
 0.00000431,-0.00425289,-0.00000066,0.00000164,0.00856115,0.00000175,-0
 .00000080,-0.00154967,-0.00000198,0.00000049,0.00674258,-0.00000156,-0
 .00000114,0.00044973,-0.00036274,-0.00012247,0.19664981,-0.00901651,-0
 .00449704,-0.00000030,-0.00558296,0.04255620,0.00000767,-0.00629488,0.
 00224987,0.00000256,0.00212970,0.00182159,0.00000023,-0.00057316,0.000
 42270,-0.00000003,0.00003440,0.00232960,-0.00000106,-0.00102687,-0.000
 76721,-0.00000013,-0.12378584,0.03236026,0.00003604,0.61052557,0.00200
 491,0.00391601,-0.00000097,0.01535385,-0.02938776,-0.00001384,-0.00088
 959,-0.00456084,0.00000120,-0.00026702,-0.00263074,0.00000103,0.000733
 12,0.00083902,-0.00000027,0.00020602,-0.00049522,0.00000073,0.00208527
 ,0.00189272,0.00000009,-0.00563554,-0.23712854,-0.00003275,-0.09822218
 ,0.41506354,0.00000155,0.00000152,0.00165424,-0.00000322,-0.00000717,0
 .00985814,0.00000129,-0.00000187,0.00215192,0.00000026,-0.00000128,-0.
 00154858,0.00000027,0.00000067,0.00029135,-0.00000027,-0.00000045,-0.0
 0070493,0.00000100,0.00000066,0.00002303,0.00001360,-0.00007027,-0.059
 77305,-0.00025990,0.00010730,0.03250186,-0.00647062,-0.01072994,-0.000
 00080,-0.05488191,-0.02218560,0.00003959,-0.00024603,0.00882765,0.0000
 0093,-0.00213817,0.00315920,-0.00000344,-0.00158918,-0.00301406,0.0000
 0058,0.00254192,0.00003467,-0.00000082,-0.00250210,-0.00131427,-0.0000
 0021,-0.54938686,-0.25386015,0.00033423,0.00757797,-0.04978525,0.00001
 490,0.60585779,-0.00633594,-0.00646366,-0.00000127,-0.00793865,0.01851
 307,0.00000368,0.00420824,-0.00162327,0.00000029,-0.00115728,0.0020731
 4,-0.00000023,-0.00013784,-0.00078990,-0.00000016,0.00119619,0.0007402
 2,-0.00000054,0.00086837,0.00028997,0.00000006,-0.25523240,-0.25983298
 ,0.00018909,-0.06407934,-0.07441764,0.00003206,0.32467029,0.31768588,0
 .00000215,0.00000737,-0.00080010,0.00001689,0.00001456,0.01844813,0.00
 000139,-0.00000574,0.00262739,0.00000038,-0.00000034,-0.00129441,-0.00
 000043,0.00000067,0.00005882,0.00000056,-0.00000027,-0.00069514,0.0000
 0153,0.00000058,-0.00020688,0.00036125,0.00019447,-0.07312323,0.000002
 58,0.00001470,0.02828898,-0.00038437,-0.00022719,0.02974205,-0.2314942
 7,-0.07415364,-0.00001178,0.01778343,-0.00585185,0.00000130,-0.0107340
 6,0.00291695,0.00000030,0.00778366,-0.00329990,0.00000153,0.00069839,0
 .00937783,-0.00000130,-0.05185116,-0.03779989,-0.00000451,-0.00588436,
 -0.00397522,-0.00000076,-0.01341369,0.00084831,0.00000213,0.00226368,0
 .00023576,0.00000003,0.00513226,0.00720529,-0.00000336,0.38263410,-0.1
 2885081,-0.18572224,-0.00000092,-0.03287879,-0.04001769,0.00000075,0.0
 0393871,-0.00301260,0.00000175,0.00191225,0.00393821,-0.00000019,0.001
 58499,-0.00463584,0.00000091,-0.00242613,0.00690976,-0.00000063,-0.005
 55610,-0.00392950,-0.00000065,-0.01269492,0.00149389,0.00000126,0.0013
 2225,-0.00161088,-0.00000083,0.00951825,-0.00317276,-0.00000418,-0.028
 62208,0.67798592,-0.00001092,0.00000590,-0.03397920,0.00000539,-0.0000
 0015,0.00202199,-0.00000167,0.00000135,0.00477935,0.00000056,-0.000000
 50,-0.00195839,-0.00000103,0.00000138,0.00859768,-0.00000469,-0.000003
 85,0.00627738,-0.00000029,-0.00000027,-0.00038436,-0.00000221,0.000000
 64,-0.00290072,0.00000049,-0.00000096,0.00018363,0.00000177,-0.0000010
 0,0.00169937,0.00003502,-0.00004196,0.02198861,-0.00387886,-0.00193474
 ,-0.00000068,0.00807679,-0.02421088,0.00000327,-0.06529805,0.04727105,
 -0.00000712,0.00051604,0.02998474,-0.00000373,-0.00554967,0.00148807,-
 0.00000097,-0.00123582,-0.00078304,-0.00000026,0.00211885,-0.00019292,
 0.00000051,0.00119850,-0.00358293,-0.00000041,-0.00473015,0.00195879,0
 .00000122,0.00063986,0.00107928,-0.00000053,0.00032453,-0.00166302,0.0
 0000014,0.06769573,-0.00306829,0.00103059,-0.00000024,0.00393536,-0.01
 371495,0.00000134,0.04595812,-0.35034827,0.00003070,-0.00127614,-0.006
 06735,0.00000046,0.00127087,0.00035434,0.00000066,0.00027657,0.0006789
 2,-0.00000017,-0.00046169,0.00059839,-0.00000027,0.00010966,-0.0018009
 3,-0.00000069,0.00339189,0.00009756,-0.00000045,0.00015095,0.00045424,
 -0.00000002,0.00046973,-0.00081270,0.00000015,-0.05074344,0.36902162,-
 0.00000054,-0.00000058,0.00674734,0.00000436,-0.00000010,0.00021950,-0
 .00001034,0.00002737,-0.03343346,0.00000041,0.00000333,0.00496003,-0.0
 0000098,0.00000164,0.00591471,-0.00000111,-0.00000014,-0.00136724,0.00
 000060,-0.00000009,-0.00316285,-0.00000226,0.00000066,-0.00383728,0.00
 000064,-0.00000092,0.00075686,0.00000139,0.00000024,0.00071157,-0.0000
 0022,0.,0.00037602,0.00000806,-0.00003178,0.02385430,-0.00038199,-0.00
 389007,-0.00000056,0.00030952,-0.00046473,0.00000010,0.00177756,0.0009
 7773,-0.00000045,-0.00453584,-0.00311712,-0.00000052,-0.30420429,0.096
 13394,-0.00003384,-0.01779075,0.01140632,-0.00000251,0.00318575,0.0001
 7989,0.00000058,0.00022167,-0.00019205,-0.00000009,-0.00013464,0.00020
 710,0.00000009,-0.00015498,0.00006842,0.00000010,-0.00163708,0.0000875
 3,-0.00000017,-0.00015219,-0.00003572,0.00000002,0.32240336,-0.0032892
 4,-0.00227107,0.00000026,-0.00126314,-0.00104713,-0.00000003,0.0003779
 9,-0.00646622,0.00000118,0.02983813,-0.00427581,0.00000312,0.09673204,
 -0.09881884,0.00001438,-0.01999002,0.01129269,-0.00000240,0.00082351,0
 .00297039,-0.00000044,0.00009653,-0.00037219,-0.00000021,0.00015412,0.
 00013656,0.00000002,0.00001544,0.00007776,0.00000001,-0.00122101,0.000
 28200,-0.00000010,0.00153104,-0.00012318,0.00000016,-0.10275088,0.0989
 2874,-0.00000118,0.00000124,0.00789451,0.00000049,-0.00000001,-0.00118
 850,-0.00000141,0.00000049,0.00593288,-0.00000205,-0.00000025,0.002871
 16,-0.00003421,0.00001397,-0.03072973,0.00000080,0.00000066,0.00082768
 ,0.00000027,-0.00000022,-0.00329472,-0.00000027,-0.00000013,-0.0006891
 9,-0.00000003,0.00000003,0.00014088,-0.00000004,0.00000012,0.00006779,
 0.00000017,0.00000002,-0.00001780,0.00000008,-0.00000010,-0.00041629,0
 .00003693,-0.00001586,0.02182152,-0.00127271,0.02909119,-0.00000246,-0
 .00519254,0.00092851,-0.00000191,-0.00154679,-0.00059829,0.00000002,-0
 .00356496,-0.00256379,-0.00000073,0.00820799,-0.02564530,0.00000277,-0
 .06818405,0.04962616,-0.00000660,-0.00006777,-0.00169651,0.00000012,0.
 00076639,0.00130080,0.00000006,-0.00060833,0.00034281,0.00000020,-0.00
 006990,-0.00013947,0.00000003,0.00283413,0.00155505,0.00000048,0.00008
 021,0.00003988,-0.00000002,0.00085399,0.00018123,0.00000034,0.06881917
 ,-0.00416519,-0.01001898,0.00000040,0.00256256,0.00096873,0.00000099,-
 0.00012249,0.00063282,-0.00000016,-0.00345937,0.00089247,-0.00000004,0
 .00595848,-0.01533878,0.00000172,0.04959409,-0.33285017,0.00002777,-0.
 00009374,-0.00135365,0.00000019,-0.00128363,-0.00034790,0.00000025,0.0
 0042360,-0.00021111,-0.00000016,0.00047359,0.00022266,-0.00000034,-0.0
 0030066,0.00339369,-0.00000049,0.00001548,-0.00004981,0.00000001,-0.00
 018556,0.00083673,-0.00000029,-0.05144046,0.35291976,-0.00000047,0.000
 00276,0.00199488,-0.00000088,0.00000100,0.00541693,-0.00000005,-0.0000
 0023,-0.00149402,-0.00000092,0.00000034,0.00721971,0.00000031,-0.00000
 126,0.00022971,-0.00000652,0.00002791,-0.02811785,-0.00000009,-0.00000
 004,0.00038908,-0.00000019,-0.00000008,0.00026736,-0.00000001,0.000000
 07,-0.00012485,0.00000003,-0.00000002,-0.00001743,0.00000086,0.0000000
 9,-0.00367671,0.00000007,-0.00000001,-0.00016814,0.00000045,-0.0000003
 6,-0.00369501,0.00000777,-0.00002998,0.02115585,-0.00008150,-0.0004659
 1,0.00000006,-0.00036173,0.00153782,-0.00000079,-0.00214785,-0.0057230
 8,0.00000049,-0.03224123,0.01851835,-0.00000135,0.00518199,0.00278924,
 0.00000034,-0.00064734,0.00033141,-0.00000021,-0.41135980,0.17409010,-
 0.00001031,-0.00073821,0.00002291,0.00000012,0.00015888,-0.00026624,-0
 .00000011,0.00015366,0.00001093,-0.00000003,0.00075766,0.00061162,0.00
 000009,0.00036963,-0.00013263,0.00000016,0.00010363,-0.00130034,0.0000
 0017,0.00024614,0.00027047,0.,0.44070651,0.00059829,-0.00015355,0.0000
 0037,-0.00005184,0.00113253,-0.00000075,-0.00460209,-0.00370086,0.0000
 0022,-0.03300529,0.00974448,-0.00000081,-0.00339820,0.00194185,-0.0000
 0032,-0.00037284,-0.00061547,-0.00000020,0.23059120,-0.15439944,0.0000
 0600,-0.00056435,0.00002577,0.00000019,0.00010680,-0.00018291,-0.00000
 008,0.00009239,0.00003017,-0.00000005,-0.00009469,-0.00025229,0.000000
 01,-0.00031163,0.00017723,-0.00000008,0.00131053,-0.00136172,0.0000003
 6,0.00003294,0.00006138,-0.00000004,-0.19020115,0.14753316,-0.00000005
 ,0.00000006,0.00018780,-0.00000057,-0.00000008,0.00193573,0.00000013,-
 0.00000039,0.00076500,-0.00000239,-0.00000035,-0.00349967,0.00000047,-
 0.00000011,0.00012289,0.00000017,0.,-0.00081967,-0.00000916,0.00000529
 ,-0.00036557,-0.00000010,0.00000014,0.00002708,-0.00000002,-0.00000005
 ,0.00000217,0.00000008,0.00000001,-0.00005478,0.00000007,0.00000014,-0
 .00010606,0.00000012,-0.00000005,-0.00072254,-0.00000012,0.00000022,0.
 00051149,-0.00000001,-0.00000002,-0.00004727,0.00001136,-0.00000482,0.
 00200020,-0.00016298,0.00016455,0.00000055,0.00168077,-0.00061636,0.00
 000449,0.00015218,-0.00030684,-0.00000008,0.00003718,-0.00003493,0.000
 00003,0.00005426,-0.00000856,0.00000004,0.00009383,0.00014084,-0.00000
 020,0.00009094,0.00005471,0.00000001,-0.00236632,0.00819888,-0.0000035
 9,-0.47121603,0.13122921,0.00022898,-0.00402718,-0.00667449,0.00000191
 ,-0.00004296,-0.00015908,-0.00000002,0.00010354,0.00030470,-0.00000018
 ,0.00001767,0.00001288,-0.00000003,0.00000062,-0.00001766,-0.00000005,
 -0.00002669,-0.00001748,0.,0.47557088,0.00193223,0.00018428,0.00000032
 ,-0.00209756,-0.00752076,-0.00000265,-0.00155177,-0.00001895,0.0000002
 9,0.00025872,0.00079343,-0.00000048,-0.00033282,-0.00017257,0.00000019
 ,0.00001526,-0.00054662,0.00000005,-0.00032314,-0.00027071,-0.00000002
 ,0.05892744,-0.02159153,-0.00002994,0.08072316,-0.07157331,-0.00005976
 ,-0.00550355,0.00713292,0.00000535,-0.00015040,0.00031318,-0.00000009,
 0.00041761,0.00059386,0.00000027,-0.00003781,0.00004921,-0.00000002,0.
 00013808,-0.00004042,0.00000003,0.00004943,0.00003690,0.,-0.13231310,0
 .09265419,0.00000088,0.00000032,0.00075196,-0.00000328,-0.00000051,0.0
 0408434,-0.00000154,0.,-0.00065457,0.00000001,0.00000028,0.00056623,-0
 .00000014,0.00000010,-0.00012415,-0.00000017,-0.00000030,-0.00021138,-
 0.00000003,-0.00000001,-0.00005545,0.00002866,-0.00001591,0.00362048,0
 .00021152,-0.00007546,-0.01340974,-0.00000421,0.00000446,-0.00561771,-
 0.00000015,0.00000011,0.00005387,0.00000025,0.00000042,-0.00042562,0.,
 0.00000004,-0.00003611,0.00000003,-0.00000002,-0.00005307,0.00000002,0
 .00000002,0.00003629,-0.00023184,0.00008647,0.01147094,0.00650724,-0.0
 4089099,0.00000387,-0.00504207,-0.00399486,-0.00000082,0.00119012,-0.0
 0076082,0.00000016,-0.00024811,0.00042754,0.00000002,-0.00062283,-0.00
 012624,-0.00000014,0.00113014,-0.00411764,0.00000081,-0.00008476,0.000
 15622,-0.00000006,-0.00185784,-0.00126518,0.00000071,0.00027917,0.0007
 0897,0.00000013,-0.00043653,0.00238840,-0.00000004,-0.10515426,0.19232
 028,-0.00002296,-0.00027892,-0.00018982,0.,0.00011861,0.00005173,-0.00
 000003,-0.00130157,0.00177049,-0.00000033,-0.00007374,-0.00011259,0.00
 000002,0.00004029,-0.00015177,0.,0.10583506,0.01095746,-0.03316983,0.0
 0000289,-0.00578709,0.00135940,-0.00000057,0.00209630,-0.00106549,0.00
 000022,-0.00110958,0.00061892,-0.00000023,-0.00003579,-0.00128423,0.00
 000007,0.00486729,0.00553402,0.00000017,0.00089153,0.00066351,0.000000
 10,0.00203804,0.00016934,-0.00000052,-0.00029627,0.00025355,0.00000010
 ,-0.00054961,-0.00091982,0.00000042,0.13441548,-0.45115014,0.00003994,
 -0.00032347,-0.00008955,0.00000002,0.00030248,0.00016208,0.,-0.0011528
 3,0.00028256,-0.00000017,-0.00014293,-0.00001725,0.,0.00004273,-0.0000
 2311,0.,-0.14621372,0.47867603,0.00000170,-0.00000060,-0.00344850,0.00
 000031,-0.00000107,0.00206792,-0.00000069,0.00000009,0.00149881,0.0000
 0021,-0.00000021,0.00016089,0.00000014,0.00000024,-0.00101323,-0.00000
 068,-0.00000091,-0.00040528,-0.00000009,0.,-0.00004110,-0.00000026,-0.
 00000012,-0.00018877,-0.00000024,0.00000008,-0.00029190,0.00000038,0.0
 0000040,0.00016559,-0.00001932,0.00004433,-0.00295468,-0.00000002,0.00
 000006,-0.00000690,0.,0.,-0.00000057,-0.00000008,0.00000015,0.00072082
 ,0.,-0.00000002,0.00002693,-0.00000002,0.00000001,0.00000369,0.0000186
 7,-0.00004242,0.00370627\\-0.00010583,-0.00013784,-0.00000432,0.000018
 86,0.00000372,-0.00004774,0.00006009,-0.00002674,-0.00000576,0.0001170
 5,0.00009423,0.00000282,-0.00001578,-0.00006257,0.00000023,0.00008106,
 0.00001614,0.00000266,-0.00007038,-0.00003791,0.00000007,-0.00016372,-
 0.00002656,0.00017471,-0.00001476,0.00002811,-0.00005176,0.00007797,-0
 .00001755,-0.00006632,0.00008747,0.00010201,-0.00000273,0.00000629,-0.
 00005109,-0.00000112,-0.00003603,0.00002626,-0.00000040,-0.00001327,0.
 00005189,0.00000040,-0.00006367,-0.00001378,0.00000033,0.00002127,-0.0
 0000307,-0.00000127,0.00001338,0.00005475,0.00000020\\\@


 THE REAL VOYAGE OF DISCOVERY CONSISTS NOT IN SEEKING NEW LANDSCAPES 
 BUT IN HAVING NEW EYES.
                                                    -- MARCEL PROUST
 Job cpu time:       0 days  3 hours 30 minutes 16.9 seconds.
 File lengths (MBytes):  RWF=  17855 Int=      0 D2E=      0 Chk=      7 Scr=      1
 Normal termination of Gaussian 09 at Tue Dec 17 21:29:29 2024.
