 Entering Gaussian System, Link 0=g09
 Input=B3PW91D3DHByang.gjf
 Output=B3PW91D3DHByang.log
 Initial command:
 /home/c612/g09E/g09/l1.exe "/mnt/ja_sm883/scratch/Gau-1859588.inp" -scrdir="/mnt/ja_sm883/scratch/"
 Default is to use a total of  18 processors:
                               18 via shared-memory
                                1 via Linda
 Entering Link 1 = /home/c612/g09E/g09/l1.exe PID=   1859590.
  
 Copyright (c) 1988,1990,1992,1993,1995,1998,2003,2009,2015,
            Gaussian, Inc.  All Rights Reserved.
  
 This is part of the Gaussian(R) 09 program.  It is based on
 the Gaussian(R) 03 system (copyright 2003, Gaussian, Inc.),
 the Gaussian(R) 98 system (copyright 1998, Gaussian, Inc.),
 the Gaussian(R) 94 system (copyright 1995, Gaussian, Inc.),
 the Gaussian 92(TM) system (copyright 1992, Gaussian, Inc.),
 the Gaussian 90(TM) system (copyright 1990, Gaussian, Inc.),
 the Gaussian 88(TM) system (copyright 1988, Gaussian, Inc.),
 the Gaussian 86(TM) system (copyright 1986, Carnegie Mellon
 University), and the Gaussian 82(TM) system (copyright 1983,
 Carnegie Mellon University). Gaussian is a federally registered
 trademark of Gaussian, Inc.
  
 This software contains proprietary and confidential information,
 including trade secrets, belonging to Gaussian, Inc.
  
 This software is provided under written license and may be
 used, copied, transmitted, or stored only in accord with that
 written license.
  
 The following legend is applicable only to US Government
 contracts under FAR:
  
                    RESTRICTED RIGHTS LEGEND
  
 Use, reproduction and disclosure by the US Government is
 subject to restrictions as set forth in subparagraphs (a)
 and (c) of the Commercial Computer Software - Restricted
 Rights clause in FAR 52.227-19.
  
 Gaussian, Inc.
 340 Quinnipiac St., Bldg. 40, Wallingford CT 06492
  
  
 ---------------------------------------------------------------
 Warning -- This program may not be used in any manner that
 competes with the business of Gaussian, Inc. or will provide
 assistance to any competitor of Gaussian, Inc.  The licensee
 of this program is prohibited from giving any competitor of
 Gaussian, Inc. access to this program.  By using this program,
 the user acknowledges that Gaussian, Inc. is engaged in the
 business of creating and licensing software in the field of
 computational chemistry and represents and warrants to the
 licensee that it is not a competitor of Gaussian, Inc. and that
 it will not use this program in any manner prohibited above.
 ---------------------------------------------------------------
  

 Cite this work as:
 Gaussian 09, Revision E.01,
 M. J. Frisch, G. W. Trucks, H. B. Schlegel, G. E. Scuseria, 
 M. A. Robb, J. R. Cheeseman, G. Scalmani, V. Barone, B. Mennucci, 
 G. A. Petersson, H. Nakatsuji, M. Caricato, X. Li, H. P. Hratchian, 
 A. F. Izmaylov, J. Bloino, G. Zheng, J. L. Sonnenberg, M. Hada, 
 M. Ehara, K. Toyota, R. Fukuda, J. Hasegawa, M. Ishida, T. Nakajima, 
 Y. Honda, O. Kitao, H. Nakai, T. Vreven, J. A. Montgomery, Jr., 
 J. E. Peralta, F. Ogliaro, M. Bearpark, J. J. Heyd, E. Brothers, 
 K. N. Kudin, V. N. Staroverov, T. Keith, R. Kobayashi, J. Normand, 
 K. Raghavachari, A. Rendell, J. C. Burant, S. S. Iyengar, J. Tomasi, 
 M. Cossi, N. Rega, J. M. Millam, M. Klene, J. E. Knox, J. B. Cross, 
 V. Bakken, C. Adamo, J. Jaramillo, R. Gomperts, R. E. Stratmann, 
 O. Yazyev, A. J. Austin, R. Cammi, C. Pomelli, J. W. Ochterski, 
 R. L. Martin, K. Morokuma, V. G. Zakrzewski, G. A. Voth, 
 P. Salvador, J. J. Dannenberg, S. Dapprich, A. D. Daniels, 
 O. Farkas, J. B. Foresman, J. V. Ortiz, J. Cioslowski, 
 and D. J. Fox, Gaussian, Inc., Wallingford CT, 2013.
 
 ******************************************
 Gaussian 09:  ES64L-G09RevE.01 30-Nov-2015
                17-Dec-2024 
 ******************************************
 %chk=B3PW91D3DHByang.chk
 -----------------------------------------------------
 # opt freq b3pw91/6-31+g(d,p) EmpiricalDispersion=GD3
 -----------------------------------------------------
 1/14=-1,18=20,19=15,26=3,38=1/1,3;
 2/9=110,12=2,17=6,18=5,40=1/2;
 3/5=1,6=6,7=111,11=2,16=1,25=1,30=1,71=1,74=-6,124=31/1,2,3;
 4//1;
 5/5=2,38=5/2;
 6/7=2,8=2,9=2,10=2,28=1/1;
 7//1,2,3,16;
 1/14=-1,18=20,19=15,26=3/3(2);
 2/9=110/2;
 99//99;
 2/9=110/2;
 3/5=1,6=6,7=111,11=2,16=1,25=1,30=1,71=1,74=-6,124=31/1,2,3;
 4/5=5,16=3,69=1/1;
 5/5=2,38=5/2;
 7//1,2,3,16;
 1/14=-1,18=20,19=15,26=3/3(-5);
 2/9=110/2;
 6/7=2,8=2,9=2,10=2,19=2,28=1/1;
 99/9=1/99;
 ----------
 [No Title]
 ----------
 Symbolic Z-matrix:
 Charge =  1 Multiplicity = 1
 C                    -0.21774   1.27585   0.00001 
 C                    -0.42522  -0.1365    0.00001 
 C                     0.69191  -1.01389  -0.00001 
 C                     1.98024  -0.51778  -0.00002 
 C                     2.17237   0.87983  -0.00002 
 C                     1.09768   1.75236  0. 
 O                     2.99437  -1.40677  -0.00004 
 C                    -1.72257  -0.71589   0.00002 
 O                    -1.8072   -2.02235   0.00009 
 O                    -2.78593   0.0346   -0.00006 
 O                    -1.27431   2.09556   0.00002 
 H                     0.54363  -2.08695  -0.00002 
 H                     3.18065   1.28771  -0.00003 
 H                     1.27697   2.82419   0. 
 H                     3.85611  -0.97207  -0.00002 
 H                    -2.7048   -2.38896  0. 
 H                    -3.63374  -0.43753   0.00002 
 H                    -0.99423   3.0215    0.00003 
 

 GradGradGradGradGradGradGradGradGradGradGradGradGradGradGradGradGradGrad
 Berny optimization.
 Initialization pass.
                           ----------------------------
                           !    Initial Parameters    !
                           ! (Angstroms and Degrees)  !
 --------------------------                            --------------------------
 ! Name  Definition              Value          Derivative Info.                !
 --------------------------------------------------------------------------------
 ! R1    R(1,2)                  1.4275         estimate D2E/DX2                !
 ! R2    R(1,6)                  1.3991         estimate D2E/DX2                !
 ! R3    R(1,11)                 1.3373         estimate D2E/DX2                !
 ! R4    R(2,3)                  1.4205         estimate D2E/DX2                !
 ! R5    R(2,8)                  1.4209         estimate D2E/DX2                !
 ! R6    R(3,4)                  1.3805         estimate D2E/DX2                !
 ! R7    R(3,12)                 1.0833         estimate D2E/DX2                !
 ! R8    R(4,5)                  1.4108         estimate D2E/DX2                !
 ! R9    R(4,7)                  1.3486         estimate D2E/DX2                !
 ! R10   R(5,6)                  1.3843         estimate D2E/DX2                !
 ! R11   R(5,13)                 1.0877         estimate D2E/DX2                !
 ! R12   R(6,14)                 1.0867         estimate D2E/DX2                !
 ! R13   R(7,15)                 0.9652         estimate D2E/DX2                !
 ! R14   R(8,9)                  1.3092         estimate D2E/DX2                !
 ! R15   R(8,10)                 1.3015         estimate D2E/DX2                !
 ! R16   R(9,16)                 0.9696         estimate D2E/DX2                !
 ! R17   R(10,17)                0.9704         estimate D2E/DX2                !
 ! R18   R(11,18)                0.9674         estimate D2E/DX2                !
 ! A1    A(2,1,6)              118.2701         estimate D2E/DX2                !
 ! A2    A(2,1,11)             119.4477         estimate D2E/DX2                !
 ! A3    A(6,1,11)             122.2822         estimate D2E/DX2                !
 ! A4    A(1,2,3)              119.7887         estimate D2E/DX2                !
 ! A5    A(1,2,8)              122.4223         estimate D2E/DX2                !
 ! A6    A(3,2,8)              117.7891         estimate D2E/DX2                !
 ! A7    A(2,3,4)              120.7933         estimate D2E/DX2                !
 ! A8    A(2,3,12)             120.2779         estimate D2E/DX2                !
 ! A9    A(4,3,12)             118.9289         estimate D2E/DX2                !
 ! A10   A(3,4,5)              118.8881         estimate D2E/DX2                !
 ! A11   A(3,4,7)              117.7011         estimate D2E/DX2                !
 ! A12   A(5,4,7)              123.4108         estimate D2E/DX2                !
 ! A13   A(4,5,6)              121.2453         estimate D2E/DX2                !
 ! A14   A(4,5,13)             119.8523         estimate D2E/DX2                !
 ! A15   A(6,5,13)             118.9024         estimate D2E/DX2                !
 ! A16   A(1,6,5)              121.0145         estimate D2E/DX2                !
 ! A17   A(1,6,14)             119.4091         estimate D2E/DX2                !
 ! A18   A(5,6,14)             119.5764         estimate D2E/DX2                !
 ! A19   A(4,7,15)             111.9932         estimate D2E/DX2                !
 ! A20   A(2,8,9)              117.7713         estimate D2E/DX2                !
 ! A21   A(2,8,10)             120.7214         estimate D2E/DX2                !
 ! A22   A(9,8,10)             121.5072         estimate D2E/DX2                !
 ! A23   A(8,9,16)             115.9233         estimate D2E/DX2                !
 ! A24   A(8,10,17)            115.6735         estimate D2E/DX2                !
 ! A25   A(1,11,18)            110.9754         estimate D2E/DX2                !
 ! D1    D(6,1,2,3)             -0.0002         estimate D2E/DX2                !
 ! D2    D(6,1,2,8)            179.9995         estimate D2E/DX2                !
 ! D3    D(11,1,2,3)          -179.9999         estimate D2E/DX2                !
 ! D4    D(11,1,2,8)            -0.0002         estimate D2E/DX2                !
 ! D5    D(2,1,6,5)              0.0001         estimate D2E/DX2                !
 ! D6    D(2,1,6,14)          -179.9999         estimate D2E/DX2                !
 ! D7    D(11,1,6,5)           179.9998         estimate D2E/DX2                !
 ! D8    D(11,1,6,14)           -0.0002         estimate D2E/DX2                !
 ! D9    D(2,1,11,18)          179.9993         estimate D2E/DX2                !
 ! D10   D(6,1,11,18)           -0.0004         estimate D2E/DX2                !
 ! D11   D(1,2,3,4)              0.0002         estimate D2E/DX2                !
 ! D12   D(1,2,3,12)          -179.9998         estimate D2E/DX2                !
 ! D13   D(8,2,3,4)           -179.9995         estimate D2E/DX2                !
 ! D14   D(8,2,3,12)             0.0005         estimate D2E/DX2                !
 ! D15   D(1,2,8,9)           -179.9968         estimate D2E/DX2                !
 ! D16   D(1,2,8,10)             0.0054         estimate D2E/DX2                !
 ! D17   D(3,2,8,9)              0.0029         estimate D2E/DX2                !
 ! D18   D(3,2,8,10)          -179.9949         estimate D2E/DX2                !
 ! D19   D(2,3,4,5)             -0.0001         estimate D2E/DX2                !
 ! D20   D(2,3,4,7)           -179.9998         estimate D2E/DX2                !
 ! D21   D(12,3,4,5)           179.9999         estimate D2E/DX2                !
 ! D22   D(12,3,4,7)             0.0002         estimate D2E/DX2                !
 ! D23   D(3,4,5,6)              0.0            estimate D2E/DX2                !
 ! D24   D(3,4,5,13)          -179.9998         estimate D2E/DX2                !
 ! D25   D(7,4,5,6)            179.9997         estimate D2E/DX2                !
 ! D26   D(7,4,5,13)             0.0            estimate D2E/DX2                !
 ! D27   D(3,4,7,15)          -179.9987         estimate D2E/DX2                !
 ! D28   D(5,4,7,15)             0.0016         estimate D2E/DX2                !
 ! D29   D(4,5,6,1)              0.0            estimate D2E/DX2                !
 ! D30   D(4,5,6,14)           180.0            estimate D2E/DX2                !
 ! D31   D(13,5,6,1)           179.9997         estimate D2E/DX2                !
 ! D32   D(13,5,6,14)           -0.0002         estimate D2E/DX2                !
 ! D33   D(2,8,9,16)          -179.9934         estimate D2E/DX2                !
 ! D34   D(10,8,9,16)            0.0044         estimate D2E/DX2                !
 ! D35   D(2,8,10,17)         -179.9961         estimate D2E/DX2                !
 ! D36   D(9,8,10,17)            0.0062         estimate D2E/DX2                !
 --------------------------------------------------------------------------------
 Trust Radius=3.00D-01 FncErr=1.00D-07 GrdErr=1.00D-06
 Number of steps in this run=     89 maximum allowed number of steps=    108.
 GradGradGradGradGradGradGradGradGradGradGradGradGradGradGradGradGradGrad

                          Input orientation:                          
 ---------------------------------------------------------------------
 Center     Atomic      Atomic             Coordinates (Angstroms)
 Number     Number       Type             X           Y           Z
 ---------------------------------------------------------------------
      1          6           0       -0.217736    1.275847    0.000007
      2          6           0       -0.425217   -0.136504    0.000005
      3          6           0        0.691914   -1.013893   -0.000010
      4          6           0        1.980241   -0.517781   -0.000019
      5          6           0        2.172369    0.879831   -0.000015
      6          6           0        1.097679    1.752355   -0.000002
      7          8           0        2.994365   -1.406772   -0.000037
      8          6           0       -1.722573   -0.715889    0.000024
      9          8           0       -1.807203   -2.022350    0.000085
     10          8           0       -2.785930    0.034604   -0.000061
     11          8           0       -1.274312    2.095558    0.000023
     12          1           0        0.543625   -2.086950   -0.000015
     13          1           0        3.180649    1.287714   -0.000026
     14          1           0        1.276969    2.824189    0.000001
     15          1           0        3.856105   -0.972067   -0.000022
     16          1           0       -2.704799   -2.388962   -0.000004
     17          1           0       -3.633739   -0.437531    0.000019
     18          1           0       -0.994232    3.021501    0.000033
 ---------------------------------------------------------------------
                    Distance matrix (angstroms):
                    1          2          3          4          5
     1  C    0.000000
     2  C    1.427510   0.000000
     3  C    2.463813   1.420490   0.000000
     4  C    2.836936   2.435488   1.380548   0.000000
     5  C    2.422691   2.789335   2.403734   1.410756   0.000000
     6  C    1.399063   2.426314   2.795849   2.435659   1.384289
     7  O    4.184978   3.647893   2.335730   1.348611   2.429862
     8  C    2.496307   1.420852   2.432808   3.708110   4.209144
     9  O    3.661217   2.338012   2.694916   4.075348   4.925408
    10  O    2.852421   2.366906   3.632457   4.798074   5.029825
    11  O    1.337265   2.388109   3.678958   4.173926   3.654805
    12  H    3.447909   2.177819   1.083255   2.127477   3.384464
    13  H    3.398406   3.876940   3.389867   2.168131   1.087657
    14  H    2.152093   3.415134   3.882417   3.415165   2.140624
    15  H    4.652881   4.362096   3.164467   1.930088   2.502897
    16  H    4.429030   3.204694   3.664488   5.044890   5.871267
    17  H    3.821615   3.222612   4.363882   5.614554   5.953682
    18  H    1.910564   3.208859   4.373499   4.623203   3.822841
                    6          7          8          9         10
     6  C    0.000000
     7  O    3.684766   0.000000
     8  C    3.747806   4.767266   0.000000
     9  O    4.763060   4.840867   1.309199   0.000000
    10  O    4.246538   5.957296   1.301525   2.277930   0.000000
    11  O    2.396691   5.521587   2.846958   4.152245   2.555880
    12  H    3.879077   2.543377   2.648672   2.351715   3.948028
    13  H    2.134164   2.700918   5.296793   5.986250   6.096749
    14  H    1.086726   4.566233   4.639979   5.744655   4.928380
    15  H    3.877034   0.965176   5.584557   5.759874   6.717888
    16  H    5.622219   5.783180   1.940088   0.969579   2.424924
    17  H    5.213628   6.698596   1.931331   2.418240   0.970408
    18  H    2.446799   5.959741   3.807698   5.108948   3.483064
                   11         12         13         14         15
    11  O    0.000000
    12  H    4.560512   0.000000
    13  H    4.527614   4.282786   0.000000
    14  H    2.653288   4.965590   2.446375   0.000000
    15  H    5.977583   3.495066   2.358570   4.589499   0.000000
    16  H    4.707145   3.262433   6.939484   6.559834   6.712157
    17  H    3.461710   4.491208   7.029392   5.895241   7.508894
    18  H    0.967375   5.334911   4.520581   2.279756   6.282862
                   16         17         18
    16  H    0.000000
    17  H    2.161253   0.000000
    18  H    5.674429   4.351080   0.000000
 Stoichiometry    C7H7O4(1+)
 Framework group  C1[X(C7H7O4)]
 Deg. of freedom    48
 Full point group                 C1      NOp   1
 Largest Abelian subgroup         C1      NOp   1
 Largest concise Abelian subgroup C1      NOp   1
                         Standard orientation:                         
 ---------------------------------------------------------------------
 Center     Atomic      Atomic             Coordinates (Angstroms)
 Number     Number       Type             X           Y           Z
 ---------------------------------------------------------------------
      1          6           0        0.217736    1.275847   -0.000007
      2          6           0        0.425217   -0.136504   -0.000005
      3          6           0       -0.691914   -1.013893    0.000010
      4          6           0       -1.980241   -0.517781    0.000019
      5          6           0       -2.172369    0.879831    0.000015
      6          6           0       -1.097679    1.752355    0.000002
      7          8           0       -2.994365   -1.406772    0.000037
      8          6           0        1.722573   -0.715889   -0.000024
      9          8           0        1.807203   -2.022350   -0.000085
     10          8           0        2.785930    0.034604    0.000061
     11          8           0        1.274312    2.095558   -0.000023
     12          1           0       -0.543625   -2.086950    0.000015
     13          1           0       -3.180649    1.287714    0.000026
     14          1           0       -1.276969    2.824189   -0.000001
     15          1           0       -3.856105   -0.972067    0.000022
     16          1           0        2.704799   -2.388962    0.000004
     17          1           0        3.633739   -0.437531   -0.000019
     18          1           0        0.994232    3.021501   -0.000033
 ---------------------------------------------------------------------
 Rotational constants (GHZ):      1.7739327      0.9072993      0.6002792
 Standard basis: 6-31+G(d,p) (6D, 7F)
 There are   244 symmetry adapted cartesian basis functions of A   symmetry.
 There are   244 symmetry adapted basis functions of A   symmetry.
   244 basis functions,   401 primitive gaussians,   244 cartesian basis functions
    40 alpha electrons       40 beta electrons
       nuclear repulsion energy       607.0587627675 Hartrees.
 NAtoms=   18 NActive=   18 NUniq=   18 SFac= 1.00D+00 NAtFMM=   60 NAOKFM=F Big=F
 Integral buffers will be    131072 words long.
 Raffenetti 2 integral format.
 Two-electron integral symmetry is turned on.
 Nuclear repulsion after empirical dispersion term =      607.0438540547 Hartrees.
 One-electron integrals computed using PRISM.
 NBasis=   244 RedAO= T EigKep=  3.25D-06  NBF=   244
 NBsUse=   244 1.00D-06 EigRej= -1.00D+00 NBFU=   244
 ExpMin= 4.38D-02 ExpMax= 5.48D+03 ExpMxC= 8.25D+02 IAcc=2 IRadAn=         4 AccDes= 0.00D+00
 Harris functional with IExCor=  408 and IRadAn=       4 diagonalized for initial guess.
 HarFok:  IExCor=  408 AccDes= 0.00D+00 IRadAn=         4 IDoV= 1 UseB2=F ITyADJ=14
 ICtDFT=  3500011 ScaDFX=  1.000000  1.000000  1.000000  1.000000
 FoFCou: FMM=F IPFlag=           0 FMFlag=      100000 FMFlg1=           0
         NFxFlg=           0 DoJE=T BraDBF=F KetDBF=T FulRan=T
         wScrn=  0.000000 ICntrl=     500 IOpCl=  0 I1Cent=   200000004 NGrid=           0
         NMat0=    1 NMatS0=      1 NMatT0=    0 NMatD0=    1 NMtDS0=    0 NMtDT0=    0
 Petite list used in FoFCou.
 Keep R1 ints in memory in canonical form, NReq=454277305.
 Requested convergence on RMS density matrix=1.00D-08 within 128 cycles.
 Requested convergence on MAX density matrix=1.00D-06.
 Requested convergence on             energy=1.00D-06.
 No special actions if energy rises.
 SCF Done:  E(RB3PW91) =  -571.422212107     A.U. after   15 cycles
            NFock= 15  Conv=0.56D-08     -V/T= 2.0089

 **********************************************************************

            Population analysis using the SCF density.

 **********************************************************************

 Orbital symmetries:
       Occupied  (A) (A) (A) (A) (A) (A) (A) (A) (A) (A) (A) (A)
                 (A) (A) (A) (A) (A) (A) (A) (A) (A) (A) (A) (A)
                 (A) (A) (A) (A) (A) (A) (A) (A) (A) (A) (A) (A)
                 (A) (A) (A) (A)
       Virtual   (A) (A) (A) (A) (A) (A) (A) (A) (A) (A) (A) (A)
                 (A) (A) (A) (A) (A) (A) (A) (A) (A) (A) (A) (A)
                 (A) (A) (A) (A) (A) (A) (A) (A) (A) (A) (A) (A)
                 (A) (A) (A) (A) (A) (A) (A) (A) (A) (A) (A) (A)
                 (A) (A) (A) (A) (A) (A) (A) (A) (A) (A) (A) (A)
                 (A) (A) (A) (A) (A) (A) (A) (A) (A) (A) (A) (A)
                 (A) (A) (A) (A) (A) (A) (A) (A) (A) (A) (A) (A)
                 (A) (A) (A) (A) (A) (A) (A) (A) (A) (A) (A) (A)
                 (A) (A) (A) (A) (A) (A) (A) (A) (A) (A) (A) (A)
                 (A) (A) (A) (A) (A) (A) (A) (A) (A) (A) (A) (A)
                 (A) (A) (A) (A) (A) (A) (A) (A) (A) (A) (A) (A)
                 (A) (A) (A) (A) (A) (A) (A) (A) (A) (A) (A) (A)
                 (A) (A) (A) (A) (A) (A) (A) (A) (A) (A) (A) (A)
                 (A) (A) (A) (A) (A) (A) (A) (A) (A) (A) (A) (A)
                 (A) (A) (A) (A) (A) (A) (A) (A) (A) (A) (A) (A)
                 (A) (A) (A) (A) (A) (A) (A) (A) (A) (A) (A) (A)
                 (A) (A) (A) (A) (A) (A) (A) (A) (A) (A) (A) (A)
 The electronic state is 1-A.
 Alpha  occ. eigenvalues --  -19.41491 -19.41490 -19.34901 -19.31729 -10.54437
 Alpha  occ. eigenvalues --  -10.42944 -10.39875 -10.37842 -10.35976 -10.34946
 Alpha  occ. eigenvalues --  -10.34941  -1.36058  -1.28065  -1.24998  -1.21690
 Alpha  occ. eigenvalues --   -1.03779  -0.97284  -0.91443  -0.88477  -0.84386
 Alpha  occ. eigenvalues --   -0.80211  -0.78974  -0.73778  -0.71776  -0.68202
 Alpha  occ. eigenvalues --   -0.68062  -0.66695  -0.63323  -0.60136  -0.59063
 Alpha  occ. eigenvalues --   -0.58872  -0.58193  -0.56887  -0.56730  -0.55493
 Alpha  occ. eigenvalues --   -0.52273  -0.50463  -0.47858  -0.44006  -0.37407
 Alpha virt. eigenvalues --   -0.25830  -0.17167  -0.15888  -0.12847  -0.11575
 Alpha virt. eigenvalues --   -0.10896  -0.09861  -0.08664  -0.07574  -0.06690
 Alpha virt. eigenvalues --   -0.05291  -0.04050  -0.03008  -0.02836  -0.02346
 Alpha virt. eigenvalues --   -0.01715   0.00900   0.01115   0.01794   0.02026
 Alpha virt. eigenvalues --    0.02037   0.02772   0.02785   0.04183   0.04721
 Alpha virt. eigenvalues --    0.04727   0.05039   0.06180   0.06611   0.07345
 Alpha virt. eigenvalues --    0.07473   0.08678   0.09081   0.09723   0.10464
 Alpha virt. eigenvalues --    0.10499   0.10733   0.12009   0.12709   0.13326
 Alpha virt. eigenvalues --    0.14153   0.14161   0.14980   0.15375   0.16067
 Alpha virt. eigenvalues --    0.16314   0.17771   0.18644   0.19235   0.19431
 Alpha virt. eigenvalues --    0.19612   0.20449   0.21005   0.23233   0.24179
 Alpha virt. eigenvalues --    0.24499   0.26752   0.27728   0.28423   0.29460
 Alpha virt. eigenvalues --    0.31130   0.33018   0.34087   0.37157   0.45039
 Alpha virt. eigenvalues --    0.46243   0.50532   0.51411   0.53298   0.55570
 Alpha virt. eigenvalues --    0.56909   0.57908   0.58757   0.59693   0.60856
 Alpha virt. eigenvalues --    0.62523   0.63997   0.68808   0.68826   0.71898
 Alpha virt. eigenvalues --    0.73379   0.79132   0.79718   0.83372   0.84417
 Alpha virt. eigenvalues --    0.86206   0.88767   0.90361   0.92352   0.93704
 Alpha virt. eigenvalues --    0.94796   0.95956   0.98512   1.00815   1.01084
 Alpha virt. eigenvalues --    1.02616   1.03736   1.05004   1.05150   1.07214
 Alpha virt. eigenvalues --    1.07494   1.09625   1.10113   1.10950   1.11327
 Alpha virt. eigenvalues --    1.12725   1.12862   1.16607   1.16716   1.17088
 Alpha virt. eigenvalues --    1.20677   1.21402   1.22614   1.23968   1.24645
 Alpha virt. eigenvalues --    1.27130   1.30916   1.34697   1.35233   1.39283
 Alpha virt. eigenvalues --    1.41547   1.42507   1.44146   1.45565   1.48472
 Alpha virt. eigenvalues --    1.53514   1.55854   1.59709   1.59899   1.61216
 Alpha virt. eigenvalues --    1.70133   1.71837   1.74058   1.74951   1.76196
 Alpha virt. eigenvalues --    1.77797   1.78866   1.78987   1.81748   1.86118
 Alpha virt. eigenvalues --    1.86681   1.87551   1.90552   1.97864   2.04347
 Alpha virt. eigenvalues --    2.05233   2.08052   2.09657   2.12218   2.15144
 Alpha virt. eigenvalues --    2.18026   2.20190   2.21461   2.23194   2.24722
 Alpha virt. eigenvalues --    2.25896   2.29437   2.31025   2.32941   2.33838
 Alpha virt. eigenvalues --    2.35501   2.37766   2.40641   2.41935   2.43772
 Alpha virt. eigenvalues --    2.45074   2.46236   2.48001   2.49963   2.52169
 Alpha virt. eigenvalues --    2.56361   2.56758   2.58661   2.59493   2.62971
 Alpha virt. eigenvalues --    2.65036   2.72369   2.78278   2.80977   2.88324
 Alpha virt. eigenvalues --    2.90793   2.94883   3.00851   3.04585   3.09414
 Alpha virt. eigenvalues --    3.16933   3.23483   3.31946   3.33049   3.37692
 Alpha virt. eigenvalues --    3.40357   3.42310   3.64667   4.07031   4.10853
 Alpha virt. eigenvalues --    4.15123   4.18107   4.19128   4.31008   4.35487
 Alpha virt. eigenvalues --    4.42488   4.46839   4.67171   4.81779
          Condensed to atoms (all electrons):
               1          2          3          4          5          6
     1  C   17.723919  -4.020859  -3.123743   0.358961   0.910327  -4.133152
     2  C   -4.020859  10.873226  -2.002402   1.263452  -0.791368   0.565160
     3  C   -3.123743  -2.002402  14.545583  -4.139262   0.064681  -0.115006
     4  C    0.358961   1.263452  -4.139262   9.568807  -0.752671   0.866218
     5  C    0.910327  -0.791368   0.064681  -0.752671   6.618093  -0.724351
     6  C   -4.133152   0.565160  -0.115006   0.866218  -0.724351   9.286175
     7  O   -0.027933   0.038127   0.066911  -0.052269  -0.076733   0.039651
     8  C   -0.893584  -0.404721   0.597047  -0.843764   0.117388  -0.354296
     9  O   -0.055182   0.108250  -0.055946   0.047273  -0.007597   0.033264
    10  O   -0.128373   0.097045  -0.060416   0.021552   0.005847   0.083393
    11  O    0.178693  -0.235159   0.074481  -0.011349   0.040390   0.112750
    12  H    0.003339   0.063449   0.062276   0.155668   0.012765   0.008539
    13  H   -0.001664   0.016885  -0.038727   0.083122   0.173926   0.094632
    14  H    0.084809  -0.029916  -0.003411  -0.014076   0.146623   0.137385
    15  H    0.001551  -0.007340   0.075583  -0.028827  -0.036508  -0.001901
    16  H   -0.006310  -0.028199   0.020242  -0.003750   0.000366   0.004436
    17  H   -0.003617  -0.005230   0.005324   0.005530  -0.000439  -0.011591
    18  H    0.005883   0.109119  -0.007640   0.002837  -0.002862  -0.123778
               7          8          9         10         11         12
     1  C   -0.027933  -0.893584  -0.055182  -0.128373   0.178693   0.003339
     2  C    0.038127  -0.404721   0.108250   0.097045  -0.235159   0.063449
     3  C    0.066911   0.597047  -0.055946  -0.060416   0.074481   0.062276
     4  C   -0.052269  -0.843764   0.047273   0.021552  -0.011349   0.155668
     5  C   -0.076733   0.117388  -0.007597   0.005847   0.040390   0.012765
     6  C    0.039651  -0.354296   0.033264   0.083393   0.112750   0.008539
     7  O    8.300794  -0.005037   0.000066   0.000129   0.000360  -0.007468
     8  C   -0.005037   6.743193   0.050279   0.111496  -0.190986   0.017172
     9  O    0.000066   0.050279   8.167887  -0.103010   0.001432   0.000142
    10  O    0.000129   0.111496  -0.103010   8.182695  -0.007367   0.000559
    11  O    0.000360  -0.190986   0.001432  -0.007367   8.311374  -0.000213
    12  H   -0.007468   0.017172   0.000142   0.000559  -0.000213   0.475403
    13  H   -0.013075   0.001315   0.000001   0.000018  -0.000502  -0.000121
    14  H   -0.000469   0.011770   0.000003  -0.000014  -0.016254   0.000008
    15  H    0.219536   0.002568   0.000008   0.000001  -0.000009  -0.000057
    16  H    0.000007   0.044256   0.206424  -0.015174   0.000094   0.000286
    17  H    0.000001   0.041014  -0.015942   0.189403   0.004035   0.000009
    18  H   -0.000008   0.022643  -0.000027   0.000409   0.203984   0.000003
              13         14         15         16         17         18
     1  C   -0.001664   0.084809   0.001551  -0.006310  -0.003617   0.005883
     2  C    0.016885  -0.029916  -0.007340  -0.028199  -0.005230   0.109119
     3  C   -0.038727  -0.003411   0.075583   0.020242   0.005324  -0.007640
     4  C    0.083122  -0.014076  -0.028827  -0.003750   0.005530   0.002837
     5  C    0.173926   0.146623  -0.036508   0.000366  -0.000439  -0.002862
     6  C    0.094632   0.137385  -0.001901   0.004436  -0.011591  -0.123778
     7  O   -0.013075  -0.000469   0.219536   0.000007   0.000001  -0.000008
     8  C    0.001315   0.011770   0.002568   0.044256   0.041014   0.022643
     9  O    0.000001   0.000003   0.000008   0.206424  -0.015942  -0.000027
    10  O    0.000018  -0.000014   0.000001  -0.015174   0.189403   0.000409
    11  O   -0.000502  -0.016254  -0.000009   0.000094   0.004035   0.203984
    12  H   -0.000121   0.000008  -0.000057   0.000286   0.000009   0.000003
    13  H    0.498091  -0.004450   0.005096  -0.000000   0.000000  -0.000017
    14  H   -0.004450   0.499892  -0.000006  -0.000000  -0.000000   0.007292
    15  H    0.005096  -0.000006   0.386593   0.000000   0.000000  -0.000000
    16  H   -0.000000  -0.000000   0.000000   0.360097   0.007987  -0.000000
    17  H    0.000000  -0.000000   0.000000   0.007987   0.357532  -0.000001
    18  H   -0.000017   0.007292  -0.000000  -0.000000  -0.000001   0.362980
 Mulliken charges:
               1
     1  C   -0.873065
     2  C    0.390481
     3  C    0.034424
     4  C   -0.527454
     5  C    0.302122
     6  C    0.232469
     7  O   -0.482591
     8  C    0.932247
     9  O   -0.377325
    10  O   -0.378194
    11  O   -0.465754
    12  H    0.208240
    13  H    0.185469
    14  H    0.180814
    15  H    0.383712
    16  H    0.409237
    17  H    0.425983
    18  H    0.419184
 Sum of Mulliken charges =   1.00000
 Mulliken charges with hydrogens summed into heavy atoms:
               1
     1  C   -0.873065
     2  C    0.390481
     3  C    0.242665
     4  C   -0.527454
     5  C    0.487591
     6  C    0.413283
     7  O   -0.098879
     8  C    0.932247
     9  O    0.031913
    10  O    0.047789
    11  O   -0.046570
 Electronic spatial extent (au):  <R**2>=           1729.1539
 Charge=              1.0000 electrons
 Dipole moment (field-independent basis, Debye):
    X=              3.8767    Y=              0.3509    Z=             -0.0001  Tot=              3.8925
 Quadrupole moment (field-independent basis, Debye-Ang):
   XX=            -13.3840   YY=            -39.9053   ZZ=            -63.3348
   XY=            -16.7864   XZ=             -0.0003   YZ=             -0.0004
 Traceless Quadrupole moment (field-independent basis, Debye-Ang):
   XX=             25.4907   YY=             -1.0306   ZZ=            -24.4601
   XY=            -16.7864   XZ=             -0.0003   YZ=             -0.0004
 Octapole moment (field-independent basis, Debye-Ang**2):
  XXX=             42.5201  YYY=             30.7331  ZZZ=             -0.0001  XYY=             33.9721
  XXY=            -39.5314  XXZ=             -0.0009  XZZ=              8.7216  YZZ=             -3.1312
  YYZ=              0.0003  XYZ=             -0.0009
 Hexadecapole moment (field-independent basis, Debye-Ang**3):
 XXXX=           -561.9598 YYYY=           -491.4551 ZZZZ=            -61.2650 XXXY=           -141.2099
 XXXZ=             -0.0004 YYYX=            -50.0133 YYYZ=             -0.0043 ZZZX=              0.0044
 ZZZY=             -0.0011 XXYY=           -257.2025 XXZZ=           -234.6345 YYZZ=           -135.8046
 XXYZ=             -0.0007 YYXZ=              0.0030 ZZXY=              1.2425
 N-N= 6.070438540547D+02 E-N=-2.536005260191D+03  KE= 5.663609269336D+02
 Calling FoFJK, ICntrl=      2127 FMM=F ISym2X=0 I1Cent= 0 IOpClX= 0 NMat=1 NMatS=1 NMatT=0.
 ***** Axes restored to original set *****
 -------------------------------------------------------------------
 Center     Atomic                   Forces (Hartrees/Bohr)
 Number     Number              X              Y              Z
 -------------------------------------------------------------------
      1        6          -0.000178276   -0.000151264    0.000000327
      2        6           0.000149978    0.000007423    0.000001078
      3        6          -0.000047552    0.000000092    0.000000539
      4        6          -0.000108653   -0.000140449   -0.000000140
      5        6          -0.000211265    0.000502398   -0.000000140
      6        6           0.000437259   -0.000128214   -0.000000045
      7        8           0.000006275    0.000048063    0.000000171
      8        6           0.000256734    0.000198718   -0.000005244
      9        8          -0.000338842   -0.000428831    0.000001514
     10        8          -0.000365041    0.000182755    0.000001605
     11        8           0.000111421    0.000380282    0.000000153
     12        1           0.000446470    0.000039904   -0.000000033
     13        1          -0.000091858   -0.000161753    0.000000098
     14        1          -0.000088233   -0.000128559   -0.000000040
     15        1          -0.000005040   -0.000272126   -0.000000165
     16        1           0.000308126   -0.000139081    0.000000266
     17        1           0.000085208    0.000361328    0.000000073
     18        1          -0.000366711   -0.000170687   -0.000000014
 -------------------------------------------------------------------
 Cartesian Forces:  Max     0.000502398 RMS     0.000196991

 GradGradGradGradGradGradGradGradGradGradGradGradGradGradGradGradGradGrad
 Berny optimization.
 FormGI is forming the generalized inverse of G from B-inverse, IUseBI=4.
 Internal  Forces:  Max     0.000621233 RMS     0.000238362
 Search for a local minimum.
 Step number   1 out of a maximum of   89
 All quantities printed in internal units (Hartrees-Bohrs-Radians)
 Mixed Optimization -- En-DIIS/RFO-DIIS
 Second derivative matrix not updated -- first step.
 ITU=  0
     Eigenvalues ---    0.01776   0.01813   0.01844   0.02003   0.02053
     Eigenvalues ---    0.02087   0.02136   0.02164   0.02200   0.02234
     Eigenvalues ---    0.02372   0.02392   0.02522   0.02893   0.02994
     Eigenvalues ---    0.16000   0.16000   0.16000   0.16000   0.16000
     Eigenvalues ---    0.16000   0.16000   0.22358   0.23488   0.24598
     Eigenvalues ---    0.25000   0.25000   0.25000   0.25000   0.25000
     Eigenvalues ---    0.35085   0.35194   0.35604   0.39345   0.40800
     Eigenvalues ---    0.42332   0.42996   0.44430   0.47238   0.48344
     Eigenvalues ---    0.53294   0.53463   0.53917   0.54375   0.55318
     Eigenvalues ---    0.57822   0.64702   0.66771
 RFO step:  Lambda=-1.83354498D-05 EMin= 1.77595537D-02
 Linear search not attempted -- first point.
 Iteration  1 RMS(Cart)=  0.00363019 RMS(Int)=  0.00000646
 Iteration  2 RMS(Cart)=  0.00000805 RMS(Int)=  0.00000002
 Iteration  3 RMS(Cart)=  0.00000000 RMS(Int)=  0.00000002
 Variable       Old X    -DE/DX   Delta X   Delta X   Delta X     New X
                                 (Linear)    (Quad)   (Total)
    R1        2.69760  -0.00011   0.00000  -0.00025  -0.00025   2.69735
    R2        2.64385   0.00016   0.00000   0.00037   0.00037   2.64422
    R3        2.52707   0.00033   0.00000   0.00058   0.00058   2.52764
    R4        2.68434   0.00014   0.00000   0.00034   0.00034   2.68467
    R5        2.68502  -0.00002   0.00000  -0.00005  -0.00005   2.68497
    R6        2.60886  -0.00032   0.00000  -0.00066  -0.00066   2.60820
    R7        2.04705  -0.00010   0.00000  -0.00029  -0.00029   2.04677
    R8        2.66594   0.00020   0.00000   0.00044   0.00044   2.66638
    R9        2.54851   0.00015   0.00000   0.00026   0.00026   2.54877
   R10        2.61593  -0.00017   0.00000  -0.00035  -0.00035   2.61558
   R11        2.05537  -0.00015   0.00000  -0.00042  -0.00042   2.05496
   R12        2.05361  -0.00014   0.00000  -0.00040  -0.00040   2.05321
   R13        1.82392  -0.00012   0.00000  -0.00023  -0.00023   1.82369
   R14        2.47403   0.00057   0.00000   0.00089   0.00089   2.47492
   R15        2.45953   0.00054   0.00000   0.00080   0.00080   2.46033
   R16        1.83224  -0.00023   0.00000  -0.00044  -0.00044   1.83180
   R17        1.83381  -0.00025   0.00000  -0.00047  -0.00047   1.83334
   R18        1.82807  -0.00027   0.00000  -0.00050  -0.00050   1.82757
    A1        2.06420  -0.00010   0.00000  -0.00037  -0.00037   2.06383
    A2        2.08476  -0.00022   0.00000  -0.00091  -0.00091   2.08384
    A3        2.13423   0.00033   0.00000   0.00129   0.00129   2.13551
    A4        2.09071   0.00007   0.00000   0.00030   0.00030   2.09100
    A5        2.13667  -0.00060   0.00000  -0.00240  -0.00240   2.13427
    A6        2.05581   0.00053   0.00000   0.00211   0.00211   2.05791
    A7        2.10824   0.00000   0.00000  -0.00004  -0.00004   2.10820
    A8        2.09924   0.00045   0.00000   0.00283   0.00283   2.10207
    A9        2.07570  -0.00045   0.00000  -0.00279  -0.00279   2.07291
   A10        2.07499  -0.00001   0.00000  -0.00007  -0.00007   2.07492
   A11        2.05427  -0.00042   0.00000  -0.00164  -0.00164   2.05263
   A12        2.15392   0.00042   0.00000   0.00171   0.00171   2.15564
   A13        2.11613   0.00002   0.00000   0.00006   0.00006   2.11619
   A14        2.09182  -0.00012   0.00000  -0.00075  -0.00075   2.09107
   A15        2.07524   0.00011   0.00000   0.00068   0.00068   2.07592
   A16        2.11210   0.00002   0.00000   0.00012   0.00012   2.11222
   A17        2.08408  -0.00008   0.00000  -0.00051  -0.00051   2.08357
   A18        2.08700   0.00006   0.00000   0.00038   0.00038   2.08739
   A19        1.95465   0.00043   0.00000   0.00270   0.00270   1.95735
   A20        2.05550   0.00007   0.00000   0.00027   0.00027   2.05577
   A21        2.10699  -0.00062   0.00000  -0.00248  -0.00248   2.10450
   A22        2.12070   0.00055   0.00000   0.00222   0.00222   2.12292
   A23        2.02324   0.00046   0.00000   0.00286   0.00286   2.02610
   A24        2.01888   0.00049   0.00000   0.00309   0.00309   2.02198
   A25        1.93689   0.00056   0.00000   0.00348   0.00348   1.94037
    D1       -0.00000   0.00000   0.00000   0.00001   0.00001   0.00001
    D2        3.14158   0.00000   0.00000   0.00000   0.00000   3.14159
    D3       -3.14159   0.00000   0.00000   0.00001   0.00001  -3.14158
    D4       -0.00000   0.00000   0.00000   0.00000   0.00000  -0.00000
    D5        0.00000  -0.00000   0.00000  -0.00000  -0.00000  -0.00000
    D6       -3.14159  -0.00000   0.00000  -0.00000  -0.00000   3.14159
    D7        3.14159  -0.00000   0.00000  -0.00000  -0.00000   3.14159
    D8       -0.00000  -0.00000   0.00000  -0.00000  -0.00000  -0.00001
    D9        3.14158   0.00000   0.00000   0.00000   0.00000   3.14158
   D10       -0.00001  -0.00000   0.00000  -0.00000  -0.00000  -0.00001
   D11        0.00000  -0.00000   0.00000  -0.00001  -0.00001  -0.00001
   D12       -3.14159  -0.00000   0.00000  -0.00000  -0.00000   3.14159
   D13       -3.14158  -0.00000   0.00000  -0.00001  -0.00001  -3.14159
   D14        0.00001   0.00000   0.00000   0.00000   0.00000   0.00001
   D15       -3.14154   0.00000   0.00000   0.00005   0.00005  -3.14149
   D16        0.00009  -0.00000   0.00000  -0.00003  -0.00003   0.00006
   D17        0.00005   0.00000   0.00000   0.00004   0.00004   0.00009
   D18       -3.14150  -0.00000   0.00000  -0.00004  -0.00004  -3.14154
   D19       -0.00000   0.00000   0.00000   0.00001   0.00001   0.00000
   D20       -3.14159   0.00000   0.00000   0.00001   0.00001  -3.14158
   D21        3.14159  -0.00000   0.00000  -0.00000  -0.00000   3.14159
   D22        0.00000  -0.00000   0.00000  -0.00000  -0.00000   0.00000
   D23        0.00000   0.00000   0.00000   0.00000   0.00000   0.00000
   D24       -3.14159  -0.00000   0.00000  -0.00000  -0.00000  -3.14159
   D25        3.14159   0.00000   0.00000   0.00000   0.00000   3.14159
   D26       -0.00000  -0.00000   0.00000  -0.00000  -0.00000  -0.00000
   D27       -3.14157  -0.00000   0.00000  -0.00001  -0.00001  -3.14158
   D28        0.00003  -0.00000   0.00000  -0.00001  -0.00001   0.00002
   D29       -0.00000  -0.00000   0.00000  -0.00000  -0.00000  -0.00000
   D30        3.14159  -0.00000   0.00000  -0.00000  -0.00000   3.14159
   D31        3.14159   0.00000   0.00000   0.00000   0.00000   3.14159
   D32       -0.00000   0.00000   0.00000   0.00000   0.00000  -0.00000
   D33       -3.14148  -0.00000   0.00000  -0.00005  -0.00005  -3.14152
   D34        0.00008   0.00000   0.00000   0.00003   0.00004   0.00011
   D35       -3.14152   0.00000   0.00000   0.00005   0.00005  -3.14148
   D36        0.00011  -0.00000   0.00000  -0.00004  -0.00004   0.00007
         Item               Value     Threshold  Converged?
 Maximum Force            0.000621     0.000450     NO 
 RMS     Force            0.000238     0.000300     YES
 Maximum Displacement     0.019341     0.001800     NO 
 RMS     Displacement     0.003631     0.001200     NO 
 Predicted change in Energy=-9.167725D-06
 GradGradGradGradGradGradGradGradGradGradGradGradGradGradGradGradGradGrad

                          Input orientation:                          
 ---------------------------------------------------------------------
 Center     Atomic      Atomic             Coordinates (Angstroms)
 Number     Number       Type             X           Y           Z
 ---------------------------------------------------------------------
      1          6           0       -0.218256    1.274419   -0.000001
      2          6           0       -0.424091   -0.138038   -0.000016
      3          6           0        0.693928   -1.014582   -0.000020
      4          6           0        1.981490   -0.517450   -0.000019
      5          6           0        2.172304    0.880579   -0.000010
      6          6           0        1.096972    1.752018    0.000001
      7          8           0        2.995050   -1.407294   -0.000034
      8          6           0       -1.722146   -0.715787   -0.000014
      9          8           0       -1.808791   -2.022587    0.000091
     10          8           0       -2.783038    0.038920   -0.000065
     11          8           0       -1.276764    2.092133    0.000016
     12          1           0        0.549611   -2.088028   -0.000032
     13          1           0        3.180292    1.288597   -0.000011
     14          1           0        1.274850    2.823873    0.000011
     15          1           0        3.858179   -0.975622   -0.000017
     16          1           0       -2.705681   -2.390313    0.000031
     17          1           0       -3.633835   -0.427296    0.000041
     18          1           0       -1.001899    3.019359    0.000035
 ---------------------------------------------------------------------
                    Distance matrix (angstroms):
                    1          2          3          4          5
     1  C    0.000000
     2  C    1.427376   0.000000
     3  C    2.464063   1.420668   0.000000
     4  C    2.837195   2.435318   1.380201   0.000000
     5  C    2.422785   2.789058   2.403587   1.410990   0.000000
     6  C    1.399259   2.426097   2.795804   2.435746   1.384105
     7  O    4.185323   3.647128   2.334392   1.348751   2.431311
     8  C    2.494515   1.420824   2.434480   3.708943   4.208934
     9  O    3.660608   2.338572   2.698088   4.078195   4.927219
    10  O    2.846851   2.365575   3.633065   4.796903   5.026311
    11  O    1.337570   2.387616   3.679036   4.174463   3.655671
    12  H    3.449010   2.179578   1.083104   2.125322   3.383158
    13  H    3.398578   3.876450   3.389194   2.167702   1.087437
    14  H    2.151784   3.414574   3.882166   3.415228   2.140518
    15  H    4.656180   4.363415   3.164491   1.931809   2.507520
    16  H    4.429169   3.205994   3.667421   5.047493   5.873114
    17  H    3.816020   3.222751   4.367429   5.616049   5.951620
    18  H    1.912828   3.209831   4.375901   4.627053   3.827525
                    6          7          8          9         10
     6  C    0.000000
     7  O    3.685642   0.000000
     8  C    3.746664   4.767612   0.000000
     9  O    4.763518   4.843086   1.309669   0.000000
    10  O    4.241366   5.956328   1.301951   2.280125   0.000000
    11  O    2.397978   5.522172   2.843023   4.148972   2.546477
    12  H    3.878861   2.538419   2.654040   2.359311   3.953538
    13  H    2.134240   2.702248   5.296362   5.987895   6.092864
    14  H    1.086515   4.567480   4.638015   5.744303   4.921628
    15  H    3.881274   0.965055   5.586371   5.762872   6.718263
    16  H    5.623085   5.784865   1.942004   0.969347   2.430465
    17  H    5.208641   6.700934   1.933334   2.423992   0.970161
    18  H    2.451818   5.964131   3.803955   5.106104   3.472099
                   11         12         13         14         15
    11  O    0.000000
    12  H    4.561732   0.000000
    13  H    4.528909   4.280430   0.000000
    14  H    2.654464   4.965154   2.446995   0.000000
    15  H    5.981535   3.490568   2.363519   4.594536   0.000000
    16  H    4.704692   3.269297   6.941114   6.559906   6.714582
    17  H    3.450117   4.501028   7.026849   5.887724   7.512053
    18  H    0.967109   5.337845   4.526174   2.285126   6.291282
                   16         17         18
    16  H    0.000000
    17  H    2.171383   0.000000
    18  H    5.671634   4.336648   0.000000
 Stoichiometry    C7H7O4(1+)
 Framework group  C1[X(C7H7O4)]
 Deg. of freedom    48
 Full point group                 C1      NOp   1
 Largest Abelian subgroup         C1      NOp   1
 Largest concise Abelian subgroup C1      NOp   1
                         Standard orientation:                         
 ---------------------------------------------------------------------
 Center     Atomic      Atomic             Coordinates (Angstroms)
 Number     Number       Type             X           Y           Z
 ---------------------------------------------------------------------
      1          6           0        0.220147    1.274286   -0.000004
      2          6           0        0.424083   -0.138446    0.000012
      3          6           0       -0.695113   -1.013487    0.000016
      4          6           0       -1.982006   -0.514625    0.000015
      5          6           0       -2.170941    0.883659    0.000006
      6          6           0       -1.094439    1.753652   -0.000006
      7          8           0       -2.996761   -1.403107    0.000029
      8          6           0        1.721360   -0.717939    0.000010
      9          8           0        1.806249   -2.024854   -0.000095
     10          8           0        2.783266    0.035342    0.000060
     11          8           0        1.279752    2.090577   -0.000020
     12          1           0       -0.552239   -2.087126    0.000027
     13          1           0       -3.178380    1.293031    0.000006
     14          1           0       -1.270876    2.825746   -0.000016
     15          1           0       -3.859309   -0.970275    0.000013
     16          1           0        2.702644   -2.393786   -0.000035
     17          1           0        3.633435   -0.432018   -0.000045
     18          1           0        1.006133    3.018171   -0.000039
 ---------------------------------------------------------------------
 Rotational constants (GHZ):      1.7753855      0.9071388      0.6003752
 Standard basis: 6-31+G(d,p) (6D, 7F)
 There are   244 symmetry adapted cartesian basis functions of A   symmetry.
 There are   244 symmetry adapted basis functions of A   symmetry.
   244 basis functions,   401 primitive gaussians,   244 cartesian basis functions
    40 alpha electrons       40 beta electrons
       nuclear repulsion energy       607.0807778132 Hartrees.
 NAtoms=   18 NActive=   18 NUniq=   18 SFac= 1.00D+00 NAtFMM=   60 NAOKFM=F Big=F
 Integral buffers will be    131072 words long.
 Raffenetti 2 integral format.
 Two-electron integral symmetry is turned on.
 Nuclear repulsion after empirical dispersion term =      607.0658520687 Hartrees.
 One-electron integrals computed using PRISM.
 NBasis=   244 RedAO= T EigKep=  3.24D-06  NBF=   244
 NBsUse=   244 1.00D-06 EigRej= -1.00D+00 NBFU=   244
 Initial guess from the checkpoint file:  "B3PW91D3DHByang.chk"
 B after Tr=    -0.000000    0.000000   -0.000000
         Rot=    1.000000   -0.000000    0.000001    0.000666 Ang=  -0.08 deg.
 Keep R1 ints in memory in canonical form, NReq=454277305.
 Requested convergence on RMS density matrix=1.00D-08 within 128 cycles.
 Requested convergence on MAX density matrix=1.00D-06.
 Requested convergence on             energy=1.00D-06.
 No special actions if energy rises.
 SCF Done:  E(RB3PW91) =  -571.422217180     A.U. after   10 cycles
            NFock= 10  Conv=0.52D-08     -V/T= 2.0089
 Calling FoFJK, ICntrl=      2127 FMM=F ISym2X=0 I1Cent= 0 IOpClX= 0 NMat=1 NMatS=1 NMatT=0.
 ***** Axes restored to original set *****
 -------------------------------------------------------------------
 Center     Atomic                   Forces (Hartrees/Bohr)
 Number     Number              X              Y              Z
 -------------------------------------------------------------------
      1        6          -0.000090763    0.000161903   -0.000000494
      2        6           0.000100145   -0.000200179   -0.000001478
      3        6          -0.000312813    0.000081657   -0.000000553
      4        6           0.000117631    0.000031602   -0.000000065
      5        6          -0.000018502    0.000098837    0.000000161
      6        6           0.000080909   -0.000010987    0.000000192
      7        8          -0.000067707    0.000032343    0.000000230
      8        6          -0.000162981   -0.000098049    0.000006375
      9        8           0.000049522    0.000222987   -0.000001697
     10        8          -0.000041826   -0.000322006   -0.000001685
     11        8           0.000248609    0.000131273   -0.000000091
     12        1           0.000034403   -0.000053553   -0.000000066
     13        1           0.000011705   -0.000028756   -0.000000058
     14        1          -0.000016284   -0.000002165    0.000000009
     15        1          -0.000025415   -0.000008417   -0.000000082
     16        1          -0.000014671    0.000072076   -0.000000345
     17        1           0.000043492   -0.000058101   -0.000000344
     18        1           0.000064546   -0.000050463   -0.000000008
 -------------------------------------------------------------------
 Cartesian Forces:  Max     0.000322006 RMS     0.000098374

 GradGradGradGradGradGradGradGradGradGradGradGradGradGradGradGradGradGrad
 Berny optimization.
 Using GEDIIS/GDIIS optimizer.
 FormGI is forming the generalized inverse of G from B-inverse, IUseBI=4.
 Internal  Forces:  Max     0.000677486 RMS     0.000162308
 Search for a local minimum.
 Step number   2 out of a maximum of   89
 All quantities printed in internal units (Hartrees-Bohrs-Radians)
 Mixed Optimization -- En-DIIS/RFO-DIIS
 Swapping is turned off.
 Update second derivatives using D2CorX and points    1    2
 DE= -5.07D-06 DEPred=-9.17D-06 R= 5.53D-01
 TightC=F SS=  1.41D+00  RLast= 9.39D-03 DXNew= 5.0454D-01 2.8170D-02
 Trust test= 5.53D-01 RLast= 9.39D-03 DXMaxT set to 3.00D-01
 ITU=  1  0
     Eigenvalues ---    0.01776   0.01813   0.01844   0.02003   0.02053
     Eigenvalues ---    0.02087   0.02135   0.02164   0.02200   0.02234
     Eigenvalues ---    0.02372   0.02393   0.02522   0.02893   0.02994
     Eigenvalues ---    0.13586   0.16000   0.16000   0.16000   0.16000
     Eigenvalues ---    0.16000   0.16201   0.22313   0.23482   0.24115
     Eigenvalues ---    0.24605   0.25000   0.25000   0.25000   0.34962
     Eigenvalues ---    0.35157   0.35387   0.36150   0.39937   0.41834
     Eigenvalues ---    0.42853   0.43369   0.45778   0.47237   0.48907
     Eigenvalues ---    0.53190   0.53409   0.53817   0.54351   0.55462
     Eigenvalues ---    0.58604   0.65709   0.69712
 En-DIIS/RFO-DIIS IScMMF=        0 using points:     2    1
 RFO step:  Lambda=-3.01273006D-06.
 DidBck=T Rises=F RFO-DIIS coefs:    0.71134    0.28866
 Iteration  1 RMS(Cart)=  0.00203602 RMS(Int)=  0.00000122
 Iteration  2 RMS(Cart)=  0.00000185 RMS(Int)=  0.00000000
 Iteration  3 RMS(Cart)=  0.00000000 RMS(Int)=  0.00000000
 Variable       Old X    -DE/DX   Delta X   Delta X   Delta X     New X
                                 (Linear)    (Quad)   (Total)
    R1        2.69735   0.00039   0.00007   0.00058   0.00065   2.69800
    R2        2.64422   0.00005  -0.00011   0.00024   0.00013   2.64435
    R3        2.52764  -0.00020  -0.00017  -0.00000  -0.00017   2.52747
    R4        2.68467  -0.00019  -0.00010  -0.00017  -0.00027   2.68441
    R5        2.68497   0.00019   0.00002   0.00030   0.00031   2.68528
    R6        2.60820   0.00007   0.00019  -0.00018   0.00001   2.60821
    R7        2.04677   0.00005   0.00008  -0.00002   0.00006   2.04683
    R8        2.66638  -0.00005  -0.00013   0.00009  -0.00004   2.66635
    R9        2.54877  -0.00009  -0.00008  -0.00000  -0.00008   2.54869
   R10        2.61558  -0.00012   0.00010  -0.00033  -0.00022   2.61535
   R11        2.05496   0.00000   0.00012  -0.00017  -0.00005   2.05491
   R12        2.05321  -0.00000   0.00012  -0.00017  -0.00006   2.05316
   R13        1.82369  -0.00002   0.00007  -0.00013  -0.00006   1.82363
   R14        2.47492  -0.00029  -0.00026   0.00005  -0.00021   2.47471
   R15        2.46033  -0.00023  -0.00023   0.00009  -0.00014   2.46019
   R16        1.83180  -0.00002   0.00013  -0.00020  -0.00008   1.83172
   R17        1.83334  -0.00001   0.00013  -0.00021  -0.00007   1.83327
   R18        1.82757  -0.00003   0.00015  -0.00025  -0.00011   1.82746
    A1        2.06383   0.00000   0.00011  -0.00010   0.00000   2.06383
    A2        2.08384   0.00038   0.00026   0.00068   0.00095   2.08479
    A3        2.13551  -0.00039  -0.00037  -0.00058  -0.00095   2.13456
    A4        2.09100  -0.00016  -0.00009  -0.00031  -0.00040   2.09061
    A5        2.13427   0.00068   0.00069   0.00091   0.00161   2.13588
    A6        2.05791  -0.00051  -0.00061  -0.00060  -0.00121   2.05670
    A7        2.10820   0.00009   0.00001   0.00027   0.00028   2.10848
    A8        2.10207  -0.00000  -0.00082   0.00123   0.00042   2.10249
    A9        2.07291  -0.00009   0.00081  -0.00150  -0.00069   2.07221
   A10        2.07492   0.00007   0.00002   0.00012   0.00014   2.07506
   A11        2.05263  -0.00007   0.00047  -0.00087  -0.00040   2.05223
   A12        2.15564   0.00000  -0.00049   0.00075   0.00026   2.15589
   A13        2.11619  -0.00006  -0.00002  -0.00021  -0.00023   2.11597
   A14        2.09107   0.00000   0.00022  -0.00032  -0.00010   2.09097
   A15        2.07592   0.00006  -0.00020   0.00053   0.00033   2.07625
   A16        2.11222   0.00006  -0.00004   0.00024   0.00020   2.11243
   A17        2.08357  -0.00005   0.00015  -0.00039  -0.00024   2.08333
   A18        2.08739  -0.00001  -0.00011   0.00015   0.00004   2.08743
   A19        1.95735  -0.00001  -0.00078   0.00107   0.00029   1.95764
   A20        2.05577  -0.00025  -0.00008  -0.00061  -0.00069   2.05507
   A21        2.10450   0.00058   0.00072   0.00063   0.00134   2.10585
   A22        2.12292  -0.00033  -0.00064  -0.00001  -0.00065   2.12226
   A23        2.02610  -0.00013  -0.00083   0.00063  -0.00019   2.02591
   A24        2.02198  -0.00014  -0.00089   0.00067  -0.00022   2.02175
   A25        1.94037  -0.00013  -0.00100   0.00085  -0.00016   1.94021
    D1        0.00001  -0.00000  -0.00000  -0.00000  -0.00001  -0.00000
    D2        3.14159  -0.00000  -0.00000  -0.00000  -0.00000   3.14158
    D3       -3.14158  -0.00000  -0.00000  -0.00000  -0.00001  -3.14159
    D4       -0.00000  -0.00000  -0.00000  -0.00000  -0.00000  -0.00000
    D5       -0.00000   0.00000   0.00000   0.00000   0.00000   0.00000
    D6        3.14159   0.00000   0.00000   0.00000   0.00000  -3.14159
    D7        3.14159   0.00000   0.00000   0.00000   0.00000   3.14159
    D8       -0.00001   0.00000   0.00000  -0.00000   0.00000  -0.00001
    D9        3.14158  -0.00000  -0.00000  -0.00000  -0.00000   3.14158
   D10       -0.00001   0.00000   0.00000   0.00000   0.00000  -0.00001
   D11       -0.00001   0.00000   0.00000   0.00000   0.00001  -0.00000
   D12        3.14159   0.00000   0.00000   0.00000   0.00000  -3.14159
   D13       -3.14159   0.00000   0.00000   0.00000   0.00000  -3.14159
   D14        0.00001  -0.00000  -0.00000   0.00000  -0.00000   0.00001
   D15       -3.14149  -0.00000  -0.00001  -0.00002  -0.00003  -3.14152
   D16        0.00006   0.00000   0.00001   0.00002   0.00003   0.00009
   D17        0.00009  -0.00000  -0.00001  -0.00002  -0.00003   0.00006
   D18       -3.14154   0.00000   0.00001   0.00002   0.00003  -3.14151
   D19        0.00000  -0.00000  -0.00000  -0.00000  -0.00000   0.00000
   D20       -3.14158  -0.00000  -0.00000  -0.00000  -0.00000  -3.14159
   D21        3.14159   0.00000   0.00000  -0.00000   0.00000   3.14159
   D22        0.00000  -0.00000   0.00000  -0.00000  -0.00000  -0.00000
   D23        0.00000  -0.00000  -0.00000  -0.00000  -0.00000   0.00000
   D24       -3.14159   0.00000   0.00000  -0.00000   0.00000  -3.14159
   D25        3.14159   0.00000  -0.00000   0.00000  -0.00000   3.14159
   D26       -0.00000   0.00000   0.00000   0.00000   0.00000  -0.00000
   D27       -3.14158  -0.00000   0.00000  -0.00000  -0.00000  -3.14158
   D28        0.00002  -0.00000   0.00000  -0.00001  -0.00000   0.00002
   D29       -0.00000   0.00000   0.00000   0.00000   0.00000  -0.00000
   D30        3.14159   0.00000   0.00000   0.00000   0.00000   3.14159
   D31        3.14159  -0.00000  -0.00000  -0.00000  -0.00000   3.14159
   D32       -0.00000   0.00000  -0.00000   0.00000   0.00000  -0.00000
   D33       -3.14152   0.00000   0.00001   0.00002   0.00004  -3.14149
   D34        0.00011  -0.00000  -0.00001  -0.00001  -0.00002   0.00009
   D35       -3.14148  -0.00000  -0.00001  -0.00002  -0.00004  -3.14152
   D36        0.00007   0.00000   0.00001   0.00001   0.00003   0.00009
         Item               Value     Threshold  Converged?
 Maximum Force            0.000677     0.000450     NO 
 RMS     Force            0.000162     0.000300     YES
 Maximum Displacement     0.008962     0.001800     NO 
 RMS     Displacement     0.002036     0.001200     NO 
 Predicted change in Energy=-2.237384D-06
 GradGradGradGradGradGradGradGradGradGradGradGradGradGradGradGradGradGrad

                          Input orientation:                          
 ---------------------------------------------------------------------
 Center     Atomic      Atomic             Coordinates (Angstroms)
 Number     Number       Type             X           Y           Z
 ---------------------------------------------------------------------
      1          6           0       -0.218144    1.275832    0.000005
      2          6           0       -0.424938   -0.136832    0.000000
      3          6           0        0.692755   -1.013564   -0.000012
      4          6           0        1.980578   -0.517102   -0.000019
      5          6           0        2.172316    0.880781   -0.000014
      6          6           0        1.097457    1.752614   -0.000001
      7          8           0        2.993289   -1.407849   -0.000035
      8          6           0       -1.722586   -0.715900    0.000015
      9          8           0       -1.807062   -2.022731    0.000089
     10          8           0       -2.785158    0.036313   -0.000064
     11          8           0       -1.275278    2.095175    0.000022
     12          1           0        0.548617   -2.087066   -0.000019
     13          1           0        3.180590    1.288017   -0.000021
     14          1           0        1.275753    2.824368    0.000004
     15          1           0        3.856909   -0.977231   -0.000026
     16          1           0       -2.703376   -2.391752    0.000007
     17          1           0       -3.634738   -0.432039    0.000019
     18          1           0       -0.998810    3.021866    0.000034
 ---------------------------------------------------------------------
                    Distance matrix (angstroms):
                    1          2          3          4          5
     1  C    0.000000
     2  C    1.427719   0.000000
     3  C    2.463954   1.420527   0.000000
     4  C    2.837074   2.435388   1.380205   0.000000
     5  C    2.422883   2.789492   2.403673   1.410971   0.000000
     6  C    1.399331   2.426457   2.795627   2.435470   1.383986
     7  O    4.185146   3.646884   2.334078   1.348708   2.431424
     8  C    2.496065   1.420989   2.433613   3.708496   4.209472
     9  O    3.661308   2.338137   2.695830   4.075922   4.926036
    10  O    2.850608   2.366562   3.632921   4.797761   5.028884
    11  O    1.337482   2.388501   3.679323   4.174278   3.655224
    12  H    3.449203   2.179730   1.083135   2.124924   3.382974
    13  H    3.398756   3.876858   3.389189   2.167598   1.087409
    14  H    2.151672   3.414829   3.881960   3.414997   2.140411
    15  H    4.656431   4.363540   3.164363   1.931926   2.508000
    16  H    4.430299   3.205612   3.665120   5.045170   5.872125
    17  H    3.819677   3.223347   4.366390   5.615960   5.953601
    18  H    1.912609   3.210405   4.375624   4.626126   3.826262
                    6          7          8          9         10
     6  C    0.000000
     7  O    3.685473   0.000000
     8  C    3.747827   4.766369   0.000000
     9  O    4.763346   4.839572   1.309559   0.000000
    10  O    4.245042   5.956178   1.301877   2.279547   0.000000
    11  O    2.397336   5.521942   2.846442   4.152102   2.553165
    12  H    3.878707   2.537274   2.653009   2.356557   3.952568
    13  H    2.134314   2.702364   5.296869   5.986462   6.095647
    14  H    1.086483   4.567449   4.639347   5.744399   4.925875
    15  H    3.881576   0.965024   5.585612   5.759656   6.718953
    16  H    5.623354   5.781009   1.941760   0.969307   2.429443
    17  H    5.212137   6.699474   1.933107   2.422953   0.970124
    18  H    2.450578   5.963156   3.807197   5.108937   3.479161
                   11         12         13         14         15
    11  O    0.000000
    12  H    4.562646   0.000000
    13  H    4.528385   4.280008   0.000000
    14  H    2.653202   4.964969   2.447199   0.000000
    15  H    5.981557   3.489488   2.364055   4.595055   0.000000
    16  H    4.708714   3.266236   6.939868   6.560593   6.711052
    17  H    3.457436   4.498841   7.029032   5.892122   7.511459
    18  H    0.967052   5.338138   4.524778   2.283121   6.290531
                   16         17         18
    16  H    0.000000
    17  H    2.169772   0.000000
    18  H    5.675633   4.344833   0.000000
 Stoichiometry    C7H7O4(1+)
 Framework group  C1[X(C7H7O4)]
 Deg. of freedom    48
 Full point group                 C1      NOp   1
 Largest Abelian subgroup         C1      NOp   1
 Largest concise Abelian subgroup C1      NOp   1
                         Standard orientation:                         
 ---------------------------------------------------------------------
 Center     Atomic      Atomic             Coordinates (Angstroms)
 Number     Number       Type             X           Y           Z
 ---------------------------------------------------------------------
      1          6           0        0.219073    1.275560   -0.000006
      2          6           0        0.424782   -0.137262   -0.000001
      3          6           0       -0.693583   -1.013136    0.000011
      4          6           0       -1.981025   -0.515685    0.000018
      5          6           0       -2.171690    0.882345    0.000013
      6          6           0       -1.096161    1.753353    0.000000
      7          8           0       -2.994420   -1.405654    0.000034
      8          6           0        1.721985   -0.717326   -0.000015
      9          8           0        1.805458   -2.024222   -0.000090
     10          8           0        2.785134    0.034071    0.000063
     11          8           0        1.276836    2.094092   -0.000023
     12          1           0       -0.550270   -2.086748    0.000018
     13          1           0       -3.179651    1.290355    0.000021
     14          1           0       -1.273635    2.825243   -0.000004
     15          1           0       -3.857709   -0.974373    0.000025
     16          1           0        2.701489   -2.393931   -0.000007
     17          1           0        3.634354   -0.434933   -0.000020
     18          1           0        1.001079    3.020994   -0.000035
 ---------------------------------------------------------------------
 Rotational constants (GHZ):      1.7734412      0.9074510      0.6002894
 Standard basis: 6-31+G(d,p) (6D, 7F)
 There are   244 symmetry adapted cartesian basis functions of A   symmetry.
 There are   244 symmetry adapted basis functions of A   symmetry.
   244 basis functions,   401 primitive gaussians,   244 cartesian basis functions
    40 alpha electrons       40 beta electrons
       nuclear repulsion energy       607.0277882130 Hartrees.
 NAtoms=   18 NActive=   18 NUniq=   18 SFac= 1.00D+00 NAtFMM=   60 NAOKFM=F Big=F
 Integral buffers will be    131072 words long.
 Raffenetti 2 integral format.
 Two-electron integral symmetry is turned on.
 Nuclear repulsion after empirical dispersion term =      607.0128647131 Hartrees.
 One-electron integrals computed using PRISM.
 NBasis=   244 RedAO= T EigKep=  3.24D-06  NBF=   244
 NBsUse=   244 1.00D-06 EigRej= -1.00D+00 NBFU=   244
 Initial guess from the checkpoint file:  "B3PW91D3DHByang.chk"
 B after Tr=     0.000000    0.000000    0.000000
         Rot=    1.000000   -0.000000   -0.000001   -0.000295 Ang=  -0.03 deg.
 Keep R1 ints in memory in canonical form, NReq=454277305.
 Requested convergence on RMS density matrix=1.00D-08 within 128 cycles.
 Requested convergence on MAX density matrix=1.00D-06.
 Requested convergence on             energy=1.00D-06.
 No special actions if energy rises.
 SCF Done:  E(RB3PW91) =  -571.422219125     A.U. after    9 cycles
            NFock=  9  Conv=0.85D-08     -V/T= 2.0089
 Calling FoFJK, ICntrl=      2127 FMM=F ISym2X=0 I1Cent= 0 IOpClX= 0 NMat=1 NMatS=1 NMatT=0.
 ***** Axes restored to original set *****
 -------------------------------------------------------------------
 Center     Atomic                   Forces (Hartrees/Bohr)
 Number     Number              X              Y              Z
 -------------------------------------------------------------------
      1        6          -0.000034681    0.000043030    0.000000219
      2        6          -0.000037047    0.000037775    0.000000512
      3        6          -0.000116885    0.000028869    0.000000123
      4        6           0.000083193    0.000031256   -0.000000052
      5        6           0.000049485   -0.000011889    0.000000034
      6        6          -0.000005483   -0.000055206   -0.000000104
      7        8          -0.000024887   -0.000004589    0.000000110
      8        6          -0.000070317   -0.000012420   -0.000002335
      9        8           0.000014065    0.000066306    0.000000673
     10        8           0.000137775    0.000020955    0.000000704
     11        8          -0.000021650   -0.000167564    0.000000042
     12        1           0.000005685   -0.000012617    0.000000020
     13        1           0.000019813   -0.000001477    0.000000016
     14        1          -0.000006352    0.000021598   -0.000000006
     15        1          -0.000008477    0.000022601   -0.000000103
     16        1          -0.000035948    0.000030929    0.000000105
     17        1           0.000006038   -0.000033048    0.000000051
     18        1           0.000045675   -0.000004507   -0.000000008
 -------------------------------------------------------------------
 Cartesian Forces:  Max     0.000167564 RMS     0.000042900

 GradGradGradGradGradGradGradGradGradGradGradGradGradGradGradGradGradGrad
 Berny optimization.
 Using GEDIIS/GDIIS optimizer.
 FormGI is forming the generalized inverse of G from B-inverse, IUseBI=4.
 Internal  Forces:  Max     0.000153237 RMS     0.000051916
 Search for a local minimum.
 Step number   3 out of a maximum of   89
 All quantities printed in internal units (Hartrees-Bohrs-Radians)
 Mixed Optimization -- En-DIIS/RFO-DIIS
 Swapping is turned off.
 Update second derivatives using D2CorX and points    1    2    3
 DE= -1.95D-06 DEPred=-2.24D-06 R= 8.69D-01
 TightC=F SS=  1.41D+00  RLast= 3.31D-03 DXNew= 5.0454D-01 9.9356D-03
 Trust test= 8.69D-01 RLast= 3.31D-03 DXMaxT set to 3.00D-01
 ITU=  1  1  0
     Eigenvalues ---    0.01776   0.01813   0.01844   0.02003   0.02053
     Eigenvalues ---    0.02087   0.02135   0.02164   0.02200   0.02234
     Eigenvalues ---    0.02372   0.02393   0.02522   0.02893   0.02994
     Eigenvalues ---    0.13709   0.16000   0.16000   0.16000   0.16000
     Eigenvalues ---    0.16010   0.16955   0.22085   0.23503   0.24125
     Eigenvalues ---    0.24795   0.25000   0.25000   0.25591   0.35080
     Eigenvalues ---    0.35191   0.35586   0.36556   0.40281   0.41941
     Eigenvalues ---    0.42889   0.44525   0.46792   0.48519   0.53083
     Eigenvalues ---    0.53404   0.53764   0.54342   0.55364   0.57045
     Eigenvalues ---    0.58597   0.65772   0.67908
 En-DIIS/RFO-DIIS IScMMF=        0 using points:     3    2    1
 RFO step:  Lambda=-3.06723653D-07.
 DidBck=T Rises=F RFO-DIIS coefs:    0.71342    0.20015    0.08643
 Iteration  1 RMS(Cart)=  0.00048887 RMS(Int)=  0.00000009
 Iteration  2 RMS(Cart)=  0.00000013 RMS(Int)=  0.00000000
 Variable       Old X    -DE/DX   Delta X   Delta X   Delta X     New X
                                 (Linear)    (Quad)   (Total)
    R1        2.69800  -0.00015  -0.00016  -0.00006  -0.00022   2.69777
    R2        2.64435   0.00000  -0.00007   0.00007   0.00000   2.64435
    R3        2.52747  -0.00012  -0.00000  -0.00017  -0.00017   2.52730
    R4        2.68441  -0.00005   0.00005  -0.00016  -0.00011   2.68430
    R5        2.68528  -0.00008  -0.00009  -0.00002  -0.00011   2.68517
    R6        2.60821   0.00010   0.00005   0.00011   0.00017   2.60838
    R7        2.04683   0.00001   0.00001   0.00002   0.00003   2.04686
    R8        2.66635  -0.00001  -0.00003   0.00001  -0.00002   2.66633
    R9        2.54869  -0.00004   0.00000  -0.00006  -0.00006   2.54863
   R10        2.61535   0.00001   0.00009  -0.00008   0.00001   2.61537
   R11        2.05491   0.00002   0.00005  -0.00001   0.00004   2.05495
   R12        2.05316   0.00002   0.00005  -0.00001   0.00005   2.05320
   R13        1.82363   0.00001   0.00004  -0.00003   0.00001   1.82364
   R14        2.47471  -0.00009  -0.00002  -0.00012  -0.00013   2.47457
   R15        2.46019  -0.00013  -0.00003  -0.00014  -0.00016   2.46003
   R16        1.83172   0.00002   0.00006  -0.00003   0.00003   1.83175
   R17        1.83327   0.00001   0.00006  -0.00004   0.00002   1.83329
   R18        1.82746   0.00001   0.00007  -0.00006   0.00001   1.82747
    A1        2.06383   0.00005   0.00003   0.00009   0.00013   2.06396
    A2        2.08479  -0.00015  -0.00019  -0.00013  -0.00032   2.08447
    A3        2.13456   0.00010   0.00016   0.00004   0.00020   2.13476
    A4        2.09061   0.00001   0.00009  -0.00013  -0.00004   2.09057
    A5        2.13588  -0.00015  -0.00025  -0.00001  -0.00027   2.13561
    A6        2.05670   0.00015   0.00016   0.00014   0.00031   2.05701
    A7        2.10848  -0.00002  -0.00008   0.00004  -0.00003   2.10845
    A8        2.10249   0.00002  -0.00036   0.00041   0.00005   2.10254
    A9        2.07221  -0.00000   0.00044  -0.00046  -0.00002   2.07220
   A10        2.07506   0.00001  -0.00003   0.00012   0.00008   2.07514
   A11        2.05223   0.00002   0.00026  -0.00022   0.00004   2.05227
   A12        2.15589  -0.00003  -0.00022   0.00010  -0.00012   2.15578
   A13        2.11597  -0.00005   0.00006  -0.00021  -0.00015   2.11582
   A14        2.09097   0.00002   0.00009  -0.00005   0.00005   2.09102
   A15        2.07625   0.00003  -0.00015   0.00025   0.00010   2.07635
   A16        2.11243   0.00000  -0.00007   0.00008   0.00001   2.11244
   A17        2.08333  -0.00001   0.00011  -0.00018  -0.00007   2.08326
   A18        2.08743   0.00001  -0.00004   0.00010   0.00006   2.08749
   A19        1.95764  -0.00005  -0.00032   0.00006  -0.00025   1.95739
   A20        2.05507   0.00012   0.00017   0.00010   0.00028   2.05535
   A21        2.10585  -0.00011  -0.00017   0.00001  -0.00016   2.10568
   A22        2.12226  -0.00001  -0.00000  -0.00011  -0.00011   2.12215
   A23        2.02591  -0.00007  -0.00019  -0.00019  -0.00038   2.02553
   A24        2.02175  -0.00007  -0.00020  -0.00017  -0.00037   2.02138
   A25        1.94021  -0.00008  -0.00026  -0.00017  -0.00042   1.93979
    D1       -0.00000   0.00000   0.00000   0.00000   0.00000   0.00000
    D2        3.14158   0.00000   0.00000   0.00000   0.00000   3.14159
    D3       -3.14159   0.00000   0.00000   0.00000   0.00000  -3.14159
    D4       -0.00000   0.00000   0.00000   0.00000   0.00000  -0.00000
    D5        0.00000  -0.00000  -0.00000  -0.00000  -0.00000   0.00000
    D6       -3.14159  -0.00000  -0.00000  -0.00000  -0.00000  -3.14159
    D7        3.14159  -0.00000  -0.00000  -0.00000  -0.00000   3.14159
    D8       -0.00001  -0.00000   0.00000  -0.00000  -0.00000  -0.00001
    D9        3.14158   0.00000   0.00000   0.00000   0.00000   3.14158
   D10       -0.00001  -0.00000  -0.00000   0.00000  -0.00000  -0.00001
   D11       -0.00000  -0.00000  -0.00000  -0.00000  -0.00000  -0.00000
   D12       -3.14159  -0.00000  -0.00000  -0.00000  -0.00000  -3.14159
   D13       -3.14159  -0.00000  -0.00000  -0.00000  -0.00000  -3.14159
   D14        0.00001   0.00000  -0.00000   0.00000  -0.00000   0.00001
   D15       -3.14152   0.00000   0.00001   0.00001   0.00001  -3.14151
   D16        0.00009  -0.00000  -0.00000  -0.00000  -0.00001   0.00008
   D17        0.00006   0.00000   0.00000   0.00001   0.00001   0.00007
   D18       -3.14151  -0.00000  -0.00001  -0.00000  -0.00001  -3.14152
   D19        0.00000   0.00000   0.00000   0.00000   0.00000   0.00000
   D20       -3.14159   0.00000   0.00000   0.00000   0.00000  -3.14159
   D21        3.14159  -0.00000   0.00000  -0.00000  -0.00000   3.14159
   D22       -0.00000   0.00000   0.00000  -0.00000   0.00000  -0.00000
   D23        0.00000   0.00000   0.00000   0.00000   0.00000   0.00000
   D24       -3.14159  -0.00000   0.00000  -0.00000  -0.00000  -3.14159
   D25        3.14159   0.00000  -0.00000   0.00000   0.00000   3.14159
   D26       -0.00000  -0.00000  -0.00000   0.00000  -0.00000  -0.00000
   D27       -3.14158  -0.00000   0.00000  -0.00000  -0.00000  -3.14158
   D28        0.00002  -0.00000   0.00000  -0.00000  -0.00000   0.00002
   D29       -0.00000  -0.00000  -0.00000   0.00000   0.00000  -0.00000
   D30        3.14159  -0.00000  -0.00000  -0.00000  -0.00000   3.14159
   D31        3.14159   0.00000   0.00000   0.00000   0.00000   3.14159
   D32       -0.00000  -0.00000  -0.00000   0.00000  -0.00000  -0.00000
   D33       -3.14149  -0.00000  -0.00001  -0.00001  -0.00001  -3.14150
   D34        0.00009   0.00000   0.00000   0.00000   0.00001   0.00010
   D35       -3.14152   0.00000   0.00001   0.00000   0.00001  -3.14151
   D36        0.00009  -0.00000  -0.00000  -0.00001  -0.00001   0.00008
         Item               Value     Threshold  Converged?
 Maximum Force            0.000153     0.000450     YES
 RMS     Force            0.000052     0.000300     YES
 Maximum Displacement     0.001755     0.001800     YES
 RMS     Displacement     0.000489     0.001200     YES
 Predicted change in Energy=-2.318912D-07
 Optimization completed.
    -- Stationary point found.
                           ----------------------------
                           !   Optimized Parameters   !
                           ! (Angstroms and Degrees)  !
 --------------------------                            --------------------------
 ! Name  Definition              Value          Derivative Info.                !
 --------------------------------------------------------------------------------
 ! R1    R(1,2)                  1.4277         -DE/DX =   -0.0002              !
 ! R2    R(1,6)                  1.3993         -DE/DX =    0.0                 !
 ! R3    R(1,11)                 1.3375         -DE/DX =   -0.0001              !
 ! R4    R(2,3)                  1.4205         -DE/DX =    0.0                 !
 ! R5    R(2,8)                  1.421          -DE/DX =   -0.0001              !
 ! R6    R(3,4)                  1.3802         -DE/DX =    0.0001              !
 ! R7    R(3,12)                 1.0831         -DE/DX =    0.0                 !
 ! R8    R(4,5)                  1.411          -DE/DX =    0.0                 !
 ! R9    R(4,7)                  1.3487         -DE/DX =    0.0                 !
 ! R10   R(5,6)                  1.384          -DE/DX =    0.0                 !
 ! R11   R(5,13)                 1.0874         -DE/DX =    0.0                 !
 ! R12   R(6,14)                 1.0865         -DE/DX =    0.0                 !
 ! R13   R(7,15)                 0.965          -DE/DX =    0.0                 !
 ! R14   R(8,9)                  1.3096         -DE/DX =   -0.0001              !
 ! R15   R(8,10)                 1.3019         -DE/DX =   -0.0001              !
 ! R16   R(9,16)                 0.9693         -DE/DX =    0.0                 !
 ! R17   R(10,17)                0.9701         -DE/DX =    0.0                 !
 ! R18   R(11,18)                0.9671         -DE/DX =    0.0                 !
 ! A1    A(2,1,6)              118.249          -DE/DX =    0.0001              !
 ! A2    A(2,1,11)             119.4497         -DE/DX =   -0.0001              !
 ! A3    A(6,1,11)             122.3013         -DE/DX =    0.0001              !
 ! A4    A(1,2,3)              119.783          -DE/DX =    0.0                 !
 ! A5    A(1,2,8)              122.3767         -DE/DX =   -0.0002              !
[...]
 54019,-0.0000075,-0.0000298,-0.0000091,-0.1179331,0.9545493,-1.1612836
 ,-0.0000195,-1.2030889,0.0012765,0.0000374,0.0000346,0.0000241,0.13208
 75,0.125095,-0.1720049,-0.0000058,0.3767543,0.4394086,-0.0000117,-0.00
 00156,0.0000005,-0.0541089,-0.4384755,0.6532088,-0.0000024,-0.0120163,
 0.0641981,-0.0000081,-0.0000184,-0.0000062,-0.1344037,-1.2235884,0.627
 8288,-0.0000149,0.8215312,-0.512372,-0.000016,-0.0000085,-0.0000137,-0
 .3608684,2.7012542,0.7276303,0.0000238,0.5534726,1.8967334,-0.0000614,
 0.0000687,-0.0000688,0.3693173,-0.5666675,-0.3487395,0.0000268,-0.7839
 04,-1.5051699,0.0000477,0.000066,0.0000816,-0.2839656,-1.6789573,-0.02
 05023,-0.0000521,0.5281021,-0.2595412,-0.0000132,-0.0001571,-0.0000199
 ,-0.2663279,-0.6917917,0.9117777,0.0000168,0.4641747,-1.0523478,-0.000
 0079,0.0000003,-0.0000259,-0.3139449,0.0983666,-0.0150996,0.0000003,0.
 0120741,0.0945861,-0.0000175,0.0000021,-0.0000003,0.1529915,0.0022505,
 -0.0066698,0.0000053,0.0066352,0.1041378,-0.0000003,0.0000071,0.000001
 2,0.1398518,0.0797138,0.039651,0.0000005,0.0180054,-0.007415,0.000007,
 0.000003,-0.0000017,0.1589814,0.4458846,-0.0801838,0.0000326,-0.113203
 7,0.2100338,0.0000052,0.0000087,0.0000014,0.3596634,0.3451252,0.145311
 ,-0.0000137,0.1768907,0.4797543,0.0000028,-0.0000413,-0.0000182,0.3821
 062,0.5702248,-0.0062867,0.0000069,-0.0495879,0.2466921,0.0000237,0.00
 00534,0.0000291,0.3797042,0.2697119,-0.1280484,-0.0000049,-0.100754,0.
 447392,0.0000084,0.0000077,0.0000062,0.355433\Polar=137.4730199,8.8082
 111,112.8039087,-0.0011141,-0.0002938,46.0941123\PG=C01 [X(C7H7O4)]\NI
 mag=0\\0.71167009,-0.02790615,0.70202261,-0.00000475,0.00000449,0.1594
 0043,-0.13485470,-0.03406545,-0.00000018,0.67698271,-0.01533276,-0.270
 30269,-0.00000207,0.00174326,0.68753102,0.00000048,-0.00000037,-0.0630
 6266,-0.00000410,-0.00000194,0.13253045,0.05206706,0.04214465,-0.00000
 031,-0.21231115,0.08733708,0.00000170,0.72316717,0.01968306,-0.0339032
 6,0.00000013,0.10933403,-0.19694442,-0.00000037,0.03165704,0.73911474,
 -0.00000075,-0.00000055,0.00102348,0.00000240,0.00000026,-0.04765030,-
 0.00000449,0.00000276,0.11935703,-0.03711248,-0.02651784,-0.00000003,-
 0.05088980,0.02035358,0.00000026,-0.32894416,-0.12016555,0.00000173,0.
 76160336,-0.04046469,-0.03223832,0.00000001,-0.01115459,0.03517722,-0.
 00000049,-0.06283094,-0.16155761,0.00000040,-0.00416342,0.68771932,0.0
 0000088,-0.00000012,0.00057501,0.00000069,-0.00000085,-0.00275016,0.00
 000138,0.00000101,-0.06013363,-0.00000504,0.00000356,0.13896838,-0.055
 64796,0.00581102,0.00000056,-0.01005691,0.00982772,0.00000004,0.017109
 72,-0.03311661,-0.00000030,-0.13812699,-0.07038799,0.00000045,0.755545
 65,0.05171135,0.05259837,-0.00000012,0.01633558,-0.03044925,-0.0000000
 8,-0.06557278,-0.01336066,0.00000027,0.00289799,-0.29362886,-0.0000014
 2,-0.00858640,0.67742854,0.00000035,0.00000056,-0.00324330,-0.00000035
 ,-0.00000034,0.00077544,0.00000005,0.00000026,0.00124552,0.00000085,-0
 .00000081,-0.05918181,-0.00000552,0.00000283,0.12808024,-0.27172019,-0
 .04748828,0.00000130,0.00637996,-0.04966502,0.00000012,-0.05276779,0.0
 0654988,-0.00000005,0.05427298,0.06054600,0.00000004,-0.27861851,0.093
 77654,0.00000246,0.68849949,-0.11100118,-0.16363840,0.00000028,-0.0238
 8561,-0.00672938,0.00000053,0.00055265,-0.00253093,-0.00000070,0.02282
 834,-0.03358755,0.00000030,0.15611762,-0.22978498,-0.00000215,-0.02066
 293,0.75724376,0.00000044,-0.00000058,-0.06588527,-0.00000025,0.000001
 17,0.00588527,0.00000061,-0.00000047,0.00283867,-0.00000013,-0.0000005
 2,-0.00140701,0.00000261,-0.00000162,-0.04944174,-0.00000460,0.0000037
 1,0.11540817,0.00499431,-0.00118373,-0.00000027,0.00010519,-0.00602005
 ,0.00000016,-0.06035302,0.03330269,0.00000077,-0.24354543,0.14629181,0
 .00000249,0.00051432,0.00646424,0.00000066,-0.00402808,-0.00181585,0.0
 0000018,0.72210031,0.00276504,0.00446721,-0.00000008,0.00020483,-0.003
 54139,0.00000007,-0.00337347,0.01775490,0.00000022,0.09379746,-0.20825
 758,-0.00000306,0.04447235,-0.03914178,-0.00000055,-0.00934491,-0.0029
 8832,0.00000013,0.04299751,0.38275662,-0.00000051,0.00000003,-0.001417
 79,-0.00000029,0.00000064,0.00496447,0.00000080,-0.00000061,0.00747873
 ,0.00000181,-0.00000263,-0.03780858,0.00000020,-0.00000012,0.00672786,
 -0.00000002,-0.00000040,0.00614479,0.00000130,0.00000622,0.02202096,0.
 01657554,-0.04677242,0.00000018,-0.23838739,-0.06458339,0.00000198,-0.
 05709253,0.00337323,0.00000053,0.00533516,0.02228146,-0.00000072,0.004
 32064,-0.00659933,0.00000001,0.00015644,-0.00302943,0.00000007,0.00338
 704,-0.00606958,0.00000028,0.80256834,-0.03304325,-0.01897692,0.000000
 74,-0.06579612,-0.13449359,0.00000096,0.00333570,0.02196731,-0.0000004
 8,0.00716356,0.00686517,0.00000002,0.00264685,-0.00635997,-0.00000035,
 -0.00065495,-0.00874301,-0.00000027,0.00455684,-0.00352725,-0.00000010
 ,-0.00759441,0.76960039,0.00000136,-0.00000008,-0.00220166,0.00000181,
 0.00000111,-0.07486087,-0.00000003,0.00000013,-0.00300489,0.00000007,0
 .00000057,0.00651012,0.00000018,-0.00000074,-0.00110590,-0.00000050,0.
 00000018,0.00577722,0.00000003,-0.00000032,0.00034212,0.00001302,-0.00
 003217,0.19723859,-0.00802172,0.00788828,0.00000064,-0.00682112,-0.047
 61278,0.00000327,-0.00285843,-0.00425206,-0.00000035,0.00187149,-0.001
 96964,0.00000050,-0.00019552,-0.00091583,-0.00000011,-0.00126006,-0.00
 199514,-0.00000045,-0.00114616,0.00084337,-0.00000043,-0.13468529,-0.0
 5885287,-0.00000196,0.59429959,-0.00218250,0.01756537,0.00000007,-0.03
 721093,-0.04690981,0.00000198,0.01003880,-0.00615172,0.00000009,-0.001
 19352,-0.00825382,0.00000055,-0.00035353,0.00211290,-0.00000014,-0.002
 46508,0.00141926,-0.00000007,-0.00288312,0.00344809,-0.00000029,0.0079
 8329,-0.39582912,0.00002181,0.18777362,0.59026026,-0.00000070,-0.00000
 162,0.00324954,0.00000260,0.00000208,0.01099462,-0.00000033,0.00000030
 ,0.00072716,-0.00000016,0.00000029,-0.00120796,-0.00000009,0.00000040,
 -0.00004657,0.00000057,-0.00000041,-0.00093810,0.00000016,-0.00000002,
 0.00020028,-0.00000578,0.00001436,-0.05709297,0.00004583,-0.00001296,0
 .02574201,-0.01186880,0.01934163,0.00000006,-0.06444518,0.01451752,-0.
 00000250,0.00702783,-0.00906933,-0.00000045,-0.00441381,-0.01087003,0.
 00000087,-0.00240804,0.00719216,0.00000013,0.00403243,0.00190687,-0.00
 000014,-0.00356264,0.00349378,-0.00000032,-0.33413406,0.16860429,-0.00
 001604,0.00398539,0.02178989,-0.00000279,0.77770564,0.00420347,-0.0087
 1330,-0.00000017,0.00741177,0.02312934,-0.00000076,-0.00725231,-0.0017
 8752,-0.00000023,0.00191277,0.00609626,0.00000004,0.00092295,-0.003179
 49,0.00000023,-0.00203924,-0.00065436,-0.00000011,0.00028446,-0.001413
 41,0.,0.10032765,-0.21913138,0.00001630,0.05284873,-0.05650313,0.00000
 679,0.02869146,0.41611601,-0.00000149,0.00000129,0.00019066,-0.0000020
 3,-0.00000139,0.00819915,0.00000159,-0.00000044,0.00316927,-0.00000003
 ,-0.00000128,-0.00000613,-0.00000016,0.00000073,0.00026021,0.00000010,
 0.00000004,-0.00025686,0.00000001,0.00000053,-0.00015329,-0.00000867,0
 .00001505,-0.05687918,-0.00000381,0.00000597,0.02643403,-0.00001852,-0
 .00004570,0.02768328,-0.26626450,0.09460164,0.00000257,0.02663328,0.01
 338411,-0.00000009,-0.01773976,-0.00177266,0.00000017,0.01442783,0.010
 23790,-0.00000034,0.00333069,-0.01725145,-0.00000011,-0.06145506,0.037
 09788,0.00000105,-0.00613684,0.00235127,0.00000025,-0.02294357,-0.0044
 0734,-0.00000068,0.00281807,0.00441938,-0.00000015,0.00944941,-0.01156
 150,0.00000060,0.40420075,0.14561052,-0.20750590,-0.00000288,0.0254946
 7,-0.04311975,-0.00000091,0.00338806,-0.00417086,0.00000031,-0.0082026
 0,-0.00242499,-0.00000014,-0.00533609,0.00223542,0.00000001,0.00863237
 ,0.01002591,0.00000009,0.00609709,-0.00263333,0.00000003,0.02071534,0.
 00534626,-0.00000005,-0.00224595,-0.00697459,0.00000060,-0.01631210,-0
 .00251563,-0.00000051,-0.01092200,0.71634527,0.00000319,-0.00000262,-0
 .04330864,-0.00000036,-0.00000007,0.00431583,0.00000041,-0.00000033,0.
 00269785,-0.00000003,-0.00000003,-0.00094707,-0.00000006,0.00000020,0.
 00722419,0.00000064,-0.00000061,0.01392508,0.00000031,0.00000012,-0.00
 026794,0.00000066,0.00000001,-0.00307025,-0.00000038,-0.00000066,0.000
 31213,-0.00000061,0.00000024,0.00112113,-0.00000234,0.00000988,0.02876
 176,-0.00442860,0.00115750,0.,0.00649923,0.02351234,0.00000009,-0.0632
 2478,-0.04116402,-0.00000032,0.00221329,-0.03033778,-0.00000002,-0.006
 01134,-0.00114197,0.00000008,-0.00044450,0.00067189,0.00000004,0.00145
 867,0.00047765,-0.00000007,0.00160594,0.00399114,-0.00000010,-0.005163
 48,-0.00167447,0.00000053,0.00036836,-0.00051772,0.,0.00046125,0.00164
 434,0.00000001,0.06647176,0.00341885,0.00175056,0.00000010,-0.00271951
 ,-0.01138374,0.00000028,-0.04123819,-0.34957952,-0.00000278,0.00093756
 ,-0.00534394,0.00000046,-0.00132547,-0.00066726,0.00000020,-0.00120396
 ,0.00067474,-0.00000016,0.00103022,-0.00003022,-0.00000031,-0.00039730
 ,-0.00210977,0.00000027,-0.00256239,0.00061006,-0.00000011,0.00017112,
 0.00001644,-0.00000008,-0.00075710,-0.00046581,-0.00000016,0.04475152,
 0.36626443,0.00000021,-0.00000001,0.00376319,-0.00000022,-0.00000033,0
 .00115891,-0.00000033,-0.00000224,-0.03521548,0.00000015,0.00000021,0.
 00882212,0.00000010,-0.00000012,0.00622780,-0.00000004,0.00000002,-0.0
 0055340,-0.00000018,-0.00000003,-0.00375815,-0.00000005,0.00000015,-0.
 00274404,0.00000068,-0.00000003,0.00076374,-0.00000011,-0.00000005,-0.
 00009230,0.00000001,-0.00000005,0.00074387,-0.00000011,0.00000229,0.02
 286764,-0.00100703,0.00356384,-0.00000008,0.00061211,0.00033301,-0.000
 00021,0.00105862,-0.00042578,0.00000044,-0.00148461,0.00260063,-0.0000
 0039,-0.30261410,-0.09951057,0.00000199,-0.01687295,-0.01030026,0.0000
 0033,0.00247823,0.00002950,0.00000025,-0.00013584,-0.00001625,-0.00000
 022,-0.00002932,-0.00003167,0.00000012,0.00003065,-0.00002077,0.000000
 16,-0.00128939,-0.00031249,0.00000018,0.00000681,0.00007604,-0.0000000
 4,0.31837468,0.00368397,-0.00254626,-0.00000018,0.00153523,-0.00041615
 ,-0.00000005,-0.00050412,-0.00639471,0.00000011,-0.02883346,-0.0041682
 9,-0.00000001,-0.10088649,-0.10177106,0.00000072,0.01944726,0.01119081
 ,-0.00000009,-0.00039456,0.00267876,0.00000014,-0.00053348,-0.00056633
 ,-0.00000012,-0.00004419,0.00035173,0.00000004,0.00026412,-0.00009978,
 0.00000010,0.00108480,0.00050642,0.00000011,-0.00148514,-0.00019832,-0
 .00000001,0.10522027,0.10233016,0.00000025,-0.00000013,0.00848311,0.00
 000016,0.,-0.00035974,-0.00000017,-0.00000007,0.00492840,-0.00000013,0
 .00000009,0.00679910,0.00000204,0.00000051,-0.04015006,0.00000015,0.00
 000009,0.00552990,-0.00000024,-0.00000004,-0.00270907,0.00000002,0.000
 00017,-0.00083136,0.00000008,0.00000002,0.00032520,-0.00000007,-0.0000
 0009,-0.00009535,0.00000002,-0.00000001,-0.00102888,-0.00000003,-0.000
 00012,-0.00132872,-0.00000225,-0.00000067,0.02412542,-0.00183212,-0.02
 937904,-0.00000018,-0.00468768,-0.00036357,0.00000005,-0.00111716,0.00
 059108,0.00000006,-0.00378417,0.00226631,0.00000002,0.00773888,0.02589
 330,0.00000012,-0.06643981,-0.04894706,0.00000001,0.00003462,0.0015796
 6,0.00000004,0.00035215,-0.00138321,-0.00000006,-0.00058149,-0.0002468
 2,0.,0.00008212,-0.00002514,0.00000006,0.00274406,-0.00087552,-0.00000
 003,0.00009320,-0.00005107,0.,0.00062910,0.00028096,-0.00000004,0.0680
 9222,0.00311363,-0.00767106,-0.00000036,-0.00172936,0.00074609,-0.0000
 0029,0.00001609,0.00058771,0.00000057,0.00321698,0.00103826,-0.0000007
 0,-0.00436542,-0.01464247,-0.00000011,-0.04873207,-0.33643240,-0.00000
 113,-0.00008227,-0.00103983,0.00000038,0.00068134,-0.00024258,-0.00000
 029,-0.00021536,-0.00013963,0.00000017,-0.00026835,0.00013801,0.000000
 17,0.00050526,0.00297077,0.00000030,-0.00002968,-0.00005262,-0.0000000
 3,0.00003024,0.00069006,0.00000007,0.04985230,0.35384558,0.00000005,0.
 00000003,0.00411187,0.00000014,0.00000002,0.00442001,-0.00000007,-0.00
 000002,-0.00114892,0.00000005,0.,0.00737951,-0.00000011,-0.00000026,0.
 00311267,0.00000006,-0.00000134,-0.03346531,-0.00000008,-0.00000004,0.
 00001302,0.00000002,0.00000007,0.00064682,-0.00000001,0.,-0.00015081,-
 0.00000004,-0.00000004,-0.00001751,-0.00000004,0.00000007,-0.00391584,
 0.,-0.00000005,-0.00027517,-0.00000004,0.00000002,-0.00440541,-0.00000
 006,0.00000152,0.02304491,-0.00018267,0.00036158,0.00000012,0.00015979
 ,-0.00069555,-0.00000018,-0.00132316,0.00479374,0.00000024,-0.03218317
 ,-0.01548912,-0.00000017,0.00484792,-0.00280748,-0.00000065,-0.0005940
 3,-0.00052948,-0.00000007,-0.41695364,-0.17287671,-0.00000370,-0.00161
 268,-0.00057724,-0.00000002,0.00027304,0.00076233,-0.00000004,0.000830
 93,-0.00034326,-0.00000014,0.00077033,-0.00065903,-0.00000018,0.000276
 43,0.00004518,0.00000011,0.00014022,0.00133529,0.00000025,0.00026606,-
 0.00020749,0.00000011,0.44568227,-0.00003686,0.00059916,0.00000015,-0.
 00047186,0.00056842,-0.00000001,0.00485307,-0.00331663,-0.00000023,0.0
 3339817,0.00906817,0.00000055,0.00370979,0.00220309,-0.00000018,-0.000
 42421,-0.00036764,-0.00000012,-0.22817453,-0.14833629,-0.00000305,0.00
 099166,0.00017835,0.00000011,-0.00015603,-0.00040979,-0.00000005,-0.00
 024779,0.00014966,-0.00000018,0.00014166,-0.00043497,-0.00000015,0.000
 34133,0.00008818,0.00000007,-0.00100101,-0.00175466,0.00000008,-0.0000
 4473,0.00005554,0.00000002,0.18685311,0.14164170,0.00000021,0.,0.00021
 291,0.00000024,-0.00000035,0.00208369,-0.00000010,0.00000011,0.0017841
 4,0.00000071,0.00000011,-0.00531723,0.00000004,-0.00000005,-0.00003004
 ,0.00000005,0.00000016,-0.00067821,-0.00000497,-0.00000284,-0.00148553
 ,-0.00000011,0.00000007,0.00034126,0.00000022,0.00000014,-0.00003353,0
 .00000011,0.,-0.00017624,-0.00000004,-0.00000007,-0.00009685,0.,0.0000
 0013,-0.00084883,-0.00000014,-0.00000005,0.00042953,-0.00000002,-0.000
 00017,0.00000264,0.00000398,0.00000281,0.00377075,0.00021907,-0.001812
 00,-0.00000030,0.00486275,0.00297218,-0.00000104,-0.00124998,0.0005723
 7,0.00000057,0.00028112,0.00107029,-0.00000062,0.00012832,-0.00045445,
 0.00000004,0.00011277,-0.00038974,0.00000031,0.00034298,-0.00039189,0.
 00000042,-0.00256987,0.00157457,0.00000050,-0.44883208,-0.18061868,-0.
 00003982,0.00035506,0.00508188,-0.00000013,-0.00076107,0.00094827,0.00
 000039,0.00020825,-0.00037563,-0.00000018,0.00000109,-0.00005144,-0.00
 000002,-0.00001885,0.00002566,0.,-0.00011756,0.00004990,-0.00000019,0.
 44601231,-0.00135420,-0.00079425,0.00000014,0.00515150,-0.00380911,0.0
 0000058,0.00049509,0.00045103,-0.00000013,-0.00027880,0.00154918,-0.00
 000025,0.00034311,-0.00050595,0.00000011,0.00005148,-0.00061094,0.0000
 0003,0.00065281,-0.00059621,0.00000013,-0.05025410,-0.02459133,-0.0000
 0378,-0.12967803,-0.09553031,-0.00001005,0.00130575,0.00446316,0.00000
 047,-0.00028487,0.00087220,0.00000013,-0.00050340,0.00053724,0.0000000
 7,0.00001195,0.00001403,-0.00000003,-0.00011055,-0.00000650,-0.0000000
 2,-0.00014647,0.00005609,-0.00000007,0.17062663,0.12181607,0.00000034,
 0.00000071,0.00227458,-0.00000109,0.00000062,0.00438020,0.00000024,-0.
 00000020,-0.00112411,0.00000001,-0.00000013,0.00030453,0.,-0.00000009,
 0.00011009,-0.00000023,0.00000022,-0.00065777,-0.00000007,0.00000003,-
 0.00007631,0.00000444,0.00000312,-0.00462518,-0.00004387,-0.00001693,-
 0.00405903,-0.00000013,0.00000004,-0.00420861,0.00000023,-0.00000031,0
 .00014251,-0.00000017,0.00000001,-0.00020636,0.,0.,-0.00002837,0.00000
 003,0.,-0.00007478,0.00000007,0.,0.00005727,0.00004004,0.00001325,0.00
 537040,0.00103749,-0.00251533,0.00000012,0.00443234,0.00722315,-0.0000
 0013,-0.00202781,-0.00060410,-0.00000009,0.00019951,0.00233816,-0.0000
 0011,0.00033904,-0.00085113,-0.00000004,-0.00019076,-0.00025066,-0.000
 00001,0.00047012,-0.00074489,0.00000004,-0.04127993,-0.02034901,0.0000
 0260,0.00618727,-0.00380047,0.00000001,-0.38222818,-0.17864935,0.00003
 259,-0.00130627,0.00104096,-0.00000003,-0.00011167,0.00005882,0.000000
 03,0.00000194,-0.00004559,0.00000003,0.00001153,0.00001591,0.00000001,
 -0.00019753,0.00008792,0.,0.00101963,0.00386331,0.00000015,0.41344147,
 0.00128578,-0.00101056,-0.00000010,0.00345222,-0.00160299,0.00000081,0
 .00014736,0.00059602,0.00000037,0.00031546,0.00036280,-0.00000032,0.00
 009019,-0.00027959,-0.00000010,-0.00023197,-0.00011127,0.00000010,0.00
 007006,-0.00010419,0.00000013,0.03268115,0.01174906,-0.00000306,0.0006
 9380,-0.00056215,0.00000039,-0.23181095,-0.15506443,0.00002531,-0.0009
 2042,-0.00144474,-0.00000007,0.00004535,-0.00000611,0.00000005,-0.0000
 0790,-0.00001196,0.00000005,-0.00000478,0.00001770,0.00000002,-0.00000
 814,0.00000776,-0.00000006,0.00140843,-0.00310832,-0.00000044,0.193408
 79,0.15054434,0.00000053,-0.00000045,-0.00146953,0.00000045,0.00000156
 ,0.00572274,-0.00000085,-0.00000007,0.00185448,0.00000002,0.00000065,-
 0.00043562,0.00000005,-0.00000025,0.00003270,-0.00000002,-0.00000011,-
 0.00017461,-0.00000016,-0.00000023,-0.00016088,-0.00000567,-0.00000141
 ,-0.00426719,-0.00000002,0.00000017,-0.00482574,0.00004061,0.00002367,
 -0.00545696,-0.00000013,0.,0.00021873,0.00000005,-0.00000006,0.0002411
 1,-0.00000002,-0.00000003,0.00007758,-0.00000002,0.,0.00001613,0.00000
 018,0.00000009,-0.00004184,0.00000021,-0.00000049,0.00251727,-0.000035
 19,-0.00002306,0.00606510,0.00637722,0.04277009,0.00000056,-0.00421343
 ,0.00306916,0.00000011,0.00057934,0.00071299,-0.00000010,0.00027988,0.
 00003564,0.00000009,-0.00019581,-0.00057979,0.00000004,0.00093765,0.00
 363209,-0.00000002,-0.00015999,-0.00021097,-0.00000004,-0.00146008,0.0
 0080169,0.00000002,0.00015984,-0.00010654,0.00000004,-0.00080711,-0.00
 127583,-0.00000013,-0.08693920,-0.16870583,-0.00000176,-0.00027882,0.0
 0014131,-0.00000001,0.00009978,-0.00007343,-0.00000003,-0.00158269,-0.
 00182742,0.00000002,-0.00008256,0.00013043,0.00000002,0.00000605,0.000
 10880,0.,0.00020180,-0.00061442,-0.00000002,0.08707811,-0.00415408,-0.
 03170238,-0.00000017,0.00637033,0.00255018,0.00000006,-0.00319377,-0.0
 0077388,-0.00000028,0.00253333,0.00158458,0.00000040,0.00041640,-0.002
 80701,-0.00000018,-0.00609090,0.00562470,-0.00000007,-0.00119361,0.000
 50424,-0.00000022,-0.00320168,-0.00113531,0.00000013,0.00045245,0.0014
 9640,-0.00000019,0.00129994,-0.00104646,-0.00000008,-0.11594656,-0.466
 61168,-0.00000629,0.00026111,-0.00010432,0.00000005,-0.00023878,0.0001
 6556,0.00000007,0.00096788,0.00013736,0.,0.00018871,0.00000386,0.00000
 012,-0.00023634,-0.00020609,0.00000008,-0.00022649,0.00002861,0.000000
 02,0.12199204,0.49229166,-0.00000009,-0.00000058,-0.00269596,0.0000003
 8,-0.00000014,0.00325296,-0.00000011,0.00000012,0.00117260,-0.00000011
 ,-0.00000002,-0.00016355,0.,-0.00000005,-0.00059729,-0.00000004,0.0000
 0018,-0.00205083,-0.00000009,-0.00000008,-0.00005470,-0.00000023,0.000
 00006,-0.00017263,0.00000019,0.00000029,-0.00039401,-0.00000007,-0.000
 00014,0.00028469,-0.00000097,-0.00000608,-0.00682759,0.00000003,0.0000
 0008,0.00043405,-0.00000009,-0.00000004,0.00023872,0.00000003,-0.00000
 011,0.00070617,0.00000009,0.00000007,0.00002612,-0.00000018,-0.0000000
 8,-0.00009632,0.00000003,-0.00000003,0.00008652,0.00000123,0.00000655,
 0.00685105\\0.00003464,-0.00004309,-0.00000022,0.00003701,-0.00003781,
 -0.00000051,0.00011684,-0.00002884,-0.00000012,-0.00008323,-0.00003132
 ,0.00000005,-0.00004941,0.00001187,-0.00000003,0.00000544,0.00005529,0
 .00000010,0.00002489,0.00000457,-0.00000011,0.00007032,0.00001243,0.00
 000233,-0.00001407,-0.00006628,-0.00000067,-0.00013776,-0.00002098,-0.
 00000070,0.00002165,0.00016756,-0.00000004,-0.00000568,0.00001264,-0.0
 0000002,-0.00001979,0.00000149,-0.00000002,0.00000636,-0.00002159,0.,0
 .00000850,-0.00002259,0.00000010,0.00003596,-0.00003092,-0.00000011,-0
 .00000602,0.00003305,-0.00000005,-0.00004567,0.00000451,0.\\\@


 SIC AS THE CAWSE OF EWERY THING IS, SIC WILBE THE EFFECT.
 -- PROVERBS AND REASONS OF THE YEAR 1585
           AS REPRINTED IN PAISLEY MAGAZINE 1828.
 Job cpu time:       0 days  0 hours 12 minutes 20.2 seconds.
 File lengths (MBytes):  RWF=    116 Int=      0 D2E=      0 Chk=      6 Scr=      1
 Normal termination of Gaussian 09 at Tue Dec 17 21:59:57 2024.
