 Entering Gaussian System, Link 0=g09
 Input=B3PW91D3DHB.gjf
 Output=B3PW91D3DHB.log
 Initial command:
 /home/c612/g09E/g09/l1.exe "/mnt/ja_sm883/scratch/Gau-1855597.inp" -scrdir="/mnt/ja_sm883/scratch/"
 Default is to use a total of  18 processors:
                               18 via shared-memory
                                1 via Linda
 Entering Link 1 = /home/c612/g09E/g09/l1.exe PID=   1855599.
  
 Copyright (c) 1988,1990,1992,1993,1995,1998,2003,2009,2015,
            Gaussian, Inc.  All Rights Reserved.
  
 This is part of the Gaussian(R) 09 program.  It is based on
 the Gaussian(R) 03 system (copyright 2003, Gaussian, Inc.),
 the Gaussian(R) 98 system (copyright 1998, Gaussian, Inc.),
 the Gaussian(R) 94 system (copyright 1995, Gaussian, Inc.),
 the Gaussian 92(TM) system (copyright 1992, Gaussian, Inc.),
 the Gaussian 90(TM) system (copyright 1990, Gaussian, Inc.),
 the Gaussian 88(TM) system (copyright 1988, Gaussian, Inc.),
 the Gaussian 86(TM) system (copyright 1986, Carnegie Mellon
 University), and the Gaussian 82(TM) system (copyright 1983,
 Carnegie Mellon University). Gaussian is a federally registered
 trademark of Gaussian, Inc.
  
 This software contains proprietary and confidential information,
 including trade secrets, belonging to Gaussian, Inc.
  
 This software is provided under written license and may be
 used, copied, transmitted, or stored only in accord with that
 written license.
  
 The following legend is applicable only to US Government
 contracts under FAR:
  
                    RESTRICTED RIGHTS LEGEND
  
 Use, reproduction and disclosure by the US Government is
 subject to restrictions as set forth in subparagraphs (a)
 and (c) of the Commercial Computer Software - Restricted
 Rights clause in FAR 52.227-19.
  
 Gaussian, Inc.
 340 Quinnipiac St., Bldg. 40, Wallingford CT 06492
  
  
 ---------------------------------------------------------------
 Warning -- This program may not be used in any manner that
 competes with the business of Gaussian, Inc. or will provide
 assistance to any competitor of Gaussian, Inc.  The licensee
 of this program is prohibited from giving any competitor of
 Gaussian, Inc. access to this program.  By using this program,
 the user acknowledges that Gaussian, Inc. is engaged in the
 business of creating and licensing software in the field of
 computational chemistry and represents and warrants to the
 licensee that it is not a competitor of Gaussian, Inc. and that
 it will not use this program in any manner prohibited above.
 ---------------------------------------------------------------
  

 Cite this work as:
 Gaussian 09, Revision E.01,
 M. J. Frisch, G. W. Trucks, H. B. Schlegel, G. E. Scuseria, 
 M. A. Robb, J. R. Cheeseman, G. Scalmani, V. Barone, B. Mennucci, 
 G. A. Petersson, H. Nakatsuji, M. Caricato, X. Li, H. P. Hratchian, 
 A. F. Izmaylov, J. Bloino, G. Zheng, J. L. Sonnenberg, M. Hada, 
 M. Ehara, K. Toyota, R. Fukuda, J. Hasegawa, M. Ishida, T. Nakajima, 
 Y. Honda, O. Kitao, H. Nakai, T. Vreven, J. A. Montgomery, Jr., 
 J. E. Peralta, F. Ogliaro, M. Bearpark, J. J. Heyd, E. Brothers, 
 K. N. Kudin, V. N. Staroverov, T. Keith, R. Kobayashi, J. Normand, 
 K. Raghavachari, A. Rendell, J. C. Burant, S. S. Iyengar, J. Tomasi, 
 M. Cossi, N. Rega, J. M. Millam, M. Klene, J. E. Knox, J. B. Cross, 
 V. Bakken, C. Adamo, J. Jaramillo, R. Gomperts, R. E. Stratmann, 
 O. Yazyev, A. J. Austin, R. Cammi, C. Pomelli, J. W. Ochterski, 
 R. L. Martin, K. Morokuma, V. G. Zakrzewski, G. A. Voth, 
 P. Salvador, J. J. Dannenberg, S. Dapprich, A. D. Daniels, 
 O. Farkas, J. B. Foresman, J. V. Ortiz, J. Cioslowski, 
 and D. J. Fox, Gaussian, Inc., Wallingford CT, 2013.
 
 ******************************************
 Gaussian 09:  ES64L-G09RevE.01 30-Nov-2015
                17-Dec-2024 
 ******************************************
 %chk=B3PW91D3DHB.chk
 -----------------------------------------------------
 # opt freq b3pw91/6-31+g(d,p) empiricaldispersion=gd3
 -----------------------------------------------------
 1/14=-1,18=20,19=15,26=3,38=1/1,3;
 2/9=110,12=2,17=6,18=5,40=1/2;
 3/5=1,6=6,7=111,11=2,16=1,25=1,30=1,71=1,74=-6,124=31/1,2,3;
 4//1;
 5/5=2,38=5/2;
 6/7=2,8=2,9=2,10=2,28=1/1;
 7//1,2,3,16;
 1/14=-1,18=20,19=15,26=3/3(2);
 2/9=110/2;
 99//99;
 2/9=110/2;
 3/5=1,6=6,7=111,11=2,16=1,25=1,30=1,71=1,74=-6,124=31/1,2,3;
 4/5=5,16=3,69=1/1;
 5/5=2,38=5/2;
 7//1,2,3,16;
 1/14=-1,18=20,19=15,26=3/3(-5);
 2/9=110/2;
 6/7=2,8=2,9=2,10=2,19=2,28=1/1;
 99/9=1/99;
 ----------
 [No Title]
 ----------
 Symbolic Z-matrix:
 Charge =  0 Multiplicity = 1
 C                     0.23361   1.27446   0.00001 
 C                     0.4678   -0.12076   0.00001 
 C                    -0.63122  -0.99704   0.00001 
 C                    -1.93805  -0.52003   0.00001 
 C                    -2.16608   0.85946   0.00001 
 C                    -1.08726   1.7407    0.00002 
 O                    -2.95013  -1.44966  -0.00002 
 C                     1.84875  -0.67341  -0.00002 
 O                     1.85843  -2.04078   0.00013 
 O                     2.88322  -0.03801  -0.0002 
 O                     1.2852    2.13941   0.00003 
 H                    -0.46529  -2.06661   0.00001 
 H                    -3.18074   1.25079  0. 
 H                    -1.27179   2.81238   0.00002 
 H                    -3.80969  -1.00982   0.00014 
 H                     2.79343  -2.30235   0.00005 
 H                     0.95503   3.04763   0.00005 
 

 GradGradGradGradGradGradGradGradGradGradGradGradGradGradGradGradGradGrad
 Berny optimization.
 Initialization pass.
                           ----------------------------
                           !    Initial Parameters    !
                           ! (Angstroms and Degrees)  !
 --------------------------                            --------------------------
 ! Name  Definition              Value          Derivative Info.                !
 --------------------------------------------------------------------------------
 ! R1    R(1,2)                  1.4147         estimate D2E/DX2                !
 ! R2    R(1,6)                  1.4007         estimate D2E/DX2                !
 ! R3    R(1,11)                 1.3616         estimate D2E/DX2                !
 ! R4    R(2,3)                  1.4056         estimate D2E/DX2                !
 ! R5    R(2,8)                  1.4874         estimate D2E/DX2                !
 ! R6    R(3,4)                  1.3912         estimate D2E/DX2                !
 ! R7    R(3,12)                 1.0824         estimate D2E/DX2                !
 ! R8    R(4,5)                  1.3982         estimate D2E/DX2                !
 ! R9    R(4,7)                  1.3742         estimate D2E/DX2                !
 ! R10   R(5,6)                  1.393          estimate D2E/DX2                !
 ! R11   R(5,13)                 1.0875         estimate D2E/DX2                !
 ! R12   R(6,14)                 1.0874         estimate D2E/DX2                !
 ! R13   R(7,15)                 0.9656         estimate D2E/DX2                !
 ! R14   R(8,9)                  1.3674         estimate D2E/DX2                !
 ! R15   R(8,10)                 1.214          estimate D2E/DX2                !
 ! R16   R(9,16)                 0.9709         estimate D2E/DX2                !
 ! R17   R(11,17)                0.9664         estimate D2E/DX2                !
 ! A1    A(2,1,6)              118.9707         estimate D2E/DX2                !
 ! A2    A(2,1,11)             119.9096         estimate D2E/DX2                !
 ! A3    A(6,1,11)             121.1197         estimate D2E/DX2                !
 ! A4    A(1,2,3)              119.0378         estimate D2E/DX2                !
 ! A5    A(1,2,8)              121.3397         estimate D2E/DX2                !
 ! A6    A(3,2,8)              119.6224         estimate D2E/DX2                !
 ! A7    A(2,3,4)              121.3809         estimate D2E/DX2                !
 ! A8    A(2,3,12)             119.7476         estimate D2E/DX2                !
 ! A9    A(4,3,12)             118.8715         estimate D2E/DX2                !
 ! A10   A(3,4,5)              119.4391         estimate D2E/DX2                !
 ! A11   A(3,4,7)              117.379          estimate D2E/DX2                !
 ! A12   A(5,4,7)              123.1819         estimate D2E/DX2                !
 ! A13   A(4,5,6)              119.8576         estimate D2E/DX2                !
 ! A14   A(4,5,13)             120.4769         estimate D2E/DX2                !
 ! A15   A(6,5,13)             119.6655         estimate D2E/DX2                !
 ! A16   A(1,6,5)              121.3139         estimate D2E/DX2                !
 ! A17   A(1,6,14)             119.2117         estimate D2E/DX2                !
 ! A18   A(5,6,14)             119.4743         estimate D2E/DX2                !
 ! A19   A(4,7,15)             110.3328         estimate D2E/DX2                !
 ! A20   A(2,8,9)              112.2169         estimate D2E/DX2                !
 ! A21   A(2,8,10)             126.6291         estimate D2E/DX2                !
 ! A22   A(9,8,10)             121.1539         estimate D2E/DX2                !
 ! A23   A(8,9,16)             106.0351         estimate D2E/DX2                !
 ! A24   A(1,11,17)            109.46           estimate D2E/DX2                !
 ! D1    D(6,1,2,3)             -0.0004         estimate D2E/DX2                !
 ! D2    D(6,1,2,8)            179.9993         estimate D2E/DX2                !
 ! D3    D(11,1,2,3)           179.9991         estimate D2E/DX2                !
 ! D4    D(11,1,2,8)            -0.0013         estimate D2E/DX2                !
 ! D5    D(2,1,6,5)             -0.0003         estimate D2E/DX2                !
 ! D6    D(2,1,6,14)           179.9999         estimate D2E/DX2                !
 ! D7    D(11,1,6,5)          -179.9998         estimate D2E/DX2                !
 ! D8    D(11,1,6,14)            0.0005         estimate D2E/DX2                !
 ! D9    D(2,1,11,17)         -179.9986         estimate D2E/DX2                !
 ! D10   D(6,1,11,17)            0.0008         estimate D2E/DX2                !
 ! D11   D(1,2,3,4)              0.0008         estimate D2E/DX2                !
 ! D12   D(1,2,3,12)          -179.9996         estimate D2E/DX2                !
 ! D13   D(8,2,3,4)           -179.9989         estimate D2E/DX2                !
 ! D14   D(8,2,3,12)             0.0008         estimate D2E/DX2                !
 ! D15   D(1,2,8,9)            179.9934         estimate D2E/DX2                !
 ! D16   D(1,2,8,10)            -0.0101         estimate D2E/DX2                !
 ! D17   D(3,2,8,9)             -0.007          estimate D2E/DX2                !
 ! D18   D(3,2,8,10)           179.9895         estimate D2E/DX2                !
 ! D19   D(2,3,4,5)             -0.0004         estimate D2E/DX2                !
 ! D20   D(2,3,4,7)            179.9987         estimate D2E/DX2                !
 ! D21   D(12,3,4,5)           179.9999         estimate D2E/DX2                !
 ! D22   D(12,3,4,7)            -0.001          estimate D2E/DX2                !
 ! D23   D(3,4,5,6)             -0.0003         estimate D2E/DX2                !
 ! D24   D(3,4,5,13)           179.9996         estimate D2E/DX2                !
 ! D25   D(7,4,5,6)           -179.9993         estimate D2E/DX2                !
 ! D26   D(7,4,5,13)             0.0006         estimate D2E/DX2                !
 ! D27   D(3,4,7,15)           179.9901         estimate D2E/DX2                !
 ! D28   D(5,4,7,15)            -0.0108         estimate D2E/DX2                !
 ! D29   D(4,5,6,1)              0.0007         estimate D2E/DX2                !
 ! D30   D(4,5,6,14)          -179.9996         estimate D2E/DX2                !
 ! D31   D(13,5,6,1)          -179.9992         estimate D2E/DX2                !
 ! D32   D(13,5,6,14)            0.0005         estimate D2E/DX2                !
 ! D33   D(2,8,9,16)           179.9971         estimate D2E/DX2                !
 ! D34   D(10,8,9,16)            0.0004         estimate D2E/DX2                !
 --------------------------------------------------------------------------------
 Trust Radius=3.00D-01 FncErr=1.00D-07 GrdErr=1.00D-06
 Number of steps in this run=     85 maximum allowed number of steps=    102.
 GradGradGradGradGradGradGradGradGradGradGradGradGradGradGradGradGradGrad

                          Input orientation:                          
 ---------------------------------------------------------------------
 Center     Atomic      Atomic             Coordinates (Angstroms)
 Number     Number       Type             X           Y           Z
 ---------------------------------------------------------------------
      1          6           0        0.233610    1.274455    0.000012
      2          6           0        0.467803   -0.120760    0.000005
      3          6           0       -0.631221   -0.997043    0.000010
      4          6           0       -1.938045   -0.520034    0.000006
      5          6           0       -2.166080    0.859462    0.000006
      6          6           0       -1.087262    1.740701    0.000016
      7          8           0       -2.950129   -1.449657   -0.000017
      8          6           0        1.848747   -0.673412   -0.000016
      9          8           0        1.858429   -2.040780    0.000127
     10          8           0        2.883217   -0.038006   -0.000201
     11          8           0        1.285199    2.139413    0.000026
     12          1           0       -0.465286   -2.066607    0.000012
     13          1           0       -3.180735    1.250794   -0.000003
     14          1           0       -1.271786    2.812376    0.000023
     15          1           0       -3.809685   -1.009819    0.000138
     16          1           0        2.793425   -2.302353    0.000054
     17          1           0        0.955029    3.047625    0.000051
 ---------------------------------------------------------------------
                    Distance matrix (angstroms):
                    1          2          3          4          5
     1  C    0.000000
     2  C    1.414734   0.000000
     3  C    2.430563   1.405605   0.000000
     4  C    2.817140   2.438755   1.391160   0.000000
     5  C    2.435309   2.810369   2.408818   1.398216   0.000000
     6  C    1.400746   2.425544   2.775467   2.415524   1.392993
     7  O    4.190105   3.667182   2.362667   1.374232   2.438599
     8  C    2.530386   1.487424   2.500995   3.789897   4.297504
     9  O    3.691994   2.370721   2.699582   4.089729   4.960653
    10  O    2.956852   2.416831   3.642942   4.845299   5.128435
    11  O    1.361614   2.403439   3.675598   4.178751   3.680978
    12  H    3.413378   2.158003   1.082359   2.135628   3.384462
    13  H    3.414427   3.897819   3.398940   2.163356   1.087504
    14  H    2.152073   3.410199   3.862900   3.398361   2.147937
    15  H    4.643936   4.368905   3.178490   1.934664   2.489106
    16  H    4.398432   3.188709   3.664974   5.056033   5.881646
    17  H    1.914309   3.205628   4.344598   4.593263   3.811742
                    6          7          8          9         10
     6  C    0.000000
     7  O    3.694409   0.000000
     8  C    3.801064   4.861252   0.000000
     9  O    4.793401   4.844756   1.367402   0.000000
    10  O    4.350690   6.001723   1.214030   2.249732   0.000000
    11  O    2.405731   5.551525   2.868723   4.219313   2.700892
    12  H    3.857778   2.560287   2.701063   2.323859   3.915060
    13  H    2.150032   2.710279   5.385003   6.018940   6.199397
    14  H    1.087445   4.580585   4.678509   5.775064   5.038723
    15  H    3.870006   0.965554   5.668423   5.761111   6.763088
    16  H    5.604107   5.806505   1.883047   0.970895   2.266127
    17  H    2.424666   5.956157   3.826859   5.167978   3.638547
                   11         12         13         14         15
    11  O    0.000000
    12  H    4.555744   0.000000
    13  H    4.553483   4.287052   0.000000
    14  H    2.644060   4.945191   2.466298   0.000000
    15  H    5.989616   3.507393   2.346476   4.588039   0.000000
    16  H    4.690845   3.267227   6.950931   6.533482   6.728425
    17  H    0.966365   5.307793   4.509229   2.239207   6.258223
                   16         17
    16  H    0.000000
    17  H    5.657028   0.000000
 Stoichiometry    C7H6O4
 Framework group  C1[X(C7H6O4)]
 Deg. of freedom    45
 Full point group                 C1      NOp   1
 Largest Abelian subgroup         C1      NOp   1
 Largest concise Abelian subgroup C1      NOp   1
                         Standard orientation:                         
 ---------------------------------------------------------------------
 Center     Atomic      Atomic             Coordinates (Angstroms)
 Number     Number       Type             X           Y           Z
 ---------------------------------------------------------------------
      1          6           0        0.233610    1.274455    0.000012
      2          6           0        0.467803   -0.120760    0.000005
      3          6           0       -0.631221   -0.997043    0.000010
      4          6           0       -1.938045   -0.520034    0.000006
      5          6           0       -2.166080    0.859462    0.000006
      6          6           0       -1.087262    1.740701    0.000016
      7          8           0       -2.950129   -1.449657   -0.000017
      8          6           0        1.848747   -0.673412   -0.000016
      9          8           0        1.858429   -2.040780    0.000127
     10          8           0        2.883217   -0.038006   -0.000201
     11          8           0        1.285199    2.139413    0.000026
     12          1           0       -0.465286   -2.066607    0.000012
     13          1           0       -3.180735    1.250794   -0.000003
     14          1           0       -1.271786    2.812376    0.000023
     15          1           0       -3.809685   -1.009818    0.000138
     16          1           0        2.793425   -2.302353    0.000054
     17          1           0        0.955029    3.047625    0.000051
 ---------------------------------------------------------------------
 Rotational constants (GHZ):      1.7524450      0.9123726      0.5999971
 Standard basis: 6-31+G(d,p) (6D, 7F)
 There are   239 symmetry adapted cartesian basis functions of A   symmetry.
 There are   239 symmetry adapted basis functions of A   symmetry.
   239 basis functions,   394 primitive gaussians,   239 cartesian basis functions
    40 alpha electrons       40 beta electrons
       nuclear repulsion energy       589.1190713487 Hartrees.
 NAtoms=   17 NActive=   17 NUniq=   17 SFac= 1.00D+00 NAtFMM=   60 NAOKFM=F Big=F
 Integral buffers will be    131072 words long.
 Raffenetti 2 integral format.
 Two-electron integral symmetry is turned on.
 Nuclear repulsion after empirical dispersion term =      589.1050940928 Hartrees.
 One-electron integrals computed using PRISM.
 NBasis=   239 RedAO= T EigKep=  3.24D-06  NBF=   239
 NBsUse=   239 1.00D-06 EigRej= -1.00D+00 NBFU=   239
 ExpMin= 4.38D-02 ExpMax= 5.48D+03 ExpMxC= 8.25D+02 IAcc=2 IRadAn=         4 AccDes= 0.00D+00
 Harris functional with IExCor=  408 and IRadAn=       4 diagonalized for initial guess.
 HarFok:  IExCor=  408 AccDes= 0.00D+00 IRadAn=         4 IDoV= 1 UseB2=F ITyADJ=14
 ICtDFT=  3500011 ScaDFX=  1.000000  1.000000  1.000000  1.000000
 FoFCou: FMM=F IPFlag=           0 FMFlag=      100000 FMFlg1=           0
         NFxFlg=           0 DoJE=T BraDBF=F KetDBF=T FulRan=T
         wScrn=  0.000000 ICntrl=     500 IOpCl=  0 I1Cent=   200000004 NGrid=           0
         NMat0=    1 NMatS0=      1 NMatT0=    0 NMatD0=    1 NMtDS0=    0 NMtDT0=    0
 Petite list used in FoFCou.
 Keep R1 ints in memory in canonical form, NReq=418393415.
 Requested convergence on RMS density matrix=1.00D-08 within 128 cycles.
 Requested convergence on MAX density matrix=1.00D-06.
 Requested convergence on             energy=1.00D-06.
 No special actions if energy rises.
 SCF Done:  E(RB3PW91) =  -571.085907284     A.U. after   15 cycles
            NFock= 15  Conv=0.45D-08     -V/T= 2.0092

 **********************************************************************

            Population analysis using the SCF density.

 **********************************************************************

 Orbital symmetries:
       Occupied  (A) (A) (A) (A) (A) (A) (A) (A) (A) (A) (A) (A)
                 (A) (A) (A) (A) (A) (A) (A) (A) (A) (A) (A) (A)
                 (A) (A) (A) (A) (A) (A) (A) (A) (A) (A) (A) (A)
                 (A) (A) (A) (A)
       Virtual   (A) (A) (A) (A) (A) (A) (A) (A) (A) (A) (A) (A)
                 (A) (A) (A) (A) (A) (A) (A) (A) (A) (A) (A) (A)
                 (A) (A) (A) (A) (A) (A) (A) (A) (A) (A) (A) (A)
                 (A) (A) (A) (A) (A) (A) (A) (A) (A) (A) (A) (A)
                 (A) (A) (A) (A) (A) (A) (A) (A) (A) (A) (A) (A)
                 (A) (A) (A) (A) (A) (A) (A) (A) (A) (A) (A) (A)
                 (A) (A) (A) (A) (A) (A) (A) (A) (A) (A) (A) (A)
                 (A) (A) (A) (A) (A) (A) (A) (A) (A) (A) (A) (A)
                 (A) (A) (A) (A) (A) (A) (A) (A) (A) (A) (A) (A)
                 (A) (A) (A) (A) (A) (A) (A) (A) (A) (A) (A) (A)
                 (A) (A) (A) (A) (A) (A) (A) (A) (A) (A) (A) (A)
                 (A) (A) (A) (A) (A) (A) (A) (A) (A) (A) (A) (A)
                 (A) (A) (A) (A) (A) (A) (A) (A) (A) (A) (A) (A)
                 (A) (A) (A) (A) (A) (A) (A) (A) (A) (A) (A) (A)
                 (A) (A) (A) (A) (A) (A) (A) (A) (A) (A) (A) (A)
                 (A) (A) (A) (A) (A) (A) (A) (A) (A) (A) (A) (A)
                 (A) (A) (A) (A) (A) (A) (A)
 The electronic state is 1-A.
 Alpha  occ. eigenvalues --  -19.19189 -19.18916 -19.18848 -19.13397 -10.31446
 Alpha  occ. eigenvalues --  -10.26373 -10.25456 -10.21170 -10.20957 -10.20511
 Alpha  occ. eigenvalues --  -10.19800  -1.11296  -1.08379  -1.07959  -1.02055
 Alpha  occ. eigenvalues --   -0.87771  -0.79165  -0.76033  -0.68235  -0.65071
 Alpha  occ. eigenvalues --   -0.61836  -0.56779  -0.55979  -0.51212  -0.49654
 Alpha  occ. eigenvalues --   -0.48322  -0.45978  -0.45793  -0.43882  -0.42910
 Alpha  occ. eigenvalues --   -0.42320  -0.40848  -0.40068  -0.38023  -0.36882
 Alpha  occ. eigenvalues --   -0.32941  -0.32552  -0.28120  -0.27833  -0.22777
 Alpha virt. eigenvalues --   -0.06308  -0.01013  -0.00273   0.00300   0.01917
 Alpha virt. eigenvalues --    0.02822   0.04177   0.05459   0.06063   0.06459
 Alpha virt. eigenvalues --    0.07246   0.08916   0.09042   0.09934   0.10355
 Alpha virt. eigenvalues --    0.11620   0.13180   0.13265   0.14564   0.14700
 Alpha virt. eigenvalues --    0.15391   0.15687   0.16121   0.17241   0.17819
 Alpha virt. eigenvalues --    0.17949   0.19122   0.19168   0.19642   0.19962
 Alpha virt. eigenvalues --    0.20996   0.21403   0.22843   0.23091   0.23991
 Alpha virt. eigenvalues --    0.24464   0.25436   0.25981   0.26624   0.27210
 Alpha virt. eigenvalues --    0.27583   0.27950   0.28270   0.29989   0.30005
 Alpha virt. eigenvalues --    0.31072   0.31357   0.31633   0.32131   0.33121
 Alpha virt. eigenvalues --    0.33859   0.34762   0.36606   0.37317   0.39110
 Alpha virt. eigenvalues --    0.39590   0.40671   0.42241   0.43144   0.45022
 Alpha virt. eigenvalues --    0.47132   0.50614   0.52485   0.59901   0.62330
 Alpha virt. eigenvalues --    0.64990   0.67560   0.68320   0.70836   0.72417
 Alpha virt. eigenvalues --    0.73447   0.74393   0.75157   0.76546   0.78071
 Alpha virt. eigenvalues --    0.79677   0.83698   0.84478   0.85879   0.86858
 Alpha virt. eigenvalues --    0.93975   0.94499   0.99209   1.00243   1.01650
 Alpha virt. eigenvalues --    1.03629   1.05839   1.08505   1.09015   1.13865
 Alpha virt. eigenvalues --    1.15764   1.16721   1.17256   1.18129   1.20092
 Alpha virt. eigenvalues --    1.20678   1.20782   1.22720   1.24168   1.24696
 Alpha virt. eigenvalues --    1.26119   1.27985   1.30545   1.30578   1.31948
 Alpha virt. eigenvalues --    1.32856   1.35047   1.36852   1.37195   1.37217
 Alpha virt. eigenvalues --    1.38475   1.39905   1.40841   1.41789   1.44522
 Alpha virt. eigenvalues --    1.47364   1.50147   1.56577   1.57126   1.58731
 Alpha virt. eigenvalues --    1.58851   1.68065   1.70060   1.73273   1.74972
 Alpha virt. eigenvalues --    1.76634   1.79058   1.83928   1.85685   1.85969
 Alpha virt. eigenvalues --    1.87663   1.88474   1.88769   1.89943   1.92610
 Alpha virt. eigenvalues --    1.93267   1.97945   2.00662   2.03310   2.05113
 Alpha virt. eigenvalues --    2.06109   2.08749   2.12860   2.21662   2.22812
 Alpha virt. eigenvalues --    2.24959   2.30805   2.31551   2.33580   2.35554
 Alpha virt. eigenvalues --    2.38097   2.39179   2.41204   2.44860   2.47123
 Alpha virt. eigenvalues --    2.48484   2.50013   2.51657   2.53996   2.54404
 Alpha virt. eigenvalues --    2.57604   2.58941   2.59364   2.62222   2.64008
 Alpha virt. eigenvalues --    2.66339   2.68392   2.71399   2.74217   2.74495
 Alpha virt. eigenvalues --    2.77817   2.82616   2.87350   2.95376   3.01759
 Alpha virt. eigenvalues --    3.04079   3.08003   3.12141   3.15230   3.20553
 Alpha virt. eigenvalues --    3.24890   3.30302   3.39231   3.46570   3.50229
 Alpha virt. eigenvalues --    3.52427   3.53543   3.79199   4.19258   4.25122
 Alpha virt. eigenvalues --    4.29356   4.32547   4.34354   4.45400   4.49424
 Alpha virt. eigenvalues --    4.55152   4.59698   4.82274   4.93309
          Condensed to atoms (all electrons):
               1          2          3          4          5          6
     1  C   14.574993  -3.838099  -2.000912   0.157908   0.840919  -1.685715
     2  C   -3.838099  12.832371  -2.159499   0.676670  -0.926187  -0.923848
     3  C   -2.000912  -2.159499  14.622935  -4.016178  -0.304457  -0.763158
     4  C    0.157908   0.676670  -4.016178   9.962797  -0.463260   0.588229
     5  C    0.840919  -0.926187  -0.304457  -0.463260   6.900948  -0.588348
     6  C   -1.685715  -0.923848  -0.763158   0.588229  -0.588348   9.238446
     7  O   -0.021018   0.052860  -0.040519  -0.020581  -0.060401   0.049826
     8  C   -1.041220   0.009433   0.441251  -0.758516   0.094030  -0.401432
     9  O   -0.003252  -0.174208  -0.002781   0.110566   0.002151  -0.005516
    10  O   -0.131148  -0.149711   0.023649   0.054288   0.002691   0.024003
    11  O    0.216219  -0.411981   0.093180  -0.020865   0.062346   0.214163
    12  H   -0.002396   0.072298   0.085399   0.138085   0.019504   0.000970
    13  H   -0.025449   0.017308  -0.027162   0.086877   0.156477   0.112470
    14  H    0.107975  -0.012478  -0.009583  -0.019865   0.133524   0.112086
    15  H   -0.006573  -0.008287   0.126170  -0.010510  -0.090897  -0.002434
    16  H   -0.002696   0.048011  -0.012370  -0.011022  -0.000658   0.006277
    17  H    0.009051   0.196581  -0.013422   0.003944  -0.008275  -0.203852
               7          8          9         10         11         12
     1  C   -0.021018  -1.041220  -0.003252  -0.131148   0.216219  -0.002396
     2  C    0.052860   0.009433  -0.174208  -0.149711  -0.411981   0.072298
     3  C   -0.040519   0.441251  -0.002781   0.023649   0.093180   0.085399
     4  C   -0.020581  -0.758516   0.110566   0.054288  -0.020865   0.138085
     5  C   -0.060401   0.094030   0.002151   0.002691   0.062346   0.019504
     6  C    0.049826  -0.401432  -0.005516   0.024003   0.214163   0.000970
     7  O    8.379388  -0.005363   0.000303   0.000086   0.000343  -0.007110
     8  C   -0.005363   6.449404   0.073023   0.468170  -0.182293   0.007999
     9  O    0.000303   0.073023   8.435029  -0.153476   0.000254  -0.000211
    10  O    0.000086   0.468170  -0.153476   8.297286  -0.003992  -0.000163
    11  O    0.000343  -0.182293   0.000254  -0.003992   8.342554  -0.000333
    12  H   -0.007110   0.007999  -0.000211  -0.000163  -0.000333   0.494383
    13  H   -0.014278   0.001099   0.000005   0.000007  -0.000490  -0.000143
    14  H   -0.000530   0.012465   0.000016  -0.000005  -0.018011   0.000010
    15  H    0.202051   0.002531   0.000015   0.000000  -0.000007  -0.000066
    16  H   -0.000001   0.012464   0.187699   0.006546   0.000108   0.000101
    17  H   -0.000006   0.032766   0.000013   0.001001   0.166076   0.000004
              13         14         15         16         17
     1  C   -0.025449   0.107975  -0.006573  -0.002696   0.009051
     2  C    0.017308  -0.012478  -0.008287   0.048011   0.196581
     3  C   -0.027162  -0.009583   0.126170  -0.012370  -0.013422
     4  C    0.086877  -0.019865  -0.010510  -0.011022   0.003944
     5  C    0.156477   0.133524  -0.090897  -0.000658  -0.008275
     6  C    0.112470   0.112086  -0.002434   0.006277  -0.203852
     7  O   -0.014278  -0.000530   0.202051  -0.000001  -0.000006
     8  C    0.001099   0.012465   0.002531   0.012464   0.032766
     9  O    0.000005   0.000016   0.000015   0.187699   0.000013
    10  O    0.000007  -0.000005   0.000000   0.006546   0.001001
    11  O   -0.000490  -0.018011  -0.000007   0.000108   0.166076
    12  H   -0.000143   0.000010  -0.000066   0.000101   0.000004
    13  H    0.550580  -0.004972   0.005991   0.000000  -0.000019
    14  H   -0.004972   0.552690  -0.000008  -0.000000   0.008798
    15  H    0.005991  -0.000008   0.420852   0.000000   0.000000
    16  H    0.000000  -0.000000   0.000000   0.376638  -0.000000
    17  H   -0.000019   0.008798   0.000000  -0.000000   0.438460
 Mulliken charges:
               1
     1  C   -1.148587
     2  C    0.698765
     3  C   -0.042544
     4  C   -0.458568
     5  C    0.229894
     6  C    0.227833
     7  O   -0.515050
     8  C    0.784188
     9  O   -0.469631
    10  O   -0.439235
    11  O   -0.457271
    12  H    0.191667
    13  H    0.141696
    14  H    0.137888
    15  H    0.361172
    16  H    0.388903
    17  H    0.368880
 Sum of Mulliken charges =  -0.00000
 Mulliken charges with hydrogens summed into heavy atoms:
               1
     1  C   -1.148587
     2  C    0.698765
     3  C    0.149124
     4  C   -0.458568
     5  C    0.371590
     6  C    0.365721
     7  O   -0.153878
     8  C    0.784188
     9  O   -0.080727
    10  O   -0.439235
    11  O   -0.088391
 Electronic spatial extent (au):  <R**2>=           1749.3711
 Charge=             -0.0000 electrons
 Dipole moment (field-independent basis, Debye):
    X=             -3.7706    Y=              1.8104    Z=              0.0005  Tot=              4.1827
 Quadrupole moment (field-independent basis, Debye-Ang):
   XX=            -57.5831   YY=            -52.6241   ZZ=            -65.2840
   XY=            -10.0693   XZ=             -0.0002   YZ=              0.0004
 Traceless Quadrupole moment (field-independent basis, Debye-Ang):
   XX=              0.9140   YY=              5.8730   ZZ=             -6.7869
   XY=            -10.0693   XZ=             -0.0002   YZ=              0.0004
 Octapole moment (field-independent basis, Debye-Ang**2):
  XXX=            -62.1197  YYY=             34.4203  ZZZ=             -0.0003  XYY=             23.6922
  XXY=            -20.2739  XXZ=              0.0080  XZZ=              7.9689  YZZ=             -3.0525
  YYZ=             -0.0000  XYZ=              0.0020
 Hexadecapole moment (field-independent basis, Debye-Ang**3):
 XXXX=          -1134.8790 YYYY=           -596.8326 ZZZZ=            -67.1443 XXXY=            -75.5213
 XXXZ=             -0.0001 YYYX=            -25.7077 YYYZ=              0.0064 ZZZX=              0.0059
 ZZZY=              0.0025 XXYY=           -315.9197 XXZZ=           -244.9743 YYZZ=           -145.0354
 XXYZ=             -0.0039 YYXZ=              0.0002 ZZXY=              4.0895
 N-N= 5.891050940928D+02 E-N=-2.513637058626D+03  KE= 5.658967660748D+02
 Calling FoFJK, ICntrl=      2127 FMM=F ISym2X=0 I1Cent= 0 IOpClX= 0 NMat=1 NMatS=1 NMatT=0.
 ***** Axes restored to original set *****
 -------------------------------------------------------------------
 Center     Atomic                   Forces (Hartrees/Bohr)
 Number     Number              X              Y              Z
 -------------------------------------------------------------------
      1        6           0.002434474    0.002256306    0.000000125
      2        6          -0.000737065   -0.000144881    0.000002179
      3        6           0.000319959    0.002757514   -0.000000052
      4        6          -0.002828194   -0.001913397   -0.000000436
      5        6           0.002367607   -0.000624691    0.000000289
      6        6           0.000272109   -0.002538789   -0.000000068
      7        8           0.002321314    0.003580713    0.000001251
      8        6           0.002624637   -0.001999486   -0.000007498
      9        8           0.000467181    0.003910500    0.000001598
     10        8          -0.003755522   -0.001936777    0.000003454
     11        8          -0.003892498   -0.001931969    0.000000120
     12        1           0.000206889   -0.000451142   -0.000000007
     13        1          -0.000083031    0.000168976    0.000000029
     14        1          -0.000153160    0.000137369   -0.000000053
     15        1           0.002222650   -0.000318873   -0.000000969
     16        1          -0.001777775    0.001253159    0.000000132
     17        1          -0.000009575   -0.002204532   -0.000000092
 -------------------------------------------------------------------
 Cartesian Forces:  Max     0.003910500 RMS     0.001655450

 GradGradGradGradGradGradGradGradGradGradGradGradGradGradGradGradGradGrad
 Berny optimization.
 FormGI is forming the generalized inverse of G from B-inverse, IUseBI=4.
 Internal  Forces:  Max     0.005638699 RMS     0.001519511
 Search for a local minimum.
 Step number   1 out of a maximum of   85
 All quantities printed in internal units (Hartrees-Bohrs-Radians)
 Mixed Optimization -- RFO/linear search
 Second derivative matrix not updated -- first step.
 ITU=  0
     Eigenvalues ---    0.00932   0.01296   0.01645   0.01962   0.02032
     Eigenvalues ---    0.02033   0.02097   0.02109   0.02123   0.02125
     Eigenvalues ---    0.02136   0.02150   0.02164   0.02200   0.16000
     Eigenvalues ---    0.16000   0.16000   0.16000   0.16000   0.16000
     Eigenvalues ---    0.22368   0.23487   0.24600   0.25000   0.25000
     Eigenvalues ---    0.25000   0.25000   0.25000   0.33733   0.35103
     Eigenvalues ---    0.35110   0.35711   0.40966   0.41716   0.44440
     Eigenvalues ---    0.45420   0.46208   0.46794   0.50172   0.51479
     Eigenvalues ---    0.52623   0.53194   0.54127   0.54296   0.98078
 RFO step:  Lambda=-3.66044753D-04 EMin= 9.32301991D-03
 Linear search not attempted -- first point.
 Iteration  1 RMS(Cart)=  0.00821762 RMS(Int)=  0.00001071
 Iteration  2 RMS(Cart)=  0.00001159 RMS(Int)=  0.00000024
 Iteration  3 RMS(Cart)=  0.00000000 RMS(Int)=  0.00000024
 Variable       Old X    -DE/DX   Delta X   Delta X   Delta X     New X
                                 (Linear)    (Quad)   (Total)
    R1        2.67346  -0.00277   0.00000  -0.00645  -0.00645   2.66701
    R2        2.64703  -0.00218   0.00000  -0.00479  -0.00479   2.64223
    R3        2.57308  -0.00564   0.00000  -0.01071  -0.01071   2.56237
    R4        2.65621  -0.00308   0.00000  -0.00693  -0.00693   2.64928
    R5        2.81082  -0.00272   0.00000  -0.00807  -0.00807   2.80276
    R6        2.62891  -0.00220   0.00000  -0.00467  -0.00467   2.62425
    R7        2.04536   0.00048   0.00000   0.00133   0.00133   2.04670
    R8        2.64225  -0.00205   0.00000  -0.00442  -0.00442   2.63782
    R9        2.59692  -0.00556   0.00000  -0.01107  -0.01107   2.58586
   R10        2.63238  -0.00246   0.00000  -0.00521  -0.00521   2.62717
   R11        2.05509   0.00014   0.00000   0.00039   0.00039   2.05548
   R12        2.05497   0.00016   0.00000   0.00046   0.00046   2.05543
   R13        1.82463  -0.00212   0.00000  -0.00390  -0.00390   1.82073
   R14        2.58402  -0.00517   0.00000  -0.01003  -0.01003   2.57399
   R15        2.29418  -0.00422   0.00000  -0.00430  -0.00430   2.28989
   R16        1.83473  -0.00205   0.00000  -0.00385  -0.00385   1.83087
   R17        1.82617  -0.00207   0.00000  -0.00382  -0.00382   1.82234
    A1        2.07643  -0.00015   0.00000  -0.00067  -0.00067   2.07576
    A2        2.09282  -0.00016   0.00000  -0.00061  -0.00061   2.09221
    A3        2.11394   0.00031   0.00000   0.00128   0.00128   2.11522
    A4        2.07760   0.00041   0.00000   0.00149   0.00149   2.07909
    A5        2.11778   0.00012   0.00000   0.00056   0.00056   2.11834
    A6        2.08781  -0.00053   0.00000  -0.00205  -0.00205   2.08575
    A7        2.11850  -0.00007   0.00000  -0.00042  -0.00041   2.11808
    A8        2.08999  -0.00010   0.00000  -0.00064  -0.00064   2.08935
    A9        2.07470   0.00017   0.00000   0.00105   0.00105   2.07575
   A10        2.08461  -0.00011   0.00000  -0.00036  -0.00036   2.08425
   A11        2.04865  -0.00014   0.00000  -0.00059  -0.00059   2.04806
   A12        2.14993   0.00025   0.00000   0.00095   0.00095   2.15088
   A13        2.09191  -0.00005   0.00000  -0.00004  -0.00004   2.09187
   A14        2.10272   0.00016   0.00000   0.00087   0.00087   2.10358
   A15        2.08856  -0.00011   0.00000  -0.00082  -0.00082   2.08773
   A16        2.11733  -0.00003   0.00000  -0.00000  -0.00001   2.11732
   A17        2.08064   0.00014   0.00000   0.00080   0.00080   2.08143
   A18        2.08522  -0.00011   0.00000  -0.00079  -0.00079   2.08443
   A19        1.92567  -0.00134   0.00000  -0.00833  -0.00833   1.91734
   A20        1.95855  -0.00108   0.00000  -0.00432  -0.00432   1.95423
   A21        2.21010   0.00018   0.00000   0.00073   0.00073   2.21083
   A22        2.11454   0.00090   0.00000   0.00359   0.00359   2.11812
   A23        1.85066  -0.00133   0.00000  -0.00827  -0.00827   1.84239
   A24        1.91044  -0.00139   0.00000  -0.00865  -0.00865   1.90179
    D1       -0.00001  -0.00000   0.00000  -0.00000  -0.00000  -0.00001
    D2        3.14158  -0.00000   0.00000  -0.00000  -0.00000   3.14157
    D3        3.14158  -0.00000   0.00000  -0.00000  -0.00000   3.14157
    D4       -0.00002  -0.00000   0.00000  -0.00000  -0.00000  -0.00003
    D5       -0.00001   0.00000   0.00000   0.00000   0.00000  -0.00000
    D6        3.14159   0.00000   0.00000   0.00000   0.00000  -3.14159
    D7       -3.14159   0.00000   0.00000   0.00000   0.00000  -3.14159
    D8        0.00001   0.00000   0.00000   0.00000   0.00000   0.00001
    D9       -3.14157  -0.00000   0.00000  -0.00000  -0.00000  -3.14157
   D10        0.00001  -0.00000   0.00000  -0.00000  -0.00000   0.00001
   D11        0.00001   0.00000   0.00000   0.00000   0.00000   0.00002
   D12       -3.14158   0.00000   0.00000   0.00000   0.00000  -3.14158
   D13       -3.14157   0.00000   0.00000   0.00000   0.00000  -3.14157
   D14        0.00001   0.00000   0.00000   0.00000   0.00000   0.00002
   D15        3.14148  -0.00000   0.00000  -0.00013  -0.00013   3.14134
   D16       -0.00018   0.00000   0.00000   0.00014   0.00014  -0.00004
   D17       -0.00012  -0.00000   0.00000  -0.00013  -0.00013  -0.00026
   D18        3.14141   0.00000   0.00000   0.00014   0.00014   3.14155
   D19       -0.00001  -0.00000   0.00000  -0.00000  -0.00000  -0.00001
   D20        3.14157   0.00000   0.00000   0.00000   0.00000   3.14157
   D21        3.14159   0.00000   0.00000   0.00000   0.00000   3.14159
   D22       -0.00002   0.00000   0.00000   0.00000   0.00000  -0.00002
   D23       -0.00000  -0.00000   0.00000  -0.00000  -0.00000  -0.00001
   D24        3.14159   0.00000   0.00000   0.00000   0.00000   3.14159
   D25       -3.14158  -0.00000   0.00000  -0.00000  -0.00000  -3.14158
   D26        0.00001  -0.00000   0.00000  -0.00000  -0.00000   0.00001
   D27        3.14142   0.00000   0.00000   0.00003   0.00003   3.14145
   D28       -0.00019   0.00000   0.00000   0.00003   0.00003  -0.00016
   D29        0.00001  -0.00000   0.00000  -0.00000  -0.00000   0.00001
   D30       -3.14159   0.00000   0.00000   0.00000   0.00000  -3.14159
   D31       -3.14158  -0.00000   0.00000  -0.00000  -0.00000  -3.14158
   D32        0.00001  -0.00000   0.00000  -0.00000  -0.00000   0.00001
   D33        3.14154   0.00000   0.00000   0.00013   0.00013  -3.14151
   D34        0.00001  -0.00000   0.00000  -0.00012  -0.00012  -0.00012
         Item               Value     Threshold  Converged?
 Maximum Force            0.005639     0.000450     NO 
 RMS     Force            0.001520     0.000300     NO 
 Maximum Displacement     0.029092     0.001800     NO 
 RMS     Displacement     0.008216     0.001200     NO 
 Predicted change in Energy=-1.831891D-04
 GradGradGradGradGradGradGradGradGradGradGradGradGradGradGradGradGradGrad

                          Input orientation:                          
 ---------------------------------------------------------------------
 Center     Atomic      Atomic             Coordinates (Angstroms)
 Number     Number       Type             X           Y           Z
 ---------------------------------------------------------------------
      1          6           0        0.233744    1.272126   -0.000009
      2          6           0        0.466887   -0.119804   -0.000049
      3          6           0       -0.628271   -0.995054   -0.000034
      4          6           0       -1.933122   -0.519841   -0.000000
      5          6           0       -2.161282    0.857261    0.000029
      6          6           0       -1.084885    1.737106    0.000031
      7          8           0       -2.939669   -1.446834   -0.000015
      8          6           0        1.843365   -0.672124   -0.000115
      9          8           0        1.845884   -2.034217    0.000171
     10          8           0        2.876938   -0.039604   -0.000180
     11          8           0        1.281783    2.132479   -0.000001
     12          1           0       -0.460322   -2.065018   -0.000055
     13          1           0       -3.175936    1.249173    0.000050
     14          1           0       -1.270647    2.808815    0.000061
     15          1           0       -3.794290   -1.001938    0.000142
     16          1           0        2.779705   -2.292401    0.000176
     17          1           0        0.945348    3.036230    0.000047
 ---------------------------------------------------------------------
                    Distance matrix (angstroms):
                    1          2          3          4          5
     1  C    0.000000
     2  C    1.411321   0.000000
     3  C    2.425526   1.401939   0.000000
     4  C    2.811842   2.433120   1.388691   0.000000
     5  C    2.430692   2.803913   2.404411   1.395875   0.000000
     6  C    1.398209   2.419941   2.770053   2.411082   1.390237
     7  O    4.178911   3.655904   2.355136   1.368376   2.432024
     8  C    2.524082   1.483155   2.492643   3.779556   4.286749
     9  O    3.678437   2.359366   2.683524   4.071144   4.941460
    10  O    2.950781   2.411385   3.633094   4.833973   5.117424
    11  O    1.355947   2.395170   3.664665   4.167783   3.671631
    12  H    3.408557   2.154895   1.083065   2.134645   3.381269
    13  H    3.409757   3.891563   3.395166   2.161944   1.087712
    14  H    2.150489   3.405266   3.857728   3.393939   2.145179
    15  H    4.625627   4.351527   3.166027   1.922593   2.474538
    16  H    4.380385   3.173217   3.646562   5.035147   5.859499
    17  H    1.902221   3.192097   4.327531   4.575067   3.794609
                    6          7          8          9         10
     6  C    0.000000
     7  O    3.684793   0.000000
     8  C    3.791970   4.845368   0.000000
     9  O    4.776221   4.821466   1.362096   0.000000
    10  O    4.341974   5.984414   1.211756   2.245340   0.000000
    11  O    2.399466   5.534631   2.860275   4.204708   2.694897
    12  H    3.853080   2.555252   2.692049   2.306411   3.903793
    13  H    2.147225   2.706340   5.374455   5.999944   6.188556
    14  H    1.087689   4.571234   4.670547   5.759143   5.031496
    15  H    3.852692   0.963488   5.647295   5.733861   6.740279
    16  H    5.583188   5.781542   1.871371   0.968856   2.254894
    17  H    2.410305   5.932219   3.815537   5.149796   3.632051
                   11         12         13         14         15
    11  O    0.000000
    12  H    4.544658   0.000000
    13  H    4.544391   4.284673   0.000000
    14  H    2.640517   4.940736   2.462236   0.000000
    15  H    5.965827   3.499355   2.334494   4.570624   0.000000
    16  H    4.671546   3.247996   6.929099   6.513659   6.699456
    17  H    0.964341   5.291374   4.492055   2.227634   6.226634
                   16         17
    16  H    0.000000
    17  H    5.635528   0.000000
 Stoichiometry    C7H6O4
 Framework group  C1[X(C7H6O4)]
 Deg. of freedom    45
 Full point group                 C1      NOp   1
 Largest Abelian subgroup         C1      NOp   1
 Largest concise Abelian subgroup C1      NOp   1
                         Standard orientation:                         
 ---------------------------------------------------------------------
 Center     Atomic      Atomic             Coordinates (Angstroms)
 Number     Number       Type             X           Y           Z
 ---------------------------------------------------------------------
      1          6           0        0.234473    1.272236   -0.000001
      2          6           0        0.467338   -0.119741   -0.000040
      3          6           0       -0.627994   -0.994772   -0.000025
      4          6           0       -1.932750   -0.519299    0.000008
      5          6           0       -2.160635    0.857849    0.000037
      6          6           0       -1.084063    1.737479    0.000039
      7          8           0       -2.939482   -1.446091   -0.000007
      8          6           0        1.843707   -0.672335   -0.000107
      9          8           0        1.845953   -2.034429    0.000179
     10          8           0        2.877405   -0.040022   -0.000172
     11          8           0        1.282684    2.132380    0.000007
     12          1           0       -0.460259   -2.064770   -0.000047
     13          1           0       -3.175211    1.249964    0.000058
     14          1           0       -1.269611    2.809225    0.000069
     15          1           0       -3.794015   -1.001024    0.000150
     16          1           0        2.779723   -2.292799    0.000185
     17          1           0        0.946430    3.036198    0.000056
 ---------------------------------------------------------------------
 Rotational constants (GHZ):      1.7618434      0.9182111      0.6036236
 Standard basis: 6-31+G(d,p) (6D, 7F)
 There are   239 symmetry adapted cartesian basis functions of A   symmetry.
 There are   239 symmetry adapted basis functions of A   symmetry.
   239 basis functions,   394 primitive gaussians,   239 cartesian basis functions
    40 alpha electrons       40 beta electrons
       nuclear repulsion energy       590.7638875552 Hartrees.
 NAtoms=   17 NActive=   17 NUniq=   17 SFac= 1.00D+00 NAtFMM=   60 NAOKFM=F Big=F
 Integral buffers will be    131072 words long.
 Raffenetti 2 integral format.
 Two-electron integral symmetry is turned on.
 Nuclear repulsion after empirical dispersion term =      590.7499371613 Hartrees.
 One-electron integrals computed using PRISM.
 NBasis=   239 RedAO= T EigKep=  3.19D-06  NBF=   239
 NBsUse=   239 1.00D-06 EigRej= -1.00D+00 NBFU=   239
 Initial guess from the checkpoint file:  "B3PW91D3DHB.chk"
 B after Tr=     0.000000   -0.000000    0.000000
         Rot=    1.000000    0.000001   -0.000001    0.000186 Ang=   0.02 deg.
 ExpMin= 4.38D-02 ExpMax= 5.48D+03 ExpMxC= 8.25D+02 IAcc=2 IRadAn=         4 AccDes= 0.00D+00
 Harris functional with IExCor=  408 and IRadAn=       4 diagonalized for initial guess.
 HarFok:  IExCor=  408 AccDes= 0.00D+00 IRadAn=         4 IDoV= 1 UseB2=F ITyADJ=14
 ICtDFT=  3500011 ScaDFX=  1.000000  1.000000  1.000000  1.000000
 FoFCou: FMM=F IPFlag=           0 FMFlag=      100000 FMFlg1=           0
         NFxFlg=           0 DoJE=T BraDBF=F KetDBF=T FulRan=T
         wScrn=  0.000000 ICntrl=     500 IOpCl=  0 I1Cent=   200000004 NGrid=           0
         NMat0=    1 NMatS0=      1 NMatT0=    0 NMatD0=    1 NMtDS0=    0 NMtDT0=    0
 Petite list used in FoFCou.
 Keep R1 ints in memory in canonical form, NReq=418393415.
 Requested convergence on RMS density matrix=1.00D-08 within 128 cycles.
 Requested convergence on MAX density matrix=1.00D-06.
 Requested convergence on             energy=1.00D-06.
 No special actions if energy rises.
 SCF Done:  E(RB3PW91) =  -571.086064674     A.U. after   11 cycles
            NFock= 11  Conv=0.67D-08     -V/T= 2.0090
 Calling FoFJK, ICntrl=      2127 FMM=F ISym2X=0 I1Cent= 0 IOpClX= 0 NMat=1 NMatS=1 NMatT=0.
 ***** Axes restored to original set *****
 -------------------------------------------------------------------
 Center     Atomic                   Forces (Hartrees/Bohr)
 Number     Number              X              Y              Z
 -------------------------------------------------------------------
      1        6           0.001085883    0.000621340   -0.000000690
      2        6          -0.000352180    0.000019327   -0.000008542
      3        6           0.000319221    0.000172609   -0.000001088
      4        6          -0.000973342   -0.001324374    0.000000122
      5        6           0.000108929    0.000166018    0.000000238
      6        6          -0.000221086    0.000009741    0.000000542
      7        8           0.000135973    0.000881757    0.000000997
      8        6          -0.000619180   -0.001092542    0.000030507
      9        8           0.000953638    0.000867768   -0.000009320
     10        8           0.000460475    0.000013778   -0.000011448
     11        8          -0.000839283    0.000008631   -0.000000439
     12        1          -0.000170714    0.000078137   -0.000000230
     13        1          -0.000087616    0.000047770   -0.000000041
     14        1          -0.000059371    0.000111416    0.000000045
     15        1          -0.000287635   -0.000340801   -0.000000602
     16        1           0.000159081   -0.000489332   -0.000000060
     17        1           0.000387208    0.000248757    0.000000009
 -------------------------------------------------------------------
 Cartesian Forces:  Max     0.001324374 RMS     0.000449423

 GradGradGradGradGradGradGradGradGradGradGradGradGradGradGradGradGradGrad
 Berny optimization.
 Using GEDIIS/GDIIS optimizer.
 FormGI is forming the generalized inverse of G from B-inverse, IUseBI=4.
 Internal  Forces:  Max     0.001193296 RMS     0.000353902
 Search for a local minimum.
 Step number   2 out of a maximum of   85
 All quantities printed in internal units (Hartrees-Bohrs-Radians)
 Mixed Optimization -- En-DIIS/RFO-DIIS
 Update second derivatives using D2CorX and points    1    2
 DE= -1.57D-04 DEPred=-1.83D-04 R= 8.59D-01
 TightC=F SS=  1.41D+00  RLast= 3.01D-02 DXNew= 5.0454D-01 9.0442D-02
 Trust test= 8.59D-01 RLast= 3.01D-02 DXMaxT set to 3.00D-01
 ITU=  1  0
 Use linear search instead of GDIIS.
     Eigenvalues ---    0.00932   0.01297   0.01646   0.01962   0.02032
     Eigenvalues ---    0.02033   0.02097   0.02109   0.02123   0.02124
     Eigenvalues ---    0.02136   0.02150   0.02164   0.02200   0.15984
     Eigenvalues ---    0.16000   0.16000   0.16000   0.16000   0.17114
     Eigenvalues ---    0.22370   0.23429   0.24470   0.24994   0.25000
     Eigenvalues ---    0.25000   0.25000   0.25805   0.34784   0.35076
     Eigenvalues ---    0.35106   0.35751   0.41276   0.41686   0.44420
     Eigenvalues ---    0.45934   0.46219   0.46759   0.50008   0.50842
     Eigenvalues ---    0.52362   0.53571   0.54196   0.54617   0.98467
 RFO step:  Lambda=-2.17450852D-05 EMin= 9.32301984D-03
 Quartic linear search produced a step of -0.12513.
 Iteration  1 RMS(Cart)=  0.00268121 RMS(Int)=  0.00000301
 Iteration  2 RMS(Cart)=  0.00000405 RMS(Int)=  0.00000008
 Iteration  3 RMS(Cart)=  0.00000000 RMS(Int)=  0.00000008
 Variable       Old X    -DE/DX   Delta X   Delta X   Delta X     New X
                                 (Linear)    (Quad)   (Total)
    R1        2.66701   0.00079   0.00081   0.00042   0.00123   2.66824
    R2        2.64223   0.00046   0.00060  -0.00002   0.00058   2.64281
    R3        2.56237  -0.00018   0.00134  -0.00230  -0.00096   2.56141
    R4        2.64928   0.00065   0.00087   0.00002   0.00089   2.65017
    R5        2.80276   0.00114   0.00101   0.00146   0.00247   2.80523
    R6        2.62425   0.00069   0.00058   0.00043   0.00101   2.62526
    R7        2.04670  -0.00010  -0.00017  -0.00001  -0.00017   2.04652
    R8        2.63782   0.00035   0.00055  -0.00019   0.00037   2.63819
    R9        2.58586  -0.00026   0.00138  -0.00251  -0.00112   2.58473
   R10        2.62717   0.00029   0.00065  -0.00046   0.00019   2.62735
   R11        2.05548   0.00010  -0.00005   0.00032   0.00027   2.05575
   R12        2.05543   0.00012  -0.00006   0.00039   0.00033   2.05576
   R13        1.82073   0.00010   0.00049  -0.00056  -0.00007   1.82066
   R14        2.57399  -0.00037   0.00125  -0.00249  -0.00124   2.57275
   R15        2.28989   0.00040   0.00054  -0.00044   0.00010   2.28998
   R16        1.83087   0.00028   0.00048  -0.00025   0.00023   1.83110
   R17        1.82234   0.00010   0.00048  -0.00056  -0.00008   1.82226
    A1        2.07576  -0.00028   0.00008  -0.00112  -0.00104   2.07473
    A2        2.09221   0.00034   0.00008   0.00108   0.00116   2.09337
    A3        2.11522  -0.00006  -0.00016   0.00003  -0.00013   2.11509
    A4        2.07909  -0.00015  -0.00019  -0.00018  -0.00036   2.07873
    A5        2.11834  -0.00025  -0.00007  -0.00081  -0.00088   2.11746
    A6        2.08575   0.00040   0.00026   0.00099   0.00124   2.08700
    A7        2.11808   0.00038   0.00005   0.00144   0.00149   2.11958
    A8        2.08935  -0.00003   0.00008   0.00001   0.00009   2.08944
    A9        2.07575  -0.00035  -0.00013  -0.00145  -0.00158   2.07417
   A10        2.08425  -0.00048   0.00005  -0.00185  -0.00181   2.08244
   A11        2.04806   0.00051   0.00007   0.00171   0.00178   2.04984
   A12        2.15088  -0.00003  -0.00012   0.00014   0.00002   2.15091
   A13        2.09187   0.00026   0.00001   0.00082   0.00083   2.09269
   A14        2.10358  -0.00011  -0.00011  -0.00015  -0.00026   2.10332
   A15        2.08773  -0.00015   0.00010  -0.00067  -0.00056   2.08717
   A16        2.11732   0.00027   0.00000   0.00089   0.00089   2.11821
   A17        2.08143  -0.00010  -0.00010  -0.00009  -0.00019   2.08124
   A18        2.08443  -0.00017   0.00010  -0.00079  -0.00069   2.08373
   A19        1.91734   0.00079   0.00104   0.00272   0.00377   1.92111
   A20        1.95423   0.00119   0.00054   0.00337   0.00391   1.95814
   A21        2.21083  -0.00033  -0.00009  -0.00102  -0.00111   2.20971
   A22        2.11812  -0.00086  -0.00045  -0.00235  -0.00279   2.11533
   A23        1.84239   0.00079   0.00104   0.00278   0.00382   1.84620
   A24        1.90179   0.00083   0.00108   0.00288   0.00396   1.90575
    D1       -0.00001   0.00000   0.00000   0.00002   0.00002   0.00001
    D2        3.14157   0.00000   0.00000   0.00002   0.00002  -3.14159
    D3        3.14157   0.00000   0.00000   0.00002   0.00002   3.14159
    D4       -0.00003   0.00000   0.00000   0.00002   0.00002  -0.00001
    D5       -0.00000  -0.00000  -0.00000  -0.00001  -0.00001  -0.00001
    D6       -3.14159  -0.00000  -0.00000  -0.00001  -0.00001   3.14159
    D7       -3.14159  -0.00000  -0.00000  -0.00001  -0.00001   3.14159
    D8        0.00001  -0.00000  -0.00000  -0.00000  -0.00000   0.00001
    D9       -3.14157   0.00000   0.00000   0.00000   0.00000  -3.14157
   D10        0.00001  -0.00000   0.00000  -0.00000  -0.00000   0.00001
   D11        0.00002  -0.00000  -0.00000  -0.00002  -0.00002  -0.00001
   D12       -3.14158  -0.00000  -0.00000  -0.00001  -0.00001   3.14159
   D13       -3.14157  -0.00000  -0.00000  -0.00002  -0.00002  -3.14159
   D14        0.00002  -0.00000  -0.00000  -0.00001  -0.00001   0.00000
   D15        3.14134   0.00001   0.00002   0.00050   0.00051  -3.14133
   D16       -0.00004  -0.00001  -0.00002  -0.00045  -0.00047  -0.00051
   D17       -0.00026   0.00001   0.00002   0.00050   0.00051   0.00026
   D18        3.14155  -0.00001  -0.00002  -0.00045  -0.00047   3.14108
   D19       -0.00001   0.00000   0.00000   0.00001   0.00001   0.00000
   D20        3.14157   0.00000  -0.00000   0.00001   0.00001   3.14158
   D21        3.14159  -0.00000  -0.00000  -0.00000  -0.00000   3.14159
   D22       -0.00002  -0.00000  -0.00000   0.00000  -0.00000  -0.00002
   D23       -0.00001   0.00000   0.00000   0.00000   0.00000  -0.00000
   D24        3.14159  -0.00000  -0.00000  -0.00000  -0.00000   3.14159
   D25       -3.14158   0.00000   0.00000   0.00000   0.00000  -3.14158
   D26        0.00001  -0.00000   0.00000  -0.00000  -0.00000   0.00001
   D27        3.14145   0.00000  -0.00000   0.00003   0.00002   3.14147
   D28       -0.00016   0.00000  -0.00000   0.00003   0.00003  -0.00013
   D29        0.00001  -0.00000   0.00000  -0.00000  -0.00000   0.00001
   D30       -3.14159  -0.00000  -0.00000  -0.00001  -0.00001  -3.14159
   D31       -3.14158   0.00000   0.00000   0.00000   0.00000  -3.14158
   D32        0.00001  -0.00000   0.00000  -0.00000  -0.00000   0.00001
   D33       -3.14151  -0.00001  -0.00002  -0.00045  -0.00047   3.14121
   D34       -0.00012   0.00001   0.00002   0.00044   0.00046   0.00034
         Item               Value     Threshold  Converged?
 Maximum Force            0.001193     0.000450     NO 
 RMS     Force            0.000354     0.000300     NO 
 Maximum Displacement     0.012536     0.001800     NO 
 RMS     Displacement     0.002680     0.001200     NO 
 Predicted change in Energy=-1.424238D-05
 GradGradGradGradGradGradGradGradGradGradGradGradGradGradGradGradGradGrad

                          Input orientation:                          
 ---------------------------------------------------------------------
 Center     Atomic      Atomic             Coordinates (Angstroms)
 Number     Number       Type             X           Y           Z
 ---------------------------------------------------------------------
      1          6           0        0.234108    1.272079    0.000066
      2          6           0        0.466411   -0.120652    0.000149
      3          6           0       -0.630025   -0.995052    0.000131
      4          6           0       -1.935594   -0.520246    0.000038
      5          6           0       -2.161917    0.857357   -0.000040
      6          6           0       -1.084976    1.736693   -0.000020
      7          8           0       -2.942938   -1.445495    0.000014
      8          6           0        1.844215   -0.673180    0.000250
      9          8           0        1.852325   -2.034597   -0.000011
     10          8           0        2.876998   -0.039277   -0.000226
     11          8           0        1.281342    2.132615    0.000084
     12          1           0       -0.463303   -2.065115    0.000194
     13          1           0       -3.176275    1.250430   -0.000119
     14          1           0       -1.270943    2.808542   -0.000079
     15          1           0       -3.798604   -1.002698    0.000058
     16          1           0        2.786339   -2.292541   -0.000281
     17          1           0        0.948067    3.037491    0.000041
 ---------------------------------------------------------------------
                    Distance matrix (angstroms):
                    1          2          3          4          5
     1  C    0.000000
     2  C    1.411971   0.000000
     3  C    2.426233   1.402407   0.000000
     4  C    2.814255   2.435016   1.389226   0.000000
     5  C    2.431651   2.804390   2.403770   1.396070   0.000000
     6  C    1.398516   2.420027   2.769369   2.411913   1.390336
     7  O    4.180768   3.657713   2.356367   1.367782   2.431691
     8  C    2.525169   1.484463   2.495088   3.782901   4.288547
     9  O    3.681403   2.363037   2.691230   4.079411   4.947478
    10  O    2.950343   2.411961   3.634930   4.836566   5.118068
    11  O    1.355441   2.396106   3.665463   4.169694   3.671827
    12  H    3.409287   2.155296   1.082973   2.134071   3.380256
    13  H    3.410452   3.892175   3.394934   2.162078   1.087856
    14  H    2.150790   3.405668   3.857214   3.394494   2.144985
    15  H    4.630051   4.355268   3.168588   1.924466   2.477610
    16  H    4.384107   3.177919   3.654453   5.043578   5.865756
    17  H    1.904316   3.194661   4.330332   4.579628   3.798024
                    6          7          8          9         10
     6  C    0.000000
     7  O    3.684880   0.000000
     8  C    3.793105   4.849051   0.000000
     9  O    4.780205   4.831314   1.361441   0.000000
    10  O    4.341809   5.987412   1.211807   2.243046   0.000000
    11  O    2.399211   5.536010   2.861697   4.206147   2.695038
    12  H    3.852300   2.555879   2.694832   2.315829   3.906614
    13  H    2.147088   2.706004   5.376393   6.006515   6.189141
    14  H    1.087863   4.570820   4.671895   5.762881   5.031450
    15  H    3.855910   0.963449   5.652432   5.744373   6.744765
    16  H    5.587647   5.791554   1.873480   0.968977   2.255087
    17  H    2.413574   5.936083   3.817350   5.152064   3.631429
                   11         12         13         14         15
    11  O    0.000000
    12  H    4.545846   0.000000
    13  H    4.544073   4.284047   0.000000
    14  H    2.640272   4.940123   2.461302   0.000000
    15  H    5.969593   3.500423   2.337494   4.573251   0.000000
    16  H    4.674079   3.257591   6.935807   6.517867   6.710080
    17  H    0.964300   5.294200   4.494863   2.230790   6.233299
                   16         17
    16  H    0.000000
    17  H    5.638128   0.000000
 Stoichiometry    C7H6O4
 Framework group  C1[X(C7H6O4)]
 Deg. of freedom    45
 Full point group                 C1      NOp   1
 Largest Abelian subgroup         C1      NOp   1
 Largest concise Abelian subgroup C1      NOp   1
                         Standard orientation:                         
 ---------------------------------------------------------------------
 Center     Atomic      Atomic             Coordinates (Angstroms)
 Number     Number       Type             X           Y           Z
 ---------------------------------------------------------------------
      1          6           0        0.233963    1.272395    0.000039
      2          6           0        0.466966   -0.120218    0.000123
      3          6           0       -0.629031   -0.995169    0.000104
      4          6           0       -1.934838   -0.521019    0.000011
      5          6           0       -2.161853    0.856470   -0.000066
      6          6           0       -1.085353    1.736347   -0.000047
      7          8           0       -2.941717   -1.446774   -0.000013
      8          6           0        1.845047   -0.672055    0.000223
      9          8           0        1.853842   -2.033467   -0.000037
     10          8           0        2.877512   -0.037632   -0.000253
     11          8           0        1.280765    2.133457    0.000057
     12          1           0       -0.461771   -2.065148    0.000167
     13          1           0       -3.176408    1.249034   -0.000146
     14          1           0       -1.271859    2.808103   -0.000106
     15          1           0       -3.797606   -1.004407    0.000031
     16          1           0        2.787985   -2.290942   -0.000308
     17          1           0        0.947036    3.038166    0.000014
 ---------------------------------------------------------------------
 Rotational constants (GHZ):      1.7618393      0.9166145      0.6029327
 Standard basis: 6-31+G(d,p) (6D, 7F)
 There are   239 symmetry adapted cartesian basis functions of A   symmetry.
 There are   239 symmetry adapted basis functions of A   symmetry.
   239 basis functions,   394 primitive gaussians,   239 cartesian basis functions
    40 alpha electrons       40 beta electrons
       nuclear repulsion energy       590.5638627033 Hartrees.
 NAtoms=   17 NActive=   17 NUniq=   17 SFac= 1.00D+00 NAtFMM=   60 NAOKFM=F Big=F
 Integral buffers will be    131072 words long.
 Raffenetti 2 integral format.
 Two-electron integral symmetry is turned on.
 Nuclear repulsion after empirical dispersion term =      590.5499054817 Hartrees.
 One-electron integrals computed using PRISM.
 NBasis=   239 RedAO= T EigKep=  3.20D-06  NBF=   239
 NBsUse=   239 1.00D-06 EigRej= -1.00D+00 NBFU=   239
 Initial guess from the checkpoint file:  "B3PW91D3DHB.chk"
 B after Tr=     0.000000   -0.000000    0.000000
         Rot=    1.000000   -0.000003    0.000002   -0.000376 Ang=  -0.04 deg.
 Keep R1 ints in memory in canonical form, NReq=418393415.
 Requested convergence on RMS density matrix=1.00D-08 within 128 cycles.
 Requested convergence on MAX density matrix=1.00D-06.
 Requested convergence on             energy=1.00D-06.
 No special actions if energy rises.
 SCF Done:  E(RB3PW91) =  -571.086079336     A.U. after   10 cycles
            NFock= 10  Conv=0.50D-08     -V/T= 2.0090
 Calling FoFJK, ICntrl=      2127 FMM=F ISym2X=0 I1Cent= 0 IOpClX= 0 NMat=1 NMatS=1 NMatT=0.
 ***** Axes restored to original set *****
 -------------------------------------------------------------------
 Center     Atomic                   Forces (Hartrees/Bohr)
 Number     Number              X              Y              Z
 -------------------------------------------------------------------
      1        6           0.000485587    0.000336195    0.000002399
      2        6          -0.000084220   -0.000173012    0.000029900
      3        6           0.000243813    0.000070804    0.000003122
      4        6          -0.000415454   -0.000496209   -0.000002150
      5        6           0.000018384    0.000185725    0.000000271
      6        6          -0.000171527    0.000026617   -0.000001931
      7        8           0.000201475    0.000170941    0.000000565
      8        6          -0.000172973   -0.000810225   -0.000106465
      9        8          -0.000301423    0.000239935    0.000031835
     10        8           0.000396087    0.000543398    0.000040275
     11        8          -0.000191077   -0.000105000    0.000001607
     12        1           0.000032963   -0.000056325    0.000000566
     13        1          -0.000012567    0.000011505    0.000000257
     14        1          -0.000002348    0.000001054   -0.000000197
     15        1          -0.000083123   -0.000029311   -0.000000542
     16        1           0.000022178   -0.000001751    0.000000629
     17        1           0.000034225    0.000085659   -0.000000141
 -------------------------------------------------------------------
 Cartesian Forces:  Max     0.000810225 RMS     0.000215781

 GradGradGradGradGradGradGradGradGradGradGradGradGradGradGradGradGradGrad
 Berny optimization.
 Using GEDIIS/GDIIS optimizer.
 FormGI is forming the generalized inverse of G from B-inverse, IUseBI=4.
 Internal  Forces:  Max     0.000619422 RMS     0.000129441
 Search for a local minimum.
 Step number   3 out of a maximum of   85
 All quantities printed in internal units (Hartrees-Bohrs-Radians)
 Mixed Optimization -- En-DIIS/RFO-DIIS
 Swapping is turned off.
 Update second derivatives using D2CorX and points    1    2    3
 DE= -1.47D-05 DEPred=-1.42D-05 R= 1.03D+00
 TightC=F SS=  1.41D+00  RLast= 1.01D-02 DXNew= 5.0454D-01 3.0380D-02
 Trust test= 1.03D+00 RLast= 1.01D-02 DXMaxT set to 3.00D-01
 ITU=  1  1  0
     Eigenvalues ---    0.00932   0.01303   0.01646   0.01962   0.02032
     Eigenvalues ---    0.02033   0.02097   0.02109   0.02123   0.02124
     Eigenvalues ---    0.02136   0.02150   0.02164   0.02200   0.14990
     Eigenvalues ---    0.16000   0.16000   0.16000   0.16006   0.16150
     Eigenvalues ---    0.21198   0.22437   0.24085   0.24905   0.25000
     Eigenvalues ---    0.25000   0.25000   0.30772   0.35050   0.35105
     Eigenvalues ---    0.35484   0.37228   0.40805   0.42152   0.44411
     Eigenvalues ---    0.44769   0.46145   0.46527   0.50011   0.50867
     Eigenvalues ---    0.52352   0.53663   0.54164   0.54368   0.99655
 En-DIIS/RFO-DIIS IScMMF=        0 using points:     3    2
 RFO step:  Lambda=-2.00934769D-06.
 DidBck=F Rises=F RFO-DIIS coefs:    1.02002   -0.02002
 Iteration  1 RMS(Cart)=  0.00119938 RMS(Int)=  0.00000124
 Iteration  2 RMS(Cart)=  0.00000155 RMS(Int)=  0.00000059
 Iteration  3 RMS(Cart)=  0.00000000 RMS(Int)=  0.00000059
 Variable       Old X    -DE/DX   Delta X   Delta X   Delta X     New X
                                 (Linear)    (Quad)   (Total)
    R1        2.66824   0.00025   0.00002   0.00066   0.00069   2.66892
    R2        2.64281   0.00022   0.00001   0.00052   0.00053   2.64334
    R3        2.56141  -0.00013  -0.00002  -0.00051  -0.00053   2.56088
    R4        2.65017  -0.00002   0.00002  -0.00002  -0.00000   2.65016
    R5        2.80523  -0.00004   0.00005   0.00010   0.00015   2.80537
    R6        2.62526   0.00018   0.00002   0.00045   0.00047   2.62573
    R7        2.04652   0.00006  -0.00000   0.00017   0.00016   2.04669
    R8        2.63819   0.00026   0.00001   0.00058   0.00059   2.63878
    R9        2.58473  -0.00019  -0.00002  -0.00066  -0.00068   2.58405
   R10        2.62735   0.00011   0.00000   0.00022   0.00022   2.62758
   R11        2.05575   0.00002   0.00001   0.00009   0.00009   2.05584
   R12        2.05576   0.00000   0.00001   0.00006   0.00006   2.05582
   R13        1.82066   0.00006  -0.00000   0.00006   0.00006   1.82072
   R14        2.57275  -0.00023  -0.00002  -0.00075  -0.00077   2.57198
   R15        2.28998   0.00062   0.00000   0.00061   0.00061   2.29059
   R16        1.83110   0.00002   0.00000   0.00002   0.00003   1.83113
   R17        1.82226   0.00007  -0.00000   0.00007   0.00007   1.82233
    A1        2.07473  -0.00019  -0.00002  -0.00092  -0.00094   2.07378
    A2        2.09337   0.00013   0.00002   0.00070   0.00072   2.09409
    A3        2.11509   0.00005  -0.00000   0.00022   0.00022   2.11531
    A4        2.07873   0.00012  -0.00001   0.00044   0.00043   2.07916
    A5        2.11746   0.00010  -0.00002   0.00033   0.00032   2.11777
    A6        2.08700  -0.00023   0.00002  -0.00077  -0.00075   2.08625
    A7        2.11958   0.00009   0.00003   0.00054   0.00057   2.12015
    A8        2.08944  -0.00007   0.00000  -0.00031  -0.00031   2.08914
    A9        2.07417  -0.00002  -0.00003  -0.00023  -0.00026   2.07390
   A10        2.08244  -0.00016  -0.00004  -0.00094  -0.00098   2.08146
   A11        2.04984   0.00007   0.00004   0.00052   0.00056   2.05040
   A12        2.15091   0.00010   0.00000   0.00042   0.00042   2.15133
   A13        2.09269   0.00007   0.00002   0.00045   0.00046   2.09316
   A14        2.10332  -0.00003  -0.00001  -0.00013  -0.00013   2.10319
   A15        2.08717  -0.00005  -0.00001  -0.00032  -0.00033   2.08684
   A16        2.11821   0.00007   0.00002   0.00043   0.00045   2.11866
   A17        2.08124  -0.00003  -0.00000  -0.00018  -0.00019   2.08105
   A18        2.08373  -0.00003  -0.00001  -0.00025  -0.00026   2.08347
   A19        1.92111   0.00011   0.00008   0.00110   0.00117   1.92228
   A20        1.95814  -0.00030   0.00008  -0.00074  -0.00067   1.95747
   A21        2.20971  -0.00014  -0.00002  -0.00071  -0.00074   2.20898
   A22        2.11533   0.00044  -0.00006   0.00146   0.00140   2.11673
   A23        1.84620   0.00000   0.00008   0.00041   0.00048   1.84669
   A24        1.90575   0.00012   0.00008   0.00117   0.00125   1.90700
    D1        0.00001  -0.00000   0.00000  -0.00008  -0.00008  -0.00007
    D2       -3.14159  -0.00000   0.00000  -0.00009  -0.00009   3.14151
    D3        3.14159  -0.00000   0.00000  -0.00006  -0.00006   3.14153
    D4       -0.00001  -0.00000   0.00000  -0.00008  -0.00008  -0.00008
    D5       -0.00001   0.00000  -0.00000   0.00004   0.00004   0.00003
    D6        3.14159   0.00000  -0.00000   0.00003   0.00003  -3.14157
    D7        3.14159   0.00000  -0.00000   0.00002   0.00002  -3.14157
    D8        0.00001   0.00000  -0.00000   0.00001   0.00001   0.00002
    D9       -3.14157  -0.00000   0.00000  -0.00001  -0.00001  -3.14158
   D10        0.00001   0.00000  -0.00000   0.00000   0.00000   0.00001
   D11       -0.00001   0.00000  -0.00000   0.00008   0.00008   0.00008
   D12        3.14159   0.00000  -0.00000   0.00003   0.00003  -3.14156
   D13       -3.14159   0.00000  -0.00000   0.00009   0.00009  -3.14150
   D14        0.00000   0.00000  -0.00000   0.00004   0.00004   0.00005
   D15       -3.14133  -0.00003   0.00001  -0.00208  -0.00207   3.13978
   D16       -0.00051   0.00003  -0.00001   0.00196   0.00195   0.00144
   D17        0.00026  -0.00003   0.00001  -0.00209  -0.00208  -0.00182
   D18        3.14108   0.00003  -0.00001   0.00195   0.00194  -3.14017
   D19        0.00000  -0.00000   0.00000  -0.00004  -0.00004  -0.00004
   D20        3.14158  -0.00000   0.00000  -0.00003  -0.00003   3.14155
   D21        3.14159   0.00000  -0.00000   0.00001   0.00001  -3.14159
   D22       -0.00002   0.00000  -0.00000   0.00001   0.00001  -0.00000
   D23       -0.00000  -0.00000   0.00000  -0.00001  -0.00001  -0.00001
   D24        3.14159   0.00000  -0.00000   0.00001   0.00001  -3.14159
   D25       -3.14158  -0.00000   0.00000  -0.00001  -0.00001   3.14159
   D26        0.00001   0.00000  -0.00000   0.00001   0.00001   0.00001
   D27        3.14147   0.00000   0.00000   0.00002   0.00003   3.14150
   D28       -0.00013   0.00000   0.00000   0.00003   0.00003  -0.00010
   D29        0.00001   0.00000  -0.00000   0.00001   0.00001   0.00001
   D30       -3.14159   0.00000  -0.00000   0.00002   0.00002  -3.14157
   D31       -3.14158  -0.00000   0.00000  -0.00001  -0.00001  -3.14159
   D32        0.00001   0.00000  -0.00000   0.00000   0.00000   0.00001
   D33        3.14121   0.00003  -0.00001   0.00192   0.00191  -3.14007
   D34        0.00034  -0.00002   0.00001  -0.00187  -0.00186  -0.00152
         Item               Value     Threshold  Converged?
 Maximum Force            0.000619     0.000450     NO 
 RMS     Force            0.000129     0.000300     YES
 Maximum Displacement     0.003857     0.001800     NO 
 RMS     Displacement     0.001200     0.001200     YES
 Predicted change in Energy=-1.884695D-06
 GradGradGradGradGradGradGradGradGradGradGradGradGradGradGradGradGradGrad

                          Input orientation:                          
 ---------------------------------------------------------------------
 Center     Atomic      Atomic             Coordinates (Angstroms)
 Number     Number       Type             X           Y           Z
 ---------------------------------------------------------------------
      1          6           0        0.234766    1.272986   -0.000243
      2          6           0        0.466758   -0.120164   -0.000655
      3          6           0       -0.629531   -0.994744   -0.000533
      4          6           0       -1.935685   -0.520817   -0.000105
      5          6           0       -2.161730    0.857148    0.000254
      6          6           0       -1.084897    1.736801    0.000192
      7          8           0       -2.942596   -1.446001   -0.000069
      8          6           0        1.844312   -0.673522   -0.001236
      9          8           0        1.850720   -2.034537    0.000712
     10          8           0        2.877269   -0.039288   -0.000015
     11          8           0        1.281391    2.133822   -0.000276
     12          1           0       -0.462290   -2.064813   -0.000816
     13          1           0       -3.176092    1.250348    0.000595
     14          1           0       -1.271393    2.808592    0.000492
     15          1           0       -3.798890   -1.004349    0.000328
     16          1           0        2.784298   -2.294102    0.001577
     17          1           0        0.948821    3.038994    0.000046
 ---------------------------------------------------------------------
                    Distance matrix (angstroms):
                    1          2          3          4          5
     1  C    0.000000
     2  C    1.412334   0.000000
     3  C    2.426852   1.402406   0.000000
     4  C    2.815775   2.435622   1.389477   0.000000
     5  C    2.432306   2.804298   2.403568   1.396382   0.000000
     6  C    1.398797   2.419907   2.769241   2.412609   1.390453
     7  O    4.181928   3.658079   2.356672   1.367420   2.431923
     8  C    2.525774   1.484540   2.494611   3.783080   4.288511
     9  O    3.681171   2.362240   2.689390   4.077771   4.945867
    10  O    2.950405   2.411868   3.634632   4.836982   5.118116
    11  O    1.355161   2.396680   3.665999   4.170933   3.672190
    12  H    3.409808   2.155177   1.083059   2.134202   3.380230
    13  H    3.410933   3.892128   3.394909   2.162321   1.087904
    14  H    2.150953   3.405698   3.857117   3.395033   2.144956
    15  H    4.632131   4.356322   3.169374   1.924925   2.479005
    16  H    4.384545   3.177578   3.652748   5.042101   5.864603
    17  H    1.904904   3.195726   4.331540   4.581771   3.799471
                    6          7          8          9         10
     6  C    0.000000
     7  O    3.685279   0.000000
     8  C    3.793405   4.848836   0.000000
     9  O    4.779209   4.829312   1.361031   0.000000
    10  O    4.342033   5.987460   1.212128   2.243841   0.000000
    11  O    2.399363   5.536894   2.863225   4.207059   2.696152
    12  H    3.852260   2.556335   2.693715   2.313208   3.905817
    13  H    2.147029   2.706440   5.376405   6.004940   6.189212
    14  H    1.087895   4.571049   4.672551   5.762247   5.032079
    15  H    3.857417   0.963481   5.652891   5.742768   6.745550
    16  H    5.587383   5.789352   1.873462   0.968991   2.256730
    17  H    2.414894   5.937871   3.818990   5.153071   3.632456
                   11         12         13         14         15
    11  O    0.000000
    12  H    4.546312   0.000000
    13  H    4.544192   4.284275   0.000000
    14  H    2.640458   4.940114   2.460895   0.000000
    15  H    5.971379   3.501069   2.339132   4.574578   0.000000
    16  H    4.676028   3.254675   6.934650   6.518137   6.708341
    17  H    0.964334   5.295288   4.496016   2.232137   6.236136
                   16         17
    16  H    0.000000
    17  H    5.640114   0.000000
 Stoichiometry    C7H6O4
 Framework group  C1[X(C7H6O4)]
 Deg. of freedom    45
 Full point group                 C1      NOp   1
 Largest Abelian subgroup         C1      NOp   1
 Largest concise Abelian subgroup C1      NOp   1
                         Standard orientation:                         
 ---------------------------------------------------------------------
 Center     Atomic      Atomic             Coordinates (Angstroms)
 Number     Number       Type             X           Y           Z
 ---------------------------------------------------------------------
      1          6           0        0.235207    1.273081   -0.000131
      2          6           0        0.467227   -0.120064   -0.000544
      3          6           0       -0.629045   -0.994666   -0.000421
      4          6           0       -1.935209   -0.520764    0.000007
      5          6           0       -2.161280    0.857196    0.000366
      6          6           0       -1.084464    1.736871    0.000303
[...]
 ! D23   D(3,4,5,6)             -0.0002         -DE/DX =    0.0                 !
 ! D24   D(3,4,5,13)          -180.0002         -DE/DX =    0.0                 !
 ! D25   D(7,4,5,6)           -179.9997         -DE/DX =    0.0                 !
 ! D26   D(7,4,5,13)             0.0003         -DE/DX =    0.0                 !
 ! D27   D(3,4,7,15)           179.9956         -DE/DX =    0.0                 !
 ! D28   D(5,4,7,15)            -0.0048         -DE/DX =    0.0                 !
 ! D29   D(4,5,6,1)              0.0004         -DE/DX =    0.0                 !
 ! D30   D(4,5,6,14)           180.0003         -DE/DX =    0.0                 !
 ! D31   D(13,5,6,1)           180.0004         -DE/DX =    0.0                 !
 ! D32   D(13,5,6,14)            0.0003         -DE/DX =    0.0                 !
 ! D33   D(2,8,9,16)          -179.9994         -DE/DX =    0.0                 !
 ! D34   D(10,8,9,16)           -0.0026         -DE/DX =    0.0                 !
 --------------------------------------------------------------------------------
 GradGradGradGradGradGradGradGradGradGradGradGradGradGradGradGradGradGrad

 1\1\ WCSS.PL-BEM-JP\Freq\RB3PW91\6-31+G(d,p)\C7H6O4\C612\17-Dec-2024\0
 \\#N Geom=AllCheck Guess=TCheck SCRF=Check GenChk RB3PW91/6-31+G(d,p) 
 Freq\\[No Title]\\0,1\C,0.2347286413,1.2728017054,0.0000012023\C,0.466
 5838938,-0.1203110351,-0.0000156175\C,-0.62973773,-0.9947884054,-0.000
 0027324\C,-1.9358452747,-0.5207710408,0.0000139711\C,-2.1617928856,0.8
 572343941,0.0000255059\C,-1.0849022861,1.7367418511,0.0000235456\O,-2.
 942651506,-1.4459447343,0.0000093296\C,1.8442290256,-0.6735422688,-0.0
 000559399\O,1.8511749396,-2.0344653854,0.0001308228\O,2.8770121379,-0.
 038891906,-0.0001730851\O,1.2815118606,2.1333169417,0.0000051563\H,-0.
 4624952356,-2.0648533503,-0.000010579\H,-3.1760990289,1.2505552143,0.0
 000360755\H,-1.2712854089,2.808536164,0.0000374009\H,-3.798804059,-1.0
 039854569,0.0000916504\H,2.7848677997,-2.2937053929,0.0000973369\H,0.9
 487351163,3.0384277053,0.0000349565\\Version=ES64L-G09RevE.01\State=1-
 A\HF=-571.0860809\RMSD=3.060e-09\RMSF=1.196e-05\ZeroPoint=0.1238788\Th
 ermal=0.1336096\Dipole=-1.4802355,0.7016841,0.0001318\DipoleDeriv=0.69
 92021,0.8888508,0.0000088,0.4903479,0.6374942,0.000009,0.000019,-0.000
 002,0.0791011,-0.6194172,0.4361255,0.0000144,-0.0240728,-0.1315709,0.0
 000082,0.000023,-0.0000011,-0.0181816,0.0847893,-0.4834959,-0.0000063,
 0.1961779,-0.0486721,-0.0000036,-0.0000089,0.0000122,-0.1296195,0.8401
 22,0.9468552,0.0000043,0.9416711,0.3449778,-0.000011,0.000005,-0.00000
 76,0.069982,-0.0417296,0.154496,0.0000038,-0.3909113,0.141451,0.000006
 3,-0.0000072,0.,-0.1470552,-0.1336227,-0.4818225,-0.0000086,0.1151488,
 0.0304942,0.0000009,-0.0000005,0.0000082,-0.1771335,-1.1061751,-0.6955
 852,-0.0000087,-0.7614002,-0.6648718,0.0000215,-0.0000273,0.0000046,-0
 .3732159,1.9716163,-0.3111238,-0.0001051,-0.2711721,1.7880325,-0.00018
 73,-0.0000685,-0.0001814,0.2912894,-0.5030182,0.2446553,-0.0000238,0.2
 786791,-1.3993588,0.0001134,-0.000042,0.0001368,-0.3743892,-1.3223325,
 -0.1381654,0.000102,-0.1022542,-0.6583762,0.0000618,0.0000511,0.000060
 1,-0.3517874,-0.73659,-0.7721423,-0.0000138,-0.6267537,-0.8786718,0.,-
 0.0000077,-0.0000072,-0.3291579,0.128508,-0.0062023,0.0000013,-0.00978
 22,0.0367958,-0.000002,0.0000085,-0.0000024,0.1463663,-0.1044369,0.032
 3292,0.0000029,0.029195,0.0707614,-0.0000003,0.0000033,-0.0000007,0.14
 74039,0.0594857,-0.0170374,0.0000006,0.0023919,-0.1118644,-0.0000032,0
 .0000002,-0.000005,0.1517176,0.3292551,0.0843443,0.0000058,0.1370422,0
 .1956294,-0.0000165,0.000019,-0.000005,0.3410049,0.2194624,-0.0463041,
 0.0000169,-0.1042367,0.3559677,0.0000055,0.0000317,-0.0000063,0.341290
 6,0.2348812,0.1642226,0.0000054,0.0999292,0.2917821,-0.0000029,0.00000
 12,-0.0000031,0.3323844\Polar=128.6884047,-0.5960805,110.5034475,-0.00
 16615,-0.0005203,50.7858539\PG=C01 [X(C7H6O4)]\NImag=0\\0.69444391,0.0
 1174950,0.70729369,-0.00000645,0.00000839,0.14991966,-0.14042819,0.062
 00335,0.00000316,0.64903728,0.01182754,-0.28606677,-0.00000364,0.02612
 571,0.69426143,0.00000334,-0.00000348,-0.06183517,-0.00001054,-0.00000
 158,0.13081290,0.05679915,-0.06016965,-0.00000125,-0.24145221,-0.08225
 355,0.00000226,0.71032288,-0.01961880,-0.03726478,-0.00000010,-0.12872
 891,-0.21081412,0.00000177,-0.01220138,0.74766872,-0.00000121,0.000000
 59,-0.00145412,0.00000101,0.00000096,-0.04980662,-0.00000728,0.0000031
 7,0.12418842,-0.03820116,0.03730227,0.00000064,-0.05229524,-0.03889697
 ,0.00000064,-0.30547710,0.11627909,0.00000341,0.72234153,0.04078980,-0
 .04494512,-0.00000105,0.00834974,0.05664244,-0.00000008,0.04295856,-0.
 15859354,-0.00000103,-0.00905389,0.70108181,0.00000052,-0.00000079,0.0
 0156018,0.00000107,0.00000155,-0.00193466,0.00000278,-0.00000263,-0.06
 146785,-0.00000836,0.00000647,0.13706775,-0.05338894,0.00146001,0.0000
 0063,-0.00989998,-0.01601848,0.00000006,0.01543816,0.03202400,-0.00000
 008,-0.13964579,0.08211599,0.00000134,0.74309878,-0.04755141,0.0623422
 4,0.00000118,-0.01990455,-0.04982880,0.00000031,0.07633709,-0.00890234
 ,-0.00000128,0.00335335,-0.31821573,-0.00000208,-0.00461894,0.69148507
 ,0.00000012,0.00000062,-0.00310848,0.00000010,-0.00000032,0.00261720,0
 .00000032,-0.00000026,0.00258911,0.00000107,-0.00000276,-0.05725136,-0
 .00000502,0.00000462,0.11638998,-0.28588432,0.03420448,0.00000364,0.01
 351682,0.06831486,-0.00000021,-0.06259153,-0.00658656,0.00000110,0.057
 35099,-0.06458704,-0.00000075,-0.26757497,-0.08956377,0.00000109,0.690
 35899,0.10854413,-0.15799736,-0.00000251,0.02754826,-0.00511165,-0.000
 00091,-0.00650712,-0.00399948,-0.00000004,-0.01698182,-0.04133644,-0.0
 0000020,-0.14974692,-0.21858454,-0.00000013,0.01598227,0.73979404,0.00
 000389,-0.00000168,-0.06063820,0.00000005,-0.00000044,0.00395357,0.000
 00091,0.00000005,0.00255218,-0.00000091,0.00000067,-0.00131137,0.00000
 066,-0.00000107,-0.04679172,-0.00000617,0.00000703,0.11189711,0.007436
 60,-0.00073136,0.00000009,0.00008520,0.00648110,0.00000016,-0.05311942
 ,-0.03484432,0.00000013,-0.21446075,-0.13180939,0.00000078,0.00142795,
 -0.00349287,-0.00000026,-0.00713304,0.00087980,0.00000029,0.68270070,-
 0.00047345,0.00513636,0.00000016,0.00069490,-0.00691579,0.00000015,0.0
 0483292,0.01641410,0.00000007,-0.07837586,-0.20170524,-0.00000457,-0.0
 4437363,-0.03750736,-0.00000026,0.00727914,-0.00226344,-0.00000029,-0.
 06204030,0.38319120,0.00000030,-0.00000014,-0.00160425,0.00000061,-0.0
 0000011,0.00476365,0.00000059,0.00000095,0.00631568,0.00000453,-0.0000
 0159,-0.03629208,0.,0.,0.00609527,-0.00000035,-0.00000003,0.00698863,-
 0.00004255,0.00002523,0.02179734,0.01628460,0.03105952,-0.00000096,-0.
 17354945,0.03608198,0.00000290,-0.03867652,-0.00169979,0.00000185,0.00
 320444,-0.01276183,0.00000007,0.00374777,0.00439613,-0.00000007,-0.002
 22363,-0.00070103,0.00000036,0.00262222,0.00367559,-0.00000003,0.90168
 540,0.03304513,-0.00799407,-0.00000069,0.05046215,-0.12125157,-0.00000
 227,-0.01183091,0.02035838,0.00000007,-0.00539691,0.00127351,0.0000000
 4,-0.00278030,-0.00432577,0.00000005,0.00193382,-0.00671352,-0.0000002
 5,-0.00389708,-0.00213903,0.00000013,0.16681614,0.66234335,-0.00000096
 ,-0.00000098,0.00161228,0.00000011,-0.00000144,-0.07815934,0.00000018,
 -0.00000003,-0.00105853,-0.00000007,0.00000019,0.00838123,-0.00000011,
 -0.00000013,-0.00118165,0.00000020,0.00000005,0.00595615,0.00000005,0.
 00000011,0.00034314,-0.00005287,-0.00005620,0.20813774,-0.00891192,-0.
 00447012,-0.00000006,-0.00590022,0.04252135,-0.00000416,-0.00610105,0.
 00271214,-0.00000057,0.00202233,0.00182951,0.00000019,-0.00052890,0.00
 035314,0.00000002,0.00003765,0.00229443,0.00000028,-0.00102896,-0.0007
 8447,-0.00000001,-0.12494209,0.03107447,-0.00000082,0.61532606,0.00209
 748,0.00440059,0.00000014,0.01744423,-0.03022676,0.00000426,-0.0016455
 4,-0.00470472,0.00000048,-0.00003245,-0.00290996,-0.00000017,0.0008111
 6,0.00096647,-0.00000005,0.00018037,-0.00036076,-0.00000008,0.00208999
 ,0.00195502,-0.00000002,-0.00473352,-0.24898409,0.00002430,-0.09790013
 ,0.43000468,0.00000038,-0.00000053,0.00172099,-0.00000052,0.00000235,0
 .01096141,0.00000007,0.00000034,0.00091813,0.00000022,0.00000019,-0.00
 085655,-0.00000005,0.00000011,0.00006474,-0.00000025,-0.00000008,-0.00
 068975,-0.00000022,-0.00000019,0.00012846,0.00000422,0.00002303,-0.063
 05064,-0.00002661,-0.00004401,0.03513302,-0.00776721,-0.01201068,0.000
 00027,-0.05760514,-0.02085765,0.00000589,0.00060713,0.00905640,-0.0000
 0016,-0.00245590,0.00379246,-0.00000030,-0.00191336,-0.00329719,0.0000
 0001,0.00286100,-0.00017143,-0.00000029,-0.00255206,-0.00143426,0.0000
 0004,-0.57075828,-0.26657862,0.00005336,0.00760230,-0.05239723,0.00000
 779,0.62992170,-0.00700768,-0.00735497,0.00000008,-0.00907679,0.019363
 96,0.00000101,0.00471127,-0.00134599,-0.00000029,-0.00133420,0.0023819
 3,-0.00000008,-0.00027639,-0.00096784,0.,0.00126686,0.00068996,-0.0000
 0016,0.00086140,0.00025148,0.,-0.26724904,-0.26952427,0.00003427,-0.06
 603830,-0.07713470,0.00001631,0.33913935,0.32934232,-0.00000005,0.0000
 0059,-0.00114923,0.00000492,0.00000199,0.01998037,0.00000024,-0.000000
 63,0.00275279,0.00000005,0.,-0.00159384,0.,0.00000007,0.00021274,0.000
 00007,0.00000002,-0.00074237,0.00000014,0.,-0.00015966,0.00005291,0.00
 003286,-0.07663191,0.00000972,0.00001709,0.02928843,-0.00006832,-0.000
 04986,0.03125947,-0.24168558,-0.08212885,0.00000110,0.01879679,-0.0076
 2226,-0.00000050,-0.01108298,0.00307040,0.00000040,0.00820497,-0.00337
 582,0.00000004,0.00104930,0.00949024,0.00000012,-0.05368104,-0.0375268
 9,0.00000014,-0.00628623,-0.00429416,-0.00000024,-0.01484066,0.0008721
 2,0.00000089,0.00224342,-0.00013644,-0.00000013,0.00602908,0.00815085,
 -0.00000016,0.39403673,-0.13514687,-0.19241254,-0.00000114,-0.03216360
 ,-0.04151097,-0.00000039,0.00338617,-0.00285464,0.00000002,0.00234858,
 0.00389813,0.00000011,0.00197255,-0.00430973,-0.00000025,-0.00355492,0
 .00723175,-0.00000007,-0.00599231,-0.00422228,-0.00000017,-0.01409183,
 0.00132557,0.00000046,0.00146627,-0.00168857,0.00000019,0.01051587,-0.
 00277451,-0.00000069,-0.02208951,0.68941567,0.00000005,-0.00000239,-0.
 04006989,-0.00000057,-0.00000046,0.00410140,0.00000002,-0.00000014,0.0
 0420561,0.00000014,-0.00000008,-0.00133537,0.00000016,-0.00000011,0.00
 758615,0.00000039,0.00000031,0.00967940,-0.00000010,0.00000002,-0.0004
 1374,-0.00000027,-0.00000001,-0.00323463,-0.00000008,-0.00000022,0.000
 35424,0.00000034,-0.00000020,0.00152797,-0.00000647,0.00001744,0.02524
 922,-0.00386618,-0.00181295,0.00000018,0.00795074,-0.02341733,-0.00000
 028,-0.06401658,0.04659827,0.00000106,0.00071079,0.02943036,0.00000020
 ,-0.00549791,0.00139938,0.00000015,-0.00106880,-0.00078025,-0.00000004
 ,0.00181715,-0.00021191,-0.00000008,0.00106131,-0.00388261,0.00000041,
 -0.00468344,0.00188336,-0.00000055,0.00068013,0.00116669,-0.00000026,0
 .00033174,-0.00164154,-0.00000004,0.06647061,-0.00316789,0.00106028,0.
 00000004,0.00373683,-0.01364569,-0.00000009,0.04574309,-0.34551967,-0.
 00000237,-0.00123333,-0.00611803,-0.00000006,0.00144542,0.00028412,-0.
 00000002,0.00030538,0.00073504,-0.00000001,-0.00043504,0.00051131,0.,0
 .00013641,-0.00202598,0.00000011,0.00306983,0.00033293,0.00000007,0.00
 006196,0.00040977,-0.00000002,0.00046771,-0.00082018,-0.00000001,-0.05
 010775,0.36447100,0.00000009,0.00000010,0.00587826,0.00000001,-0.00000
 012,0.00229655,0.00000104,-0.00000211,-0.03647656,-0.00000023,-0.00000
 052,0.00693213,0.00000014,-0.00000014,0.00519558,0.00000010,-0.0000000
 1,-0.00077340,-0.00000007,0.00000006,-0.00350577,-0.00000006,0.0000000
 6,-0.00419691,-0.00000059,0.00000011,0.00051746,0.00000029,0.00000019,
 0.00075064,-0.00000002,0.00000001,0.00039096,-0.00000086,0.00000235,0.
 02468094,-0.00027951,-0.00401457,-0.00000002,0.00029600,-0.00038084,0.
 ,0.00176020,0.00117868,0.00000003,-0.00467960,-0.00304275,0.00000006,-
 0.29915075,0.09542887,0.00000272,-0.01781793,0.01120864,0.00000027,0.0
 0321618,0.00013579,-0.00000010,0.00029059,-0.00019222,0.,-0.00013819,0
 .00022326,-0.00000002,-0.00019520,0.00004851,0.00000001,-0.00168338,0.
 00010570,0.00000002,-0.00017539,-0.00002380,0.,0.31770906,-0.00317411,
 -0.00220740,-0.00000006,-0.00125614,-0.00091556,0.00000004,0.00035884,
 -0.00646453,-0.00000009,0.02919674,-0.00394266,-0.00000034,0.09620078,
 -0.09752761,-0.00000113,-0.01931805,0.01097932,0.00000021,0.00084588,0
 .00283363,-0.00000002,0.00010599,-0.00036962,0.00000003,0.00014274,0.0
 0014462,-0.00000001,0.00001832,0.00007918,-0.00000002,-0.00118388,0.00
 027471,0.00000004,0.00149809,-0.00013984,-0.00000004,-0.10206499,0.097
 83382,0.00000009,0.,0.00717443,0.,-0.00000014,-0.00068883,0.00000008,-
 0.00000007,0.00515683,0.00000037,0.00000016,0.00484995,0.00000255,-0.0
 0000129,-0.03359477,0.00000003,-0.00000005,0.00276323,-0.00000027,0.00
 000008,-0.00354691,-0.00000005,0.,-0.00073356,-0.00000004,0.00000002,0
 .00015043,0.00000005,0.00000004,0.00006585,0.00000001,0.,0.00000422,0.
 ,0.,-0.00044399,-0.00000299,0.00000119,0.02243094,-0.00109052,0.028454
 61,0.00000037,-0.00514006,0.00087008,0.00000024,-0.00140769,-0.0006098
 1,0.,-0.00347937,-0.00243629,0.00000005,0.00798160,-0.02499806,-0.0000
 0032,-0.06689887,0.04978585,0.00000089,-0.00006749,-0.00166960,0.00000
 002,0.00079298,0.00127811,-0.00000001,-0.00060433,0.00033600,0.,-0.000
 09162,-0.00016523,-0.00000002,0.00262587,0.00169350,-0.00000002,0.0000
 6631,0.00003733,0.,0.00067679,-0.00001503,-0.00000003,0.06766388,-0.00
 414399,-0.01005602,-0.00000010,0.00273004,0.00091936,-0.00000014,-0.00
 009467,0.00065482,0.00000001,-0.00356742,0.00096711,-0.00000005,0.0057
 5305,-0.01547901,-0.00000023,0.04954374,-0.32779939,-0.00000383,-0.000
 07204,-0.00139416,0.00000001,-0.00135393,-0.00034978,0.00000006,0.0004
 2881,-0.00023697,0.00000002,0.00053773,0.00024978,-0.00000003,-0.00033
 534,0.00350311,0.00000009,0.00002144,-0.00006145,0.,-0.00030298,0.0007
 2833,0.00000006,-0.05143151,0.34816324,0.00000022,-0.00000063,0.004187
 13,0.00000018,-0.00000008,0.00443402,-0.00000011,0.00000005,-0.0009183
 3,0.00000018,-0.00000006,0.00647671,0.00000004,0.00000019,0.00211066,0
 .00000067,-0.00000376,-0.03096180,-0.00000005,0.00000001,0.00045501,-0
 .00000002,0.00000004,0.00027921,0.00000002,-0.00000002,-0.00010364,0.0
 0000003,0.,-0.00000947,-0.00000011,0.00000010,-0.00403096,0.,0.,-0.000
 23786,-0.00000002,0.00000004,-0.00405088,-0.00000106,0.00000416,0.0217
 5202,-0.00003887,-0.00062134,-0.00000005,-0.00026366,0.00168660,-0.000
 00006,-0.00220249,-0.00568721,0.00000021,-0.03306490,0.01757224,0.0000
 0236,0.00541551,0.00259902,-0.00000005,-0.00073166,0.00036899,-0.00000
 021,-0.41463266,0.17680211,0.00003730,-0.00078886,0.00003279,0.,0.0001
 7197,-0.00027828,0.00000003,0.00019229,0.00002999,0.,0.00077170,0.0006
 5531,0.00000003,0.00036745,-0.00009536,0.00000003,0.00000774,-0.001411
 23,0.00000016,0.00024732,0.00026988,0.,0.44465380,0.00052125,-0.000004
 54,0.00000005,0.00001269,0.00097281,-0.00000014,-0.00445542,-0.0035972
 5,0.00000005,-0.03256159,0.00996276,0.00000278,-0.00356702,0.00220556,
 0.00000006,-0.00019694,-0.00061364,-0.00000001,0.23152831,-0.15453408,
 -0.00002427,-0.00062069,0.00005508,-0.00000004,0.00010839,-0.00021147,
 0.00000001,0.00013632,0.00003633,0.00000002,-0.00008839,-0.00029292,-0
 .00000002,-0.00031274,0.00012102,0.00000004,0.00143444,-0.00151926,0.,
 0.00003219,0.00008862,-0.00000002,-0.19183121,0.14730480,-0.00000017,0
 .00000012,0.00026875,-0.00000031,-0.00000012,0.00164808,-0.00000003,-0
 .00000022,0.00147193,-0.00000155,-0.00000058,-0.00361443,-0.00000036,-
 0.00000024,-0.00001764,0.00000023,-0.00000006,-0.00079853,0.00004186,-
 0.00002059,-0.00126056,0.,-0.00000007,0.00004807,-0.00000001,0.0000000
 2,-0.00003531,-0.00000003,0.00000001,-0.00007213,0.00000010,0.00000010
 ,-0.00009849,0.,0.00000001,-0.00071605,0.00000003,0.00000016,0.0004993
 2,-0.00000003,-0.00000003,-0.00005843,-0.00003975,0.00002149,0.0026726
 0,-0.00015069,0.00016964,-0.00000010,0.00171966,-0.00068280,0.00000024
 ,0.00011010,-0.00025651,0.00000006,0.00010013,-0.00013216,-0.00000006,
 0.00004214,0.00004520,0.00000001,0.00006686,0.00014126,-0.00000003,0.0
 0009013,0.00006711,0.,-0.00216487,0.01029262,-0.00000060,-0.47481262,0
 .13140043,0.00001585,-0.00413083,-0.00645425,0.00000057,-0.00005220,-0
 .00017271,-0.00000003,0.00012389,0.00023841,0.00000010,0.00001654,0.00
 001219,0.,-0.00000252,-0.00001310,0.00000001,-0.00003429,-0.00001623,0
 .,0.47904833,0.00190675,0.00020329,0.00000011,-0.00224376,-0.00728998,
 0.00000152,-0.00146352,0.00001812,-0.00000025,0.00024467,0.00084737,0.
 00000002,-0.00034471,-0.00020069,0.,0.00002891,-0.00056353,-0.00000009
 ,-0.00033214,-0.00029159,0.,0.05888985,-0.02171542,-0.00000063,0.08349
 840,-0.07162791,0.00000217,-0.00587953,0.00709759,-0.00000134,-0.00011
 434,0.00030130,0.00000005,0.00049079,0.00051011,0.00000004,-0.00003950
 ,0.00004787,0.,0.00014170,-0.00004367,-0.00000001,0.00005307,0.0000372
 3,0.,-0.13469613,0.09269898,-0.00000037,0.00000030,0.00071660,0.000000
 89,0.00000125,0.00421246,0.00000010,-0.00000010,-0.00028256,-0.0000001
 3,0.00000004,0.00023482,0.00000003,-0.00000011,-0.00000021,0.00000014,
 0.00000018,-0.00029444,0.00000004,0.00000002,-0.00007463,-0.00000823,0
 .00000314,0.00378962,0.00002276,-0.00000188,-0.01417147,0.00000086,-0.
 00000105,-0.00574479,-0.00000010,-0.00000020,0.00007335,0.00000010,0.,
 -0.00030383,0.,0.,-0.00003543,-0.00000003,0.,-0.00005029,0.,0.,0.00004
 369,-0.00001606,-0.00000159,0.01188894,0.00672885,-0.04044387,-0.00000
 118,-0.00486834,-0.00377935,0.00000002,0.00108996,-0.00068569,0.000000
 03,-0.00017536,0.00036050,0.,-0.00060061,0.00002438,0.,0.00141345,-0.0
 0433817,-0.00000009,-0.00011553,0.00017009,-0.00000001,-0.00174495,-0.
 00124868,0.00000024,0.00024800,0.00065731,-0.00000021,-0.00042402,0.00
 222694,0.00000017,-0.10477751,0.19270935,0.00000642,-0.00027182,-0.000
 17921,0.00000002,0.00014686,0.00004385,0.,-0.00127228,0.00203027,0.000
 00002,-0.00007040,-0.00012337,0.00000001,0.00003025,-0.00014051,0.0000
 0003,0.10466343,0.00980263,-0.03413286,-0.00000084,-0.00573413,0.00141
 766,0.00000002,0.00229381,-0.00105306,-0.00000009,-0.00129027,0.000711
 67,0.,-0.00005657,-0.00143403,0.00000005,0.00476746,0.00591363,0.00000
 002,0.00096037,0.00067987,0.00000003,0.00205003,0.00003723,-0.00000011
 ,-0.00030645,0.00028161,0.00000004,-0.00063182,-0.00080002,-0.00000004
 ,0.13684454,-0.45506389,-0.00001431,-0.00032129,-0.00010474,0.,0.00029
 775,0.00016500,0.,-0.00130385,0.00014607,-0.00000002,-0.00014536,-0.00
 001106,-0.00000001,0.00005700,-0.00002908,0.00000002,-0.14728384,0.483
 27600,0.00000022,-0.00000008,-0.00317894,-0.00000017,0.00000034,0.0026
 4300,0.00000008,-0.00000003,0.00131389,0.,0.00000002,0.00015471,0.,-0.
 00000002,-0.00091562,0.00000007,0.00000020,-0.00078870,0.,0.,-0.000029
 58,0.00000027,0.00000009,-0.00030026,-0.00000005,0.00000005,-0.0003299
 5,0.00000016,-0.00000027,0.00026516,0.00000492,-0.00001552,-0.00398944
 ,-0.00000001,0.,0.00001184,0.,0.,-0.00000084,-0.00000005,-0.00000002,0
 .00072690,0.,0.,0.00001914,0.00000003,0.,-0.00000184,-0.00000548,0.000
 01524,0.00440052\\0.00002695,0.00002320,0.00000021,-0.00000481,-0.0000
 0025,0.00000252,0.00000537,0.00000429,0.00000034,-0.00003768,-0.000035
 28,0.00000003,0.00000167,0.00001073,-0.00000014,-0.00000489,0.00000478
 ,-0.00000015,0.00001354,0.00002881,-0.00000048,0.00001698,0.00001224,-
 0.00000907,0.00000492,-0.00001959,0.00000276,-0.00001089,0.00000336,0.
 00000339,-0.00001491,-0.00002020,0.00000014,-0.00000701,0.00000112,0.0
 0000008,-0.00000018,0.00000516,0.,0.00000239,0.00000109,-0.00000001,0.
 00000320,-0.00000031,0.00000032,-0.00000500,-0.00000925,0.00000004,0.0
 0001034,-0.00000990,0.\\\@


 FRICTION IS A DRAG,
 AND ENTROPY AIN'T WHAT IT USED TO BE.
 Job cpu time:       0 days  0 hours 14 minutes  8.7 seconds.
 File lengths (MBytes):  RWF=    107 Int=      0 D2E=      0 Chk=      5 Scr=      1
 Normal termination of Gaussian 09 at Tue Dec 17 21:31:38 2024.
