 Entering Gaussian System, Link 0=g09
 Input=camb3lypD3DHByang.gjf
 Output=camb3lypD3DHByang.log
 Initial command:
 /home/c612/g09E/g09/l1.exe "/mnt/ja_sm883/scratch/Gau-1351362.inp" -scrdir="/mnt/ja_sm883/scratch/"
 Default is to use a total of  18 processors:
                               18 via shared-memory
                                1 via Linda
 Entering Link 1 = /home/c612/g09E/g09/l1.exe PID=   1351364.
  
 Copyright (c) 1988,1990,1992,1993,1995,1998,2003,2009,2015,
            Gaussian, Inc.  All Rights Reserved.
  
 This is part of the Gaussian(R) 09 program.  It is based on
 the Gaussian(R) 03 system (copyright 2003, Gaussian, Inc.),
 the Gaussian(R) 98 system (copyright 1998, Gaussian, Inc.),
 the Gaussian(R) 94 system (copyright 1995, Gaussian, Inc.),
 the Gaussian 92(TM) system (copyright 1992, Gaussian, Inc.),
 the Gaussian 90(TM) system (copyright 1990, Gaussian, Inc.),
 the Gaussian 88(TM) system (copyright 1988, Gaussian, Inc.),
 the Gaussian 86(TM) system (copyright 1986, Carnegie Mellon
 University), and the Gaussian 82(TM) system (copyright 1983,
 Carnegie Mellon University). Gaussian is a federally registered
 trademark of Gaussian, Inc.
  
 This software contains proprietary and confidential information,
 including trade secrets, belonging to Gaussian, Inc.
  
 This software is provided under written license and may be
 used, copied, transmitted, or stored only in accord with that
 written license.
  
 The following legend is applicable only to US Government
 contracts under FAR:
  
                    RESTRICTED RIGHTS LEGEND
  
 Use, reproduction and disclosure by the US Government is
 subject to restrictions as set forth in subparagraphs (a)
 and (c) of the Commercial Computer Software - Restricted
 Rights clause in FAR 52.227-19.
  
 Gaussian, Inc.
 340 Quinnipiac St., Bldg. 40, Wallingford CT 06492
  
  
 ---------------------------------------------------------------
 Warning -- This program may not be used in any manner that
 competes with the business of Gaussian, Inc. or will provide
 assistance to any competitor of Gaussian, Inc.  The licensee
 of this program is prohibited from giving any competitor of
 Gaussian, Inc. access to this program.  By using this program,
 the user acknowledges that Gaussian, Inc. is engaged in the
 business of creating and licensing software in the field of
 computational chemistry and represents and warrants to the
 licensee that it is not a competitor of Gaussian, Inc. and that
 it will not use this program in any manner prohibited above.
 ---------------------------------------------------------------
  

 Cite this work as:
 Gaussian 09, Revision E.01,
 M. J. Frisch, G. W. Trucks, H. B. Schlegel, G. E. Scuseria, 
 M. A. Robb, J. R. Cheeseman, G. Scalmani, V. Barone, B. Mennucci, 
 G. A. Petersson, H. Nakatsuji, M. Caricato, X. Li, H. P. Hratchian, 
 A. F. Izmaylov, J. Bloino, G. Zheng, J. L. Sonnenberg, M. Hada, 
 M. Ehara, K. Toyota, R. Fukuda, J. Hasegawa, M. Ishida, T. Nakajima, 
 Y. Honda, O. Kitao, H. Nakai, T. Vreven, J. A. Montgomery, Jr., 
 J. E. Peralta, F. Ogliaro, M. Bearpark, J. J. Heyd, E. Brothers, 
 K. N. Kudin, V. N. Staroverov, T. Keith, R. Kobayashi, J. Normand, 
 K. Raghavachari, A. Rendell, J. C. Burant, S. S. Iyengar, J. Tomasi, 
 M. Cossi, N. Rega, J. M. Millam, M. Klene, J. E. Knox, J. B. Cross, 
 V. Bakken, C. Adamo, J. Jaramillo, R. Gomperts, R. E. Stratmann, 
 O. Yazyev, A. J. Austin, R. Cammi, C. Pomelli, J. W. Ochterski, 
 R. L. Martin, K. Morokuma, V. G. Zakrzewski, G. A. Voth, 
 P. Salvador, J. J. Dannenberg, S. Dapprich, A. D. Daniels, 
 O. Farkas, J. B. Foresman, J. V. Ortiz, J. Cioslowski, 
 and D. J. Fox, Gaussian, Inc., Wallingford CT, 2013.
 
 ******************************************
 Gaussian 09:  ES64L-G09RevE.01 30-Nov-2015
                17-Dec-2024 
 ******************************************
 %chk=camB3lypD3DHByanggd3.chk
 --------------------------------------------------------
 # opt freq cam-b3lyp/6-31+g(d,p) empiricaldispersion=gd3
 --------------------------------------------------------
 1/14=-1,18=20,19=15,26=3,38=1/1,3;
 2/9=110,12=2,17=6,18=5,40=1/2;
 3/5=1,6=6,7=111,11=2,16=1,25=1,30=1,71=1,74=-40,124=31/1,2,3;
 4//1;
 5/5=2,38=5/2;
 6/7=2,8=2,9=2,10=2,28=1/1;
 7//1,2,3,16;
 1/14=-1,18=20,19=15,26=3/3(2);
 2/9=110/2;
 99//99;
 2/9=110/2;
 3/5=1,6=6,7=111,11=2,16=1,25=1,30=1,71=1,74=-40,124=31/1,2,3;
 4/5=5,16=3,69=1/1;
 5/5=2,38=5/2;
 7//1,2,3,16;
 1/14=-1,18=20,19=15,26=3/3(-5);
 2/9=110/2;
 6/7=2,8=2,9=2,10=2,19=2,28=1/1;
 99/9=1/99;
 ----------
 [No Title]
 ----------
 Symbolic Z-matrix:
 Charge =  1 Multiplicity = 1
 C                     0.21715   1.27695  -0.00001 
 C                     0.42595  -0.13859   0. 
 C                    -0.69628  -1.01575   0.00001 
 C                    -1.98425  -0.51554   0.00002 
 C                    -2.17701   0.88438   0.00001 
 C                    -1.09931   1.75676   0. 
 O                    -3.0029   -1.40899   0.00003 
 C                     1.72515  -0.71768  -0.00001 
 O                     1.81279  -2.02907  -0.00009 
 O                     2.79267   0.03522   0.00006 
 O                     1.27912   2.09906  -0.00002 
 H                    -0.55368  -2.08884   0.00002 
 H                    -3.18536   1.29034   0.00002 
 H                    -1.27457   2.82864  0. 
 H                    -3.86915  -0.97904   0.00003 
 H                     2.71154  -2.39765  -0.00001 
 H                     3.64358  -0.43514  -0.00002 
 H                     1.00574   3.0288   -0.00003 
 

 GradGradGradGradGradGradGradGradGradGradGradGradGradGradGradGradGradGrad
 Berny optimization.
 Initialization pass.
                           ----------------------------
                           !    Initial Parameters    !
                           ! (Angstroms and Degrees)  !
 --------------------------                            --------------------------
 ! Name  Definition              Value          Derivative Info.                !
 --------------------------------------------------------------------------------
 ! R1    R(1,2)                  1.4309         estimate D2E/DX2                !
 ! R2    R(1,6)                  1.4012         estimate D2E/DX2                !
 ! R3    R(1,11)                 1.343          estimate D2E/DX2                !
 ! R4    R(2,3)                  1.4244         estimate D2E/DX2                !
 ! R5    R(2,8)                  1.4224         estimate D2E/DX2                !
 ! R6    R(3,4)                  1.3817         estimate D2E/DX2                !
 ! R7    R(3,12)                 1.0825         estimate D2E/DX2                !
 ! R8    R(4,5)                  1.4131         estimate D2E/DX2                !
 ! R9    R(4,7)                  1.355          estimate D2E/DX2                !
 ! R10   R(5,6)                  1.3865         estimate D2E/DX2                !
 ! R11   R(5,13)                 1.087          estimate D2E/DX2                !
 ! R12   R(6,14)                 1.0861         estimate D2E/DX2                !
 ! R13   R(7,15)                 0.9671         estimate D2E/DX2                !
 ! R14   R(8,9)                  1.3143         estimate D2E/DX2                !
 ! R15   R(8,10)                 1.3063         estimate D2E/DX2                !
 ! R16   R(9,16)                 0.9714         estimate D2E/DX2                !
 ! R17   R(10,17)                0.9723         estimate D2E/DX2                !
 ! R18   R(11,18)                0.9691         estimate D2E/DX2                !
 ! A1    A(2,1,6)              118.4158         estimate D2E/DX2                !
 ! A2    A(2,1,11)             119.3539         estimate D2E/DX2                !
 ! A3    A(6,1,11)             122.2302         estimate D2E/DX2                !
 ! A4    A(1,2,3)              119.6214         estimate D2E/DX2                !
 ! A5    A(1,2,8)              122.4145         estimate D2E/DX2                !
 ! A6    A(3,2,8)              117.9641         estimate D2E/DX2                !
 ! A7    A(2,3,4)              120.7629         estimate D2E/DX2                !
 ! A8    A(2,3,12)             120.4429         estimate D2E/DX2                !
 ! A9    A(4,3,12)             118.7942         estimate D2E/DX2                !
 ! A10   A(3,4,5)              119.0652         estimate D2E/DX2                !
 ! A11   A(3,4,7)              117.5212         estimate D2E/DX2                !
 ! A12   A(5,4,7)              123.4136         estimate D2E/DX2                !
 ! A13   A(4,5,6)              121.1491         estimate D2E/DX2                !
 ! A14   A(4,5,13)             119.7699         estimate D2E/DX2                !
 ! A15   A(6,5,13)             119.081          estimate D2E/DX2                !
 ! A16   A(1,6,5)              120.9855         estimate D2E/DX2                !
 ! A17   A(1,6,14)             119.3112         estimate D2E/DX2                !
 ! A18   A(5,6,14)             119.7033         estimate D2E/DX2                !
 ! A19   A(4,7,15)             112.3499         estimate D2E/DX2                !
 ! A20   A(2,8,9)              117.847          estimate D2E/DX2                !
 ! A21   A(2,8,10)             120.7818         estimate D2E/DX2                !
 ! A22   A(9,8,10)             121.3712         estimate D2E/DX2                !
 ! A23   A(8,9,16)             116.122          estimate D2E/DX2                !
 ! A24   A(8,10,17)            115.873          estimate D2E/DX2                !
 ! A25   A(1,11,18)            111.359          estimate D2E/DX2                !
 ! D1    D(6,1,2,3)              0.0001         estimate D2E/DX2                !
 ! D2    D(6,1,2,8)            179.9996         estimate D2E/DX2                !
 ! D3    D(11,1,2,3)          -179.9997         estimate D2E/DX2                !
 ! D4    D(11,1,2,8)            -0.0001         estimate D2E/DX2                !
 ! D5    D(2,1,6,5)              0.0            estimate D2E/DX2                !
 ! D6    D(2,1,6,14)          -180.0            estimate D2E/DX2                !
 ! D7    D(11,1,6,5)           179.9997         estimate D2E/DX2                !
 ! D8    D(11,1,6,14)           -0.0002         estimate D2E/DX2                !
 ! D9    D(2,1,11,18)          179.9995         estimate D2E/DX2                !
 ! D10   D(6,1,11,18)           -0.0002         estimate D2E/DX2                !
 ! D11   D(1,2,3,4)             -0.0001         estimate D2E/DX2                !
 ! D12   D(1,2,3,12)          -179.9999         estimate D2E/DX2                !
 ! D13   D(8,2,3,4)           -179.9997         estimate D2E/DX2                !
 ! D14   D(8,2,3,12)             0.0006         estimate D2E/DX2                !
 ! D15   D(1,2,8,9)           -179.996          estimate D2E/DX2                !
 ! D16   D(1,2,8,10)             0.0049         estimate D2E/DX2                !
 ! D17   D(3,2,8,9)              0.0036         estimate D2E/DX2                !
 ! D18   D(3,2,8,10)          -179.9956         estimate D2E/DX2                !
 ! D19   D(2,3,4,5)              0.0001         estimate D2E/DX2                !
 ! D20   D(2,3,4,7)           -179.9998         estimate D2E/DX2                !
 ! D21   D(12,3,4,5)           179.9998         estimate D2E/DX2                !
 ! D22   D(12,3,4,7)             0.0            estimate D2E/DX2                !
 ! D23   D(3,4,5,6)              0.0            estimate D2E/DX2                !
 ! D24   D(3,4,5,13)          -179.9999         estimate D2E/DX2                !
 ! D25   D(7,4,5,6)            179.9998         estimate D2E/DX2                !
 ! D26   D(7,4,5,13)            -0.0001         estimate D2E/DX2                !
 ! D27   D(3,4,7,15)          -179.9994         estimate D2E/DX2                !
 ! D28   D(5,4,7,15)             0.0008         estimate D2E/DX2                !
 ! D29   D(4,5,6,1)              0.0            estimate D2E/DX2                !
 ! D30   D(4,5,6,14)           179.9999         estimate D2E/DX2                !
 ! D31   D(13,5,6,1)           179.9999         estimate D2E/DX2                !
 ! D32   D(13,5,6,14)           -0.0002         estimate D2E/DX2                !
 ! D33   D(2,8,9,16)          -179.994          estimate D2E/DX2                !
 ! D34   D(10,8,9,16)            0.0051         estimate D2E/DX2                !
 ! D35   D(2,8,10,17)         -179.9956         estimate D2E/DX2                !
 ! D36   D(9,8,10,17)            0.0053         estimate D2E/DX2                !
 --------------------------------------------------------------------------------
 Trust Radius=3.00D-01 FncErr=1.00D-07 GrdErr=1.00D-06
 Number of steps in this run=     89 maximum allowed number of steps=    108.
 GradGradGradGradGradGradGradGradGradGradGradGradGradGradGradGradGradGrad

                          Input orientation:                          
 ---------------------------------------------------------------------
 Center     Atomic      Atomic             Coordinates (Angstroms)
 Number     Number       Type             X           Y           Z
 ---------------------------------------------------------------------
      1          6           0        0.217152    1.276951   -0.000006
      2          6           0        0.425946   -0.138593    0.000000
      3          6           0       -0.696277   -1.015752    0.000011
      4          6           0       -1.984248   -0.515535    0.000018
      5          6           0       -2.177013    0.884379    0.000013
      6          6           0       -1.099306    1.756757    0.000001
      7          8           0       -3.002895   -1.408985    0.000033
      8          6           0        1.725149   -0.717682   -0.000014
      9          8           0        1.812785   -2.029068   -0.000089
     10          8           0        2.792671    0.035215    0.000062
     11          8           0        1.279123    2.099057   -0.000023
     12          1           0       -0.553682   -2.088843    0.000018
     13          1           0       -3.185361    1.290339    0.000020
     14          1           0       -1.274566    2.828638   -0.000004
     15          1           0       -3.869146   -0.979044    0.000028
     16          1           0        2.711538   -2.397651   -0.000006
     17          1           0        3.643577   -0.435142   -0.000021
     18          1           0        1.005738    3.028799   -0.000033
 ---------------------------------------------------------------------
                    Distance matrix (angstroms):
                    1          2          3          4          5
     1  C    0.000000
     2  C    1.430860   0.000000
     3  C    2.467963   1.424357   0.000000
     4  C    2.838867   2.439492   1.381697   0.000000
     5  C    2.426137   2.796760   2.408958   1.413123   0.000000
     6  C    1.401169   2.432847   2.801649   2.438531   1.386541
     7  O    4.193203   3.656617   2.339897   1.354952   2.437540
     8  C    2.500523   1.422418   2.439703   3.714901   4.218230
     9  O    3.670941   2.344615   2.705957   4.087572   4.940310
    10  O    2.859232   2.373098   3.643802   4.808563   5.041710
    11  O    1.342997   2.394784   3.688393   4.181588   3.663375
    12  H    3.452934   2.182463   1.082524   2.126456   3.387514
    13  H    3.402539   3.883733   3.393169   2.168837   1.087000
    14  H    2.152430   3.419971   3.887641   3.418646   2.143491
    15  H    4.667692   4.376548   3.173081   1.941052   2.517074
    16  H    4.441245   3.213608   3.677343   5.058929   5.888094
    17  H    3.830359   3.231268   4.378520   5.628399   5.968283
    18  H    1.921156   3.220020   4.388080   4.637059   3.837765
                    6          7          8          9         10
     6  C    0.000000
     7  O    3.693992   0.000000
     8  C    3.755049   4.778316   0.000000
     9  O    4.776269   4.855438   1.314311   0.000000
    10  O    4.255725   5.972797   1.306314   2.285047   0.000000
    11  O    2.402934   5.535525   2.851834   4.162477   2.559350
    12  H    3.884114   2.541820   2.659540   2.367222   3.963546
    13  H    2.137562   2.705484   5.305210   5.999994   6.108372
    14  H    1.086115   4.576524   4.644855   5.755784   4.934129
    15  H    3.893150   0.967078   5.600397   5.778139   6.738585
    16  H    5.637521   5.799328   1.948142   0.971396   2.434218
    17  H    5.224879   6.717437   1.939122   2.427427   0.972253
    18  H    2.459533   5.980223   3.814928   5.121850   3.486356
                   11         12         13         14         15
    11  O    0.000000
    12  H    4.571398   0.000000
    13  H    4.537140   4.283060   0.000000
    14  H    2.655864   4.970040   2.453060   0.000000
    15  H    5.998281   3.496277   2.370161   4.607634   0.000000
    16  H    4.719343   3.279790   6.955191   6.572908   6.731853
    17  H    3.465950   4.511287   7.043556   5.902575   7.532386
    18  H    0.969102   5.349958   4.537351   2.289072   6.310887
                   16         17         18
    16  H    0.000000
    17  H    2.172588   0.000000
    18  H    5.688243   4.353973   0.000000
 Stoichiometry    C7H7O4(1+)
 Framework group  C1[X(C7H7O4)]
 Deg. of freedom    48
 Full point group                 C1      NOp   1
 Largest Abelian subgroup         C1      NOp   1
 Largest concise Abelian subgroup C1      NOp   1
                         Standard orientation:                         
 ---------------------------------------------------------------------
 Center     Atomic      Atomic             Coordinates (Angstroms)
 Number     Number       Type             X           Y           Z
 ---------------------------------------------------------------------
      1          6           0        0.217152    1.276951   -0.000006
      2          6           0        0.425946   -0.138593   -0.000000
      3          6           0       -0.696277   -1.015752    0.000011
      4          6           0       -1.984248   -0.515535    0.000018
      5          6           0       -2.177013    0.884379    0.000013
      6          6           0       -1.099306    1.756757    0.000001
      7          8           0       -3.002895   -1.408985    0.000033
      8          6           0        1.725149   -0.717682   -0.000014
      9          8           0        1.812785   -2.029068   -0.000089
     10          8           0        2.792671    0.035215    0.000062
     11          8           0        1.279123    2.099057   -0.000023
     12          1           0       -0.553682   -2.088843    0.000018
     13          1           0       -3.185361    1.290339    0.000020
     14          1           0       -1.274566    2.828638   -0.000004
     15          1           0       -3.869146   -0.979044    0.000028
     16          1           0        2.711538   -2.397651   -0.000006
     17          1           0        3.643577   -0.435142   -0.000021
     18          1           0        1.005738    3.028799   -0.000033
 ---------------------------------------------------------------------
 Rotational constants (GHZ):      1.7659755      0.9026590      0.5973368
 Standard basis: 6-31+G(d,p) (6D, 7F)
 There are   244 symmetry adapted cartesian basis functions of A   symmetry.
 There are   244 symmetry adapted basis functions of A   symmetry.
   244 basis functions,   401 primitive gaussians,   244 cartesian basis functions
    40 alpha electrons       40 beta electrons
       nuclear repulsion energy       605.5726573611 Hartrees.
 NAtoms=   18 NActive=   18 NUniq=   18 SFac= 1.00D+00 NAtFMM=   60 NAOKFM=F Big=F
 Integral buffers will be    131072 words long.
 Raffenetti 2 integral format.
 Two-electron integral symmetry is turned on.
 Nuclear repulsion after empirical dispersion term =      605.5635017733 Hartrees.
 One-electron integrals computed using PRISM.
 NBasis=   244 RedAO= T EigKep=  3.29D-06  NBF=   244
 NBsUse=   244 1.00D-06 EigRej= -1.00D+00 NBFU=   244
 ExpMin= 4.38D-02 ExpMax= 5.48D+03 ExpMxC= 8.25D+02 IAcc=2 IRadAn=         4 AccDes= 0.00D+00
 Harris functional with IExCor=20419 and IRadAn=       4 diagonalized for initial guess.
 HarFok:  IExCor=20419 AccDes= 0.00D+00 IRadAn=         4 IDoV= 1 UseB2=F ITyADJ=14
 ICtDFT=  3500011 ScaDFX=  1.000000  1.000000  1.000000  1.000000
 FoFCou: FMM=F IPFlag=           0 FMFlag=      100000 FMFlg1=           0
         NFxFlg=           0 DoJE=T BraDBF=F KetDBF=T FulRan=T
         wScrn=  0.000000 ICntrl=     500 IOpCl=  0 I1Cent=   200000004 NGrid=           0
         NMat0=    1 NMatS0=      1 NMatT0=    0 NMatD0=    1 NMtDS0=    0 NMtDT0=    0
 Petite list used in FoFCou.
 Keep R1 ints in memory in canonical form, NReq=900998300.
 Requested convergence on RMS density matrix=1.00D-08 within 128 cycles.
 Requested convergence on MAX density matrix=1.00D-06.
 Requested convergence on             energy=1.00D-06.
 No special actions if energy rises.
 SCF Done:  E(RCAM-B3LYP) =  -571.387245899     A.U. after   16 cycles
            NFock= 16  Conv=0.45D-08     -V/T= 2.0091

 **********************************************************************

            Population analysis using the SCF density.

 **********************************************************************

 Orbital symmetries:
       Occupied  (A) (A) (A) (A) (A) (A) (A) (A) (A) (A) (A) (A)
                 (A) (A) (A) (A) (A) (A) (A) (A) (A) (A) (A) (A)
                 (A) (A) (A) (A) (A) (A) (A) (A) (A) (A) (A) (A)
                 (A) (A) (A) (A)
       Virtual   (A) (A) (A) (A) (A) (A) (A) (A) (A) (A) (A) (A)
                 (A) (A) (A) (A) (A) (A) (A) (A) (A) (A) (A) (A)
                 (A) (A) (A) (A) (A) (A) (A) (A) (A) (A) (A) (A)
                 (A) (A) (A) (A) (A) (A) (A) (A) (A) (A) (A) (A)
                 (A) (A) (A) (A) (A) (A) (A) (A) (A) (A) (A) (A)
                 (A) (A) (A) (A) (A) (A) (A) (A) (A) (A) (A) (A)
                 (A) (A) (A) (A) (A) (A) (A) (A) (A) (A) (A) (A)
                 (A) (A) (A) (A) (A) (A) (A) (A) (A) (A) (A) (A)
                 (A) (A) (A) (A) (A) (A) (A) (A) (A) (A) (A) (A)
                 (A) (A) (A) (A) (A) (A) (A) (A) (A) (A) (A) (A)
                 (A) (A) (A) (A) (A) (A) (A) (A) (A) (A) (A) (A)
                 (A) (A) (A) (A) (A) (A) (A) (A) (A) (A) (A) (A)
                 (A) (A) (A) (A) (A) (A) (A) (A) (A) (A) (A) (A)
                 (A) (A) (A) (A) (A) (A) (A) (A) (A) (A) (A) (A)
                 (A) (A) (A) (A) (A) (A) (A) (A) (A) (A) (A) (A)
                 (A) (A) (A) (A) (A) (A) (A) (A) (A) (A) (A) (A)
                 (A) (A) (A) (A) (A) (A) (A) (A) (A) (A) (A) (A)
 The electronic state is 1-A.
 Alpha  occ. eigenvalues --  -19.50086 -19.50084 -19.43005 -19.39670 -10.64157
 Alpha  occ. eigenvalues --  -10.51922 -10.48524 -10.46417 -10.44774 -10.43717
 Alpha  occ. eigenvalues --  -10.43531  -1.43786  -1.35667  -1.32250  -1.28770
 Alpha  occ. eigenvalues --   -1.11574  -1.04973  -0.98943  -0.95765  -0.91336
 Alpha  occ. eigenvalues --   -0.87392  -0.85800  -0.80637  -0.78368  -0.75224
 Alpha  occ. eigenvalues --   -0.75052  -0.73469  -0.70017  -0.66810  -0.65736
 Alpha  occ. eigenvalues --   -0.65320  -0.64806  -0.63387  -0.63276  -0.61956
 Alpha  occ. eigenvalues --   -0.58569  -0.56750  -0.54027  -0.49166  -0.42316
 Alpha virt. eigenvalues --   -0.21581  -0.14771  -0.11039  -0.09323  -0.08429
 Alpha virt. eigenvalues --   -0.07779  -0.07451  -0.06613  -0.05459  -0.05054
 Alpha virt. eigenvalues --   -0.03238  -0.02171  -0.01515  -0.00753  -0.00166
 Alpha virt. eigenvalues --    0.00704   0.02553   0.03512   0.04300   0.04307
 Alpha virt. eigenvalues --    0.04657   0.05037   0.05832   0.06612   0.07010
 Alpha virt. eigenvalues --    0.07484   0.07986   0.08716   0.09655   0.09825
 Alpha virt. eigenvalues --    0.10210   0.11188   0.11898   0.12132   0.12264
 Alpha virt. eigenvalues --    0.12953   0.13675   0.14840   0.15786   0.16126
 Alpha virt. eigenvalues --    0.16708   0.16877   0.17538   0.18191   0.18845
 Alpha virt. eigenvalues --    0.19840   0.21102   0.21459   0.21587   0.22505
 Alpha virt. eigenvalues --    0.23218   0.23924   0.24911   0.26541   0.27694
 Alpha virt. eigenvalues --    0.27852   0.30956   0.31298   0.32194   0.33393
 Alpha virt. eigenvalues --    0.34247   0.37135   0.38750   0.40450   0.50700
 Alpha virt. eigenvalues --    0.51731   0.55384   0.56596   0.58428   0.59879
 Alpha virt. eigenvalues --    0.61859   0.63081   0.63816   0.64892   0.65859
 Alpha virt. eigenvalues --    0.67701   0.69303   0.74047   0.74148   0.77081
 Alpha virt. eigenvalues --    0.78435   0.84318   0.84960   0.88392   0.89509
 Alpha virt. eigenvalues --    0.91509   0.94376   0.95891   0.97862   0.99038
 Alpha virt. eigenvalues --    1.00486   1.01637   1.03924   1.06308   1.07298
 Alpha virt. eigenvalues --    1.07962   1.10682   1.10851   1.11903   1.12945
 Alpha virt. eigenvalues --    1.13614   1.15302   1.15755   1.17402   1.17809
 Alpha virt. eigenvalues --    1.18532   1.20195   1.22625   1.23062   1.24395
 Alpha virt. eigenvalues --    1.27121   1.28307   1.29627   1.30342   1.32371
 Alpha virt. eigenvalues --    1.33046   1.37097   1.41511   1.42399   1.45778
 Alpha virt. eigenvalues --    1.49277   1.50585   1.50800   1.53719   1.54642
 Alpha virt. eigenvalues --    1.60241   1.62415   1.66647   1.67027   1.68127
 Alpha virt. eigenvalues --    1.76967   1.78909   1.81747   1.82033   1.83088
 Alpha virt. eigenvalues --    1.84709   1.86077   1.86503   1.88790   1.93424
 Alpha virt. eigenvalues --    1.93687   1.94430   1.97062   2.04989   2.12000
 Alpha virt. eigenvalues --    2.12086   2.15097   2.17500   2.19439   2.22889
 Alpha virt. eigenvalues --    2.25762   2.28006   2.28156   2.31019   2.32039
 Alpha virt. eigenvalues --    2.32746   2.36516   2.38102   2.39904   2.41691
 Alpha virt. eigenvalues --    2.42718   2.45710   2.48583   2.48861   2.50995
 Alpha virt. eigenvalues --    2.52680   2.53648   2.55068   2.57919   2.59990
 Alpha virt. eigenvalues --    2.63607   2.64345   2.65892   2.66519   2.69903
 Alpha virt. eigenvalues --    2.71932   2.79257   2.84943   2.87632   2.95158
 Alpha virt. eigenvalues --    2.97805   3.02015   3.07867   3.11541   3.16298
 Alpha virt. eigenvalues --    3.24197   3.30358   3.38596   3.40168   3.44753
 Alpha virt. eigenvalues --    3.47355   3.48961   3.71625   4.13160   4.17021
 Alpha virt. eigenvalues --    4.21063   4.23293   4.25146   4.37098   4.41370
 Alpha virt. eigenvalues --    4.47781   4.52406   4.72454   4.87072
          Condensed to atoms (all electrons):
               1          2          3          4          5          6
     1  C   17.657496  -4.151018  -4.285743   0.514740   0.882059  -3.065157
     2  C   -4.151018  11.057417  -1.671978   0.829978  -0.683401   0.386340
     3  C   -4.285743  -1.671978  13.968491  -2.813525  -0.366587   0.353859
     4  C    0.514740   0.829978  -2.813525   8.261400  -0.254254   0.311489
     5  C    0.882059  -0.683401  -0.366587  -0.254254   5.939853  -0.052067
     6  C   -3.065157   0.386340   0.353859   0.311489  -0.052067   7.753032
     7  O   -0.026006   0.052834   0.053659  -0.022553  -0.120864   0.042500
     8  C   -0.967955  -0.106903   0.694101  -0.717882   0.042452  -0.228436
     9  O   -0.092474   0.117939  -0.023503   0.030363  -0.006893   0.022221
    10  O   -0.049860   0.074362  -0.114321   0.011272   0.012098   0.071687
    11  O    0.157510  -0.214750   0.076141  -0.001433   0.034635   0.085782
    12  H    0.017162   0.009728   0.180932   0.088017   0.023844  -0.000181
    13  H    0.020418   0.002639  -0.022461   0.005018   0.273541   0.047254
    14  H   -0.008283  -0.011724  -0.014460   0.011131   0.085179   0.262384
    15  H    0.002321  -0.009688   0.067667  -0.062090  -0.000293   0.000364
    16  H   -0.007496  -0.026108   0.024342   0.000099   0.000407   0.003891
    17  H    0.000057  -0.003051   0.003430   0.005092  -0.000337  -0.008546
    18  H   -0.030027   0.098881  -0.006063   0.003572  -0.001781  -0.081278
               7          8          9         10         11         12
     1  C   -0.026006  -0.967955  -0.092474  -0.049860   0.157510   0.017162
     2  C    0.052834  -0.106903   0.117939   0.074362  -0.214750   0.009728
     3  C    0.053659   0.694101  -0.023503  -0.114321   0.076141   0.180932
     4  C   -0.022553  -0.717882   0.030363   0.011272  -0.001433   0.088017
     5  C   -0.120864   0.042452  -0.006893   0.012098   0.034635   0.023844
     6  C    0.042500  -0.228436   0.022221   0.071687   0.085782  -0.000181
     7  O    8.341164  -0.005831   0.000029   0.000105   0.000240  -0.006624
     8  C   -0.005831   6.174641   0.075047   0.124601  -0.171690   0.000734
     9  O    0.000029   0.075047   8.193732  -0.112745   0.001737   0.000756
    10  O    0.000105   0.124601  -0.112745   8.213761  -0.020121   0.000552
    11  O    0.000240  -0.171690   0.001737  -0.020121   8.358359  -0.000256
    12  H   -0.006624   0.000734   0.000756   0.000552  -0.000256   0.490382
    13  H   -0.010610   0.000656  -0.000002   0.000018  -0.000464  -0.000118
    14  H   -0.000488   0.006393  -0.000001   0.000013  -0.013412   0.000008
    15  H    0.226401   0.002635   0.000010   0.000001  -0.000007  -0.000014
    16  H    0.000008   0.031372   0.214707  -0.014914   0.000097   0.000360
    17  H    0.000001   0.030267  -0.015966   0.197014   0.004221   0.000009
    18  H   -0.000006   0.017517  -0.000015   0.000777   0.212376   0.000003
              13         14         15         16         17         18
     1  C    0.020418  -0.008283   0.002321  -0.007496   0.000057  -0.030027
     2  C    0.002639  -0.011724  -0.009688  -0.026108  -0.003051   0.098881
     3  C   -0.022461  -0.014460   0.067667   0.024342   0.003430  -0.006063
     4  C    0.005018   0.011131  -0.062090   0.000099   0.005092   0.003572
     5  C    0.273541   0.085179  -0.000293   0.000407  -0.000337  -0.001781
     6  C    0.047254   0.262384   0.000364   0.003891  -0.008546  -0.081278
     7  O   -0.010610  -0.000488   0.226401   0.000008   0.000001  -0.000006
     8  C    0.000656   0.006393   0.002635   0.031372   0.030267   0.017517
     9  O   -0.000002  -0.000001   0.000010   0.214707  -0.015966  -0.000015
    10  O    0.000018   0.000013   0.000001  -0.014914   0.197014   0.000777
    11  O   -0.000464  -0.013412  -0.000007   0.000097   0.004221   0.212376
    12  H   -0.000118   0.000008  -0.000014   0.000360   0.000009   0.000003
    13  H    0.514878  -0.004487   0.004555  -0.000000   0.000000  -0.000015
    14  H   -0.004487   0.517778  -0.000003  -0.000000  -0.000000   0.006602
    15  H    0.004555  -0.000003   0.384501   0.000000   0.000000   0.000000
    16  H   -0.000000  -0.000000   0.000000   0.354624   0.007336  -0.000000
    17  H    0.000000  -0.000000   0.000000   0.007336   0.352782   0.000000
    18  H   -0.000015   0.006602   0.000000  -0.000000   0.000000   0.359052
 Mulliken charges:
               1
     1  C   -0.567744
     2  C    0.248501
     3  C   -0.103982
     4  C   -0.200432
     5  C    0.192410
     6  C    0.094861
     7  O   -0.523960
     8  C    0.998282
     9  O   -0.404944
    10  O   -0.394298
    11  O   -0.508963
    12  H    0.194709
    13  H    0.169180
    14  H    0.163373
    15  H    0.383638
    16  H    0.411274
    17  H    0.427691
    18  H    0.420405
 Sum of Mulliken charges =   1.00000
 Mulliken charges with hydrogens summed into heavy atoms:
               1
     1  C   -0.567744
     2  C    0.248501
     3  C    0.090727
     4  C   -0.200432
     5  C    0.361590
     6  C    0.258234
     7  O   -0.140322
     8  C    0.998282
     9  O    0.006330
    10  O    0.033393
    11  O   -0.088558
 Electronic spatial extent (au):  <R**2>=           1739.0661
 Charge=              1.0000 electrons
 Dipole moment (field-independent basis, Debye):
    X=              4.0073    Y=              0.3544    Z=             -0.0000  Tot=              4.0229
 Quadrupole moment (field-independent basis, Debye-Ang):
   XX=            -14.1795   YY=            -40.9418   ZZ=            -63.9109
   XY=            -17.4733   XZ=             -0.0003   YZ=             -0.0004
 Traceless Quadrupole moment (field-independent basis, Debye-Ang):
   XX=             25.4979   YY=             -1.2644   ZZ=            -24.2335
   XY=            -17.4733   XZ=             -0.0003   YZ=             -0.0004
 Octapole moment (field-independent basis, Debye-Ang**2):
  XXX=             44.8781  YYY=             30.8959  ZZZ=             -0.0002  XYY=             34.8286
  XXY=            -39.4006  XXZ=             -0.0009  XZZ=              8.8871  YZZ=             -3.1879
  YYZ=              0.0002  XYZ=             -0.0007
 Hexadecapole moment (field-independent basis, Debye-Ang**3):
 XXXX=           -580.1913 YYYY=           -505.5852 ZZZZ=            -63.8257 XXXY=           -147.3807
 XXXZ=             -0.0025 YYYX=            -51.9303 YYYZ=             -0.0042 ZZZX=              0.0040
 ZZZY=             -0.0012 XXYY=           -264.6376 XXZZ=           -239.1146 YYZZ=           -138.7345
 XXYZ=             -0.0008 YYXZ=              0.0026 ZZXY=              0.8491
 N-N= 6.055635017733D+02 E-N=-2.532711434536D+03  KE= 5.662577359208D+02
 Calling FoFJK, ICntrl=      2127 FMM=F ISym2X=0 I1Cent= 0 IOpClX= 0 NMat=1 NMatS=1 NMatT=0.
 ***** Axes restored to original set *****
 -------------------------------------------------------------------
 Center     Atomic                   Forces (Hartrees/Bohr)
 Number     Number              X              Y              Z
 -------------------------------------------------------------------
      1        6           0.001003134   -0.003165846    0.000000056
      2        6          -0.001880266    0.003466096   -0.000000605
      3        6          -0.002648242    0.005065498   -0.000000086
      4        6           0.003413635    0.000448821    0.000000007
      5        6           0.005300233   -0.002353333    0.000000015
      6        6           0.000255169   -0.004429528   -0.000000051
      7        8           0.001436379    0.003800286   -0.000000130
      8        6           0.003257459   -0.000855000    0.000001992
      9        8           0.000827231    0.009077056    0.000000229
     10        8          -0.006942908   -0.006524155   -0.000001373
     11        8          -0.004912667   -0.002371683   -0.000000005
     12        1          -0.000031731    0.000108313   -0.000000022
     13        1           0.000430772   -0.000174770   -0.000000012
     14        1           0.000105326   -0.000520822    0.000000025
     15        1           0.001359496   -0.000958198    0.000000071
     16        1          -0.000876224    0.000078060   -0.000000258
     17        1          -0.000630463    0.000649684    0.000000131
     18        1           0.000533667   -0.001340477    0.000000015
 -------------------------------------------------------------------
 Cartesian Forces:  Max     0.009077056 RMS     0.002592105

 GradGradGradGradGradGradGradGradGradGradGradGradGradGradGradGradGradGrad
 Berny optimization.
 FormGI is forming the generalized inverse of G from B-inverse, IUseBI=4.
 Internal  Forces:  Max     0.009580821 RMS     0.002559894
 Search for a local minimum.
 Step number   1 out of a maximum of   89
 All quantities printed in internal units (Hartrees-Bohrs-Radians)
 Mixed Optimization -- RFO/linear search
 Second derivative matrix not updated -- first step.
 ITU=  0
     Eigenvalues ---    0.01733   0.01792   0.01805   0.01963   0.02018
     Eigenvalues ---    0.02055   0.02102   0.02134   0.02172   0.02205
     Eigenvalues ---    0.02288   0.02347   0.02446   0.02825   0.02931
     Eigenvalues ---    0.16000   0.16000   0.16000   0.16000   0.16000
     Eigenvalues ---    0.16000   0.16000   0.22358   0.23489   0.24598
     Eigenvalues ---    0.25000   0.25000   0.25000   0.25000   0.25000
     Eigenvalues ---    0.35162   0.35266   0.35691   0.38943   0.40337
     Eigenvalues ---    0.42098   0.42620   0.44067   0.46866   0.48096
     Eigenvalues ---    0.52919   0.53093   0.53561   0.53978   0.53981
     Eigenvalues ---    0.56539   0.63370   0.65470
 RFO step:  Lambda=-1.03247348D-03 EMin= 1.73307888D-02
 Linear search not attempted -- first point.
 Iteration  1 RMS(Cart)=  0.01177616 RMS(Int)=  0.00000842
 Iteration  2 RMS(Cart)=  0.00001574 RMS(Int)=  0.00000117
 Iteration  3 RMS(Cart)=  0.00000000 RMS(Int)=  0.00000117
 Variable       Old X    -DE/DX   Delta X   Delta X   Delta X     New X
                                 (Linear)    (Quad)   (Total)
    R1        2.70393  -0.00877   0.00000  -0.02137  -0.02137   2.68256
    R2        2.64783  -0.00550   0.00000  -0.01202  -0.01202   2.63581
    R3        2.53790  -0.00573   0.00000  -0.01012  -0.01012   2.52778
    R4        2.69164  -0.00513   0.00000  -0.01228  -0.01228   2.67937
    R5        2.68798  -0.00497   0.00000  -0.01179  -0.01179   2.67619
    R6        2.61103  -0.00749   0.00000  -0.01536  -0.01536   2.59567
    R7        2.04567  -0.00011   0.00000  -0.00031  -0.00031   2.04536
    R8        2.67042  -0.00583   0.00000  -0.01339  -0.01339   2.65703
    R9        2.56049  -0.00398   0.00000  -0.00736  -0.00736   2.55313
   R10        2.62018  -0.00582   0.00000  -0.01209  -0.01209   2.60809
   R11        2.05413  -0.00046   0.00000  -0.00132  -0.00132   2.05281
   R12        2.05246  -0.00053   0.00000  -0.00150  -0.00150   2.05096
   R13        1.82751  -0.00164   0.00000  -0.00303  -0.00303   1.82448
   R14        2.48369  -0.00913   0.00000  -0.01439  -0.01439   2.46930
   R15        2.46858  -0.00958   0.00000  -0.01461  -0.01461   2.45397
   R16        1.83567  -0.00084   0.00000  -0.00158  -0.00158   1.83409
   R17        1.83729  -0.00086   0.00000  -0.00163  -0.00163   1.83566
   R18        1.83134  -0.00144   0.00000  -0.00268  -0.00268   1.82866
    A1        2.06675   0.00000   0.00000   0.00024   0.00024   2.06699
    A2        2.08312  -0.00046   0.00000  -0.00195  -0.00195   2.08117
    A3        2.13332   0.00046   0.00000   0.00170   0.00170   2.13502
    A4        2.08779   0.00090   0.00000   0.00367   0.00368   2.09147
    A5        2.13654  -0.00115   0.00000  -0.00462  -0.00462   2.13192
    A6        2.05886   0.00025   0.00000   0.00094   0.00094   2.05980
    A7        2.10771  -0.00056   0.00000  -0.00263  -0.00262   2.10509
    A8        2.10212   0.00030   0.00000   0.00144   0.00144   2.10356
    A9        2.07335   0.00026   0.00000   0.00118   0.00118   2.07453
   A10        2.07808   0.00003   0.00000   0.00004   0.00004   2.07812
   A11        2.05113   0.00015   0.00000   0.00061   0.00061   2.05174
   A12        2.15397  -0.00017   0.00000  -0.00065  -0.00065   2.15332
   A13        2.11445   0.00028   0.00000   0.00134   0.00134   2.11579
   A14        2.09038  -0.00013   0.00000  -0.00065  -0.00065   2.08973
   A15        2.07836  -0.00014   0.00000  -0.00069  -0.00069   2.07767
   A16        2.11160  -0.00065   0.00000  -0.00267  -0.00268   2.10892
   A17        2.08237   0.00030   0.00000   0.00118   0.00119   2.08356
   A18        2.08922   0.00035   0.00000   0.00149   0.00149   2.09071
   A19        1.96088   0.00046   0.00000   0.00284   0.00284   1.96371
   A20        2.05682   0.00039   0.00000   0.00154   0.00154   2.05836
   A21        2.10804   0.00012   0.00000   0.00046   0.00046   2.10850
   A22        2.11833  -0.00050   0.00000  -0.00200  -0.00200   2.11632
   A23        2.02671   0.00049   0.00000   0.00302   0.00302   2.02974
   A24        2.02237   0.00048   0.00000   0.00295   0.00295   2.02532
   A25        1.94358   0.00025   0.00000   0.00156   0.00156   1.94514
    D1        0.00000   0.00000   0.00000   0.00000   0.00000   0.00000
    D2        3.14159   0.00000   0.00000   0.00000   0.00000   3.14159
    D3       -3.14159   0.00000   0.00000   0.00000   0.00000  -3.14158
    D4       -0.00000   0.00000   0.00000   0.00000   0.00000  -0.00000
    D5       -0.00000   0.00000   0.00000   0.00000   0.00000  -0.00000
    D6       -3.14159  -0.00000   0.00000  -0.00000  -0.00000   3.14159
    D7        3.14159  -0.00000   0.00000  -0.00000  -0.00000   3.14159
    D8       -0.00000  -0.00000   0.00000  -0.00000  -0.00000  -0.00001
    D9        3.14158  -0.00000   0.00000  -0.00000  -0.00000   3.14158
   D10       -0.00000   0.00000   0.00000   0.00000   0.00000  -0.00000
   D11       -0.00000  -0.00000   0.00000  -0.00000  -0.00000  -0.00000
   D12       -3.14159  -0.00000   0.00000  -0.00000  -0.00000  -3.14159
   D13       -3.14159  -0.00000   0.00000  -0.00000  -0.00000  -3.14159
   D14        0.00001  -0.00000   0.00000  -0.00000  -0.00000   0.00001
   D15       -3.14152   0.00000   0.00000   0.00001   0.00001  -3.14151
   D16        0.00008  -0.00000   0.00000  -0.00002  -0.00002   0.00007
   D17        0.00006   0.00000   0.00000   0.00001   0.00001   0.00008
   D18       -3.14152  -0.00000   0.00000  -0.00002  -0.00002  -3.14153
   D19        0.00000   0.00000   0.00000   0.00000   0.00000   0.00000
   D20       -3.14159   0.00000   0.00000   0.00000   0.00000  -3.14159
   D21        3.14159   0.00000   0.00000  -0.00000  -0.00000   3.14159
   D22       -0.00000   0.00000   0.00000   0.00000   0.00000  -0.00000
   D23        0.00000   0.00000   0.00000   0.00000   0.00000   0.00000
   D24       -3.14159  -0.00000   0.00000  -0.00000  -0.00000  -3.14159
   D25        3.14159   0.00000   0.00000   0.00000   0.00000   3.14159
   D26       -0.00000  -0.00000   0.00000  -0.00000  -0.00000  -0.00000
   D27       -3.14158  -0.00000   0.00000  -0.00000  -0.00000  -3.14158
   D28        0.00001  -0.00000   0.00000  -0.00000  -0.00000   0.00001
   D29       -0.00000  -0.00000   0.00000  -0.00000  -0.00000  -0.00000
   D30        3.14159  -0.00000   0.00000  -0.00000  -0.00000   3.14159
   D31        3.14159  -0.00000   0.00000  -0.00000  -0.00000   3.14159
   D32       -0.00000   0.00000   0.00000   0.00000   0.00000  -0.00000
   D33       -3.14149  -0.00000   0.00000  -0.00002  -0.00002  -3.14151
   D34        0.00009   0.00000   0.00000   0.00001   0.00001   0.00010
   D35       -3.14152   0.00000   0.00000   0.00001   0.00001  -3.14150
   D36        0.00009  -0.00000   0.00000  -0.00002  -0.00002   0.00008
         Item               Value     Threshold  Converged?
 Maximum Force            0.009581     0.000450     NO 
 RMS     Force            0.002560     0.000300     NO 
 Maximum Displacement     0.034619     0.001800     NO 
 RMS     Displacement     0.011776     0.001200     NO 
 Predicted change in Energy=-5.173528D-04
 GradGradGradGradGradGradGradGradGradGradGradGradGradGradGradGradGradGrad

                          Input orientation:                          
 ---------------------------------------------------------------------
 Center     Atomic      Atomic             Coordinates (Angstroms)
 Number     Number       Type             X           Y           Z
 ---------------------------------------------------------------------
      1          6           0        0.215809    1.267244   -0.000003
      2          6           0        0.419699   -0.137588    0.000007
      3          6           0       -0.696215   -1.012267    0.000015
      4          6           0       -1.975981   -0.513379    0.000018
      5          6           0       -2.166079    0.879749    0.000011
      6          6           0       -1.093445    1.748227   -0.000000
      7          8           0       -2.993368   -1.402357    0.000031
      8          6           0        1.714529   -0.711158   -0.000001
      9          8           0        1.806671   -2.014603   -0.000088
     10          8           0        2.774351    0.039237    0.000060
     11          8           0        1.277028    2.081554   -0.000019
     12          1           0       -0.553725   -2.085204    0.000023
     13          1           0       -3.173547    1.286027    0.000015
     14          1           0       -1.267104    2.819565   -0.000007
     15          1           0       -3.858594   -0.973961    0.000025
     16          1           0        2.704952   -2.382130   -0.000017
     17          1           0        3.626745   -0.426623   -0.000030
     18          1           0        1.009457    3.011509   -0.000032
 ---------------------------------------------------------------------
                    Distance matrix (angstroms):
                    1          2          3          4          5
     1  C    0.000000
     2  C    1.419551   0.000000
     3  C    2.455190   1.417860   0.000000
     4  C    2.823927   2.424974   1.373567   0.000000
     5  C    2.413202   2.778709   2.395877   1.406039   0.000000
     6  C    1.394809   2.417830   2.788928   2.427701   1.380144
     7  O    4.174397   3.639872   2.330039   1.351058   2.427430
     8  C    2.481982   1.416180   2.429476   3.695805   4.194056
     9  O    3.647103   2.333855   2.696131   4.069660   4.915285
    10  O    2.837981   2.361282   3.626361   4.782367   5.011418
    11  O    1.337642   2.378993   3.669526   4.161219   3.646823
    12  H    3.439635   2.177329   1.082357   2.119774   3.375001
    13  H    3.389408   3.864983   3.379250   2.161488   1.086303
    14  H    2.146796   3.404418   3.874126   3.407495   2.137999
    15  H    4.650136   4.359278   3.162610   1.938135   2.510149
    16  H    4.417438   3.203178   3.666669   5.040174   5.862320
    17  H    3.808368   3.220045   4.362450   5.603397   5.938301
    18  H    1.916335   3.203846   4.370365   4.619272   3.824713
                    6          7          8          9         10
     6  C    0.000000
     7  O    3.679115   0.000000
     8  C    3.732733   4.758366   0.000000
     9  O    4.750744   4.838928   1.306698   0.000000
    10  O    4.228534   5.945147   1.298583   2.270388   0.000000
    11  O    2.393794   5.511254   2.826774   4.130258   2.532397
    12  H    3.871239   2.533404   2.651976   2.361452   3.948334
    13  H    2.130834   2.694415   5.280344   5.974675   6.077169
    14  H    1.085322   4.561208   4.621270   5.728637   4.905465
    15  H    3.880252   0.965473   5.579315   5.760049   6.709883
    16  H    5.611387   5.781938   1.942443   0.970558   2.422361
    17  H    5.197131   6.691633   1.933270   2.415440   0.971391
    18  H    2.453178   5.958593   3.788849   5.088945   3.456769
                   11         12         13         14         15
    11  O    0.000000
    12  H    4.551212   0.000000
    13  H    4.521115   4.269504   0.000000
    14  H    2.649012   4.956377   2.446684   0.000000
    15  H    5.975850   3.486691   2.361533   4.594199   0.000000
    16  H    4.686517   3.272177   6.929078   6.544834   6.712903
    17  H    3.436877   4.497469   7.012642   5.872605   7.505323
    18  H    0.967683   5.331044   4.524910   2.284638   6.291414
                   16         17         18
    16  H    0.000000
    17  H    2.161877   0.000000
    18  H    5.653852   4.320989   0.000000
 Stoichiometry    C7H7O4(1+)
 Framework group  C1[X(C7H7O4)]
 Deg. of freedom    48
 Full point group                 C1      NOp   1
 Largest Abelian subgroup         C1      NOp   1
 Largest concise Abelian subgroup C1      NOp   1
                         Standard orientation:                         
 ---------------------------------------------------------------------
 Center     Atomic      Atomic             Coordinates (Angstroms)
 Number     Number       Type             X           Y           Z
 ---------------------------------------------------------------------
      1          6           0        0.219464    1.266735   -0.000004
      2          6           0        0.420457   -0.138514    0.000006
      3          6           0       -0.697258   -1.010891    0.000013
      4          6           0       -1.975992   -0.509366    0.000016
      5          6           0       -2.163218    0.884152    0.000009
      6          6           0       -1.088796    1.750416   -0.000002
      7          8           0       -2.995210   -1.396245    0.000030
      8          6           0        1.714102   -0.714753   -0.000003
      9          8           0        1.803557   -2.018385   -0.000089
     10          8           0        2.775469    0.033456    0.000058
     11          8           0        1.282359    2.078856   -0.000021
     12          1           0       -0.556980   -2.084119    0.000022
     13          1           0       -3.169847    1.292506    0.000013
     14          1           0       -1.260246    2.822110   -0.000009
     15          1           0       -3.859551   -0.966066    0.000024
     16          1           0        2.701078   -2.387762   -0.000019
     17          1           0        3.626901   -0.434160   -0.000032
     18          1           0        1.016706    3.009361   -0.000034
 ---------------------------------------------------------------------
 Rotational constants (GHZ):      1.7890026      0.9106413      0.6034646
 Standard basis: 6-31+G(d,p) (6D, 7F)
 There are   244 symmetry adapted cartesian basis functions of A   symmetry.
 There are   244 symmetry adapted basis functions of A   symmetry.
   244 basis functions,   401 primitive gaussians,   244 cartesian basis functions
    40 alpha electrons       40 beta electrons
       nuclear repulsion energy       608.6047898319 Hartrees.
 NAtoms=   18 NActive=   18 NUniq=   18 SFac= 1.00D+00 NAtFMM=   60 NAOKFM=F Big=F
 Integral buffers will be    131072 words long.
 Raffenetti 2 integral format.
 Two-electron integral symmetry is turned on.
 Nuclear repulsion after empirical dispersion term =      608.5956518480 Hartrees.
 One-electron integrals computed using PRISM.
 NBasis=   244 RedAO= T EigKep=  3.14D-06  NBF=   244
 NBsUse=   244 1.00D-06 EigRej= -1.00D+00 NBFU=   244
 Initial guess from the checkpoint file:  "camB3lypD3DHByanggd3.chk"
 B after Tr=     0.000000    0.000000   -0.000000
         Rot=    0.999999    0.000000    0.000000    0.001022 Ang=   0.12 deg.
 ExpMin= 4.38D-02 ExpMax= 5.48D+03 ExpMxC= 8.25D+02 IAcc=2 IRadAn=         4 AccDes= 0.00D+00
 Harris functional with IExCor=20419 and IRadAn=       4 diagonalized for initial guess.
 HarFok:  IExCor=20419 AccDes= 0.00D+00 IRadAn=         4 IDoV= 1 UseB2=F ITyADJ=14
 ICtDFT=  3500011 ScaDFX=  1.000000  1.000000  1.000000  1.000000
 FoFCou: FMM=F IPFlag=           0 FMFlag=      100000 FMFlg1=           0
         NFxFlg=           0 DoJE=T BraDBF=F KetDBF=T FulRan=T
         wScrn=  0.000000 ICntrl=     500 IOpCl=  0 I1Cent=   200000004 NGrid=           0
         NMat0=    1 NMatS0=      1 NMatT0=    0 NMatD0=    1 NMtDS0=    0 NMtDT0=    0
 Petite list used in FoFCou.
 Keep R1 ints in memory in canonical form, NReq=900998300.
 Requested convergence on RMS density matrix=1.00D-08 within 128 cycles.
 Requested convergence on MAX density matrix=1.00D-06.
 Requested convergence on             energy=1.00D-06.
 No special actions if energy rises.
 SCF Done:  E(RCAM-B3LYP) =  -571.387706121     A.U. after   13 cycles
            NFock= 13  Conv=0.61D-08     -V/T= 2.0087
 Calling FoFJK, ICntrl=      2127 FMM=F ISym2X=0 I1Cent= 0 IOpClX= 0 NMat=1 NMatS=1 NMatT=0.
 ***** Axes restored to original set *****
 -------------------------------------------------------------------
 Center     Atomic                   Forces (Hartrees/Bohr)
 Number     Number              X              Y              Z
 -------------------------------------------------------------------
      1        6           0.001379073   -0.000264298    0.000000137
      2        6          -0.001122591    0.000525972    0.000000555
      3        6           0.000262984   -0.000522966    0.000000193
      4        6          -0.000599610   -0.000977821    0.000000019
      5        6          -0.000183338    0.000509490   -0.000000040
      6        6          -0.000924190    0.000793893   -0.000000064
      7        8          -0.000480096    0.000444391   -0.000000094
      8        6           0.002216763   -0.000950894   -0.000002296
      9        8           0.000490380    0.000963243    0.000000870
     10        8          -0.000183316   -0.001483705    0.000000402
     11        8          -0.000794868    0.001127634    0.000000021
     12        1          -0.000027018   -0.000006511    0.000000013
     13        1          -0.000146252    0.000003910    0.000000015
     14        1          -0.000029234    0.000089652   -0.000000002
     15        1           0.000018570   -0.000286844    0.000000042
     16        1          -0.000294658   -0.000379408   -0.000000042
     17        1           0.000121802    0.000429159    0.000000260
     18        1           0.000295599   -0.000014896    0.000000010
 -------------------------------------------------------------------
 Cartesian Forces:  Max     0.002216763 RMS     0.000595172

 GradGradGradGradGradGradGradGradGradGradGradGradGradGradGradGradGradGrad
 Berny optimization.
 Using GEDIIS/GDIIS optimizer.
 FormGI is forming the generalized inverse of G from B-inverse, IUseBI=4.
 Internal  Forces:  Max     0.002725243 RMS     0.000574385
 Search for a local minimum.
 Step number   2 out of a maximum of   89
 All quantities printed in internal units (Hartrees-Bohrs-Radians)
 Mixed Optimization -- En-DIIS/RFO-DIIS
 Update second derivatives using D2CorX and points    1    2
 DE= -4.60D-04 DEPred=-5.17D-04 R= 8.90D-01
 TightC=F SS=  1.41D+00  RLast= 4.64D-02 DXNew= 5.0454D-01 1.3933D-01
 Trust test= 8.90D-01 RLast= 4.64D-02 DXMaxT set to 3.00D-01
 ITU=  1  0
 Use linear search instead of GDIIS.
     Eigenvalues ---    0.01733   0.01792   0.01805   0.01963   0.02018
     Eigenvalues ---    0.02055   0.02102   0.02134   0.02172   0.02205
     Eigenvalues ---    0.02288   0.02346   0.02446   0.02825   0.02931
     Eigenvalues ---    0.15724   0.16000   0.16000   0.16000   0.16000
     Eigenvalues ---    0.16000   0.16002   0.22383   0.23534   0.24549
     Eigenvalues ---    0.24792   0.25000   0.25000   0.25000   0.25185
     Eigenvalues ---    0.35166   0.35269   0.35691   0.39426   0.40328
     Eigenvalues ---    0.41535   0.43386   0.46000   0.46767   0.52496
     Eigenvalues ---    0.52904   0.53064   0.53538   0.53930   0.54704
     Eigenvalues ---    0.57528   0.61263   0.64673
 RFO step:  Lambda=-5.46955177D-05 EMin= 1.73311071D-02
 Quartic linear search produced a step of -0.10203.
 Iteration  1 RMS(Cart)=  0.00653309 RMS(Int)=  0.00001454
 Iteration  2 RMS(Cart)=  0.00001908 RMS(Int)=  0.00000004
 Iteration  3 RMS(Cart)=  0.00000000 RMS(Int)=  0.00000004
 Variable       Old X    -DE/DX   Delta X   Delta X   Delta X     New X
                                 (Linear)    (Quad)   (Total)
    R1        2.68256   0.00159   0.00218   0.00021   0.00239   2.68495
    R2        2.63581   0.00143   0.00123   0.00097   0.00220   2.63800
    R3        2.52778   0.00028   0.00103  -0.00114  -0.00010   2.52767
    R4        2.67937   0.00106   0.00125   0.00038   0.00163   2.68100
    R5        2.67619   0.00273   0.00120   0.00396   0.00516   2.68135
    R6        2.59567   0.00096   0.00157  -0.00068   0.00089   2.59656
    R7        2.04536   0.00000   0.00003  -0.00004  -0.00001   2.04535
    R8        2.65703   0.00069   0.00137  -0.00075   0.00061   2.65764
    R9        2.55313   0.00024   0.00075  -0.00075  -0.00000   2.55313
   R10        2.60809   0.00036   0.00123  -0.00127  -0.00003   2.60806
   R11        2.05281   0.00014   0.00013   0.00014   0.00028   2.05309
   R12        2.05096   0.00009   0.00015   0.00000   0.00016   2.05112
   R13        1.82448  -0.00014   0.00031  -0.00071  -0.00040   1.82408
   R14        2.46930  -0.00056   0.00147  -0.00305  -0.00158   2.46772
   R15        2.45397  -0.00067   0.00149  -0.00320  -0.00171   2.45226
   R16        1.83409  -0.00013   0.00016  -0.00047  -0.00031   1.83378
   R17        1.83566  -0.00010   0.00017  -0.00042  -0.00025   1.83541
   R18        1.82866  -0.00010   0.00027  -0.00059  -0.00031   1.82834
    A1        2.06699  -0.00020  -0.00002  -0.00054  -0.00057   2.06642
    A2        2.08117   0.00133   0.00020   0.00441   0.00461   2.08578
    A3        2.13502  -0.00113  -0.00017  -0.00387  -0.00404   2.13098
    A4        2.09147  -0.00045  -0.00038  -0.00089  -0.00126   2.09021
    A5        2.13192   0.00148   0.00047   0.00453   0.00500   2.13691
    A6        2.05980  -0.00104  -0.00010  -0.00364  -0.00374   2.05607
    A7        2.10509   0.00044   0.00027   0.00132   0.00158   2.10667
    A8        2.10356  -0.00019  -0.00015  -0.00046  -0.00061   2.10295
    A9        2.07453  -0.00025  -0.00012  -0.00085  -0.00097   2.07356
   A10        2.07812  -0.00018  -0.00000  -0.00088  -0.00089   2.07723
   A11        2.05174   0.00042  -0.00006   0.00171   0.00165   2.05340
   A12        2.15332  -0.00024   0.00007  -0.00083  -0.00077   2.15255
   A13        2.11579   0.00016  -0.00014   0.00057   0.00043   2.11622
   A14        2.08973  -0.00013   0.00007  -0.00055  -0.00048   2.08925
   A15        2.07767  -0.00003   0.00007  -0.00002   0.00005   2.07772
   A16        2.10892   0.00023   0.00027   0.00042   0.00069   2.10961
   A17        2.08356  -0.00010  -0.00012  -0.00017  -0.00029   2.08326
   A18        2.09071  -0.00012  -0.00015  -0.00025  -0.00040   2.09031
   A19        1.96371   0.00045  -0.00029   0.00297   0.00268   1.96639
   A20        2.05836  -0.00061  -0.00016  -0.00194  -0.00210   2.05626
   A21        2.10850   0.00093  -0.00005   0.00341   0.00337   2.11187
   A22        2.11632  -0.00032   0.00020  -0.00147  -0.00127   2.11506
   A23        2.02974   0.00086  -0.00031   0.00530   0.00499   2.03472
   A24        2.02532   0.00079  -0.00030   0.00491   0.00461   2.02992
   A25        1.94514   0.00052  -0.00016   0.00316   0.00300   1.94814
    D1        0.00000  -0.00000  -0.00000  -0.00000  -0.00000  -0.00000
    D2        3.14159  -0.00000  -0.00000  -0.00000  -0.00000   3.14159
    D3       -3.14158  -0.00000  -0.00000  -0.00000  -0.00000  -3.14159
    D4       -0.00000  -0.00000  -0.00000  -0.00000  -0.00000  -0.00000
    D5       -0.00000   0.00000  -0.00000   0.00000   0.00000   0.00000
    D6        3.14159   0.00000   0.00000   0.00000   0.00000  -3.14159
    D7        3.14159   0.00000   0.00000   0.00000   0.00000   3.14159
    D8       -0.00001   0.00000   0.00000   0.00000   0.00000  -0.00000
    D9        3.14158   0.00000   0.00000   0.00000   0.00000   3.14158
   D10       -0.00000   0.00000  -0.00000   0.00000   0.00000  -0.00000
   D11       -0.00000   0.00000   0.00000   0.00000   0.00000  -0.00000
   D12       -3.14159   0.00000   0.00000   0.00000   0.00000  -3.14159
   D13       -3.14159   0.00000   0.00000   0.00000   0.00000  -3.14159
   D14        0.00001  -0.00000   0.00000  -0.00000  -0.00000   0.00001
   D15       -3.14151  -0.00000  -0.00000  -0.00002  -0.00002  -3.14153
   D16        0.00007   0.00000   0.00000   0.00001   0.00001   0.00008
   D17        0.00008  -0.00000  -0.00000  -0.00001  -0.00002   0.00006
   D18       -3.14153   0.00000   0.00000   0.00001   0.00002  -3.14152
   D19        0.00000  -0.00000  -0.00000  -0.00000  -0.00000   0.00000
   D20       -3.14159  -0.00000  -0.00000  -0.00000  -0.00000  -3.14159
   D21        3.14159   0.00000   0.00000   0.00000   0.00000   3.14159
   D22       -0.00000  -0.00000  -0.00000  -0.00000  -0.00000  -0.00000
   D23        0.00000  -0.00000  -0.00000  -0.00000  -0.00000   0.00000
   D24       -3.14159   0.00000   0.00000   0.00000   0.00000  -3.14159
   D25        3.14159   0.00000  -0.00000   0.00000   0.00000   3.14159
   D26       -0.00000   0.00000   0.00000   0.00000   0.00000  -0.00000
   D27       -3.14158  -0.00000   0.00000  -0.00000  -0.00000  -3.14159
   D28        0.00001  -0.00000   0.00000  -0.00000  -0.00000   0.00001
   D29       -0.00000   0.00000   0.00000   0.00000   0.00000  -0.00000
   D30        3.14159   0.00000   0.00000   0.00000   0.00000   3.14159
   D31        3.14159  -0.00000   0.00000  -0.00000  -0.00000   3.14159
   D32       -0.00000   0.00000  -0.00000   0.00000   0.00000  -0.00000
   D33       -3.14151   0.00000   0.00000   0.00001   0.00002  -3.14149
   D34        0.00010  -0.00000  -0.00000  -0.00001  -0.00002   0.00008
   D35       -3.14150  -0.00000  -0.00000  -0.00002  -0.00002  -3.14152
   D36        0.00008   0.00000   0.00000   0.00001   0.00001   0.00009
         Item               Value     Threshold  Converged?
 Maximum Force            0.002725     0.000450     NO 
 RMS     Force            0.000574     0.000300     NO 
 Maximum Displacement     0.021529     0.001800     NO 
 RMS     Displacement     0.006530     0.001200     NO 
 Predicted change in Energy=-3.348781D-05
 GradGradGradGradGradGradGradGradGradGradGradGradGradGradGradGradGradGrad

                          Input orientation:                          
 ---------------------------------------------------------------------
 Center     Atomic      Atomic             Coordinates (Angstroms)
 Number     Number       Type             X           Y           Z
 ---------------------------------------------------------------------
      1          6           0        0.215993    1.271813   -0.000006
      2          6           0        0.422696   -0.133886   -0.000001
      3          6           0       -0.693362   -1.009780    0.000010
      4          6           0       -1.974659   -0.513535    0.000018
      5          6           0       -2.166628    0.879665    0.000013
      6          6           0       -1.095523    1.750000    0.000001
      7          8           0       -2.991561   -1.403065    0.000032
      8          6           0        1.718219   -0.712613   -0.000015
      9          8           0        1.803494   -2.015686   -0.000085
     10          8           0        2.782150    0.030367    0.000058
     11          8           0        1.271871    2.092947   -0.000023
     12          1           0       -0.549562   -2.082535    0.000017
     13          1           0       -3.174960    1.284188    0.000020
     14          1           0       -1.271492    2.821045   -0.000004
     15          1           0       -3.857973   -0.977553    0.000030
     16          1           0        2.697823   -2.392306   -0.000006
     17          1           0        3.633547   -0.437032   -0.000018
     18          1           0        1.001113    3.021807   -0.000033
 ---------------------------------------------------------------------
                    Distance matrix (angstroms):
                    1          2          3          4          5
     1  C    0.000000
     2  C    1.420815   0.000000
     3  C    2.456134   1.418724   0.000000
     4  C    2.826026   2.427230   1.374038   0.000000
     5  C    2.414677   2.780627   2.395937   1.406363   0.000000
     6  C    1.395972   2.419508   2.788928   2.428265   1.380127
     7  O    4.176526   3.642522   2.331607   1.351056   2.427214
     8  C    2.488901   1.418910   2.429822   3.698241   4.198499
     9  O    3.650727   2.334046   2.691865   4.065821   4.913748
    10  O    2.850675   2.365164   3.627822   4.787804   5.021127
    11  O    1.337587   2.383250   3.672745   4.163377   3.646276
    12  H    3.440600   2.177733   1.082351   2.119591   3.374838
    13  H    3.390975   3.867048   3.379440   2.161603   1.086449
    14  H    2.147727   3.406154   3.874204   3.407912   2.137809
    15  H    4.653691   4.363015   3.164774   1.939634   2.511952
    16  H    4.425522   3.205724   3.662174   5.036057   5.862481
    17  H    3.820972   3.225129   4.364651   5.608728   5.947749
    18  H    1.918044   3.208264   4.373207   4.621024   3.824050
                    6          7          8          9         10
     6  C    0.000000
     7  O    3.679236   0.000000
     8  C    3.739199   4.760121   0.000000
     9  O    4.752335   4.834031   1.305860   0.000000
    10  O    4.241873   5.948989   1.297678   2.268061   0.000000
    11  O    2.392106   5.513524   2.840843   4.142883   2.556399
    12  H    3.871228   2.534766   2.649438   2.354005   3.945207
    13  H    2.130971   2.693504   5.284923   5.972785   6.087629
    14  H    1.085404   4.560893   4.628727   5.731448   4.921371
    15  H    3.882096   0.965262   5.582482   5.755860   6.716184
    16  H    5.616777   5.774745   1.944477   0.970396   2.424141
    17  H    5.210299   6.695168   1.935051   2.416866   0.971256
    18  H    2.452219   5.959944   3.802648   5.100994   3.481494
                   11         12         13         14         15
    11  O    0.000000
    12  H    4.555466   0.000000
    13  H    4.519778   4.269372   0.000000
    14  H    2.645529   4.956439   2.446451   0.000000
    15  H    5.978567   3.488061   2.362621   4.595566   0.000000
    16  H    4.706467   3.262126   6.928649   6.552441   6.706712
    17  H    3.460969   4.495117   7.022703   5.888503   7.510993
    18  H    0.967518   5.334688   4.523152   2.281455   6.293297
                   16         17         18
    16  H    0.000000
    17  H    2.167643   0.000000
    18  H    5.673750   4.346639   0.000000
 Stoichiometry    C7H7O4(1+)
 Framework group  C1[X(C7H7O4)]
 Deg. of freedom    48
 Full point group                 C1      NOp   1
 Largest Abelian subgroup         C1      NOp   1
 Largest concise Abelian subgroup C1      NOp   1
                         Standard orientation:                         
 ---------------------------------------------------------------------
 Center     Atomic      Atomic             Coordinates (Angstroms)
 Number     Number       Type             X           Y           Z
 ---------------------------------------------------------------------
      1          6           0        0.216511    1.271003   -0.000006
      2          6           0        0.423098   -0.134712   -0.000001
      3          6           0       -0.693033   -1.010514    0.000011
      4          6           0       -1.974289   -0.514163    0.000018
      5          6           0       -2.166143    0.879052    0.000013
      6          6           0       -1.094966    1.749299    0.000001
      7          8           0       -2.991263   -1.403610    0.000032
      8          6           0        1.718574   -0.713546   -0.000015
      9          8           0        1.803741   -2.016626   -0.000085
     10          8           0        2.782565    0.029347    0.000059
     11          8           0        1.272457    2.092050   -0.000023
     12          1           0       -0.549320   -2.083282    0.000017
     13          1           0       -3.174441    1.283658    0.000021
     14          1           0       -1.270846    2.820358   -0.000003
     15          1           0       -3.857640   -0.978027    0.000030
     16          1           0        2.698039   -2.393320   -0.000006
     17          1           0        3.633924   -0.438123   -0.000017
     18          1           0        1.001775    3.020933   -0.000032
 ---------------------------------------------------------------------
 Rotational constants (GHZ):      1.7816274      0.9102201      0.6024387
 Standard basis: 6-31+G(d,p) (6D, 7F)
 There are   244 symmetry adapted cartesian basis functions of A   symmetry.
 There are   244 symmetry adapted basis functions of A   symmetry.
   244 basis functions,   401 primitive gaussians,   244 cartesian basis functions
    40 alpha electrons       40 beta electrons
       nuclear repulsion energy       608.1507966221 Hartrees.
 NAtoms=   18 NActive=   18 NUniq=   18 SFac= 1.00D+00 NAtFMM=   60 NAOKFM=F Big=F
 Integral buffers will be    131072 words long.
 Raffenetti 2 integral format.
 Two-electron integral symmetry is turned on.
 Nuclear repulsion after empirical dispersion term =      608.1416570501 Hartrees.
 One-electron integrals computed using PRISM.
 NBasis=   244 RedAO= T EigKep=  3.15D-06  NBF=   244
 NBsUse=   244 1.00D-06 EigRej= -1.00D+00 NBFU=   244
 Initial guess from the checkpoint file:  "camB3lypD3DHByanggd3.chk"
 B after Tr=    -0.000000    0.000000    0.000000
         Rot=    0.999999    0.000000   -0.000000   -0.001004 Ang=   0.12 deg.
 ExpMin= 4.38D-02 ExpMax= 5.48D+03 ExpMxC= 8.25D+02 IAcc=2 IRadAn=         4 AccDes= 0.00D+00
 Harris functional with IExCor=20419 and IRadAn=       4 diagonalized for initial guess.
 HarFok:  IExCor=20419 AccDes= 0.00D+00 IRadAn=         4 IDoV= 1 UseB2=F ITyADJ=14
 ICtDFT=  3500011 ScaDFX=  1.000000  1.000000  1.000000  1.000000
 FoFCou: FMM=F IPFlag=           0 FMFlag=      100000 FMFlg1=           0
         NFxFlg=           0 DoJE=T BraDBF=F KetDBF=T FulRan=T
         wScrn=  0.000000 ICntrl=     500 IOpCl=  0 I1Cent=   200000004 NGrid=           0
         NMat0=    1 NMatS0=      1 NMatT0=    0 NMatD0=    1 NMtDS0=    0 NMtDT0=    0
 Petite list used in FoFCou.
 Keep R1 ints in memory in canonical form, NReq=900998300.
 Requested convergence on RMS density matrix=1.00D-08 within 128 cycles.
 Requested convergence on MAX density matrix=1.00D-06.
 Requested convergence on             energy=1.00D-06.
 No special actions if energy rises.
 SCF Done:  E(RCAM-B3LYP) =  -571.387728638     A.U. after   11 cycles
            NFock= 11  Conv=0.48D-08     -V/T= 2.0087
 Calling FoFJK, ICntrl=      2127 FMM=F ISym2X=0 I1Cent= 0 IOpClX= 0 NMat=1 NMatS=1 NMatT=0.
 ***** Axes restored to original set *****
 -------------------------------------------------------------------
 Center     Atomic                   Forces (Hartrees/Bohr)
 Number     Number              X              Y              Z
 -------------------------------------------------------------------
      1        6           0.000538980   -0.000188893   -0.000000163
      2        6          -0.000180028    0.000598833   -0.000000543
      3        6           0.000008329   -0.000284279   -0.000000165
      4        6          -0.000322987   -0.000394992    0.000000045
      5        6          -0.000223438    0.000398151    0.000000003
      6        6          -0.000425389    0.000104265    0.000000088
      7        8           0.000035617   -0.000063152   -0.000000038
      8        6           0.000768489   -0.000350208    0.000002231
      9        8          -0.000018944   -0.000015492   -0.000000498
     10        8          -0.000529277    0.000455293   -0.000000771
     11        8           0.000407349   -0.000379058   -0.000000029
     12        1          -0.000032189    0.000028425   -0.000000012
     13        1          -0.000049770   -0.000006526   -0.000000017
     14        1           0.000040452    0.000029677    0.000000002
     15        1           0.000006403    0.000037820    0.000000045
     16        1          -0.000039503   -0.000035213   -0.000000215
     17        1          -0.000011547    0.000127014    0.000000030
     18        1           0.000027452   -0.000061666    0.000000007
 -------------------------------------------------------------------
 Cartesian Forces:  Max     0.000768489 RMS     0.000235969

 GradGradGradGradGradGradGradGradGradGradGradGradGradGradGradGradGradGrad
 Berny optimization.
 Using GEDIIS/GDIIS optimizer.
 FormGI is forming the generalized inverse of G from B-inverse, IUseBI=4.
 Internal  Forces:  Max     0.001361129 RMS     0.000329975
 Search for a local minimum.
 Step number   3 out of a maximum of   89
 All quantities printed in internal units (Hartrees-Bohrs-Radians)
 Mixed Optimization -- En-DIIS/RFO-DIIS
 Swapping is turned off.
 Update second derivatives using D2CorX and points    1    2    3
 DE= -2.25D-05 DEPred=-3.35D-05 R= 6.72D-01
 TightC=F SS=  1.41D+00  RLast= 1.46D-02 DXNew= 5.0454D-01 4.3891D-02
 Trust test= 6.72D-01 RLast= 1.46D-02 DXMaxT set to 3.00D-01
 ITU=  1  1  0
     Eigenvalues ---    0.01733   0.01792   0.01805   0.01962   0.02018
     Eigenvalues ---    0.02055   0.02102   0.02134   0.02172   0.02205
     Eigenvalues ---    0.02288   0.02346   0.02446   0.02825   0.02931
     Eigenvalues ---    0.13741   0.16000   0.16000   0.16000   0.16000
     Eigenvalues ---    0.16000   0.16022   0.22382   0.23391   0.24413
     Eigenvalues ---    0.24690   0.25000   0.25000   0.25010   0.35153
     Eigenvalues ---    0.35268   0.35474   0.35708   0.38391   0.40106
     Eigenvalues ---    0.42618   0.44344   0.46686   0.49139   0.52729
     Eigenvalues ---    0.53053   0.53363   0.53768   0.53934   0.56194
     Eigenvalues ---    0.59532   0.60727   0.64614
 En-DIIS/RFO-DIIS IScMMF=        0 using points:     3    2
 RFO step:  Lambda=-1.23547662D-05.
 DidBck=T Rises=F RFO-DIIS coefs:    0.74828    0.25172
 Iteration  1 RMS(Cart)=  0.00377783 RMS(Int)=  0.00000557
 Iteration  2 RMS(Cart)=  0.00000744 RMS(Int)=  0.00000004
 Iteration  3 RMS(Cart)=  0.00000000 RMS(Int)=  0.00000004
 Variable       Old X    -DE/DX   Delta X   Delta X   Delta X     New X
                                 (Linear)    (Quad)   (Total)
    R1        2.68495  -0.00073  -0.00060  -0.00025  -0.00085   2.68410
    R2        2.63800   0.00053  -0.00055   0.00182   0.00127   2.63927
    R3        2.52767   0.00008   0.00003   0.00005   0.00007   2.52775
    R4        2.68100   0.00035  -0.00041   0.00131   0.00090   2.68190
    R5        2.68135   0.00008  -0.00130   0.00249   0.00119   2.68254
    R6        2.59656   0.00039  -0.00022   0.00100   0.00077   2.59733
    R7        2.04535  -0.00003   0.00000  -0.00007  -0.00007   2.04528
    R8        2.65764   0.00059  -0.00015   0.00130   0.00114   2.65879
    R9        2.55313  -0.00002   0.00000  -0.00003  -0.00003   2.55310
   R10        2.60806   0.00028   0.00001   0.00042   0.00043   2.60849
   R11        2.05309   0.00004  -0.00007   0.00022   0.00015   2.05324
   R12        2.05112   0.00002  -0.00004   0.00012   0.00008   2.05120
   R13        1.82408   0.00001   0.00010  -0.00016  -0.00006   1.82402
   R14        2.46772   0.00005   0.00040  -0.00067  -0.00027   2.46745
   R15        2.45226  -0.00012   0.00043  -0.00091  -0.00048   2.45177
   R16        1.83378  -0.00002   0.00008  -0.00017  -0.00010   1.83369
   R17        1.83541  -0.00007   0.00006  -0.00021  -0.00015   1.83526
   R18        1.82834  -0.00007   0.00008  -0.00024  -0.00016   1.82819
    A1        2.06642   0.00006   0.00014  -0.00020  -0.00006   2.06636
    A2        2.08578  -0.00083  -0.00116  -0.00021  -0.00137   2.08441
    A3        2.13098   0.00077   0.00102   0.00042   0.00143   2.13242
    A4        2.09021   0.00032   0.00032   0.00020   0.00052   2.09073
    A5        2.13691  -0.00136  -0.00126  -0.00156  -0.00281   2.13410
    A6        2.05607   0.00104   0.00094   0.00135   0.00229   2.05836
    A7        2.10667  -0.00016  -0.00040   0.00022  -0.00018   2.10649
    A8        2.10295   0.00011   0.00015   0.00012   0.00027   2.10322
    A9        2.07356   0.00005   0.00025  -0.00033  -0.00009   2.07347
   A10        2.07723  -0.00008   0.00022  -0.00048  -0.00026   2.07698
   A11        2.05340   0.00003  -0.00042   0.00076   0.00035   2.05374
   A12        2.15255   0.00005   0.00019  -0.00028  -0.00009   2.15247
   A13        2.11622  -0.00007  -0.00011   0.00015   0.00004   2.11626
   A14        2.08925   0.00001   0.00012  -0.00029  -0.00017   2.08908
   A15        2.07772   0.00006  -0.00001   0.00014   0.00013   2.07784
   A16        2.10961  -0.00007  -0.00017   0.00011  -0.00006   2.10955
   A17        2.08326  -0.00001   0.00007  -0.00026  -0.00018   2.08308
   A18        2.09031   0.00009   0.00010   0.00014   0.00024   2.09055
   A19        1.96639  -0.00007  -0.00067   0.00089   0.00021   1.96660
   A20        2.05626   0.00052   0.00053   0.00054   0.00107   2.05733
   A21        2.11187  -0.00131  -0.00085  -0.00222  -0.00307   2.10880
   A22        2.11506   0.00079   0.00032   0.00168   0.00200   2.11706
   A23        2.03472   0.00010  -0.00126   0.00271   0.00145   2.03618
   A24        2.02992   0.00018  -0.00116   0.00293   0.00177   2.03170
   A25        1.94814   0.00002  -0.00075   0.00147   0.00072   1.94886
    D1       -0.00000   0.00000   0.00000   0.00000   0.00000   0.00000
    D2        3.14159   0.00000   0.00000   0.00000   0.00000   3.14159
    D3       -3.14159   0.00000   0.00000   0.00000   0.00000  -3.14159
    D4       -0.00000   0.00000   0.00000   0.00000   0.00000  -0.00000
    D5        0.00000  -0.00000  -0.00000  -0.00000  -0.00000  -0.00000
    D6       -3.14159  -0.00000  -0.00000  -0.00000  -0.00000   3.14159
    D7        3.14159  -0.00000  -0.00000   0.00000  -0.00000   3.14159
    D8       -0.00000   0.00000  -0.00000   0.00000   0.00000  -0.00000
    D9        3.14158   0.00000  -0.00000   0.00000   0.00000   3.14158
   D10       -0.00000  -0.00000  -0.00000  -0.00000  -0.00000  -0.00000
   D11       -0.00000  -0.00000  -0.00000  -0.00000  -0.00000  -0.00000
   D12       -3.14159  -0.00000  -0.00000  -0.00000  -0.00000  -3.14159
   D13       -3.14159  -0.00000  -0.00000  -0.00000  -0.00000  -3.14159
   D14        0.00001   0.00000   0.00000  -0.00000  -0.00000   0.00001
   D15       -3.14153   0.00000   0.00000   0.00000   0.00001  -3.14152
   D16        0.00008  -0.00000  -0.00000  -0.00001  -0.00001   0.00007
   D17        0.00006   0.00000   0.00000   0.00000   0.00001   0.00007
   D18       -3.14152  -0.00000  -0.00000  -0.00001  -0.00001  -3.14153
   D19        0.00000   0.00000   0.00000   0.00000   0.00000   0.00000
   D20       -3.14159   0.00000   0.00000   0.00000   0.00000  -3.14159
   D21        3.14159  -0.00000  -0.00000  -0.00000  -0.00000   3.14159
   D22       -0.00000  -0.00000   0.00000  -0.00000  -0.00000  -0.00000
   D23        0.00000   0.00000   0.00000   0.00000   0.00000   0.00000
   D24       -3.14159  -0.00000  -0.00000  -0.00000  -0.00000  -3.14159
   D25        3.14159   0.00000  -0.00000   0.00000   0.00000   3.14159
   D26       -0.00000  -0.00000  -0.00000  -0.00000  -0.00000  -0.00000
   D27       -3.14159  -0.00000   0.00000  -0.00000  -0.00000  -3.14159
   D28        0.00001  -0.00000   0.00000  -0.00000  -0.00000   0.00001
   D29       -0.00000  -0.00000  -0.00000   0.00000  -0.00000  -0.00000
   D30        3.14159  -0.00000  -0.00000  -0.00000  -0.00000   3.14159
   D31        3.14159   0.00000   0.00000   0.00000   0.00000   3.14159
   D32       -0.00000  -0.00000  -0.00000   0.00000   0.00000  -0.00000
   D33       -3.14149  -0.00000  -0.00000  -0.00001  -0.00001  -3.14151
   D34        0.00008   0.00000   0.00000   0.00000   0.00001   0.00009
   D35       -3.14152   0.00000   0.00001   0.00000   0.00001  -3.14151
   D36        0.00009  -0.00000  -0.00000  -0.00001  -0.00001   0.00008
         Item               Value     Threshold  Converged?
 Maximum Force            0.001361     0.000450     NO 
 RMS     Force            0.000330     0.000300     NO 
 Maximum Displacement     0.018788     0.001800     NO 
 RMS     Displacement     0.003778     0.001200     NO 
 Predicted change in Energy=-9.115067D-06
 GradGradGradGradGradGradGradGradGradGradGradGradGradGradGradGradGradGrad

                          Input orientation:                          
 ---------------------------------------------------------------------
 Center     Atomic      Atomic             Coordinates (Angstroms)
 Number     Number       Type             X           Y           Z
 ---------------------------------------------------------------------
      1          6           0        0.216548    1.269401   -0.000004
      2          6           0        0.421480   -0.136100    0.000003
      3          6           0       -0.695559   -1.011512    0.000013
      4          6           0       -1.976802   -0.513999    0.000018
      5          6           0       -2.167277    0.880017    0.000012
      6          6           0       -1.095047    1.749330    0.000000
      7          8           0       -2.994778   -1.402278    0.000031
      8          6           0        1.718505   -0.713010   -0.000006
[...]
 88047173,0.034427205,0.0000556199\O,1.274456322,2.0883532811,-0.000021
 8211\H,-0.5518753216,-2.0842435376,0.0000186702\H,-3.1752071629,1.2853
 748635,0.0000180248\H,-1.2695825881,2.8207791733,-0.000004854\H,-3.859
 7885016,-0.9759001798,0.0000299996\H,2.7009215239,-2.3910878736,-0.000
 0129223\H,3.6326855424,-0.428323146,-0.000019294\H,1.0058160448,3.0177
 747982,-0.0000319892\\Version=ES64L-G09RevE.01\State=1-A\HF=-571.38773
 68\RMSD=2.776e-09\RMSF=1.959e-05\ZeroPoint=0.1370166\Thermal=0.1469542
 \Dipole=1.6166685,0.1269739,-0.0000158\DipoleDeriv=1.0038167,1.1337265
 ,-0.0000157,-0.0614611,0.8530308,-0.000007,-0.0000145,-0.0000157,0.172
 8258,-1.3527261,0.9580027,0.0000039,0.5093692,-0.4402315,-0.0000039,0.
 0000021,0.0000023,-0.0700444,0.2950955,-0.8306425,0.0000017,0.2631109,
 -0.0645444,-0.0000023,0.0000011,0.0000025,-0.1047667,0.9363053,1.23902
 32,-0.0000123,1.2125261,-0.1046621,-0.0000079,-0.000008,-0.0000117,0.1
 320261,0.1127194,0.2048151,-0.0000024,-0.3672382,0.5470921,-0.0000001,
 0.0000012,-0.0000044,-0.04106,-0.4612618,-0.7435794,0.0000077,0.005753
 1,0.0411925,-0.0000005,0.0000004,0.000002,-0.1410455,-1.2446807,-0.635
 6194,0.0000102,-0.8098723,-0.5247812,0.0000057,0.0000123,0.0000069,-0.
 3849636,2.8682231,-0.8045854,0.0000186,-0.5917197,1.9965538,0.0000747,
 0.0000282,0.0000781,0.4117369,-0.6005183,0.3710209,0.0000279,0.7925376
 ,-1.5541051,-0.0000455,0.000076,-0.0000844,-0.3018379,-1.7284534,0.017
 9358,-0.0000389,-0.52823,-0.2786012,-0.0000033,-0.0001105,0.0000102,-0
 .2822564,-0.7083867,-0.9446551,0.0000121,-0.4655369,-1.1054415,0.00000
 85,0.0000213,0.0000213,-0.3379756,0.1020551,0.0131126,0.,-0.0121062,0.
 1026444,0.0000009,-0.0000044,0.0000014,0.1504317,0.0116048,0.004037,0.
 0000009,-0.0075506,0.1083208,0.0000002,0.0000002,0.,0.1364011,0.080010
 2,-0.0390858,0.0000009,-0.01873,-0.0002663,0.0000013,0.0000013,0.00000
 23,0.1576837,0.4528019,0.079869,-0.0000013,0.1139105,0.2132327,0.00000
 07,-0.0000024,0.0000008,0.3656468,0.3624452,-0.155782,-0.0000139,-0.18
 1808,0.4944318,-0.0000064,-0.0000383,0.0000164,0.3892192,0.5934413,0.0
 05261,0.0000019,0.0445052,0.2554331,-0.0000143,0.000037,-0.0000238,0.3
 865641,0.2775086,0.1271456,-0.0000011,0.1025406,0.4607013,-0.0000008,-
 0.000003,-0.0000041,0.3614148\Polar=134.3697048,-8.8540751,111.6312393
 ,-0.0004052,0.0001503,46.5846906\PG=C01 [X(C7H7O4)]\NImag=0\\0.7168808
 1,0.02817499,0.72030488,-0.00000469,-0.00000477,0.16830751,-0.14632761
 ,0.03244217,-0.00000046,0.68317948,0.01198875,-0.27999056,0.00000183,0
 .00181150,0.70787985,0.00000015,0.00000088,-0.06795249,-0.00000345,0.0
 0000071,0.13926168,0.06351338,-0.04658114,-0.00000010,-0.21058318,-0.0
 8523638,0.00000139,0.73445392,-0.01908230,-0.03503189,0.00000027,-0.11
 064824,-0.20250113,0.00000076,-0.03606265,0.75471130,-0.00000029,0.000
 00041,0.00173721,0.00000233,0.00000064,-0.05098524,-0.00000386,-0.0000
 0350,0.12706996,-0.04505460,0.03042226,0.00000016,-0.05663756,-0.02402
 531,0.00000036,-0.33514446,0.12610230,0.00000118,0.77489555,0.05103456
 ,-0.03904919,-0.00000006,0.01818748,0.04243437,0.00000006,0.05659082,-
 0.17121388,0.00000006,0.00405026,0.69584614,0.00000011,0.00000021,0.00
 040350,0.00000020,-0.00000034,-0.00207212,0.00000152,0.,-0.06327910,-0
 .00000417,-0.00000332,0.14289173,-0.05940399,-0.00423882,0.00000047,-0
 .01284458,-0.01186656,0.00000002,0.02182661,0.03459647,-0.00000023,-0.
 14614632,0.07517980,0.00000025,0.77212874,-0.06267912,0.06185678,0.,-0
 .02158053,-0.03888720,0.00000016,0.07735378,-0.01135012,-0.00000018,-0
 .00999481,-0.29460018,0.00000120,0.00738136,0.68752493,0.00000076,-0.0
 0000037,-0.00268088,0.00000020,0.00000026,0.00044729,-0.00000061,-0.00
 000017,0.00144777,0.00000069,0.00000039,-0.06202337,-0.00000469,-0.000
 00262,0.13590270,-0.26827634,0.04203467,0.00000110,0.01116340,0.058591
 44,-0.00000011,-0.06518366,-0.00836788,0.00000025,0.06408012,-0.072855
 20,-0.00000010,-0.28509774,-0.08492694,0.00000198,0.69563992,0.1140862
 4,-0.17229166,0.00000005,0.02349344,-0.00507989,-0.00000014,-0.0006032
 8,-0.00306119,0.00000010,-0.02308942,-0.03444078,0.00000032,-0.1592886
 1,-0.23731729,0.00000209,0.02152560,0.77442294,0.00000060,0.00000060,-
 0.07018914,-0.00000012,-0.00000065,0.00715012,0.00000044,0.00000013,0.
 00242024,-0.00000028,0.00000061,-0.00083820,0.00000243,0.00000162,-0.0
 5335050,-0.00000411,-0.00000412,0.12242598,0.00532170,0.00211643,-0.00
 000015,0.00073204,0.00506355,0.00000005,-0.06164151,-0.03380913,0.0000
 0069,-0.24425642,-0.14545033,0.00000234,0.00099928,-0.00583588,0.00000
 011,-0.00447655,0.00212768,0.00000007,0.72799398,-0.00371129,0.0056977
 5,-0.00000009,-0.00094495,-0.00482210,-0.00000003,0.00465961,0.0185004
 0,-0.00000003,-0.09372614,-0.20755607,0.00000196,-0.04542073,-0.040526
 49,0.00000067,0.01032553,-0.00261403,0.,-0.04257451,0.38206265,-0.0000
 0007,-0.00000008,-0.00142318,-0.00000002,0.00000009,0.00533518,0.00000
 049,0.00000011,0.00775050,0.00000175,0.00000226,-0.03810828,0.00000026
 ,0.00000022,0.00652276,0.00000009,0.00000002,0.00632381,-0.00000257,-0
 .00000316,0.02160518,0.01989000,0.05278628,0.00000036,-0.23268730,0.05
 889757,0.00000148,-0.06214874,-0.00292277,-0.00000012,0.00766632,-0.02
 592537,-0.00000009,0.00564431,0.00836566,-0.00000006,-0.00097757,0.003
 89646,-0.00000010,0.00306473,0.00634122,-0.00000003,0.81194608,0.03338
 332,-0.02078696,-0.00000053,0.06087590,-0.13647792,-0.00000072,-0.0008
 4181,0.02301064,0.00000049,-0.00864291,0.00875939,0.00000008,-0.003371
 26,-0.00755927,0.00000007,0.00149007,-0.00914592,0.00000017,-0.0043400
 9,-0.00373891,0.,0.01261367,0.78430006,0.00000091,-0.00000027,-0.00147
 844,0.00000134,-0.00000100,-0.07917799,0.00000016,0.00000026,-0.002916
 70,0.00000024,-0.00000047,0.00664482,0.00000015,0.00000054,-0.00098289
 ,-0.00000059,0.00000004,0.00596381,0.00000003,0.00000010,0.00027485,0.
 00001080,0.00002983,0.20763064,-0.00838713,-0.00849693,0.00000028,-0.0
 0739920,0.04921099,0.00000287,-0.00270596,0.00378601,0.00000030,0.0016
 8286,0.00239524,-0.00000025,-0.00033190,0.00080087,-0.00000005,-0.0012
 2914,0.00184241,-0.00000014,-0.00119271,-0.00093313,0.00000003,-0.1383
 3455,0.05895092,-0.00000172,0.59532253,0.00298762,0.01931564,0.0000000
 6,0.04212226,-0.04918757,-0.00000184,-0.01191626,-0.00671749,-0.000000
 45,0.00177992,-0.00864491,0.00000002,0.00080587,0.00218562,0.00000004,
 0.00238380,0.00155040,-0.00000011,0.00267512,0.00332979,-0.00000002,-0
 .00799643,-0.40426567,-0.00002064,-0.18995402,0.60654607,-0.00000042,0
 .00000171,0.00333787,0.00000275,-0.00000201,0.01174882,-0.00000045,-0.
 00000055,0.00078904,-0.00000025,-0.00000024,-0.00127861,-0.00000004,-0
 .00000034,0.00001565,0.00000063,0.00000023,-0.00100165,0.00000015,0.00
 000011,0.00020423,-0.00000518,-0.00001461,-0.06078483,0.00003906,0.000
 01442,0.02820669,-0.01278201,-0.02095410,-0.00000013,-0.06989149,-0.01
 426354,-0.00000223,0.00960836,0.00971049,0.00000007,-0.00549201,0.0120
 3590,0.00000022,-0.00304027,-0.00786906,0.00000005,0.00459383,-0.00184
 861,0.00000007,-0.00332827,-0.00337160,0.00000002,-0.34180488,-0.17217
 452,-0.00001381,0.00484510,-0.02484705,-0.00000257,0.79134356,-0.00558
 256,-0.00959745,0.00000016,-0.01001372,0.02417241,0.00000080,0.0084382
 3,-0.00148035,0.00000012,-0.00244299,0.00662320,-0.00000005,-0.0012980
 8,-0.00365679,0.00000002,0.00277755,-0.00053341,0.00000010,-0.00015617
 ,-0.00129546,0.,-0.10353754,-0.22532483,-0.00001437,-0.05457865,-0.059
 37286,-0.00000635,-0.02092350,0.42206815,-0.00000098,-0.00000096,0.000
 01438,-0.00000173,0.00000148,0.00914682,0.00000120,0.00000018,0.003248
 35,-0.00000022,0.00000099,-0.00013225,-0.00000015,-0.00000050,0.000298
 69,0.00000011,-0.00000018,-0.00031804,-0.00000015,-0.00000026,-0.00015
 471,-0.00000703,-0.00001261,-0.06082561,-0.00000335,-0.00000634,0.0281
 7691,-0.00001757,0.00004060,0.03032634,-0.26675704,-0.09484590,0.00000
 263,0.03148369,-0.01379734,0.00000001,-0.02183059,0.00142504,0.0000000
 1,0.01708567,-0.01312208,-0.00000013,0.00437434,0.01975298,-0.00000009
 ,-0.06483951,-0.03747173,0.00000101,-0.00687560,-0.00253832,0.00000012
 ,-0.02690647,0.00529128,-0.00000042,0.00333249,-0.00512992,-0.00000025
 ,0.01016929,0.01253932,0.00000039,0.40608076,-0.14383337,-0.20966782,0
 .00000271,-0.02335104,-0.04420154,0.00000079,-0.00592756,-0.00432070,-
 0.00000007,0.00968405,-0.00368785,-0.00000012,0.00600496,0.00316132,0.
 ,-0.00989703,0.01106383,0.00000003,-0.00680018,-0.00296247,0.00000011,
 -0.02337219,0.00721750,0.00000011,0.00258334,-0.00797365,-0.00000058,0
 .01757219,-0.00281432,0.00000042,0.01392653,0.72347479,0.00000335,0.00
 000253,-0.04553198,-0.00000010,0.00000054,0.00547563,0.00000021,-0.000
 00004,0.00287438,-0.00000027,0.00000007,-0.00087028,-0.00000006,-0.000
 00013,0.00725633,0.00000076,0.00000034,0.01441873,0.00000015,0.0000000
 7,-0.00029648,0.00000044,-0.00000019,-0.00350552,-0.00000005,0.0000004
 1,0.00024930,-0.00000041,-0.00000013,0.00134588,-0.00000265,-0.0000087
 3,0.02975936,-0.00437607,-0.00128620,-0.00000001,0.00693684,-0.0238390
 1,0.00000009,-0.06512512,0.04107256,-0.00000029,0.00258818,0.03070627,
 -0.00000008,-0.00593722,0.00124016,0.00000007,-0.00051009,-0.00064158,
 0.00000004,0.00177625,-0.00058396,-0.00000005,0.00174006,-0.00388873,-
 0.00000012,-0.00493059,0.00180967,0.00000047,0.00036129,0.00048265,0.0
 0000002,0.00042613,-0.00159190,0.00000002,0.06696865,-0.00356912,0.001
 80385,0.00000008,0.00246722,-0.01147775,0.00000003,0.04108278,-0.35196
 295,0.00000215,-0.00064214,-0.00493475,0.00000006,0.00113536,-0.000918
 26,0.00000002,0.00144322,0.00067932,0.,-0.00122769,-0.00008655,0.,0.00
 042739,-0.00204235,-0.00000005,0.00293786,0.00044626,-0.00000002,-0.00
 013619,0.00004667,0.,0.00074355,-0.00045794,0.,-0.04482106,0.36855376,
 0.00000010,-0.00000004,0.00384590,-0.00000028,0.00000029,0.00173509,-0
 .00000022,0.00000214,-0.03764966,0.00000018,-0.00000012,0.00950107,0.0
 0000009,0.00000008,0.00639632,-0.00000004,0.00000002,-0.00045986,-0.00
 000007,-0.00000003,-0.00400266,-0.00000002,-0.00000006,-0.00277113,0.0
 0000054,0.00000005,0.00065841,-0.00000012,0.,-0.00008592,0.,0.00000002
 ,0.00069834,-0.00000004,-0.00000218,0.02418357,-0.00121640,-0.00338543
 ,0.00000011,0.00065615,-0.00038499,0.,0.00099446,0.00030490,0.00000003
 ,-0.00112984,-0.00214054,0.00000007,-0.30560615,0.09947507,0.00000155,
 -0.01673152,0.01025512,0.00000012,0.00232230,-0.00000797,-0.00000003,-
 0.00020461,0.00003312,0.,-0.00001012,0.00000111,0.,0.00005805,0.000026
 95,0.00000001,-0.00121065,0.00029590,-0.00000001,0.00002123,-0.0000457
 1,0.,0.32099286,-0.00390094,-0.00249647,0.00000008,-0.00169192,-0.0004
 9515,-0.00000002,0.00078373,-0.00626191,0.00000005,0.02915135,-0.00397
 408,-0.00000015,0.10072472,-0.10375076,-0.00000051,-0.01952415,0.01186
 011,0.00000014,0.00031877,0.00281435,-0.00000003,0.00063044,-0.0006143
 7,0.00000002,0.00003622,0.00035836,0.00000001,-0.00029201,-0.00010827,
 -0.00000001,-0.00093203,0.00056274,-0.00000002,0.00143038,-0.00019258,
 0.,-0.10550612,0.10303629,0.00000010,0.00000003,0.00869534,-0.00000004
 ,0.00000006,-0.00026801,0.00000005,0.00000002,0.00505262,-0.00000006,0
 .00000010,0.00733017,0.00000158,-0.00000045,-0.04258978,0.00000022,-0.
 00000010,0.00613474,-0.00000004,-0.00000005,-0.00289594,0.00000002,-0.
 00000003,-0.00077322,0.00000006,0.,0.00028402,-0.00000002,-0.00000002,
 -0.00010087,-0.00000001,0.,-0.00103795,-0.00000003,0.00000001,-0.00135
 343,-0.00000177,0.00000046,0.02550756,-0.00158402,0.02992213,-0.000000
 17,-0.00458424,0.00040034,0.00000005,-0.00120806,-0.00058423,0.,-0.003
 72175,-0.00238367,0.00000009,0.00824275,-0.02628391,0.00000012,-0.0681
 6880,0.04802759,-0.00000004,0.00007238,-0.00146078,0.,0.00033584,0.001
 37174,-0.00000002,-0.00054832,0.00025218,-0.00000002,0.00005131,0.0000
 0624,0.00000002,0.00286465,0.00066259,-0.00000006,0.00008876,0.0000556
 7,0.,0.00073753,-0.00013598,-0.00000004,0.06870630,-0.00273257,-0.0075
 6804,0.00000010,0.00174196,0.00070991,0.,-0.00006442,0.00054009,0.,-0.
 00308161,0.00090905,0.00000006,0.00416721,-0.01447275,0.00000008,0.047
 94312,-0.33959496,0.00000152,0.00005521,-0.00097612,0.,-0.00070363,-0.
 00023523,0.,0.00020903,-0.00014338,0.,0.00026275,0.00015404,0.00000002
 ,-0.00047957,0.00281320,-0.00000005,0.00002487,-0.00004382,0.,-0.00000
 781,0.00074982,-0.00000003,-0.04912577,0.35683503,-0.00000002,-0.00000
 007,0.00458775,0.00000005,0.00000004,0.00443734,0.00000004,-0.00000002
 ,-0.00107202,0.00000005,0.00000010,0.00756333,-0.00000010,0.00000020,0
 .00362363,0.00000007,0.00000150,-0.03521962,0.,0.,-0.00003559,0.000000
 01,-0.00000002,0.00059323,0.,0.,-0.00014979,0.,0.,-0.00001140,-0.00000
 004,-0.00000006,-0.00411178,0.,0.,-0.00026439,-0.00000005,-0.00000002,
 -0.00465397,0.,-0.00000168,0.02404389,-0.00016031,-0.00048482,0.000000
 02,0.00037248,0.00077448,0.00000002,-0.00152339,-0.00459660,0.00000007
 ,-0.03128364,0.01524034,-0.00000004,0.00476957,0.00293118,-0.00000005,
 -0.00060425,0.00044713,0.,-0.42116974,0.17268499,0.00000002,-0.0017307
 6,0.00064303,-0.00000002,0.00030687,-0.00075343,-0.00000005,0.00084923
 ,0.00031983,0.00000007,0.00079648,0.00070326,-0.00000002,0.00019583,-0
 .00000855,0.,0.00025243,-0.00126061,0.,0.00024392,0.00018591,0.,0.4490
 8697,0.00009427,0.00066730,-0.00000001,0.00071617,0.00044397,0.0000000
 3,-0.00495754,-0.00334249,0.00000005,-0.03261886,0.00966126,0.,-0.0034
 5977,0.00215810,0.00000002,0.00032293,-0.00030794,0.,0.22727792,-0.147
 66664,0.00000050,-0.00115949,0.00027921,0.,0.00017030,-0.00046495,-0.0
 0000002,0.00032070,0.00016809,0.00000003,-0.00023524,-0.00049412,0.,-0
 .00031333,0.00010440,-0.00000001,0.00087088,-0.00162846,0.,0.00004090,
 0.00003853,0.,-0.18678928,0.14029607,0.,0.,0.00021277,0.00000003,0.000
 00003,0.00200132,0.00000004,0.00000008,0.00168988,0.00000052,-0.000000
 17,-0.00548745,0.,-0.00000003,0.00019441,0.,0.,-0.00067580,-0.00000058
 ,0.00000068,-0.00082208,0.00000004,0.,0.00031032,0.,0.,-0.00003547,-0.
 00000003,-0.00000001,-0.00015220,0.,0.,-0.00009507,0.,0.,-0.00086014,0
 .,0.,0.00042354,0.,0.,-0.00000308,0.,-0.00000058,0.00323882,0.00044353
 ,0.00208109,0.,0.00530308,-0.00329288,-0.00000067,-0.00150593,-0.00062
 332,-0.00000002,0.00033692,-0.00117905,0.00000009,0.00019837,0.0005123
 1,-0.00000002,0.00002765,0.00034002,0.00000004,0.00034850,0.00038887,0
 .,-0.00201660,0.00001212,0.00000082,-0.44690343,0.18142651,-0.00003386
 ,-0.00019052,-0.00512480,-0.00000035,-0.00088391,-0.00109698,0.0000000
 7,0.00014011,0.00036317,-0.00000010,-0.00000210,0.00005050,0.,-0.00000
 719,-0.00002300,0.,-0.00012325,-0.00005575,0.,0.44365802,0.00120077,-0
 .00100606,-0.00000019,-0.00547735,-0.00337392,-0.00000063,-0.00026388,
 0.00049700,0.00000025,0.00023346,0.00161351,0.00000001,-0.00037184,-0.
 00054293,0.,-0.00000995,-0.00052857,0.00000006,-0.00067329,-0.00060604
 ,0.,0.05031491,-0.02470848,0.00000311,0.13176442,-0.09770045,0.0000084
 4,-0.00139497,0.00490250,-0.00000025,0.00031142,0.00096619,-0.00000001
 ,0.00046736,0.00059476,-0.00000010,-0.00000816,0.00000989,-0.00000001,
 0.00008905,-0.00000794,0.,0.00015226,0.00006211,0.,-0.17237748,0.12323
 965,0.00000026,-0.00000071,0.00217230,-0.00000121,-0.00000048,0.004581
 12,0.00000027,0.00000020,-0.00112552,0.00000003,0.00000014,0.00034846,
 -0.00000001,0.00000008,0.00008226,-0.00000021,-0.00000020,-0.00063571,
 -0.00000002,-0.00000004,-0.00007636,0.00000444,-0.00000310,-0.00423155
 ,-0.00003755,0.00001461,-0.00493958,-0.00000013,0.00000001,-0.00444550
 ,0.00000022,0.00000030,0.00012781,-0.00000014,-0.00000004,-0.00019881,
 0.,0.,-0.00002469,0.00000003,0.,-0.00006428,0.00000002,0.,0.00005603,0
 .00003385,-0.00001107,0.00590838,0.00103964,0.00274478,0.00000011,0.00
 525075,-0.00695698,-0.00000006,-0.00228658,0.00036657,-0.00000011,0.00
 028105,-0.00237249,-0.00000005,0.00041072,0.00091412,0.00000003,-0.000
 23810,0.00022941,-0.00000004,0.00050377,0.00071480,0.,-0.04200869,0.01
 932645,0.00000226,0.00633801,0.00427926,-0.00000002,-0.38437646,0.1776
 5172,0.00002981,-0.00141668,-0.00123372,-0.00000004,-0.00010625,-0.000
 06510,0.00000002,-0.00000234,0.00004661,0.,0.00001710,-0.00001569,0.,-
 0.00019862,-0.00009084,0.00000001,0.00116365,-0.00385077,0.00000013,0.
 41539743,-0.00121091,-0.00097879,-0.00000002,-0.00351474,-0.00157782,-
 0.00000085,-0.00004470,0.00062257,-0.00000010,-0.00031648,0.00036110,0
 .00000006,-0.00009653,-0.00025937,0.00000002,0.00019317,-0.00011131,0.
 ,-0.00006046,-0.00009539,0.00000001,-0.03218318,0.01278365,0.00000277,
 -0.00021333,-0.00086127,-0.00000029,0.22952234,-0.15289402,-0.00002252
 ,0.00095220,-0.00162691,0.00000014,-0.00005037,-0.00000613,-0.00000004
 ,0.00000724,-0.00001180,0.,0.00000425,0.00001768,0.,0.00000906,0.00001
 145,0.,-0.00165200,-0.00319260,0.00000036,-0.19195117,0.14777790,0.000
 00034,0.00000031,-0.00135294,0.00000027,-0.00000139,0.00594879,-0.0000
 0058,0.00000007,0.00177286,0.00000010,-0.00000043,-0.00045286,0.000000
 06,0.00000015,0.00001490,0.,0.00000010,-0.00017172,0.,0.00000010,-0.00
 015227,-0.00000486,0.00000120,-0.00381547,-0.00000006,-0.00000006,-0.0
 0512068,0.00003674,-0.00002097,-0.00650203,-0.00000011,0.00000003,0.00
 007218,0.00000004,0.,0.00023983,0.,0.,0.00006812,0.,0.,0.00002209,-0.0
 0000002,-0.00000002,-0.00002478,0.00000020,0.00000037,0.00253736,-0.00
 003209,0.00002048,0.00676205,0.00723645,-0.04245146,0.00000047,-0.0041
 2277,-0.00307564,0.00000004,0.00049043,-0.00066722,0.,0.00024993,0.000
 00806,0.00000001,-0.00018652,0.00044276,-0.00000001,0.00082834,-0.0033
 2787,0.,-0.00019414,0.00015836,0.,-0.00146718,-0.00073232,0.,0.0001451
 8,0.00007380,0.00000005,-0.00097411,0.00141553,-0.00000011,-0.08589304
 ,0.16567116,-0.00000134,-0.00025797,-0.00014066,0.,0.00007874,0.000071
 03,0.,-0.00153816,0.00164401,0.00000002,-0.00007981,-0.00013396,0.,0.0
 0001310,-0.00010597,0.,0.00023159,0.00060560,-0.00000002,0.08543992,0.
 00335164,-0.03118133,0.00000033,-0.00663560,0.00243205,0.,0.00359068,-
 0.00063789,0.00000001,-0.00284294,0.00189368,0.,-0.00058358,-0.0030453
 6,0.,0.00655006,0.00545035,-0.00000009,0.00129307,0.00054132,-0.000000
 02,0.00352698,-0.00145052,0.00000002,-0.00051155,0.00160005,0.00000010
 ,-0.00134923,-0.00105730,-0.00000007,0.11360983,-0.47105225,0.00000521
 ,-0.00021779,-0.00010594,0.00000001,0.00021645,0.00014230,0.,-0.000858
 34,0.00027490,0.00000002,-0.00019818,0.00001412,0.,0.00025066,-0.00021
 863,-0.00000005,0.00026303,0.00004106,0.00000005,-0.11945521,0.4963593
 7,-0.00000020,0.00000060,-0.00270549,0.00000025,-0.00000009,0.00318666
 ,0.00000001,0.00000006,0.00117543,0.,0.00000003,-0.00014057,-0.0000000
 1,0.,-0.00057529,-0.00000008,-0.00000006,-0.00197717,0.,0.,-0.00004896
 ,-0.00000011,0.00000003,-0.00015431,0.00000003,-0.00000015,-0.00036033
 ,-0.00000016,0.00000008,0.00017115,-0.00000069,0.00000503,-0.00682890,
 0.00000002,0.,0.00038747,0.,0.,0.00020174,0.00000004,0.,0.00071466,0.,
 0.,0.00002898,-0.00000003,0.00000001,-0.00007174,0.00000003,0.,0.00015
 457,0.00000090,-0.00000552,0.00684209\\-0.00000131,0.00006463,0.000000
 02,0.00005301,-0.00005525,0.00000011,0.00002022,-0.00001079,0.00000004
 ,-0.00003885,0.00000922,-0.00000002,-0.00002823,-0.00002297,0.,0.00003
 822,0.00003953,-0.00000002,0.00000269,0.00000108,0.00000004,0.00002643
 ,0.00000280,-0.00000040,-0.00002643,-0.00001150,-0.00000002,-0.0000047
 8,-0.00000007,0.00000023,-0.00002093,-0.00001473,0.,0.00000105,-0.0000
 1131,0.,-0.00000002,0.00001154,0.,-0.00000250,-0.00000087,0.,0.0000151
 3,0.00000341,-0.00000003,-0.00002643,0.00000297,0.00000012,-0.00001935
 ,0.00000657,-0.00000008,0.00001209,-0.00001426,0.\\\@


      LET US REMEMBER, PLEASE, THAT THE SEARCH FOR THE CONSTITUTION
      OF THE WORLD IS ONE OF THE GREATEST AND NOBLEST PROBLEMS PRESENTED 
      BY NATURE.

                                                  -- GALILEO
 Job cpu time:       0 days  0 hours 14 minutes  6.4 seconds.
 File lengths (MBytes):  RWF=    115 Int=      0 D2E=      0 Chk=      6 Scr=      1
 Normal termination of Gaussian 09 at Tue Dec 17 13:52:03 2024.
