 Entering Gaussian System, Link 0=g09
 Input=pbeD3DHByang.gjf
 Output=pbeD3DHByang.log
 Initial command:
 /home/c612/g09E/g09/l1.exe "/mnt/ja_sm883/scratch/Gau-1355964.inp" -scrdir="/mnt/ja_sm883/scratch/"
 Default is to use a total of  18 processors:
                               18 via shared-memory
                                1 via Linda
 Entering Link 1 = /home/c612/g09E/g09/l1.exe PID=   1355966.
  
 Copyright (c) 1988,1990,1992,1993,1995,1998,2003,2009,2015,
            Gaussian, Inc.  All Rights Reserved.
  
 This is part of the Gaussian(R) 09 program.  It is based on
 the Gaussian(R) 03 system (copyright 2003, Gaussian, Inc.),
 the Gaussian(R) 98 system (copyright 1998, Gaussian, Inc.),
 the Gaussian(R) 94 system (copyright 1995, Gaussian, Inc.),
 the Gaussian 92(TM) system (copyright 1992, Gaussian, Inc.),
 the Gaussian 90(TM) system (copyright 1990, Gaussian, Inc.),
 the Gaussian 88(TM) system (copyright 1988, Gaussian, Inc.),
 the Gaussian 86(TM) system (copyright 1986, Carnegie Mellon
 University), and the Gaussian 82(TM) system (copyright 1983,
 Carnegie Mellon University). Gaussian is a federally registered
 trademark of Gaussian, Inc.
  
 This software contains proprietary and confidential information,
 including trade secrets, belonging to Gaussian, Inc.
  
 This software is provided under written license and may be
 used, copied, transmitted, or stored only in accord with that
 written license.
  
 The following legend is applicable only to US Government
 contracts under FAR:
  
                    RESTRICTED RIGHTS LEGEND
  
 Use, reproduction and disclosure by the US Government is
 subject to restrictions as set forth in subparagraphs (a)
 and (c) of the Commercial Computer Software - Restricted
 Rights clause in FAR 52.227-19.
  
 Gaussian, Inc.
 340 Quinnipiac St., Bldg. 40, Wallingford CT 06492
  
  
 ---------------------------------------------------------------
 Warning -- This program may not be used in any manner that
 competes with the business of Gaussian, Inc. or will provide
 assistance to any competitor of Gaussian, Inc.  The licensee
 of this program is prohibited from giving any competitor of
 Gaussian, Inc. access to this program.  By using this program,
 the user acknowledges that Gaussian, Inc. is engaged in the
 business of creating and licensing software in the field of
 computational chemistry and represents and warrants to the
 licensee that it is not a competitor of Gaussian, Inc. and that
 it will not use this program in any manner prohibited above.
 ---------------------------------------------------------------
  

 Cite this work as:
 Gaussian 09, Revision E.01,
 M. J. Frisch, G. W. Trucks, H. B. Schlegel, G. E. Scuseria, 
 M. A. Robb, J. R. Cheeseman, G. Scalmani, V. Barone, B. Mennucci, 
 G. A. Petersson, H. Nakatsuji, M. Caricato, X. Li, H. P. Hratchian, 
 A. F. Izmaylov, J. Bloino, G. Zheng, J. L. Sonnenberg, M. Hada, 
 M. Ehara, K. Toyota, R. Fukuda, J. Hasegawa, M. Ishida, T. Nakajima, 
 Y. Honda, O. Kitao, H. Nakai, T. Vreven, J. A. Montgomery, Jr., 
 J. E. Peralta, F. Ogliaro, M. Bearpark, J. J. Heyd, E. Brothers, 
 K. N. Kudin, V. N. Staroverov, T. Keith, R. Kobayashi, J. Normand, 
 K. Raghavachari, A. Rendell, J. C. Burant, S. S. Iyengar, J. Tomasi, 
 M. Cossi, N. Rega, J. M. Millam, M. Klene, J. E. Knox, J. B. Cross, 
 V. Bakken, C. Adamo, J. Jaramillo, R. Gomperts, R. E. Stratmann, 
 O. Yazyev, A. J. Austin, R. Cammi, C. Pomelli, J. W. Ochterski, 
 R. L. Martin, K. Morokuma, V. G. Zakrzewski, G. A. Voth, 
 P. Salvador, J. J. Dannenberg, S. Dapprich, A. D. Daniels, 
 O. Farkas, J. B. Foresman, J. V. Ortiz, J. Cioslowski, 
 and D. J. Fox, Gaussian, Inc., Wallingford CT, 2013.
 
 ******************************************
 Gaussian 09:  ES64L-G09RevE.01 30-Nov-2015
                17-Dec-2024 
 ******************************************
 %chk=pbeD3DHByanggd3.chk
 -----------------------------------------------------
 # opt freq pbepbe/6-31+g(d,p) empiricaldispersion=gd3
 -----------------------------------------------------
 1/14=-1,18=20,19=15,26=3,38=1/1,3;
 2/9=110,12=2,17=6,18=5,40=1/2;
 3/5=1,6=6,7=111,11=2,16=1,25=1,30=1,71=1,74=1009,124=31/1,2,3;
 4//1;
 5/5=2,38=5/2;
 6/7=2,8=2,9=2,10=2,28=1/1;
 7//1,2,3,16;
 1/14=-1,18=20,19=15,26=3/3(2);
 2/9=110/2;
 99//99;
 2/9=110/2;
 3/5=1,6=6,7=111,11=2,16=1,25=1,30=1,71=1,74=1009,124=31/1,2,3;
 4/5=5,16=3,69=1/1;
 5/5=2,38=5/2;
 7//1,2,3,16;
 1/14=-1,18=20,19=15,26=3/3(-5);
 2/9=110/2;
 6/7=2,8=2,9=2,10=2,19=2,28=1/1;
 99/9=1/99;
 ----------
 [No Title]
 ----------
 Symbolic Z-matrix:
 Charge =  1 Multiplicity = 1
 C                     0.21715   1.27695  -0.00001 
 C                     0.42595  -0.13859   0. 
 C                    -0.69628  -1.01575   0.00001 
 C                    -1.98425  -0.51554   0.00002 
 C                    -2.17701   0.88438   0.00001 
 C                    -1.09931   1.75676   0. 
 O                    -3.0029   -1.40899   0.00003 
 C                     1.72515  -0.71768  -0.00001 
 O                     1.81279  -2.02907  -0.00009 
 O                     2.79267   0.03522   0.00006 
 O                     1.27912   2.09906  -0.00002 
 H                    -0.55368  -2.08884   0.00002 
 H                    -3.18536   1.29034   0.00002 
 H                    -1.27457   2.82864  0. 
 H                    -3.86915  -0.97904   0.00003 
 H                     2.71154  -2.39765  -0.00001 
 H                     3.64358  -0.43514  -0.00002 
 H                     1.00574   3.0288   -0.00003 
 

 GradGradGradGradGradGradGradGradGradGradGradGradGradGradGradGradGradGrad
 Berny optimization.
 Initialization pass.
                           ----------------------------
                           !    Initial Parameters    !
                           ! (Angstroms and Degrees)  !
 --------------------------                            --------------------------
 ! Name  Definition              Value          Derivative Info.                !
 --------------------------------------------------------------------------------
 ! R1    R(1,2)                  1.4309         estimate D2E/DX2                !
 ! R2    R(1,6)                  1.4012         estimate D2E/DX2                !
 ! R3    R(1,11)                 1.343          estimate D2E/DX2                !
 ! R4    R(2,3)                  1.4244         estimate D2E/DX2                !
 ! R5    R(2,8)                  1.4224         estimate D2E/DX2                !
 ! R6    R(3,4)                  1.3817         estimate D2E/DX2                !
 ! R7    R(3,12)                 1.0825         estimate D2E/DX2                !
 ! R8    R(4,5)                  1.4131         estimate D2E/DX2                !
 ! R9    R(4,7)                  1.355          estimate D2E/DX2                !
 ! R10   R(5,6)                  1.3865         estimate D2E/DX2                !
 ! R11   R(5,13)                 1.087          estimate D2E/DX2                !
 ! R12   R(6,14)                 1.0861         estimate D2E/DX2                !
 ! R13   R(7,15)                 0.9671         estimate D2E/DX2                !
 ! R14   R(8,9)                  1.3143         estimate D2E/DX2                !
 ! R15   R(8,10)                 1.3063         estimate D2E/DX2                !
 ! R16   R(9,16)                 0.9714         estimate D2E/DX2                !
 ! R17   R(10,17)                0.9723         estimate D2E/DX2                !
 ! R18   R(11,18)                0.9691         estimate D2E/DX2                !
 ! A1    A(2,1,6)              118.4158         estimate D2E/DX2                !
 ! A2    A(2,1,11)             119.3539         estimate D2E/DX2                !
 ! A3    A(6,1,11)             122.2302         estimate D2E/DX2                !
 ! A4    A(1,2,3)              119.6214         estimate D2E/DX2                !
 ! A5    A(1,2,8)              122.4145         estimate D2E/DX2                !
 ! A6    A(3,2,8)              117.9641         estimate D2E/DX2                !
 ! A7    A(2,3,4)              120.7629         estimate D2E/DX2                !
 ! A8    A(2,3,12)             120.4429         estimate D2E/DX2                !
 ! A9    A(4,3,12)             118.7942         estimate D2E/DX2                !
 ! A10   A(3,4,5)              119.0652         estimate D2E/DX2                !
 ! A11   A(3,4,7)              117.5212         estimate D2E/DX2                !
 ! A12   A(5,4,7)              123.4136         estimate D2E/DX2                !
 ! A13   A(4,5,6)              121.1491         estimate D2E/DX2                !
 ! A14   A(4,5,13)             119.7699         estimate D2E/DX2                !
 ! A15   A(6,5,13)             119.081          estimate D2E/DX2                !
 ! A16   A(1,6,5)              120.9855         estimate D2E/DX2                !
 ! A17   A(1,6,14)             119.3112         estimate D2E/DX2                !
 ! A18   A(5,6,14)             119.7033         estimate D2E/DX2                !
 ! A19   A(4,7,15)             112.3499         estimate D2E/DX2                !
 ! A20   A(2,8,9)              117.847          estimate D2E/DX2                !
 ! A21   A(2,8,10)             120.7818         estimate D2E/DX2                !
 ! A22   A(9,8,10)             121.3712         estimate D2E/DX2                !
 ! A23   A(8,9,16)             116.122          estimate D2E/DX2                !
 ! A24   A(8,10,17)            115.873          estimate D2E/DX2                !
 ! A25   A(1,11,18)            111.359          estimate D2E/DX2                !
 ! D1    D(6,1,2,3)              0.0001         estimate D2E/DX2                !
 ! D2    D(6,1,2,8)            179.9996         estimate D2E/DX2                !
 ! D3    D(11,1,2,3)          -179.9997         estimate D2E/DX2                !
 ! D4    D(11,1,2,8)            -0.0001         estimate D2E/DX2                !
 ! D5    D(2,1,6,5)              0.0            estimate D2E/DX2                !
 ! D6    D(2,1,6,14)          -180.0            estimate D2E/DX2                !
 ! D7    D(11,1,6,5)           179.9997         estimate D2E/DX2                !
 ! D8    D(11,1,6,14)           -0.0002         estimate D2E/DX2                !
 ! D9    D(2,1,11,18)          179.9995         estimate D2E/DX2                !
 ! D10   D(6,1,11,18)           -0.0002         estimate D2E/DX2                !
 ! D11   D(1,2,3,4)             -0.0001         estimate D2E/DX2                !
 ! D12   D(1,2,3,12)          -179.9999         estimate D2E/DX2                !
 ! D13   D(8,2,3,4)           -179.9997         estimate D2E/DX2                !
 ! D14   D(8,2,3,12)             0.0006         estimate D2E/DX2                !
 ! D15   D(1,2,8,9)           -179.996          estimate D2E/DX2                !
 ! D16   D(1,2,8,10)             0.0049         estimate D2E/DX2                !
 ! D17   D(3,2,8,9)              0.0036         estimate D2E/DX2                !
 ! D18   D(3,2,8,10)          -179.9956         estimate D2E/DX2                !
 ! D19   D(2,3,4,5)              0.0001         estimate D2E/DX2                !
 ! D20   D(2,3,4,7)           -179.9998         estimate D2E/DX2                !
 ! D21   D(12,3,4,5)           179.9998         estimate D2E/DX2                !
 ! D22   D(12,3,4,7)             0.0            estimate D2E/DX2                !
 ! D23   D(3,4,5,6)              0.0            estimate D2E/DX2                !
 ! D24   D(3,4,5,13)          -179.9999         estimate D2E/DX2                !
 ! D25   D(7,4,5,6)            179.9998         estimate D2E/DX2                !
 ! D26   D(7,4,5,13)            -0.0001         estimate D2E/DX2                !
 ! D27   D(3,4,7,15)          -179.9994         estimate D2E/DX2                !
 ! D28   D(5,4,7,15)             0.0008         estimate D2E/DX2                !
 ! D29   D(4,5,6,1)              0.0            estimate D2E/DX2                !
 ! D30   D(4,5,6,14)           179.9999         estimate D2E/DX2                !
 ! D31   D(13,5,6,1)           179.9999         estimate D2E/DX2                !
 ! D32   D(13,5,6,14)           -0.0002         estimate D2E/DX2                !
 ! D33   D(2,8,9,16)          -179.994          estimate D2E/DX2                !
 ! D34   D(10,8,9,16)            0.0051         estimate D2E/DX2                !
 ! D35   D(2,8,10,17)         -179.9956         estimate D2E/DX2                !
 ! D36   D(9,8,10,17)            0.0053         estimate D2E/DX2                !
 --------------------------------------------------------------------------------
 Trust Radius=3.00D-01 FncErr=1.00D-07 GrdErr=1.00D-06
 Number of steps in this run=     89 maximum allowed number of steps=    108.
 GradGradGradGradGradGradGradGradGradGradGradGradGradGradGradGradGradGrad

                          Input orientation:                          
 ---------------------------------------------------------------------
 Center     Atomic      Atomic             Coordinates (Angstroms)
 Number     Number       Type             X           Y           Z
 ---------------------------------------------------------------------
      1          6           0        0.217152    1.276951   -0.000006
      2          6           0        0.425946   -0.138593    0.000000
      3          6           0       -0.696277   -1.015752    0.000011
      4          6           0       -1.984248   -0.515535    0.000018
      5          6           0       -2.177013    0.884379    0.000013
      6          6           0       -1.099306    1.756757    0.000001
      7          8           0       -3.002895   -1.408985    0.000033
      8          6           0        1.725149   -0.717682   -0.000014
      9          8           0        1.812785   -2.029068   -0.000089
     10          8           0        2.792671    0.035215    0.000062
     11          8           0        1.279123    2.099057   -0.000023
     12          1           0       -0.553682   -2.088843    0.000018
     13          1           0       -3.185361    1.290339    0.000020
     14          1           0       -1.274566    2.828638   -0.000004
     15          1           0       -3.869146   -0.979044    0.000028
     16          1           0        2.711538   -2.397651   -0.000006
     17          1           0        3.643577   -0.435142   -0.000021
     18          1           0        1.005738    3.028799   -0.000033
 ---------------------------------------------------------------------
                    Distance matrix (angstroms):
                    1          2          3          4          5
     1  C    0.000000
     2  C    1.430860   0.000000
     3  C    2.467963   1.424357   0.000000
     4  C    2.838867   2.439492   1.381697   0.000000
     5  C    2.426137   2.796760   2.408958   1.413123   0.000000
     6  C    1.401169   2.432847   2.801649   2.438531   1.386541
     7  O    4.193203   3.656617   2.339897   1.354952   2.437540
     8  C    2.500523   1.422418   2.439703   3.714901   4.218230
     9  O    3.670941   2.344615   2.705957   4.087572   4.940310
    10  O    2.859232   2.373098   3.643802   4.808563   5.041710
    11  O    1.342997   2.394784   3.688393   4.181588   3.663375
    12  H    3.452934   2.182463   1.082524   2.126456   3.387514
    13  H    3.402539   3.883733   3.393169   2.168837   1.087000
    14  H    2.152430   3.419971   3.887641   3.418646   2.143491
    15  H    4.667692   4.376548   3.173081   1.941052   2.517074
    16  H    4.441245   3.213608   3.677343   5.058929   5.888094
    17  H    3.830359   3.231268   4.378520   5.628399   5.968283
    18  H    1.921156   3.220020   4.388080   4.637059   3.837765
                    6          7          8          9         10
     6  C    0.000000
     7  O    3.693992   0.000000
     8  C    3.755049   4.778316   0.000000
     9  O    4.776269   4.855438   1.314311   0.000000
    10  O    4.255725   5.972797   1.306314   2.285047   0.000000
    11  O    2.402934   5.535525   2.851834   4.162477   2.559350
    12  H    3.884114   2.541820   2.659540   2.367222   3.963546
    13  H    2.137562   2.705484   5.305210   5.999994   6.108372
    14  H    1.086115   4.576524   4.644855   5.755784   4.934129
    15  H    3.893150   0.967078   5.600397   5.778139   6.738585
    16  H    5.637521   5.799328   1.948142   0.971396   2.434218
    17  H    5.224879   6.717437   1.939122   2.427427   0.972253
    18  H    2.459533   5.980223   3.814928   5.121850   3.486356
                   11         12         13         14         15
    11  O    0.000000
    12  H    4.571398   0.000000
    13  H    4.537140   4.283060   0.000000
    14  H    2.655864   4.970040   2.453060   0.000000
    15  H    5.998281   3.496277   2.370161   4.607634   0.000000
    16  H    4.719343   3.279790   6.955191   6.572908   6.731853
    17  H    3.465950   4.511287   7.043556   5.902575   7.532386
    18  H    0.969102   5.349958   4.537351   2.289072   6.310887
                   16         17         18
    16  H    0.000000
    17  H    2.172588   0.000000
    18  H    5.688243   4.353973   0.000000
 Stoichiometry    C7H7O4(1+)
 Framework group  C1[X(C7H7O4)]
 Deg. of freedom    48
 Full point group                 C1      NOp   1
 Largest Abelian subgroup         C1      NOp   1
 Largest concise Abelian subgroup C1      NOp   1
                         Standard orientation:                         
 ---------------------------------------------------------------------
 Center     Atomic      Atomic             Coordinates (Angstroms)
 Number     Number       Type             X           Y           Z
 ---------------------------------------------------------------------
      1          6           0        0.217152    1.276951   -0.000006
      2          6           0        0.425946   -0.138593   -0.000000
      3          6           0       -0.696277   -1.015752    0.000011
      4          6           0       -1.984248   -0.515535    0.000018
      5          6           0       -2.177013    0.884379    0.000013
      6          6           0       -1.099306    1.756757    0.000001
      7          8           0       -3.002895   -1.408985    0.000033
      8          6           0        1.725149   -0.717682   -0.000014
      9          8           0        1.812785   -2.029068   -0.000089
     10          8           0        2.792671    0.035215    0.000062
     11          8           0        1.279123    2.099057   -0.000023
     12          1           0       -0.553682   -2.088843    0.000018
     13          1           0       -3.185361    1.290339    0.000020
     14          1           0       -1.274566    2.828638   -0.000004
     15          1           0       -3.869146   -0.979044    0.000028
     16          1           0        2.711538   -2.397651   -0.000006
     17          1           0        3.643577   -0.435142   -0.000021
     18          1           0        1.005738    3.028799   -0.000033
 ---------------------------------------------------------------------
 Rotational constants (GHZ):      1.7659755      0.9026590      0.5973368
 Standard basis: 6-31+G(d,p) (6D, 7F)
 There are   244 symmetry adapted cartesian basis functions of A   symmetry.
 There are   244 symmetry adapted basis functions of A   symmetry.
   244 basis functions,   401 primitive gaussians,   244 cartesian basis functions
    40 alpha electrons       40 beta electrons
       nuclear repulsion energy       605.5726573611 Hartrees.
 NAtoms=   18 NActive=   18 NUniq=   18 SFac= 1.00D+00 NAtFMM=   60 NAOKFM=F Big=F
 Integral buffers will be    131072 words long.
 Raffenetti 2 integral format.
 Two-electron integral symmetry is turned on.
 Nuclear repulsion after empirical dispersion term =      605.5649215952 Hartrees.
 One-electron integrals computed using PRISM.
 NBasis=   244 RedAO= T EigKep=  3.29D-06  NBF=   244
 NBsUse=   244 1.00D-06 EigRej= -1.00D+00 NBFU=   244
 ExpMin= 4.38D-02 ExpMax= 5.48D+03 ExpMxC= 8.25D+02 IAcc=2 IRadAn=         4 AccDes= 0.00D+00
 Harris functional with IExCor= 1009 and IRadAn=       4 diagonalized for initial guess.
 HarFok:  IExCor= 1009 AccDes= 0.00D+00 IRadAn=         4 IDoV= 1 UseB2=F ITyADJ=14
 ICtDFT=  3500011 ScaDFX=  1.000000  1.000000  1.000000  1.000000
 FoFCou: FMM=F IPFlag=           0 FMFlag=      100000 FMFlg1=           0
         NFxFlg=           0 DoJE=T BraDBF=F KetDBF=T FulRan=T
         wScrn=  0.000000 ICntrl=     500 IOpCl=  0 I1Cent=   200000004 NGrid=           0
         NMat0=    1 NMatS0=      1 NMatT0=    0 NMatD0=    1 NMtDS0=    0 NMtDT0=    0
 Petite list used in FoFCou.
 Keep J ints in memory in canonical form, NReq=454277305.
 Requested convergence on RMS density matrix=1.00D-08 within 128 cycles.
 Requested convergence on MAX density matrix=1.00D-06.
 Requested convergence on             energy=1.00D-06.
 No special actions if energy rises.
 EnCoef did     2 forward-backward iterations
 EnCoef did     2 forward-backward iterations
 EnCoef did     6 forward-backward iterations
 SCF Done:  E(RPBE-PBE) =  -571.000729962     A.U. after   18 cycles
            NFock= 18  Conv=0.28D-08     -V/T= 2.0089

 **********************************************************************

            Population analysis using the SCF density.

 **********************************************************************

 Orbital symmetries:
       Occupied  (A) (A) (A) (A) (A) (A) (A) (A) (A) (A) (A) (A)
                 (A) (A) (A) (A) (A) (A) (A) (A) (A) (A) (A) (A)
                 (A) (A) (A) (A) (A) (A) (A) (A) (A) (A) (A) (A)
                 (A) (A) (A) (A)
       Virtual   (A) (A) (A) (A) (A) (A) (A) (A) (A) (A) (A) (A)
                 (A) (A) (A) (A) (A) (A) (A) (A) (A) (A) (A) (A)
                 (A) (A) (A) (A) (A) (A) (A) (A) (A) (A) (A) (A)
                 (A) (A) (A) (A) (A) (A) (A) (A) (A) (A) (A) (A)
                 (A) (A) (A) (A) (A) (A) (A) (A) (A) (A) (A) (A)
                 (A) (A) (A) (A) (A) (A) (A) (A) (A) (A) (A) (A)
                 (A) (A) (A) (A) (A) (A) (A) (A) (A) (A) (A) (A)
                 (A) (A) (A) (A) (A) (A) (A) (A) (A) (A) (A) (A)
                 (A) (A) (A) (A) (A) (A) (A) (A) (A) (A) (A) (A)
                 (A) (A) (A) (A) (A) (A) (A) (A) (A) (A) (A) (A)
                 (A) (A) (A) (A) (A) (A) (A) (A) (A) (A) (A) (A)
                 (A) (A) (A) (A) (A) (A) (A) (A) (A) (A) (A) (A)
                 (A) (A) (A) (A) (A) (A) (A) (A) (A) (A) (A) (A)
                 (A) (A) (A) (A) (A) (A) (A) (A) (A) (A) (A) (A)
                 (A) (A) (A) (A) (A) (A) (A) (A) (A) (A) (A) (A)
                 (A) (A) (A) (A) (A) (A) (A) (A) (A) (A) (A) (A)
                 (A) (A) (A) (A) (A) (A) (A) (A) (A) (A) (A) (A)
 The electronic state is 1-A.
 Alpha  occ. eigenvalues --  -19.04318 -19.04271 -18.98376 -18.95297 -10.25320
 Alpha  occ. eigenvalues --  -10.14823 -10.12040 -10.10191 -10.08066 -10.07279
 Alpha  occ. eigenvalues --  -10.07040  -1.25611  -1.18083  -1.15415  -1.12200
 Alpha  occ. eigenvalues --   -0.95347  -0.89365  -0.83874  -0.81325  -0.77847
 Alpha  occ. eigenvalues --   -0.73536  -0.72683  -0.67671  -0.65985  -0.61897
 Alpha  occ. eigenvalues --   -0.61867  -0.60704  -0.57799  -0.54701  -0.53766
 Alpha  occ. eigenvalues --   -0.53733  -0.52362  -0.51361  -0.51035  -0.50183
 Alpha  occ. eigenvalues --   -0.47000  -0.45457  -0.43193  -0.40638  -0.34296
 Alpha virt. eigenvalues --   -0.27840  -0.19975  -0.18721  -0.15969  -0.14457
 Alpha virt. eigenvalues --   -0.13763  -0.12731  -0.11211  -0.10341  -0.08818
 Alpha virt. eigenvalues --   -0.07785  -0.06507  -0.05632  -0.05386  -0.05227
 Alpha virt. eigenvalues --   -0.04134  -0.01753  -0.01535  -0.01068  -0.00772
 Alpha virt. eigenvalues --   -0.00400   0.00360   0.00396   0.01501   0.02088
 Alpha virt. eigenvalues --    0.02334   0.02418   0.03686   0.03859   0.04607
 Alpha virt. eigenvalues --    0.05496   0.06274   0.06399   0.06925   0.07673
 Alpha virt. eigenvalues --    0.07893   0.08367   0.08877   0.09827   0.10148
 Alpha virt. eigenvalues --    0.11448   0.12011   0.12393   0.12865   0.13365
 Alpha virt. eigenvalues --    0.13784   0.14769   0.16035   0.16385   0.16564
 Alpha virt. eigenvalues --    0.16698   0.17432   0.17960   0.20237   0.21125
 Alpha virt. eigenvalues --    0.21665   0.22674   0.24496   0.25390   0.26339
 Alpha virt. eigenvalues --    0.27967   0.29356   0.30292   0.33902   0.39666
 Alpha virt. eigenvalues --    0.40868   0.46229   0.46953   0.48749   0.51290
 Alpha virt. eigenvalues --    0.52423   0.53194   0.54270   0.55058   0.56095
 Alpha virt. eigenvalues --    0.57824   0.59073   0.63995   0.64090   0.66937
 Alpha virt. eigenvalues --    0.68544   0.74105   0.74687   0.78345   0.79358
 Alpha virt. eigenvalues --    0.81534   0.83876   0.85348   0.87670   0.88643
 Alpha virt. eigenvalues --    0.89001   0.91007   0.93668   0.95405   0.95981
 Alpha virt. eigenvalues --    0.97340   0.98152   0.98983   1.00518   1.00992
 Alpha virt. eigenvalues --    1.02344   1.04259   1.05204   1.05592   1.06145
 Alpha virt. eigenvalues --    1.07206   1.07430   1.10933   1.11283   1.11874
 Alpha virt. eigenvalues --    1.14780   1.16170   1.16713   1.18445   1.18656
 Alpha virt. eigenvalues --    1.21729   1.25119   1.29045   1.29629   1.33074
 Alpha virt. eigenvalues --    1.35761   1.36422   1.38287   1.39345   1.42795
 Alpha virt. eigenvalues --    1.47341   1.49704   1.53304   1.53497   1.54507
 Alpha virt. eigenvalues --    1.63487   1.65085   1.67264   1.68002   1.69407
 Alpha virt. eigenvalues --    1.70616   1.71739   1.72105   1.74716   1.79087
 Alpha virt. eigenvalues --    1.79958   1.80327   1.83616   1.90479   1.96966
 Alpha virt. eigenvalues --    1.97653   2.00995   2.02267   2.04883   2.07849
 Alpha virt. eigenvalues --    2.10711   2.13118   2.14140   2.16083   2.17312
 Alpha virt. eigenvalues --    2.18178   2.21697   2.23676   2.25006   2.26520
 Alpha virt. eigenvalues --    2.28250   2.30274   2.33288   2.34597   2.36309
 Alpha virt. eigenvalues --    2.37902   2.38802   2.40566   2.42524   2.44692
 Alpha virt. eigenvalues --    2.48741   2.48824   2.50731   2.51671   2.55201
 Alpha virt. eigenvalues --    2.56922   2.64512   2.70208   2.73002   2.80067
 Alpha virt. eigenvalues --    2.82307   2.86604   2.92875   2.95692   3.01229
 Alpha virt. eigenvalues --    3.09008   3.14651   3.23538   3.24836   3.29043
 Alpha virt. eigenvalues --    3.31607   3.33548   3.55552   3.97843   4.01646
 Alpha virt. eigenvalues --    4.05914   4.08261   4.09652   4.21751   4.25779
 Alpha virt. eigenvalues --    4.32510   4.36782   4.56878   4.71326
          Condensed to atoms (all electrons):
               1          2          3          4          5          6
     1  C   20.144745  -5.192344  -4.815814   0.731582   0.979770  -3.710557
     2  C   -5.192344  12.281126  -2.074401   1.124063  -0.766934   0.429775
     3  C   -4.815814  -2.074401  15.926268  -3.773207  -0.485009   0.237334
     4  C    0.731582   1.124063  -3.773207   9.147803  -0.448211   0.407417
     5  C    0.979770  -0.766934  -0.485009  -0.448211   6.471658  -0.348738
     6  C   -3.710557   0.429775   0.237334   0.407417  -0.348738   8.658269
     7  O   -0.030815   0.054076   0.073024  -0.051126  -0.109070   0.040373
     8  C   -1.247577  -0.329139   0.896506  -0.942414   0.073346  -0.295685
     9  O   -0.114812   0.120251  -0.018103   0.037762  -0.007888   0.025326
    10  O   -0.044193   0.053406  -0.127119   0.017332   0.014067   0.082122
    11  O    0.152407  -0.231088   0.076186  -0.005376   0.035917   0.114954
    12  H    0.016623   0.028914   0.129995   0.109826   0.025340  -0.000110
    13  H    0.019779   0.003105  -0.024181   0.027679   0.224250   0.068996
    14  H    0.021904  -0.017651  -0.012659   0.007221   0.115486   0.200611
    15  H    0.001652  -0.012370   0.083817  -0.053152  -0.022679   0.007180
    16  H   -0.004911  -0.015887   0.021286  -0.002529   0.000447   0.004497
    17  H    0.001981   0.007434   0.004505   0.005250  -0.000386  -0.009983
    18  H   -0.038720   0.132468  -0.001483   0.002879   0.001617  -0.111023
               7          8          9         10         11         12
     1  C   -0.030815  -1.247577  -0.114812  -0.044193   0.152407   0.016623
     2  C    0.054076  -0.329139   0.120251   0.053406  -0.231088   0.028914
     3  C    0.073024   0.896506  -0.018103  -0.127119   0.076186   0.129995
     4  C   -0.051126  -0.942414   0.037762   0.017332  -0.005376   0.109826
     5  C   -0.109070   0.073346  -0.007888   0.014067   0.035917   0.025340
     6  C    0.040373  -0.295685   0.025326   0.082122   0.114954  -0.000110
     7  O    8.302252  -0.004748   0.000044   0.000133   0.000380  -0.007567
     8  C   -0.004748   6.856475   0.054885   0.100148  -0.198126  -0.000363
     9  O    0.000044   0.054885   8.189729  -0.114692   0.001859   0.003389
    10  O    0.000133   0.100148  -0.114692   8.219156  -0.007076   0.000639
    11  O    0.000380  -0.198126   0.001859  -0.007076   8.323182  -0.000286
    12  H   -0.007567  -0.000363   0.003389   0.000639  -0.000286   0.499510
    13  H   -0.013920   0.000388  -0.000003   0.000019  -0.000542  -0.000139
    14  H   -0.000539   0.008765   0.000004  -0.000004  -0.016943   0.000009
    15  H    0.208686   0.002692   0.000010   0.000001  -0.000010  -0.000059
    16  H    0.000008   0.031810   0.195195  -0.016712   0.000068   0.000292
    17  H    0.000001   0.026178  -0.017688   0.177772   0.003812   0.000007
    18  H   -0.000009   0.021794   0.000018  -0.000098   0.192117   0.000004
              13         14         15         16         17         18
     1  C    0.019779   0.021904   0.001652  -0.004911   0.001981  -0.038720
     2  C    0.003105  -0.017651  -0.012370  -0.015887   0.007434   0.132468
     3  C   -0.024181  -0.012659   0.083817   0.021286   0.004505  -0.001483
     4  C    0.027679   0.007221  -0.053152  -0.002529   0.005250   0.002879
     5  C    0.224250   0.115486  -0.022679   0.000447  -0.000386   0.001617
     6  C    0.068996   0.200611   0.007180   0.004497  -0.009983  -0.111023
     7  O   -0.013920  -0.000539   0.208686   0.000008   0.000001  -0.000009
     8  C    0.000388   0.008765   0.002692   0.031810   0.026178   0.021794
     9  O   -0.000003   0.000004   0.000010   0.195195  -0.017688   0.000018
    10  O    0.000019  -0.000004   0.000001  -0.016712   0.177772  -0.000098
    11  O   -0.000542  -0.016943  -0.000010   0.000068   0.003812   0.192117
    12  H   -0.000139   0.000009  -0.000059   0.000292   0.000007   0.000004
    13  H    0.523176  -0.005647   0.005702  -0.000000   0.000000  -0.000022
    14  H   -0.005647   0.523533  -0.000009  -0.000000  -0.000000   0.008016
    15  H    0.005702  -0.000009   0.399687   0.000000   0.000000  -0.000000
    16  H   -0.000000  -0.000000   0.000000   0.376584   0.008965  -0.000000
    17  H    0.000000  -0.000000   0.000000   0.008965   0.373397  -0.000011
    18  H   -0.000022   0.008016  -0.000000  -0.000000  -0.000011   0.377470
 Mulliken charges:
               1
     1  C   -0.870700
     2  C    0.405197
     3  C   -0.116947
     4  C   -0.342797
     5  C    0.247016
     6  C    0.199243
     7  O   -0.461182
     8  C    0.945065
     9  O   -0.355287
    10  O   -0.354902
    11  O   -0.441435
    12  H    0.193978
    13  H    0.171360
    14  H    0.167903
    15  H    0.378851
    16  H    0.400887
    17  H    0.418766
    18  H    0.414985
 Sum of Mulliken charges =   1.00000
 Mulliken charges with hydrogens summed into heavy atoms:
               1
     1  C   -0.870700
     2  C    0.405197
     3  C    0.077031
     4  C   -0.342797
     5  C    0.418376
     6  C    0.367146
     7  O   -0.082331
     8  C    0.945065
     9  O    0.045599
    10  O    0.063864
    11  O   -0.026450
 Electronic spatial extent (au):  <R**2>=           1737.8889
 Charge=              1.0000 electrons
 Dipole moment (field-independent basis, Debye):
    X=              3.7451    Y=              0.3971    Z=             -0.0000  Tot=              3.7661
 Quadrupole moment (field-independent basis, Debye-Ang):
   XX=            -13.6929   YY=            -40.0953   ZZ=            -63.6606
   XY=            -15.9021   XZ=             -0.0003   YZ=             -0.0004
 Traceless Quadrupole moment (field-independent basis, Debye-Ang):
   XX=             25.4567   YY=             -0.9457   ZZ=            -24.5110
   XY=            -15.9021   XZ=             -0.0003   YZ=             -0.0004
 Octapole moment (field-independent basis, Debye-Ang**2):
  XXX=             41.0039  YYY=             30.5636  ZZZ=             -0.0002  XYY=             34.0079
  XXY=            -39.9452  XXZ=             -0.0008  XZZ=              8.5535  YZZ=             -3.0199
  YYZ=              0.0002  XYZ=             -0.0007
 Hexadecapole moment (field-independent basis, Debye-Ang**3):
 XXXX=           -580.1700 YYYY=           -502.4802 ZZZZ=            -63.0555 XXXY=           -133.0385
 XXXZ=             -0.0024 YYYX=            -47.1670 YYYZ=             -0.0041 ZZZX=              0.0040
 ZZZY=             -0.0012 XXYY=           -259.9099 XXZZ=           -238.1230 YYZZ=           -137.8060
 XXYZ=             -0.0009 YYXZ=              0.0024 ZZXY=              1.4648
 N-N= 6.055649215952D+02 E-N=-2.532555740097D+03  KE= 5.659717012983D+02
 Calling FoFJK, ICntrl=      2527 FMM=F ISym2X=0 I1Cent= 0 IOpClX= 0 NMat=1 NMatS=1 NMatT=0.
 ***** Axes restored to original set *****
 -------------------------------------------------------------------
 Center     Atomic                   Forces (Hartrees/Bohr)
 Number     Number              X              Y              Z
 -------------------------------------------------------------------
      1        6           0.000390584    0.002085980   -0.000000024
      2        6          -0.000484472   -0.001998862   -0.000000400
      3        6           0.004334201    0.000415805   -0.000000120
      4        6          -0.005760558   -0.000576097    0.000000023
      5        6          -0.000480564    0.000758087   -0.000000009
      6        6          -0.000659098   -0.000265712   -0.000000042
      7        8           0.005457203   -0.007238245   -0.000000007
      8        6          -0.001467466   -0.000601334    0.000001603
      9        8          -0.008942750   -0.008064135   -0.000001912
     10        8           0.001411002    0.012816987    0.000001003
     11        8           0.008347331   -0.005408993    0.000000012
     12        1           0.001212370   -0.005830486    0.000000047
     13        1          -0.005278595    0.002288106    0.000000047
     14        1          -0.001042460    0.005678813   -0.000000002
     15        1          -0.006648222    0.004822091    0.000000034
     16        1           0.007156772   -0.001925073    0.000000629
     17        1           0.006050581   -0.004394351   -0.000000784
     18        1          -0.003595856    0.007437418   -0.000000096
 -------------------------------------------------------------------
 Cartesian Forces:  Max     0.012816987 RMS     0.004095735

 GradGradGradGradGradGradGradGradGradGradGradGradGradGradGradGradGradGrad
 Berny optimization.
 FormGI is forming the generalized inverse of G from B-inverse, IUseBI=4.
 Internal  Forces:  Max     0.010946092 RMS     0.003360170
 Search for a local minimum.
 Step number   1 out of a maximum of   89
 All quantities printed in internal units (Hartrees-Bohrs-Radians)
 Mixed Optimization -- RFO/linear search
 Second derivative matrix not updated -- first step.
 ITU=  0
     Eigenvalues ---    0.01733   0.01792   0.01805   0.01963   0.02018
     Eigenvalues ---    0.02055   0.02102   0.02134   0.02172   0.02205
     Eigenvalues ---    0.02288   0.02347   0.02446   0.02825   0.02931
     Eigenvalues ---    0.16000   0.16000   0.16000   0.16000   0.16000
     Eigenvalues ---    0.16000   0.16000   0.22358   0.23489   0.24598
     Eigenvalues ---    0.25000   0.25000   0.25000   0.25000   0.25000
     Eigenvalues ---    0.35162   0.35266   0.35691   0.38943   0.40337
     Eigenvalues ---    0.42098   0.42620   0.44067   0.46866   0.48096
     Eigenvalues ---    0.52919   0.53093   0.53561   0.53978   0.53981
     Eigenvalues ---    0.56539   0.63370   0.65470
 RFO step:  Lambda=-1.89091279D-03 EMin= 1.73307888D-02
 Linear search not attempted -- first point.
 Iteration  1 RMS(Cart)=  0.01147984 RMS(Int)=  0.00003890
 Iteration  2 RMS(Cart)=  0.00005249 RMS(Int)=  0.00000054
 Iteration  3 RMS(Cart)=  0.00000000 RMS(Int)=  0.00000054
 Variable       Old X    -DE/DX   Delta X   Delta X   Delta X     New X
                                 (Linear)    (Quad)   (Total)
    R1        2.70393   0.00639   0.00000   0.01529   0.01529   2.71922
    R2        2.64783   0.00666   0.00000   0.01449   0.01449   2.66232
    R3        2.53790   0.00500   0.00000   0.00882   0.00882   2.54671
    R4        2.69164   0.00332   0.00000   0.00777   0.00777   2.69941
    R5        2.68798   0.00473   0.00000   0.01118   0.01118   2.69916
    R6        2.61103   0.00876   0.00000   0.01799   0.01799   2.62902
    R7        2.04567   0.00594   0.00000   0.01655   0.01655   2.06222
    R8        2.67042   0.00639   0.00000   0.01487   0.01488   2.68529
    R9        2.56049   0.00249   0.00000   0.00459   0.00459   2.56508
   R10        2.62018   0.00561   0.00000   0.01179   0.01179   2.63197
   R11        2.05413   0.00575   0.00000   0.01627   0.01627   2.07040
   R12        2.05246   0.00577   0.00000   0.01628   0.01628   2.06874
   R13        1.82751   0.00810   0.00000   0.01496   0.01496   1.84247
   R14        2.48369   0.00985   0.00000   0.01550   0.01550   2.49919
   R15        2.46858   0.01095   0.00000   0.01667   0.01667   2.48525
   R16        1.83567   0.00735   0.00000   0.01380   0.01380   1.84947
   R17        1.83729   0.00742   0.00000   0.01398   0.01398   1.85127
   R18        1.83134   0.00815   0.00000   0.01516   0.01516   1.84650
    A1        2.06675   0.00018   0.00000   0.00010   0.00010   2.06684
    A2        2.08312  -0.00052   0.00000  -0.00175  -0.00175   2.08136
    A3        2.13332   0.00034   0.00000   0.00166   0.00166   2.13498
    A4        2.08779   0.00026   0.00000   0.00033   0.00033   2.08812
    A5        2.13654   0.00012   0.00000   0.00083   0.00083   2.13736
    A6        2.05886  -0.00038   0.00000  -0.00116  -0.00116   2.05770
    A7        2.10771  -0.00000   0.00000  -0.00003  -0.00003   2.10768
    A8        2.10212  -0.00044   0.00000  -0.00271  -0.00271   2.09942
    A9        2.07335   0.00044   0.00000   0.00274   0.00274   2.07609
   A10        2.07808  -0.00008   0.00000   0.00036   0.00036   2.07844
   A11        2.05113  -0.00002   0.00000  -0.00041  -0.00041   2.05072
   A12        2.15397   0.00010   0.00000   0.00005   0.00005   2.15403
   A13        2.11445  -0.00053   0.00000  -0.00157  -0.00157   2.11288
   A14        2.09038   0.00042   0.00000   0.00177   0.00177   2.09215
   A15        2.07836   0.00010   0.00000  -0.00020  -0.00020   2.07815
   A16        2.11160   0.00016   0.00000   0.00081   0.00081   2.11241
   A17        2.08237   0.00003   0.00000   0.00028   0.00028   2.08266
   A18        2.08922  -0.00019   0.00000  -0.00109  -0.00109   2.08812
   A19        1.96088  -0.00250   0.00000  -0.01544  -0.01544   1.94544
   A20        2.05682  -0.00137   0.00000  -0.00545  -0.00545   2.05137
   A21        2.10804  -0.00164   0.00000  -0.00652  -0.00652   2.10152
   A22        2.11833   0.00302   0.00000   0.01198   0.01198   2.13030
   A23        2.02671  -0.00171   0.00000  -0.01054  -0.01054   2.01617
   A24        2.02237  -0.00170   0.00000  -0.01048  -0.01048   2.01188
   A25        1.94358  -0.00247   0.00000  -0.01525  -0.01525   1.92833
    D1        0.00000   0.00000   0.00000   0.00000   0.00000   0.00000
    D2        3.14159  -0.00000   0.00000  -0.00000  -0.00000   3.14159
    D3       -3.14159   0.00000   0.00000   0.00000   0.00000  -3.14159
    D4       -0.00000   0.00000   0.00000   0.00000   0.00000  -0.00000
    D5       -0.00000   0.00000   0.00000  -0.00000  -0.00000  -0.00000
    D6       -3.14159  -0.00000   0.00000  -0.00000  -0.00000   3.14159
    D7        3.14159  -0.00000   0.00000  -0.00000  -0.00000   3.14159
    D8       -0.00000  -0.00000   0.00000  -0.00000  -0.00000  -0.00000
    D9        3.14158  -0.00000   0.00000  -0.00000  -0.00000   3.14158
   D10       -0.00000  -0.00000   0.00000  -0.00000  -0.00000  -0.00000
   D11       -0.00000  -0.00000   0.00000  -0.00000  -0.00000  -0.00000
   D12       -3.14159  -0.00000   0.00000  -0.00000  -0.00000  -3.14159
   D13       -3.14159  -0.00000   0.00000  -0.00000  -0.00000  -3.14159
   D14        0.00001   0.00000   0.00000   0.00000   0.00000   0.00001
   D15       -3.14152   0.00000   0.00000   0.00002   0.00001  -3.14151
   D16        0.00008  -0.00000   0.00000  -0.00001  -0.00001   0.00007
   D17        0.00006   0.00000   0.00000   0.00001   0.00001   0.00008
   D18       -3.14152  -0.00000   0.00000  -0.00001  -0.00001  -3.14153
   D19        0.00000   0.00000   0.00000   0.00000   0.00000   0.00000
   D20       -3.14159   0.00000   0.00000   0.00000   0.00000  -3.14159
   D21        3.14159  -0.00000   0.00000  -0.00000  -0.00000   3.14159
   D22       -0.00000   0.00000   0.00000   0.00000   0.00000  -0.00000
   D23        0.00000   0.00000   0.00000   0.00000   0.00000   0.00000
   D24       -3.14159   0.00000   0.00000   0.00000   0.00000  -3.14159
   D25        3.14159   0.00000   0.00000   0.00000   0.00000   3.14159
   D26       -0.00000  -0.00000   0.00000  -0.00000  -0.00000  -0.00000
   D27       -3.14158  -0.00000   0.00000  -0.00000  -0.00000  -3.14159
   D28        0.00001  -0.00000   0.00000  -0.00000  -0.00000   0.00001
   D29       -0.00000  -0.00000   0.00000  -0.00000  -0.00000  -0.00000
   D30        3.14159  -0.00000   0.00000  -0.00000  -0.00000   3.14159
   D31        3.14159  -0.00000   0.00000  -0.00000  -0.00000   3.14159
   D32       -0.00000   0.00000   0.00000   0.00000   0.00000  -0.00000
   D33       -3.14149  -0.00000   0.00000  -0.00002  -0.00002  -3.14150
   D34        0.00009   0.00000   0.00000   0.00001   0.00001   0.00010
   D35       -3.14152   0.00000   0.00000   0.00002   0.00002  -3.14150
   D36        0.00009  -0.00000   0.00000  -0.00001  -0.00001   0.00008
         Item               Value     Threshold  Converged?
 Maximum Force            0.010946     0.000450     NO 
 RMS     Force            0.003360     0.000300     NO 
 Maximum Displacement     0.033744     0.001800     NO 
 RMS     Displacement     0.011464     0.001200     NO 
 Predicted change in Energy=-9.497196D-04
 GradGradGradGradGradGradGradGradGradGradGradGradGradGradGradGradGradGrad

                          Input orientation:                          
 ---------------------------------------------------------------------
 Center     Atomic      Atomic             Coordinates (Angstroms)
 Number     Number       Type             X           Y           Z
 ---------------------------------------------------------------------
      1          6           0        0.219637    1.281830   -0.000003
      2          6           0        0.430199   -0.141632    0.000007
      3          6           0       -0.694606   -1.022161    0.000015
      4          6           0       -1.991812   -0.519428    0.000018
      5          6           0       -2.187168    0.888075    0.000010
      6          6           0       -1.104180    1.763843   -0.000001
      7          8           0       -3.011272   -1.415632    0.000032
      8          6           0        1.734562   -0.723671   -0.000002
      9          8           0        1.815000   -2.043738   -0.000092
     10          8           0        2.804643    0.040862    0.000063
     11          8           0        1.286403    2.105362   -0.000019
     12          1           0       -0.547121   -2.103431    0.000025
     13          1           0       -3.203218    1.297957    0.000014
     14          1           0       -1.281477    2.844122   -0.000008
     15          1           0       -3.878322   -0.969720    0.000027
     16          1           0        2.722232   -2.410857   -0.000017
     17          1           0        3.659942   -0.436818   -0.000030
     18          1           0        0.997742    3.038875   -0.000033
 ---------------------------------------------------------------------
                    Distance matrix (angstroms):
                    1          2          3          4          5
     1  C    0.000000
     2  C    1.438951   0.000000
     3  C    2.478752   1.428467   0.000000
     4  C    2.852198   2.451299   1.391217   0.000000
     5  C    2.438802   2.812634   2.424199   1.420995   0.000000
     6  C    1.408839   2.446458   2.815949   2.449738   1.392779
     7  O    4.208927   3.669714   2.349843   1.357380   2.446673
     8  C    2.513371   1.428332   2.447438   3.731968   4.240012
     9  O    3.688439   2.352802   2.709565   4.100651   4.961137
    10  O    2.867448   2.381446   3.657152   4.829069   5.063196
    11  O    1.347663   2.404593   3.702134   4.199549   3.680691
    12  H    3.471010   2.191760   1.091282   2.143874   3.411577
    13  H    3.422892   3.908214   3.417028   2.184122   1.095609
    14  H    2.166587   3.441594   3.910571   3.437738   2.155551
    15  H    4.675761   4.387378   3.184148   1.939506   2.512250
    16  H    4.460820   3.225336   3.688259   5.079342   5.914826
    17  H    3.845705   3.243204   4.393713   5.652358   5.995335
    18  H    1.921628   3.230747   4.399551   4.647467   3.843123
                    6          7          8          9         10
     6  C    0.000000
     7  O    3.707568   0.000000
     8  C    3.774412   4.796014   0.000000
     9  O    4.797841   4.866972   1.322515   0.000000
    10  O    4.271716   5.995518   1.315136   2.307585   0.000000
    11  O    2.414854   5.555844   2.864311   4.182636   2.562658
    12  H    3.907188   2.558340   2.666424   2.362876   3.978985
    13  H    2.150119   2.720369   5.335602   6.029049   6.137970
    14  H    1.094732   4.597575   4.671793   5.786134   4.955265
    15  H    3.894641   0.974994   5.618274   5.793740   6.758942
    16  H    5.662998   5.819239   1.955016   0.978696   2.453104
    17  H    5.247834   6.742638   1.946631   2.446631   0.979650
    18  H    2.458410   5.992897   3.834013   5.147898   3.500424
                   11         12         13         14         15
    11  O    0.000000
    12  H    4.590833   0.000000
    13  H    4.561644   4.315586   0.000000
    14  H    2.672036   5.001756   2.466519   0.000000
    15  H    6.010866   3.518834   2.366036   4.614000   0.000000
    16  H    4.738970   3.283776   6.990440   6.606398   6.756048
    17  H    3.477983   4.525150   7.079012   5.931458   7.557076
    18  H    0.977123   5.369349   4.547401   2.287524   6.312276
                   16         17         18
    16  H    0.000000
    17  H    2.185436   0.000000
    18  H    5.716068   4.378098   0.000000
 Stoichiometry    C7H7O4(1+)
 Framework group  C1[X(C7H7O4)]
 Deg. of freedom    48
 Full point group                 C1      NOp   1
 Largest Abelian subgroup         C1      NOp   1
 Largest concise Abelian subgroup C1      NOp   1
                         Standard orientation:                         
 ---------------------------------------------------------------------
 Center     Atomic      Atomic             Coordinates (Angstroms)
 Number     Number       Type             X           Y           Z
 ---------------------------------------------------------------------
      1          6           0        0.218022    1.282998   -0.000004
      2          6           0        0.429448   -0.140336    0.000006
      3          6           0       -0.694823   -1.021547    0.000014
      4          6           0       -1.992334   -0.519601    0.000016
      5          6           0       -2.188544    0.887783    0.000009
      6          6           0       -1.106087    1.764208   -0.000002
      7          8           0       -3.011250   -1.416423    0.000030
      8          6           0        1.734164   -0.721583   -0.000003
      9          8           0        1.815402   -2.041601   -0.000093
     10          8           0        2.803781    0.043599    0.000062
     11          8           0        1.284288    2.107178   -0.000021
     12          1           0       -0.546683   -2.102727    0.000023
     13          1           0       -3.204842    1.297049    0.000013
     14          1           0       -1.284040    2.844380   -0.000009
     15          1           0       -3.878570   -0.971038    0.000025
     16          1           0        2.722857   -2.408170   -0.000019
     17          1           0        3.659369   -0.433562   -0.000032
     18          1           0        0.995061    3.040514   -0.000034
 ---------------------------------------------------------------------
 Rotational constants (GHZ):      1.7488130      0.8960904      0.5924960
 Standard basis: 6-31+G(d,p) (6D, 7F)
 There are   244 symmetry adapted cartesian basis functions of A   symmetry.
 There are   244 symmetry adapted basis functions of A   symmetry.
   244 basis functions,   401 primitive gaussians,   244 cartesian basis functions
    40 alpha electrons       40 beta electrons
       nuclear repulsion energy       602.8027807799 Hartrees.
 NAtoms=   18 NActive=   18 NUniq=   18 SFac= 1.00D+00 NAtFMM=   60 NAOKFM=F Big=F
 Integral buffers will be    131072 words long.
 Raffenetti 2 integral format.
 Two-electron integral symmetry is turned on.
 Nuclear repulsion after empirical dispersion term =      602.7950524829 Hartrees.
 One-electron integrals computed using PRISM.
 NBasis=   244 RedAO= T EigKep=  3.45D-06  NBF=   244
 NBsUse=   244 1.00D-06 EigRej= -1.00D+00 NBFU=   244
 Initial guess from the checkpoint file:  "pbeD3DHByanggd3.chk"
 B after Tr=     0.000000    0.000000   -0.000000
         Rot=    1.000000   -0.000000    0.000000   -0.000288 Ang=  -0.03 deg.
 ExpMin= 4.38D-02 ExpMax= 5.48D+03 ExpMxC= 8.25D+02 IAcc=2 IRadAn=         4 AccDes= 0.00D+00
 Harris functional with IExCor= 1009 and IRadAn=       4 diagonalized for initial guess.
 HarFok:  IExCor= 1009 AccDes= 0.00D+00 IRadAn=         4 IDoV= 1 UseB2=F ITyADJ=14
 ICtDFT=  3500011 ScaDFX=  1.000000  1.000000  1.000000  1.000000
 FoFCou: FMM=F IPFlag=           0 FMFlag=      100000 FMFlg1=           0
         NFxFlg=           0 DoJE=T BraDBF=F KetDBF=T FulRan=T
         wScrn=  0.000000 ICntrl=     500 IOpCl=  0 I1Cent=   200000004 NGrid=           0
         NMat0=    1 NMatS0=      1 NMatT0=    0 NMatD0=    1 NMtDS0=    0 NMtDT0=    0
 Petite list used in FoFCou.
 Keep J ints in memory in canonical form, NReq=454277305.
 Requested convergence on RMS density matrix=1.00D-08 within 128 cycles.
 Requested convergence on MAX density matrix=1.00D-06.
 Requested convergence on             energy=1.00D-06.
 No special actions if energy rises.
 SCF Done:  E(RPBE-PBE) =  -571.001708707     A.U. after   12 cycles
            NFock= 12  Conv=0.57D-08     -V/T= 2.0094
 Calling FoFJK, ICntrl=      2527 FMM=F ISym2X=0 I1Cent= 0 IOpClX= 0 NMat=1 NMatS=1 NMatT=0.
 ***** Axes restored to original set *****
 -------------------------------------------------------------------
 Center     Atomic                   Forces (Hartrees/Bohr)
 Number     Number              X              Y              Z
 -------------------------------------------------------------------
      1        6          -0.001402117   -0.000020894    0.000000133
      2        6          -0.000196222   -0.000560338    0.000000379
      3        6           0.000240429    0.000357540    0.000000156
      4        6           0.000072019    0.000619286    0.000000027
      5        6           0.000475966   -0.000211174   -0.000000036
      6        6           0.000406015   -0.000551798   -0.000000074
      7        8           0.000632991   -0.000946189   -0.000000107
      8        6          -0.001702041    0.000503157   -0.000001661
      9        8          -0.000928527   -0.001410420    0.000000153
     10        8           0.000585964    0.002053232    0.000000694
     11        8           0.001449687   -0.000559758    0.000000093
     12        1          -0.000088251    0.000172049    0.000000040
     13        1           0.000086019   -0.000007189    0.000000017
     14        1           0.000011834   -0.000027333    0.000000001
     15        1          -0.000582118    0.000593143    0.000000045
     16        1           0.001026688    0.000233135    0.000000243
     17        1           0.000500694   -0.000977131   -0.000000063
     18        1          -0.000589031    0.000740682   -0.000000040
 -------------------------------------------------------------------
 Cartesian Forces:  Max     0.002053232 RMS     0.000636121

 GradGradGradGradGradGradGradGradGradGradGradGradGradGradGradGradGradGrad
 Berny optimization.
 Using GEDIIS/GDIIS optimizer.
 FormGI is forming the generalized inverse of G from B-inverse, IUseBI=4.
 Internal  Forces:  Max     0.001503241 RMS     0.000419326
 Search for a local minimum.
 Step number   2 out of a maximum of   89
 All quantities printed in internal units (Hartrees-Bohrs-Radians)
 Mixed Optimization -- En-DIIS/RFO-DIIS
 Update second derivatives using D2CorX and points    1    2
 DE= -9.79D-04 DEPred=-9.50D-04 R= 1.03D+00
 TightC=F SS=  1.41D+00  RLast= 6.72D-02 DXNew= 5.0454D-01 2.0150D-01
 Trust test= 1.03D+00 RLast= 6.72D-02 DXMaxT set to 3.00D-01
 ITU=  1  0
 Use linear search instead of GDIIS.
     Eigenvalues ---    0.01733   0.01792   0.01805   0.01963   0.02019
     Eigenvalues ---    0.02055   0.02102   0.02134   0.02172   0.02205
     Eigenvalues ---    0.02288   0.02353   0.02446   0.02825   0.02931
     Eigenvalues ---    0.15226   0.16000   0.16000   0.16000   0.16000
     Eigenvalues ---    0.16000   0.16057   0.22363   0.23488   0.24594
     Eigenvalues ---    0.24914   0.25000   0.25000   0.25000   0.25324
     Eigenvalues ---    0.35202   0.35339   0.35907   0.39071   0.40339
     Eigenvalues ---    0.42219   0.42863   0.45145   0.46871   0.49884
     Eigenvalues ---    0.50655   0.53005   0.53373   0.53850   0.53983
     Eigenvalues ---    0.56332   0.62293   0.64767
 RFO step:  Lambda=-4.24154334D-05 EMin= 1.73303614D-02
 Quartic linear search produced a step of  0.04559.
 Iteration  1 RMS(Cart)=  0.00343449 RMS(Int)=  0.00001354
 Iteration  2 RMS(Cart)=  0.00001516 RMS(Int)=  0.00000002
 Iteration  3 RMS(Cart)=  0.00000000 RMS(Int)=  0.00000002
 Variable       Old X    -DE/DX   Delta X   Delta X   Delta X     New X
                                 (Linear)    (Quad)   (Total)
    R1        2.71922  -0.00027   0.00070  -0.00103  -0.00033   2.71889
    R2        2.66232  -0.00087   0.00066  -0.00234  -0.00168   2.66064
    R3        2.54671   0.00080   0.00040   0.00127   0.00167   2.54839
    R4        2.69941  -0.00063   0.00035  -0.00173  -0.00137   2.69804
    R5        2.69916  -0.00064   0.00051  -0.00183  -0.00132   2.69784
    R6        2.62902  -0.00035   0.00082  -0.00113  -0.00031   2.62871
    R7        2.06222  -0.00018   0.00075  -0.00091  -0.00015   2.06207
    R8        2.68529  -0.00042   0.00068  -0.00134  -0.00067   2.68463
    R9        2.56508   0.00019   0.00021   0.00027   0.00048   2.56555
   R10        2.63197  -0.00039   0.00054  -0.00114  -0.00060   2.63137
   R11        2.07040  -0.00008   0.00074  -0.00061   0.00013   2.07054
   R12        2.06874  -0.00003   0.00074  -0.00045   0.00030   2.06904
   R13        1.84247   0.00079   0.00068   0.00120   0.00188   1.84435
   R14        2.49919   0.00119   0.00071   0.00161   0.00231   2.50151
   R15        2.48525   0.00150   0.00076   0.00202   0.00278   2.48803
   R16        1.84947   0.00086   0.00063   0.00139   0.00202   1.85148
   R17        1.85127   0.00092   0.00064   0.00149   0.00213   1.85340
   R18        1.84650   0.00088   0.00069   0.00137   0.00206   1.84856
    A1        2.06684  -0.00005   0.00000  -0.00026  -0.00026   2.06659
    A2        2.08136  -0.00016  -0.00008  -0.00060  -0.00068   2.08069
    A3        2.13498   0.00021   0.00008   0.00086   0.00093   2.13591
    A4        2.08812   0.00013   0.00002   0.00058   0.00059   2.08871
    A5        2.13736  -0.00055   0.00004  -0.00232  -0.00229   2.13508
    A6        2.05770   0.00041  -0.00005   0.00174   0.00169   2.05939
    A7        2.10768  -0.00008  -0.00000  -0.00030  -0.00031   2.10738
    A8        2.09942   0.00011  -0.00012   0.00066   0.00054   2.09996
    A9        2.07609  -0.00003   0.00012  -0.00036  -0.00023   2.07585
   A10        2.07844  -0.00011   0.00002  -0.00040  -0.00038   2.07806
   A11        2.05072  -0.00007  -0.00002  -0.00032  -0.00034   2.05038
   A12        2.15403   0.00018   0.00000   0.00072   0.00072   2.15475
   A13        2.11288   0.00011  -0.00007   0.00050   0.00043   2.11331
   A14        2.09215  -0.00002   0.00008  -0.00007   0.00001   2.09217
   A15        2.07815  -0.00008  -0.00001  -0.00044  -0.00045   2.07771
   A16        2.11241  -0.00000   0.00004  -0.00012  -0.00008   2.11232
   A17        2.08266  -0.00001   0.00001  -0.00003  -0.00002   2.08264
   A18        2.08812   0.00001  -0.00005   0.00015   0.00010   2.08823
   A19        1.94544  -0.00049  -0.00070  -0.00287  -0.00357   1.94186
   A20        2.05137   0.00058  -0.00025   0.00256   0.00231   2.05367
   A21        2.10152  -0.00002  -0.00030   0.00007  -0.00022   2.10129
   A22        2.13030  -0.00057   0.00055  -0.00263  -0.00209   2.12822
   A23        2.01617  -0.00110  -0.00048  -0.00698  -0.00746   2.00871
   A24        2.01188  -0.00114  -0.00048  -0.00721  -0.00769   2.00420
   A25        1.92833  -0.00063  -0.00070  -0.00378  -0.00448   1.92385
    D1        0.00000  -0.00000   0.00000  -0.00000  -0.00000  -0.00000
    D2        3.14159  -0.00000  -0.00000  -0.00000  -0.00000   3.14158
    D3       -3.14159  -0.00000   0.00000  -0.00000  -0.00000  -3.14159
    D4       -0.00000  -0.00000   0.00000  -0.00000  -0.00000  -0.00000
    D5       -0.00000   0.00000  -0.00000   0.00000   0.00000   0.00000
    D6        3.14159   0.00000  -0.00000   0.00000   0.00000  -3.14159
    D7        3.14159   0.00000  -0.00000   0.00000   0.00000   3.14159
    D8       -0.00000   0.00000  -0.00000   0.00000   0.00000  -0.00000
    D9        3.14158  -0.00000  -0.00000  -0.00000  -0.00000   3.14158
   D10       -0.00000  -0.00000  -0.00000  -0.00000  -0.00000  -0.00001
   D11       -0.00000   0.00000  -0.00000   0.00000   0.00000   0.00000
   D12       -3.14159   0.00000  -0.00000   0.00000   0.00000  -3.14159
   D13       -3.14159   0.00000  -0.00000   0.00000   0.00000  -3.14158
   D14        0.00001   0.00000   0.00000   0.00000   0.00000   0.00001
   D15       -3.14151  -0.00000   0.00000  -0.00002  -0.00002  -3.14152
   D16        0.00007   0.00000  -0.00000   0.00001   0.00001   0.00008
   D17        0.00008  -0.00000   0.00000  -0.00001  -0.00001   0.00006
   D18       -3.14153   0.00000  -0.00000   0.00001   0.00001  -3.14152
   D19        0.00000  -0.00000   0.00000  -0.00000  -0.00000  -0.00000
   D20       -3.14159  -0.00000   0.00000  -0.00000  -0.00000  -3.14159
   D21        3.14159  -0.00000  -0.00000  -0.00000  -0.00000   3.14159
   D22       -0.00000  -0.00000   0.00000  -0.00000  -0.00000  -0.00000
   D23        0.00000  -0.00000   0.00000  -0.00000  -0.00000   0.00000
   D24       -3.14159   0.00000   0.00000   0.00000   0.00000  -3.14159
   D25        3.14159   0.00000   0.00000   0.00000   0.00000   3.14159
   D26       -0.00000   0.00000  -0.00000   0.00000   0.00000  -0.00000
   D27       -3.14159  -0.00000  -0.00000  -0.00000  -0.00000  -3.14159
   D28        0.00001  -0.00000  -0.00000  -0.00000  -0.00000   0.00001
   D29       -0.00000   0.00000  -0.00000   0.00000   0.00000  -0.00000
   D30        3.14159   0.00000  -0.00000   0.00000   0.00000   3.14159
   D31        3.14159  -0.00000  -0.00000  -0.00000  -0.00000   3.14159
   D32       -0.00000   0.00000   0.00000   0.00000   0.00000  -0.00000
   D33       -3.14150   0.00000  -0.00000   0.00002   0.00002  -3.14149
   D34        0.00010  -0.00000   0.00000  -0.00001  -0.00001   0.00009
   D35       -3.14150  -0.00000   0.00000  -0.00002  -0.00002  -3.14152
   D36        0.00008   0.00000  -0.00000   0.00001   0.00001   0.00009
         Item               Value     Threshold  Converged?
 Maximum Force            0.001503     0.000450     NO 
 RMS     Force            0.000419     0.000300     NO 
 Maximum Displacement     0.016841     0.001800     NO 
 RMS     Displacement     0.003439     0.001200     NO 
 Predicted change in Energy=-2.291898D-05
 GradGradGradGradGradGradGradGradGradGradGradGradGradGradGradGradGradGrad

                          Input orientation:                          
 ---------------------------------------------------------------------
 Center     Atomic      Atomic             Coordinates (Angstroms)
 Number     Number       Type             X           Y           Z
 ---------------------------------------------------------------------
      1          6           0        0.219346    1.280083   -0.000005
      2          6           0        0.428456   -0.143414    0.000000
      3          6           0       -0.696136   -1.023036    0.000012
      4          6           0       -1.992830   -0.519437    0.000017
      5          6           0       -2.186595    0.887930    0.000012
      6          6           0       -1.103275    1.762779    0.000000
      7          8           0       -3.012814   -1.415426    0.000032
      8          6           0        1.732927   -0.723494   -0.000015
      9          8           0        1.818185   -2.044485   -0.000091
     10          8           0        2.803050    0.043509    0.000062
     11          8           0        1.288195    2.102363   -0.000020
     12          1           0       -0.549688   -2.104366    0.000020
     13          1           0       -3.202255    1.298966    0.000018
     14          1           0       -1.279770    2.843349   -0.000005
     15          1           0       -3.878979   -0.965637    0.000030
     16          1           0        2.730411   -2.401945   -0.000006
     17          1           0        3.656361   -0.440003   -0.000023
     18          1           0        0.996597    3.036106   -0.000032
 ---------------------------------------------------------------------
                    Distance matrix (angstroms):
                    1          2          3          4          5
     1  C    0.000000
     2  C    1.438774   0.000000
     3  C    2.478400   1.427741   0.000000
     4  C    2.851665   2.450310   1.391053   0.000000
     5  C    2.437691   2.811079   2.423481   1.420643   0.000000
     6  C    1.407949   2.445357   2.815409   2.449452   1.392460
     7  O    4.208637   3.668835   2.349673   1.357631   2.447056
     8  C    2.511025   1.427633   2.447462   3.731340   4.237846
     9  O    3.689043   2.354871   2.713884   4.104827   4.963600
    10  O    2.864375   2.381939   3.658117   4.828807   5.060593
    11  O    1.348548   2.404717   3.702120   4.199876   3.680899
    12  H    3.470722   2.191369   1.091202   2.143516   3.410762
    13  H    3.421653   3.906728   3.416478   2.183872   1.095680
    14  H    2.165906   3.440754   3.910187   3.437555   2.155457
    15  H    4.673277   4.385208   3.183360   1.938208   2.509954
    16  H    4.456768   3.224897   3.693592   5.084569   5.916099
    17  H    3.843406   3.241502   4.391374   5.649750   5.991957
    18  H    1.920348   3.229881   4.397952   4.645272   3.840231
                    6          7          8          9         10
     6  C    0.000000
     7  O    3.707738   0.000000
     8  C    3.771683   4.795917   0.000000
     9  O    4.798978   4.871782   1.323740   0.000000
    10  O    4.267934   5.996062   1.316608   2.308610   0.000000
    11  O    2.415460   5.556394   2.860639   4.180579   2.556104
    12  H    3.906567   2.557660   2.667796   2.368630   3.981735
    13  H    2.149614   2.720995   5.333513   6.031872   6.135133
    14  H    1.094889   4.597891   4.668909   5.786903   4.950608
    15  H    3.892144   0.975988   5.617127   5.798413   6.757802
    16  H    5.660572   5.827337   1.952479   0.979763   2.446532
    17  H    5.244653   6.740130   1.944214   2.439930   0.980777
    18  H    2.455773   5.990952   3.831028   5.146592   3.495556
                   11         12         13         14         15
    11  O    0.000000
    12  H    4.590684   0.000000
    13  H    4.561753   4.314948   0.000000
    14  H    2.672733   5.001290   2.465982   0.000000
    15  H    6.009351   3.518648   2.363552   4.611318   0.000000
    16  H    4.729564   3.293570   6.992372   6.602625   6.763654
    17  H    3.474455   4.523379   7.075636   5.928389   7.553651
    18  H    0.978215   5.368002   4.544008   2.284513   6.307549
                   16         17         18
    16  H    0.000000
    17  H    2.169470   0.000000
    18  H    5.707759   4.376949   0.000000
 Stoichiometry    C7H7O4(1+)
 Framework group  C1[X(C7H7O4)]
 Deg. of freedom    48
 Full point group                 C1      NOp   1
 Largest Abelian subgroup         C1      NOp   1
 Largest concise Abelian subgroup C1      NOp   1
                         Standard orientation:                         
 ---------------------------------------------------------------------
 Center     Atomic      Atomic             Coordinates (Angstroms)
 Number     Number       Type             X           Y           Z
 ---------------------------------------------------------------------
      1          6           0        0.218126    1.281620   -0.000005
      2          6           0        0.427810   -0.141792    0.000000
      3          6           0       -0.696428   -1.021868    0.000012
      4          6           0       -1.993324   -0.518791    0.000018
      5          6           0       -2.187656    0.888498    0.000012
      6          6           0       -1.104689    1.763783    0.000000
      7          8           0       -3.012947   -1.415191    0.000032
      8          6           0        1.732514   -0.721347   -0.000015
      9          8           0        1.818304   -2.042304   -0.000091
     10          8           0        2.802328    0.046087    0.000062
     11          8           0        1.286644    2.104331   -0.000020
     12          1           0       -0.549544   -2.103138    0.000020
     13          1           0       -3.203482    1.299125    0.000018
     14          1           0       -1.281619    2.844282   -0.000005
     15          1           0       -3.879293   -0.965750    0.000030
     16          1           0        2.730675   -2.399396   -0.000005
     17          1           0        3.655835   -0.437081   -0.000023
     18          1           0        0.994670    3.037956   -0.000032
 ---------------------------------------------------------------------
 Rotational constants (GHZ):      1.7506572      0.8957486      0.5925579
 Standard basis: 6-31+G(d,p) (6D, 7F)
 There are   244 symmetry adapted cartesian basis functions of A   symmetry.
 There are   244 symmetry adapted basis functions of A   symmetry.
   244 basis functions,   401 primitive gaussians,   244 cartesian basis functions
    40 alpha electrons       40 beta electrons
       nuclear repulsion energy       602.8323804800 Hartrees.
 NAtoms=   18 NActive=   18 NUniq=   18 SFac= 1.00D+00 NAtFMM=   60 NAOKFM=F Big=F
 Integral buffers will be    131072 words long.
 Raffenetti 2 integral format.
 Two-electron integral symmetry is turned on.
 Nuclear repulsion after empirical dispersion term =      602.8246555402 Hartrees.
 One-electron integrals computed using PRISM.
 NBasis=   244 RedAO= T EigKep=  3.44D-06  NBF=   244
 NBsUse=   244 1.00D-06 EigRej= -1.00D+00 NBFU=   244
 Initial guess from the checkpoint file:  "pbeD3DHByanggd3.chk"
 B after Tr=    -0.000000   -0.000000    0.000000
         Rot=    1.000000   -0.000000   -0.000000    0.000107 Ang=  -0.01 deg.
 Keep J ints in memory in canonical form, NReq=454277305.
 Requested convergence on RMS density matrix=1.00D-08 within 128 cycles.
 Requested convergence on MAX density matrix=1.00D-06.
 Requested convergence on             energy=1.00D-06.
 No special actions if energy rises.
 SCF Done:  E(RPBE-PBE) =  -571.001732734     A.U. after   11 cycles
            NFock= 11  Conv=0.35D-08     -V/T= 2.0094
 Calling FoFJK, ICntrl=      2527 FMM=F ISym2X=0 I1Cent= 0 IOpClX= 0 NMat=1 NMatS=1 NMatT=0.
 ***** Axes restored to original set *****
 -------------------------------------------------------------------
 Center     Atomic                   Forces (Hartrees/Bohr)
 Number     Number              X              Y              Z
 -------------------------------------------------------------------
      1        6          -0.000438042   -0.000036580   -0.000000187
      2        6           0.000152576   -0.000369708   -0.000000370
      3        6           0.000145714    0.000032232   -0.000000140
      4        6           0.000124961    0.000204751    0.000000016
      5        6          -0.000018035   -0.000161748    0.000000011
      6        6           0.000225081    0.000053952    0.000000068
      7        8          -0.000158268    0.000000802   -0.000000051
      8        6          -0.000868169    0.000298561    0.000001796
      9        8           0.000007362   -0.000424307   -0.000000552
     10        8           0.000636190    0.000264957   -0.000000429
     11        8           0.000105367    0.000313153   -0.000000007
     12        1          -0.000008247    0.000079390   -0.000000012
     13        1           0.000104169   -0.000032840   -0.000000021
     14        1          -0.000020592   -0.000116879    0.000000006
     15        1           0.000036269   -0.000074941    0.000000058
     16        1          -0.000030445    0.000015811   -0.000000058
     17        1          -0.000010340   -0.000021943   -0.000000115
     18        1           0.000014449   -0.000024662   -0.000000015
 -------------------------------------------------------------------
 Cartesian Forces:  Max     0.000868169 RMS     0.000201249

 GradGradGradGradGradGradGradGradGradGradGradGradGradGradGradGradGradGrad
 Berny optimization.
 Using GEDIIS/GDIIS optimizer.
 FormGI is forming the generalized inverse of G from B-inverse, IUseBI=4.
 Internal  Forces:  Max     0.000644464 RMS     0.000138085
 Search for a local minimum.
 Step number   3 out of a maximum of   89
 All quantities printed in internal units (Hartrees-Bohrs-Radians)
 Mixed Optimization -- En-DIIS/RFO-DIIS
 Swapping is turned off.
 Update second derivatives using D2CorX and points    1    2    3
 DE= -2.40D-05 DEPred=-2.29D-05 R= 1.05D+00
 TightC=F SS=  1.41D+00  RLast= 1.45D-02 DXNew= 5.0454D-01 4.3355D-02
 Trust test= 1.05D+00 RLast= 1.45D-02 DXMaxT set to 3.00D-01
 ITU=  1  1  0
     Eigenvalues ---    0.01733   0.01792   0.01805   0.01963   0.02019
     Eigenvalues ---    0.02055   0.02102   0.02134   0.02172   0.02205
     Eigenvalues ---    0.02288   0.02352   0.02446   0.02825   0.02931
     Eigenvalues ---    0.14251   0.16000   0.16000   0.16000   0.16000
     Eigenvalues ---    0.16024   0.16086   0.22362   0.23490   0.24513
     Eigenvalues ---    0.24844   0.25000   0.25000   0.25016   0.28846
     Eigenvalues ---    0.35203   0.35427   0.35954   0.39226   0.39794
     Eigenvalues ---    0.41464   0.42865   0.43736   0.46851   0.48828
     Eigenvalues ---    0.50448   0.53014   0.53360   0.53839   0.54178
     Eigenvalues ---    0.56282   0.60695   0.64450
 En-DIIS/RFO-DIIS IScMMF=        0 using points:     3    2
 RFO step:  Lambda=-2.48207686D-06.
 DidBck=F Rises=F RFO-DIIS coefs:    1.04940   -0.04940
 Iteration  1 RMS(Cart)=  0.00189944 RMS(Int)=  0.00000142
 Iteration  2 RMS(Cart)=  0.00000239 RMS(Int)=  0.00000001
 Iteration  3 RMS(Cart)=  0.00000000 RMS(Int)=  0.00000001
 Variable       Old X    -DE/DX   Delta X   Delta X   Delta X     New X
                                 (Linear)    (Quad)   (Total)
    R1        2.71889   0.00021  -0.00002   0.00060   0.00058   2.71947
    R2        2.66064  -0.00024  -0.00008  -0.00056  -0.00064   2.65999
    R3        2.54839   0.00027   0.00008   0.00060   0.00068   2.54907
    R4        2.69804  -0.00018  -0.00007  -0.00048  -0.00054   2.69749
    R5        2.69784  -0.00030  -0.00007  -0.00075  -0.00082   2.69702
    R6        2.62871  -0.00008  -0.00002  -0.00013  -0.00014   2.62857
    R7        2.06207  -0.00008  -0.00001  -0.00019  -0.00020   2.06188
    R8        2.68463  -0.00021  -0.00003  -0.00050  -0.00053   2.68409
    R9        2.56555   0.00014   0.00002   0.00030   0.00032   2.56587
   R10        2.63137  -0.00003  -0.00003  -0.00006  -0.00009   2.63128
   R11        2.07054  -0.00011   0.00001  -0.00027  -0.00026   2.07028
   R12        2.06904  -0.00011   0.00001  -0.00027  -0.00025   2.06879
   R13        1.84435  -0.00006   0.00009  -0.00000   0.00009   1.84444
   R14        2.50151   0.00041   0.00011   0.00082   0.00093   2.50244
   R15        2.48803   0.00064   0.00014   0.00119   0.00133   2.48936
   R16        1.85148  -0.00004   0.00010   0.00005   0.00015   1.85163
   R17        1.85340   0.00000   0.00011   0.00013   0.00024   1.85364
   R18        1.84856  -0.00003   0.00010   0.00007   0.00017   1.84873
    A1        2.06659  -0.00005  -0.00001  -0.00020  -0.00021   2.06638
    A2        2.08069   0.00021  -0.00003   0.00082   0.00079   2.08147
    A3        2.13591  -0.00015   0.00005  -0.00062  -0.00058   2.13533
    A4        2.08871  -0.00003   0.00003  -0.00008  -0.00005   2.08866
    A5        2.13508   0.00034  -0.00011   0.00132   0.00120   2.13628
    A6        2.05939  -0.00030   0.00008  -0.00124  -0.00115   2.05824
    A7        2.10738   0.00004  -0.00002   0.00018   0.00016   2.10754
    A8        2.09996  -0.00002   0.00003  -0.00008  -0.00005   2.09990
    A9        2.07585  -0.00002  -0.00001  -0.00010  -0.00011   2.07575
   A10        2.07806  -0.00002  -0.00002  -0.00015  -0.00017   2.07789
   A11        2.05038   0.00001  -0.00002   0.00006   0.00004   2.05042
   A12        2.15475   0.00001   0.00004   0.00009   0.00013   2.15488
   A13        2.11331   0.00005   0.00002   0.00017   0.00019   2.11350
   A14        2.09217  -0.00001   0.00000   0.00002   0.00002   2.09218
   A15        2.07771  -0.00004  -0.00002  -0.00019  -0.00021   2.07750
   A16        2.11232   0.00002  -0.00000   0.00009   0.00008   2.11240
   A17        2.08264   0.00003  -0.00000   0.00020   0.00020   2.08283
   A18        2.08823  -0.00005   0.00001  -0.00028  -0.00028   2.08795
   A19        1.94186   0.00008  -0.00018   0.00037   0.00019   1.94205
   A20        2.05367  -0.00026   0.00011  -0.00101  -0.00089   2.05278
   A21        2.10129   0.00037  -0.00001   0.00153   0.00152   2.10281
   A22        2.12822  -0.00011  -0.00010  -0.00052  -0.00062   2.12760
   A23        2.00871   0.00000  -0.00037  -0.00030  -0.00067   2.00804
   A24        2.00420  -0.00005  -0.00038  -0.00067  -0.00105   2.00314
   A25        1.92385   0.00002  -0.00022  -0.00010  -0.00032   1.92353
    D1       -0.00000   0.00000  -0.00000   0.00000   0.00000   0.00000
    D2        3.14158   0.00000  -0.00000   0.00000   0.00000   3.14158
    D3       -3.14159   0.00000  -0.00000   0.00000   0.00000  -3.14159
    D4       -0.00000  -0.00000  -0.00000  -0.00000  -0.00000  -0.00000
    D5        0.00000  -0.00000   0.00000  -0.00000  -0.00000  -0.00000
    D6       -3.14159  -0.00000   0.00000  -0.00000  -0.00000   3.14159
    D7        3.14159  -0.00000   0.00000  -0.00000  -0.00000   3.14159
    D8       -0.00000  -0.00000   0.00000  -0.00000  -0.00000  -0.00000
    D9        3.14158  -0.00000  -0.00000   0.00000  -0.00000   3.14158
   D10       -0.00001  -0.00000  -0.00000  -0.00000  -0.00000  -0.00001
   D11        0.00000  -0.00000   0.00000  -0.00000  -0.00000  -0.00000
   D12       -3.14159  -0.00000   0.00000  -0.00000  -0.00000  -3.14159
   D13       -3.14158  -0.00000   0.00000  -0.00000  -0.00000  -3.14159
   D14        0.00001   0.00000   0.00000   0.00000   0.00000   0.00001
   D15       -3.14152   0.00000  -0.00000   0.00002   0.00002  -3.14151
   D16        0.00008  -0.00000   0.00000  -0.00001  -0.00001   0.00007
   D17        0.00006   0.00000  -0.00000   0.00001   0.00001   0.00008
   D18       -3.14152  -0.00000   0.00000  -0.00002  -0.00001  -3.14153
   D19       -0.00000   0.00000  -0.00000   0.00000   0.00000   0.00000
   D20       -3.14159   0.00000  -0.00000   0.00000   0.00000  -3.14159
   D21        3.14159  -0.00000  -0.00000  -0.00000  -0.00000   3.14159
   D22       -0.00000   0.00000  -0.00000   0.00000   0.00000  -0.00000
   D23        0.00000   0.00000  -0.00000   0.00000   0.00000   0.00000
   D24       -3.14159  -0.00000   0.00000  -0.00000  -0.00000  -3.14159
   D25        3.14159   0.00000   0.00000   0.00000   0.00000   3.14159
   D26       -0.00000  -0.00000   0.00000  -0.00000  -0.00000  -0.00000
   D27       -3.14159  -0.00000  -0.00000  -0.00000  -0.00000  -3.14159
   D28        0.00001  -0.00000  -0.00000  -0.00000  -0.00000   0.00001
   D29       -0.00000  -0.00000   0.00000  -0.00000  -0.00000  -0.00000
   D30        3.14159  -0.00000   0.00000  -0.00000  -0.00000   3.14159
   D31        3.14159   0.00000  -0.00000   0.00000   0.00000   3.14159
   D32       -0.00000   0.00000   0.00000   0.00000   0.00000  -0.00000
   D33       -3.14149  -0.00000   0.00000  -0.00002  -0.00002  -3.14150
   D34        0.00009   0.00000  -0.00000   0.00001   0.00001   0.00010
   D35       -3.14152   0.00000  -0.00000   0.00002   0.00002  -3.14150
   D36        0.00009  -0.00000   0.00000  -0.00001  -0.00001   0.00008
         Item               Value     Threshold  Converged?
 Maximum Force            0.000644     0.000450     NO 
 RMS     Force            0.000138     0.000300     YES
 Maximum Displacement     0.008516     0.001800     NO 
 RMS     Displacement     0.001901     0.001200     NO 
 Predicted change in Energy=-2.137722D-06
 GradGradGradGradGradGradGradGradGradGradGradGradGradGradGradGradGradGrad

                          Input orientation:                          
 ---------------------------------------------------------------------
 Center     Atomic      Atomic             Coordinates (Angstroms)
 Number     Number       Type             X           Y           Z
 ---------------------------------------------------------------------
      1          6           0        0.219192    1.281421   -0.000002
      2          6           0        0.429025   -0.142280    0.000009
      3          6           0       -0.694966   -1.022203    0.000016
      4          6           0       -1.991884   -0.519389    0.000017
      5          6           0       -2.186192    0.887619    0.000010
      6          6           0       -1.103438    1.763092   -0.000001
      7          8           0       -3.011510   -1.416044    0.000030
      8          6           0        1.732679   -0.723133   -0.000001
      9          8           0        1.815829   -2.044753   -0.000092
     10          8           0        2.805091    0.041876    0.000063
     11          8           0        1.287288    2.105270   -0.000017
     12          1           0       -0.548015   -2.103360    0.000026
     13          1           0       -3.201887    1.298201    0.000013
     14          1           0       -1.280864    2.843375   -0.000008
     15          1           0       -3.878048   -0.966870    0.000028
     16          1           0        2.727789   -2.403108   -0.000017
[...]
 03,-0.0000090928\O,1.8167755447,-2.0446573326,-0.0000921327\O,2.804261
 9928,0.0429719356,0.0000625287\O,1.2879021163,2.1038421202,-0.00001814
 17\H,-0.5488987142,-2.1037048469,0.0000229979\H,-3.2018305906,1.298511
 444,0.0000152249\H,-1.2804989208,2.8431870825,-0.000006049\H,-3.878596
 5626,-0.9666468786,0.0000302885\H,2.7288379256,-2.4025254062,-0.000009
 2096\H,3.6565511596,-0.4424210777,-0.0000283756\H,0.9957708644,3.03741
 45646,-0.0000322459\\Version=ES64L-G09RevE.01\State=1-A\HF=-571.001734
 5\RMSD=5.486e-09\RMSF=2.295e-05\ZeroPoint=0.1316203\Thermal=0.1410617\
 Dipole=1.4425314,0.1661312,-0.0000189\DipoleDeriv=0.910817,0.9426154,-
 0.0000134,-0.0268548,0.7787116,-0.0000055,-0.0000106,-0.0000144,0.1252
 751,-0.9847451,0.7301638,0.0000024,0.459322,-0.4177893,-0.0000051,-0.0
 000014,0.0000047,-0.0224833,0.1085676,-0.612405,0.0000024,0.23473,-0.0
 312697,-0.0000026,-0.0000005,0.0000015,-0.1188198,0.9688501,1.0687246,
 -0.0000117,1.1575448,0.0832882,-0.000008,-0.0000076,-0.0000102,0.12054
 89,0.1227392,0.1481293,-0.0000023,-0.3759968,0.3394027,0.0000004,0.000
 0019,-0.000003,-0.0555892,-0.3944292,-0.5675528,0.0000069,0.0219668,0.
 082875,-0.0000005,0.0000001,0.,-0.1166133,-1.1750209,-0.6091134,0.0000
 096,-0.8135485,-0.469275,0.0000057,0.0000118,0.0000066,-0.32873,2.4514
 038,-0.6437332,0.0000189,-0.5007387,1.7580341,0.0000767,0.0000327,0.00
 00815,0.2988767,-0.4990451,0.321853,0.0000325,0.7442259,-1.4212512,-0.
 0000462,0.0000884,-0.0000942,-0.251845,-1.5656301,0.0114934,-0.0000412
 ,-0.5175848,-0.2215244,0.0000006,-0.0001269,0.0000166,-0.2348586,-0.63
 91284,-0.8592388,0.0000112,-0.4409724,-0.9648319,0.0000064,0.0000206,0
 .0000185,-0.282337,0.0934726,0.0164757,0.,-0.0121585,0.0898014,0.00000
 12,-0.0000042,0.0000013,0.149345,-0.0015825,0.0043272,0.0000008,-0.011
 0205,0.1000966,0.0000004,-0.0000001,0.,0.1369876,0.0778411,-0.0438679,
 0.0000009,-0.02178,-0.0089251,0.0000014,0.000001,0.0000021,0.153673,0.
 4261848,0.0837489,-0.0000013,0.1127271,0.1968165,0.0000005,-0.0000021,
 0.0000008,0.3474018,0.3112336,-0.1348937,-0.0000178,-0.1693107,0.45903
 34,-0.0000069,-0.0000482,0.0000215,0.3690753,0.5319865,0.014193,0.0000
 04,0.0607628,0.2273158,-0.0000182,0.0000481,-0.0000296,0.3666597,0.256
 485,0.1290805,-0.0000019,0.0986862,0.4194911,-0.0000002,-0.0000031,-0.
 0000035,0.3434331\Polar=146.6169974,-9.0820633,119.0551698,-0.0004272,
 0.0001941,48.0972736\PG=C01 [X(C7H7O4)]\NImag=1\\0.67074759,0.02055675
 ,0.65504073,-0.00000357,-0.00000449,0.14628721,-0.12040168,0.03486563,
 -0.00000055,0.64571964,0.01693100,-0.25158761,0.00000164,-0.00593126,0
 .64390818,0.00000007,0.00000075,-0.05915972,-0.00000335,0.00000121,0.1
 2611383,0.04114597,-0.03778748,0.00000012,-0.20366665,-0.08432753,0.00
 000101,0.68311214,-0.01918410,-0.03239163,0.00000026,-0.10317523,-0.18
 358186,0.00000064,-0.02794756,0.69698455,-0.00000016,0.00000024,0.0014
 1904,0.00000188,0.00000077,-0.04477112,-0.00000277,-0.00000417,0.10870
 745,-0.02976967,0.02245957,0.00000004,-0.04530917,-0.01733742,0.000000
 28,-0.30903088,0.11116661,0.00000057,0.71486888,0.03085611,-0.02653279
 ,0.00000007,0.00582367,0.02934108,0.00000008,0.06521830,-0.14914249,0.
 00000020,-0.00132898,0.64877978,0.00000003,0.00000024,0.00055642,0.000
 00015,-0.00000036,-0.00304881,0.00000100,0.00000026,-0.05499942,-0.000
 00316,-0.00000356,0.12949517,-0.05123712,-0.00597885,0.00000035,-0.007
 96207,-0.00808747,-0.00000002,0.01287725,0.03044380,-0.00000021,-0.125
 87320,0.06451984,0.00000009,0.71301347,-0.04156506,0.04406351,-0.00000
 016,-0.01194164,-0.02378850,0.00000012,0.05482280,-0.01429468,0.,0.002
 74514,-0.27855538,0.00000129,0.00913252,0.63912084,0.00000051,-0.00000
 028,-0.00303939,0.00000012,0.00000016,0.00069733,-0.00000046,-0.000000
 05,0.00112099,0.00000045,0.00000069,-0.05441345,-0.00000373,-0.0000028
 3,0.11640215,-0.26102270,0.04962151,0.00000075,0.00293333,0.04208291,-
 0.00000007,-0.04168346,-0.00500321,0.00000010,0.04459277,-0.04992082,0
 .,-0.26307574,-0.09624448,0.00000176,0.65330967,0.10459119,-0.15048742
 ,0.00000032,0.02346003,-0.00830246,-0.00000013,-0.00058831,-0.00236622
 ,0.00000008,-0.02137456,-0.03221658,0.00000028,-0.14718296,-0.21418782
 ,0.00000182,0.01988660,0.71374022,0.00000032,0.00000061,-0.06043708,-0
 .00000015,-0.00000048,0.00548577,0.00000025,0.00000010,0.00277600,-0.0
 0000012,0.00000043,-0.00167657,0.00000206,0.00000151,-0.04465339,-0.00
 000310,-0.00000401,0.10581325,0.00441297,0.00035126,-0.00000010,-0.000
 41084,0.00631064,0.00000001,-0.05717035,-0.03095345,0.00000062,-0.2270
 9310,-0.13648112,0.00000209,-0.00059861,-0.00718522,0.00000013,-0.0034
 9045,0.00121793,0.00000006,0.66487928,-0.00200952,0.00338137,-0.000000
 08,0.00028583,-0.00266641,-0.00000004,0.00226527,0.01648843,-0.0000000
 1,-0.08578247,-0.19471047,0.00000176,-0.04194454,-0.03669806,0.0000006
 1,0.00812231,-0.00331266,0.00000003,-0.04198635,0.36249757,-0.00000005
 ,-0.00000006,-0.00135648,0.,0.00000006,0.00438751,0.00000039,0.0000000
 6,0.00664904,0.00000161,0.00000211,-0.03535495,0.00000030,0.00000024,0
 .00671354,0.00000005,0.00000005,0.00561665,-0.00000263,-0.00000272,0.0
 2155713,0.01209886,0.03967308,0.00000027,-0.23313530,0.06720943,0.0000
 0191,-0.05172733,-0.00374972,0.00000009,0.00329882,-0.01783662,-0.0000
 0015,0.00321126,0.00488975,-0.00000002,0.00067796,0.00186961,-0.000000
 06,0.00334609,0.00527435,-0.00000004,0.75086850,0.03116418,-0.01723369
 ,-0.00000051,0.06704202,-0.12683075,-0.00000076,-0.00496579,0.01980147
 ,0.00000026,-0.00569618,0.00504629,0.00000016,-0.00204876,-0.00520163,
 0.00000002,0.00027023,-0.00766388,0.00000016,-0.00439838,-0.00307243,0
 .00000002,-0.00311118,0.70669631,0.00000091,-0.00000010,-0.00192108,0.
 00000160,-0.00000165,-0.06891824,0.00000032,0.00000035,-0.00211191,0.0
 0000017,-0.00000043,0.00589456,0.00000012,0.00000047,-0.00093237,-0.00
 000053,0.00000010,0.00513967,0.00000003,0.00000012,0.00035252,0.000009
 99,0.00003074,0.17650910,-0.00711343,-0.00697606,0.00000029,-0.0069039
 7,0.04451205,0.00000298,-0.00259423,0.00419224,0.00000027,0.00178109,0
 .00151447,-0.00000030,-0.00012542,0.00095738,-0.00000006,-0.00119349,0
 .00198519,-0.00000016,-0.00103281,-0.00067211,0.00000003,-0.12286775,0
 .05580659,-0.00000170,0.55399668,0.00136590,0.01450412,0.00000019,0.03
 135834,-0.04296596,-0.00000194,-0.00786334,-0.00494150,-0.00000042,0.0
 0074867,-0.00732310,-0.00000003,0.00011466,0.00200221,0.00000007,0.002
 06613,0.00122644,-0.00000014,0.00281588,0.00326464,-0.00000003,-0.0067
 9177,-0.35973693,-0.00002139,-0.17060252,0.53366557,-0.00000053,0.0000
 0162,0.00297205,0.00000246,-0.00000179,0.00960404,-0.00000042,-0.00000
 051,0.00059849,-0.00000026,-0.00000028,-0.00119464,-0.00000007,-0.0000
 0030,-0.00008493,0.00000061,0.00000024,-0.00083213,0.00000017,0.000000
 13,0.00019849,-0.00000566,-0.00001511,-0.04989670,0.00004210,0.0000142
 9,0.02222394,-0.00987504,-0.01681066,-0.00000014,-0.05732275,-0.014129
 44,-0.00000246,0.00422094,0.00769958,0.00000014,-0.00326313,0.00901336
 ,0.00000026,-0.00185838,-0.00612059,0.00000005,0.00347501,-0.00178380,
 0.00000006,-0.00340737,-0.00326497,0.00000002,-0.30330432,-0.15313593,
 -0.00001356,0.00255073,-0.01828822,-0.00000199,0.70822041,-0.00246418,
 -0.00675173,0.00000015,-0.00455592,0.02060031,0.00000074,0.00557677,-0
 .00205944,0.00000019,-0.00133071,0.00515237,-0.00000008,-0.00058411,-0
 .00257329,0.00000001,0.00145797,-0.00075691,0.00000015,-0.00036828,-0.
 00140123,0.,-0.08928983,-0.19838770,-0.00001464,-0.04805407,-0.0517666
 8,-0.00000583,-0.03367084,0.38476267,-0.00000100,-0.00000092,0.0004227
 6,-0.00000114,0.00000165,0.00674061,0.00000103,0.00000004,0.00288070,-
 0.00000014,0.00000100,0.00011186,-0.00000010,-0.00000047,0.00027694,0.
 00000009,-0.00000023,-0.00022827,-0.00000018,-0.00000032,-0.00011551,-
 0.00000638,-0.00001304,-0.04967408,-0.00000328,-0.00000561,0.02321676,
 -0.00002163,0.00004337,0.02423449,-0.24767379,-0.08565936,0.00000187,0
 .02084682,-0.01250973,0.00000008,-0.01348492,0.00185919,0.,0.01132798,
 -0.00752384,-0.00000009,0.00211292,0.01422137,-0.00000006,-0.05637676,
 -0.03483802,0.00000078,-0.00513492,-0.00195935,0.00000008,-0.01775155,
 0.00379006,-0.00000048,0.00212367,-0.00340222,-0.00000021,0.00778979,0
 .00972294,0.00000047,0.37919874,-0.13551406,-0.19093626,0.00000228,-0.
 02626501,-0.04066358,0.00000074,-0.00141135,-0.00384314,-0.00000006,0.
 00651547,-0.00157964,-0.00000008,0.00431063,0.00144926,0.00000003,-0.0
 0737665,0.00837631,-0.00000002,-0.00511258,-0.00207279,0.00000006,-0.0
 1744236,0.00394388,0.00000003,0.00179515,-0.00578444,-0.00000055,0.014
 53026,-0.00248434,0.00000044,0.00571548,0.65800399,0.00000289,0.000002
 43,-0.03923592,0.00000005,0.00000046,0.00339963,0.00000003,-0.00000002
 ,0.00223556,-0.00000016,-0.00000002,-0.00085154,-0.00000003,-0.0000000
 3,0.00663791,0.00000052,0.00000026,0.01298229,0.00000009,0.00000004,-0
 .00022984,0.00000035,-0.00000006,-0.00268757,-0.00000004,0.00000041,0.
 00037491,-0.00000030,-0.00000032,0.00065688,-0.00000123,-0.00000959,0.
 02733423,-0.00410562,-0.00095582,-0.00000006,0.00552621,-0.02245788,0.
 00000015,-0.05851184,0.03983213,-0.00000042,0.00152706,0.02859644,-0.0
 0000009,-0.00565618,0.00093870,0.00000005,-0.00039361,-0.00067631,0.00
 000006,0.00171756,-0.00039860,-0.00000005,0.00172543,-0.00367543,-0.00
 000012,-0.00444569,0.00153365,0.00000054,0.00033360,0.00047939,0.00000
 002,0.00042547,-0.00157463,0.00000002,0.06162560,-0.00326032,0.0017170
 2,0.00000009,0.00249408,-0.01140316,0.00000006,0.03935872,-0.33204520,
 0.00000263,-0.00060889,-0.00560004,0.00000007,0.00137228,-0.00051875,0
 .,0.00107160,0.00058732,0.,-0.00107669,-0.00002768,0.,0.00058575,-0.00
 187136,-0.00000005,0.00224939,0.00051124,-0.00000002,-0.00017776,0.000
 00234,-0.00000002,0.00075422,-0.00044191,0.,-0.04289380,0.34888605,0.0
 0000008,-0.00000005,0.00342725,-0.00000028,0.00000020,0.00093154,-0.00
 000034,0.00000266,-0.03180235,0.00000017,-0.00000007,0.00786882,0.0000
 0007,0.00000010,0.00563153,-0.00000005,0.00000002,-0.00044089,-0.00000
 005,-0.00000002,-0.00333984,-0.00000002,-0.00000007,-0.00264426,0.0000
 0060,0.00000009,0.00077780,-0.00000011,0.,-0.00010688,0.,0.00000001,0.
 00073131,0.00000006,-0.00000272,0.02085375,-0.00079441,-0.00349929,0.0
 0000009,0.00053693,-0.00026957,0.,0.00104656,0.00054141,0.00000002,-0.
 00207431,-0.00261132,0.00000006,-0.28657377,0.09520375,0.00000119,-0.0
 1671258,0.00960567,0.00000010,0.00259334,-0.00008314,-0.00000003,-0.00
 014413,0.00003883,0.,-0.00002828,0.00002239,0.,0.00004693,0.00001782,0
 .00000001,-0.00129165,0.00031014,-0.00000002,-0.00001816,-0.00007066,0
 .,0.30249386,-0.00322917,-0.00233507,0.00000007,-0.00135554,-0.0003638
 9,-0.00000002,0.00022395,-0.00606551,0.00000005,0.02711828,-0.00485532
 ,-0.00000010,0.09668590,-0.09505627,-0.00000037,-0.01856098,0.01006187
 ,0.00000012,0.00075054,0.00254882,-0.00000003,0.00044861,-0.00051389,0
 .00000002,0.00003902,0.00033826,0.00000002,-0.00025047,-0.00009537,-0.
 00000002,-0.00116444,0.00041081,-0.00000002,0.00143758,-0.00019159,0.,
 -0.10078818,0.09651819,0.00000008,0.00000002,0.00793296,-0.00000003,0.
 00000006,-0.00031884,0.00000004,0.00000002,0.00439800,-0.00000008,0.00
 000014,0.00603574,0.00000123,-0.00000031,-0.03628278,0.00000018,-0.000
 00010,0.00476384,-0.00000005,-0.00000005,-0.00239594,0.00000002,-0.000
 00004,-0.00085774,0.00000008,0.,0.00036144,-0.00000003,-0.00000002,-0.
 00010033,0.,0.,-0.00096212,-0.00000003,0.00000002,-0.00117742,-0.00000
 136,0.00000030,0.02193523,-0.00251383,0.02745357,-0.00000016,-0.004444
 19,0.00027559,0.00000004,-0.00099523,-0.00056533,0.,-0.00354831,-0.001
 96458,0.00000006,0.00677585,-0.02456272,0.00000013,-0.06110910,0.04648
 332,-0.00000012,-0.00002327,-0.00159919,0.,0.00033264,0.00129266,-0.00
 000003,-0.00055307,0.00019567,-0.00000003,0.00011796,0.00006540,0.0000
 0003,0.00275839,0.00129700,-0.00000005,0.00009854,0.00004704,0.,0.0007
 5735,-0.00018809,-0.00000002,0.06336255,-0.00295068,-0.00793128,0.0000
 0009,0.00169684,0.00074385,0.,0.00004761,0.00053161,0.,-0.00319654,0.0
 0110577,0.00000005,0.00390148,-0.01445725,0.00000008,0.04613164,-0.319
 11463,0.00000156,0.00011240,-0.00103569,0.,-0.00059622,-0.00028954,0.,
 0.00020684,-0.00009722,0.,0.00022067,0.00011053,0.00000002,-0.00057487
 ,0.00299907,-0.00000006,0.00003318,-0.00006080,0.,0.00012996,0.0007759
 7,-0.00000003,-0.04730646,0.33664314,0.,-0.00000002,0.00360493,0.00000
 004,0.00000006,0.00401607,0.00000001,-0.00000002,-0.00101696,0.0000000
 5,0.00000007,0.00689435,-0.00000009,0.00000018,0.00262883,-0.00000002,
 0.00000151,-0.03062612,0.,0.,0.00004281,0.00000001,0.,0.00066361,0.,0.
 ,-0.00012504,0.,0.,-0.00001280,-0.00000003,-0.00000007,-0.00352089,0.,
 0.,-0.00031037,-0.00000004,-0.00000002,-0.00402425,0.00000007,-0.00000
 171,0.02124167,-0.00013823,-0.00024216,0.00000002,-0.00011398,0.000623
 30,0.00000002,-0.00123901,-0.00488431,0.00000009,-0.03222080,0.0154210
 3,-0.00000002,0.00486099,0.00281746,-0.00000006,-0.00063077,0.00051301
 ,0.,-0.37914167,0.16240425,0.00000030,-0.00137769,0.00047685,-0.000000
 03,0.00021611,-0.00073635,-0.00000006,0.00075556,0.00035354,0.00000008
 ,0.00068532,0.00055324,-0.00000001,0.00029894,-0.00005032,0.,0.0000621
 4,-0.00133910,0.00000001,0.00026224,0.00020935,0.,0.40810779,-0.000032
 28,0.00054206,-0.00000001,0.00026901,0.00064902,0.00000002,-0.00450971
 ,-0.00300331,0.00000006,-0.03188797,0.00795721,0.00000004,-0.00391392,
 0.00201783,0.00000001,0.00047664,-0.00045750,0.,0.21560950,-0.14294765
 ,0.00000024,-0.00076027,0.00006438,0.,0.00012789,-0.00030935,-0.000000
 02,0.00014927,0.00011016,0.00000003,-0.00007264,-0.00038458,0.,-0.0003
 7456,0.00007740,-0.00000001,0.00121488,-0.00135198,0.,0.00004381,0.000
 06712,0.,-0.17609575,0.13692211,0.,0.,0.00023342,0.00000003,0.00000004
 ,0.00210384,0.00000002,0.00000006,0.00202030,0.00000045,-0.00000018,-0
 .00507761,0.,-0.00000002,-0.00028672,0.,-0.00000001,-0.00067650,-0.000
 00020,0.00000046,-0.00243450,0.00000004,0.,0.00037462,0.,0.00000001,-0
 .00004129,-0.00000005,-0.00000002,-0.00019981,0.,0.,-0.00009211,0.,-0.
 00000001,-0.00085002,0.,0.00000001,0.00037740,0.,0.,0.00000571,-0.0000
 0032,-0.00000035,0.00452464,-0.00012258,0.00148107,0.00000006,0.004477
 02,-0.00251193,-0.00000071,-0.00107555,-0.00044716,-0.00000002,0.00026
 964,-0.00091171,0.00000011,0.00007665,0.00039560,-0.00000001,0.0001844
 6,0.00046033,0.00000002,0.00031084,0.00037178,0.,-0.00425162,-0.002895
 94,0.00000054,-0.42030852,0.16379693,-0.00003667,0.00114650,-0.0048261
 6,-0.00000038,-0.00059015,-0.00078220,0.00000009,0.00024269,0.00039938
 ,-0.00000013,-0.00000360,0.00005800,-0.00000001,-0.00003983,-0.0000163
 7,-0.00000001,-0.00011063,-0.00003884,0.,0.41898519,0.00148635,-0.0005
 3232,-0.00000030,-0.00454455,-0.00414946,-0.00000066,-0.00074522,0.000
 34795,0.00000032,0.00030522,0.00139280,0.,-0.00031880,-0.00044648,0.,-
 0.00008365,-0.00066397,0.00000009,-0.00059502,-0.00054701,0.,0.0479570
 7,-0.02344400,0.00000344,0.11426419,-0.08431016,0.00000836,-0.00093935
 ,0.00464021,-0.00000030,0.00024608,0.00075761,-0.00000002,0.00050210,0
 .00050260,-0.00000011,-0.00001010,0.00001599,-0.00000001,0.00012727,-0
 .00001442,0.00000001,0.00013545,0.00004456,0.,-0.15381824,0.10942870,0
 .00000032,-0.00000071,0.00230976,-0.00000110,-0.00000060,0.00406119,0.
 00000029,0.00000019,-0.00110640,0.00000004,0.00000018,0.00030602,0.,0.
 00000006,0.00012415,-0.00000022,-0.00000022,-0.00065661,-0.00000004,-0
 .00000006,-0.00007451,0.00000442,-0.00000295,-0.00480924,-0.00004074,0
 .00001479,-0.00328061,-0.00000015,-0.00000004,-0.00384489,0.00000021,0
 .00000030,0.00016145,-0.00000018,-0.00000002,-0.00023040,0.,-0.0000000
 1,-0.00003714,0.00000004,0.,-0.00007556,0.00000002,0.,0.00005920,0.000
 03691,-0.00001133,0.00484278,0.00104109,0.00229661,0.00000012,0.003568
 34,-0.00739806,0.00000002,-0.00176347,0.00089002,-0.00000019,0.0001510
 2,-0.00223407,-0.00000006,0.00029227,0.00077331,0.00000002,-0.00020568
 ,0.00025368,-0.00000002,0.00038404,0.00072574,0.,-0.03939859,0.0208455
 5,0.00000279,0.00628182,0.00356866,-0.00000006,-0.34899415,0.16624628,
 0.00003262,-0.00129043,-0.00069112,-0.00000009,-0.00011729,-0.00005840
 ,0.00000002,-0.00000498,0.00004702,0.,0.00000504,-0.00000815,0.,-0.000
 19258,-0.00007904,0.00000002,0.00082482,-0.00385493,0.00000017,0.37930
 252,-0.00137116,-0.00112855,0.,-0.00340425,-0.00135147,-0.00000088,-0.
 00019418,0.00051741,-0.00000013,-0.00032957,0.00038251,0.00000007,-0.0
 0009809,-0.00030501,0.00000002,0.00030437,-0.00010351,-0.00000001,-0.0
 0005650,-0.00010443,0.00000001,-0.03124119,0.00947943,0.00000293,-0.00
 095067,0.00037224,-0.00000032,0.21808078,-0.14787694,-0.00002552,0.001
 02297,-0.00142145,0.00000018,-0.00003421,-0.00000385,-0.00000004,0.000
 01246,-0.00001160,0.,0.00000399,0.00002024,0.,0.00000915,0.00000389,0.
 ,-0.00094088,-0.00283960,0.00000047,-0.18148656,0.14438417,0.00000034,
 0.00000029,-0.00152209,0.00000004,-0.00000135,0.00533152,-0.00000055,0
 .00000008,0.00186661,0.00000007,-0.00000045,-0.00036753,0.00000004,0.0
 0000015,0.00002450,0.00000003,0.00000012,-0.00016891,0.00000003,0.0000
 0013,-0.00016202,-0.00000465,0.00000120,-0.00440303,-0.00000012,-0.000
 00010,-0.00442536,0.00004005,-0.00002383,-0.00460938,-0.00000012,-0.00
 000003,0.00033155,0.00000004,0.,0.00022645,0.,0.00000001,0.00008742,-0
 .00000001,0.,0.00000780,-0.00000003,-0.00000002,-0.00006002,0.00000026
 ,0.00000048,0.00237172,-0.00003541,0.00002326,0.00542915,0.00532163,-0
 .04084935,0.00000060,-0.00393769,-0.00298464,0.00000003,0.00054007,-0.
 00071492,-0.00000001,0.00036531,-0.00015016,0.00000002,-0.00026017,0.0
 0072192,-0.00000001,0.00072113,-0.00388259,0.00000002,-0.00014074,0.00
 025074,0.,-0.00160129,-0.00079940,-0.00000002,0.00021657,0.00009755,0.
 00000007,-0.00063230,0.00122400,-0.00000014,-0.08367493,0.16114258,-0.
 00000212,-0.00027270,-0.00013561,-0.00000001,0.00010875,0.00006706,-0.
 00000001,-0.00124372,0.00195930,0.00000002,-0.00008374,-0.00012600,0.,
 -0.00001532,-0.00011386,0.,0.00011620,0.00067354,0.,0.08447295,0.00462
 904,-0.03140044,0.00000041,-0.00612204,0.00241268,0.00000004,0.0028270
 5,-0.00093645,0.,-0.00218568,0.00135801,0.,-0.00032361,-0.00257053,0.,
 0.00569787,0.00564137,-0.00000009,0.00104543,0.00041566,0.,0.00291151,
 -0.00078597,0.00000004,-0.00039496,0.00135060,0.00000010,-0.00112188,-
 0.00122497,-0.00000010,0.11037216,-0.42632885,0.00000636,-0.00031192,-
 0.00011962,0.00000002,0.00023497,0.00017060,0.,-0.00109894,0.00000353,
 0.00000003,-0.00016865,-0.00000137,0.,0.00022634,-0.00018298,-0.000000
 07,0.00016346,-0.00001348,0.00000007,-0.11638016,0.45221222,-0.0000002
 4,0.00000043,-0.00249405,0.00000023,-0.00000009,0.00334383,0.00000002,
 0.00000006,0.00113597,0.,0.00000002,-0.00017842,0.,0.,-0.00056485,-0.0
 0000009,-0.00000008,-0.00218100,0.,0.,-0.00005407,-0.00000013,-0.00000
 001,-0.00007787,0.00000004,-0.00000018,-0.00044726,-0.00000017,0.00000
 015,0.00035094,-0.00000127,0.00000649,-0.00726574,0.00000002,0.,0.0004
 5397,0.,0.,0.00026454,0.00000004,0.,0.00060621,0.,0.,0.00001945,-0.000
 00005,0.00000003,-0.00012091,0.00000004,-0.00000002,0.00004161,0.00000
 156,-0.00000680,0.00716766\\0.00001109,-0.00004539,0.00000004,-0.00006
 537,0.00001918,0.00000006,0.00002268,0.00002028,0.,0.00002012,0.000004
 95,-0.00000001,0.00003167,0.00002770,0.,-0.00003973,-0.00003805,-0.000
 00001,-0.00000045,-0.00002487,0.00000004,-0.00001178,-0.00000436,-0.00
 000030,-0.00005126,-0.00002421,0.00000012,-0.00000928,0.00005752,0.000
 00005,0.00005280,-0.00001074,0.,-0.00000513,0.00000809,0.,0.00000437,-
 0.00000166,0.,0.00001277,0.00000172,0.,-0.00003023,0.00001922,-0.00000
 003,0.00003210,-0.00001616,-0.00000002,0.00003354,-0.00002021,0.000000
 04,-0.00000793,0.00002699,0.\\\@


 A MAN BEGINS CUTTING HIS WISDOM TEETH THE 1ST
 TIME HE BITES OFF MORE THAN HE CAN CHEW.
 Job cpu time:       0 days  0 hours 10 minutes 44.7 seconds.
 File lengths (MBytes):  RWF=    115 Int=      0 D2E=      0 Chk=      6 Scr=      1
 Normal termination of Gaussian 09 at Tue Dec 17 13:53:56 2024.
