 Entering Gaussian System, Link 0=g09
 Input=pbeD3DHB.gjf
 Output=pbeD3DHB.log
 Initial command:
 /home/c612/g09E/g09/l1.exe "/mnt/ja_sm883/scratch/Gau-1335569.inp" -scrdir="/mnt/ja_sm883/scratch/"
 Default is to use a total of  18 processors:
                               18 via shared-memory
                                1 via Linda
 Entering Link 1 = /home/c612/g09E/g09/l1.exe PID=   1335571.
  
 Copyright (c) 1988,1990,1992,1993,1995,1998,2003,2009,2015,
            Gaussian, Inc.  All Rights Reserved.
  
 This is part of the Gaussian(R) 09 program.  It is based on
 the Gaussian(R) 03 system (copyright 2003, Gaussian, Inc.),
 the Gaussian(R) 98 system (copyright 1998, Gaussian, Inc.),
 the Gaussian(R) 94 system (copyright 1995, Gaussian, Inc.),
 the Gaussian 92(TM) system (copyright 1992, Gaussian, Inc.),
 the Gaussian 90(TM) system (copyright 1990, Gaussian, Inc.),
 the Gaussian 88(TM) system (copyright 1988, Gaussian, Inc.),
 the Gaussian 86(TM) system (copyright 1986, Carnegie Mellon
 University), and the Gaussian 82(TM) system (copyright 1983,
 Carnegie Mellon University). Gaussian is a federally registered
 trademark of Gaussian, Inc.
  
 This software contains proprietary and confidential information,
 including trade secrets, belonging to Gaussian, Inc.
  
 This software is provided under written license and may be
 used, copied, transmitted, or stored only in accord with that
 written license.
  
 The following legend is applicable only to US Government
 contracts under FAR:
  
                    RESTRICTED RIGHTS LEGEND
  
 Use, reproduction and disclosure by the US Government is
 subject to restrictions as set forth in subparagraphs (a)
 and (c) of the Commercial Computer Software - Restricted
 Rights clause in FAR 52.227-19.
  
 Gaussian, Inc.
 340 Quinnipiac St., Bldg. 40, Wallingford CT 06492
  
  
 ---------------------------------------------------------------
 Warning -- This program may not be used in any manner that
 competes with the business of Gaussian, Inc. or will provide
 assistance to any competitor of Gaussian, Inc.  The licensee
 of this program is prohibited from giving any competitor of
 Gaussian, Inc. access to this program.  By using this program,
 the user acknowledges that Gaussian, Inc. is engaged in the
 business of creating and licensing software in the field of
 computational chemistry and represents and warrants to the
 licensee that it is not a competitor of Gaussian, Inc. and that
 it will not use this program in any manner prohibited above.
 ---------------------------------------------------------------
  

 Cite this work as:
 Gaussian 09, Revision E.01,
 M. J. Frisch, G. W. Trucks, H. B. Schlegel, G. E. Scuseria, 
 M. A. Robb, J. R. Cheeseman, G. Scalmani, V. Barone, B. Mennucci, 
 G. A. Petersson, H. Nakatsuji, M. Caricato, X. Li, H. P. Hratchian, 
 A. F. Izmaylov, J. Bloino, G. Zheng, J. L. Sonnenberg, M. Hada, 
 M. Ehara, K. Toyota, R. Fukuda, J. Hasegawa, M. Ishida, T. Nakajima, 
 Y. Honda, O. Kitao, H. Nakai, T. Vreven, J. A. Montgomery, Jr., 
 J. E. Peralta, F. Ogliaro, M. Bearpark, J. J. Heyd, E. Brothers, 
 K. N. Kudin, V. N. Staroverov, T. Keith, R. Kobayashi, J. Normand, 
 K. Raghavachari, A. Rendell, J. C. Burant, S. S. Iyengar, J. Tomasi, 
 M. Cossi, N. Rega, J. M. Millam, M. Klene, J. E. Knox, J. B. Cross, 
 V. Bakken, C. Adamo, J. Jaramillo, R. Gomperts, R. E. Stratmann, 
 O. Yazyev, A. J. Austin, R. Cammi, C. Pomelli, J. W. Ochterski, 
 R. L. Martin, K. Morokuma, V. G. Zakrzewski, G. A. Voth, 
 P. Salvador, J. J. Dannenberg, S. Dapprich, A. D. Daniels, 
 O. Farkas, J. B. Foresman, J. V. Ortiz, J. Cioslowski, 
 and D. J. Fox, Gaussian, Inc., Wallingford CT, 2013.
 
 ******************************************
 Gaussian 09:  ES64L-G09RevE.01 30-Nov-2015
                17-Dec-2024 
 ******************************************
 %chk=pbeD3DHB.chk
 -----------------------------------------------------
 # opt freq pbepbe/6-31+g(d,p) EmpiricalDispersion=GD3
 -----------------------------------------------------
 1/14=-1,18=20,19=15,26=3,38=1/1,3;
 2/9=110,12=2,17=6,18=5,40=1/2;
 3/5=1,6=6,7=111,11=2,16=1,25=1,30=1,71=1,74=1009,124=31/1,2,3;
 4//1;
 5/5=2,38=5/2;
 6/7=2,8=2,9=2,10=2,28=1/1;
 7//1,2,3,16;
 1/14=-1,18=20,19=15,26=3/3(2);
 2/9=110/2;
 99//99;
 2/9=110/2;
 3/5=1,6=6,7=111,11=2,16=1,25=1,30=1,71=1,74=1009,124=31/1,2,3;
 4/5=5,16=3,69=1/1;
 5/5=2,38=5/2;
 7//1,2,3,16;
 1/14=-1,18=20,19=15,26=3/3(-5);
 2/9=110/2;
 6/7=2,8=2,9=2,10=2,19=2,28=1/1;
 99/9=1/99;
 ----------
 [No Title]
 ----------
 Symbolic Z-matrix:
 Charge =  0 Multiplicity = 1
 C                     0.23361   1.27446   0.00001 
 C                     0.4678   -0.12076   0.00001 
 C                    -0.63122  -0.99704   0.00001 
 C                    -1.93805  -0.52003   0.00001 
 C                    -2.16608   0.85946   0.00001 
 C                    -1.08726   1.7407    0.00002 
 O                    -2.95013  -1.44966  -0.00002 
 C                     1.84875  -0.67341  -0.00002 
 O                     1.85843  -2.04078   0.00013 
 O                     2.88322  -0.03801  -0.0002 
 O                     1.2852    2.13941   0.00003 
 H                    -0.46529  -2.06661   0.00001 
 H                    -3.18074   1.25079  0. 
 H                    -1.27179   2.81238   0.00002 
 H                    -3.80969  -1.00982   0.00014 
 H                     2.79343  -2.30235   0.00005 
 H                     0.95503   3.04763   0.00005 
 

 GradGradGradGradGradGradGradGradGradGradGradGradGradGradGradGradGradGrad
 Berny optimization.
 Initialization pass.
                           ----------------------------
                           !    Initial Parameters    !
                           ! (Angstroms and Degrees)  !
 --------------------------                            --------------------------
 ! Name  Definition              Value          Derivative Info.                !
 --------------------------------------------------------------------------------
 ! R1    R(1,2)                  1.4147         estimate D2E/DX2                !
 ! R2    R(1,6)                  1.4007         estimate D2E/DX2                !
 ! R3    R(1,11)                 1.3616         estimate D2E/DX2                !
 ! R4    R(2,3)                  1.4056         estimate D2E/DX2                !
 ! R5    R(2,8)                  1.4874         estimate D2E/DX2                !
 ! R6    R(3,4)                  1.3912         estimate D2E/DX2                !
 ! R7    R(3,12)                 1.0824         estimate D2E/DX2                !
 ! R8    R(4,5)                  1.3982         estimate D2E/DX2                !
 ! R9    R(4,7)                  1.3742         estimate D2E/DX2                !
 ! R10   R(5,6)                  1.393          estimate D2E/DX2                !
 ! R11   R(5,13)                 1.0875         estimate D2E/DX2                !
 ! R12   R(6,14)                 1.0874         estimate D2E/DX2                !
 ! R13   R(7,15)                 0.9656         estimate D2E/DX2                !
 ! R14   R(8,9)                  1.3674         estimate D2E/DX2                !
 ! R15   R(8,10)                 1.214          estimate D2E/DX2                !
 ! R16   R(9,16)                 0.9709         estimate D2E/DX2                !
 ! R17   R(11,17)                0.9664         estimate D2E/DX2                !
 ! A1    A(2,1,6)              118.9707         estimate D2E/DX2                !
 ! A2    A(2,1,11)             119.9096         estimate D2E/DX2                !
 ! A3    A(6,1,11)             121.1197         estimate D2E/DX2                !
 ! A4    A(1,2,3)              119.0378         estimate D2E/DX2                !
 ! A5    A(1,2,8)              121.3397         estimate D2E/DX2                !
 ! A6    A(3,2,8)              119.6224         estimate D2E/DX2                !
 ! A7    A(2,3,4)              121.3809         estimate D2E/DX2                !
 ! A8    A(2,3,12)             119.7476         estimate D2E/DX2                !
 ! A9    A(4,3,12)             118.8715         estimate D2E/DX2                !
 ! A10   A(3,4,5)              119.4391         estimate D2E/DX2                !
 ! A11   A(3,4,7)              117.379          estimate D2E/DX2                !
 ! A12   A(5,4,7)              123.1819         estimate D2E/DX2                !
 ! A13   A(4,5,6)              119.8576         estimate D2E/DX2                !
 ! A14   A(4,5,13)             120.4769         estimate D2E/DX2                !
 ! A15   A(6,5,13)             119.6655         estimate D2E/DX2                !
 ! A16   A(1,6,5)              121.3139         estimate D2E/DX2                !
 ! A17   A(1,6,14)             119.2117         estimate D2E/DX2                !
 ! A18   A(5,6,14)             119.4743         estimate D2E/DX2                !
 ! A19   A(4,7,15)             110.3328         estimate D2E/DX2                !
 ! A20   A(2,8,9)              112.2169         estimate D2E/DX2                !
 ! A21   A(2,8,10)             126.6291         estimate D2E/DX2                !
 ! A22   A(9,8,10)             121.1539         estimate D2E/DX2                !
 ! A23   A(8,9,16)             106.0351         estimate D2E/DX2                !
 ! A24   A(1,11,17)            109.46           estimate D2E/DX2                !
 ! D1    D(6,1,2,3)             -0.0004         estimate D2E/DX2                !
 ! D2    D(6,1,2,8)            179.9993         estimate D2E/DX2                !
 ! D3    D(11,1,2,3)           179.9991         estimate D2E/DX2                !
 ! D4    D(11,1,2,8)            -0.0013         estimate D2E/DX2                !
 ! D5    D(2,1,6,5)             -0.0003         estimate D2E/DX2                !
 ! D6    D(2,1,6,14)           179.9999         estimate D2E/DX2                !
 ! D7    D(11,1,6,5)          -179.9998         estimate D2E/DX2                !
 ! D8    D(11,1,6,14)            0.0005         estimate D2E/DX2                !
 ! D9    D(2,1,11,17)         -179.9986         estimate D2E/DX2                !
 ! D10   D(6,1,11,17)            0.0008         estimate D2E/DX2                !
 ! D11   D(1,2,3,4)              0.0008         estimate D2E/DX2                !
 ! D12   D(1,2,3,12)          -179.9996         estimate D2E/DX2                !
 ! D13   D(8,2,3,4)           -179.9989         estimate D2E/DX2                !
 ! D14   D(8,2,3,12)             0.0008         estimate D2E/DX2                !
 ! D15   D(1,2,8,9)            179.9934         estimate D2E/DX2                !
 ! D16   D(1,2,8,10)            -0.0101         estimate D2E/DX2                !
 ! D17   D(3,2,8,9)             -0.007          estimate D2E/DX2                !
 ! D18   D(3,2,8,10)           179.9895         estimate D2E/DX2                !
 ! D19   D(2,3,4,5)             -0.0004         estimate D2E/DX2                !
 ! D20   D(2,3,4,7)            179.9987         estimate D2E/DX2                !
 ! D21   D(12,3,4,5)           179.9999         estimate D2E/DX2                !
 ! D22   D(12,3,4,7)            -0.001          estimate D2E/DX2                !
 ! D23   D(3,4,5,6)             -0.0003         estimate D2E/DX2                !
 ! D24   D(3,4,5,13)           179.9996         estimate D2E/DX2                !
 ! D25   D(7,4,5,6)           -179.9993         estimate D2E/DX2                !
 ! D26   D(7,4,5,13)             0.0006         estimate D2E/DX2                !
 ! D27   D(3,4,7,15)           179.9901         estimate D2E/DX2                !
 ! D28   D(5,4,7,15)            -0.0108         estimate D2E/DX2                !
 ! D29   D(4,5,6,1)              0.0007         estimate D2E/DX2                !
 ! D30   D(4,5,6,14)          -179.9996         estimate D2E/DX2                !
 ! D31   D(13,5,6,1)          -179.9992         estimate D2E/DX2                !
 ! D32   D(13,5,6,14)            0.0005         estimate D2E/DX2                !
 ! D33   D(2,8,9,16)           179.9971         estimate D2E/DX2                !
 ! D34   D(10,8,9,16)            0.0004         estimate D2E/DX2                !
 --------------------------------------------------------------------------------
 Trust Radius=3.00D-01 FncErr=1.00D-07 GrdErr=1.00D-06
 Number of steps in this run=     85 maximum allowed number of steps=    102.
 GradGradGradGradGradGradGradGradGradGradGradGradGradGradGradGradGradGrad

                          Input orientation:                          
 ---------------------------------------------------------------------
 Center     Atomic      Atomic             Coordinates (Angstroms)
 Number     Number       Type             X           Y           Z
 ---------------------------------------------------------------------
      1          6           0        0.233610    1.274455    0.000012
      2          6           0        0.467803   -0.120760    0.000005
      3          6           0       -0.631221   -0.997043    0.000010
      4          6           0       -1.938045   -0.520034    0.000006
      5          6           0       -2.166080    0.859462    0.000006
      6          6           0       -1.087262    1.740701    0.000016
      7          8           0       -2.950129   -1.449657   -0.000017
      8          6           0        1.848747   -0.673412   -0.000016
      9          8           0        1.858429   -2.040780    0.000127
     10          8           0        2.883217   -0.038006   -0.000201
     11          8           0        1.285199    2.139413    0.000026
     12          1           0       -0.465286   -2.066607    0.000012
     13          1           0       -3.180735    1.250794   -0.000003
     14          1           0       -1.271786    2.812376    0.000023
     15          1           0       -3.809685   -1.009819    0.000138
     16          1           0        2.793425   -2.302353    0.000054
     17          1           0        0.955029    3.047625    0.000051
 ---------------------------------------------------------------------
                    Distance matrix (angstroms):
                    1          2          3          4          5
     1  C    0.000000
     2  C    1.414734   0.000000
     3  C    2.430563   1.405605   0.000000
     4  C    2.817140   2.438755   1.391160   0.000000
     5  C    2.435309   2.810369   2.408818   1.398216   0.000000
     6  C    1.400746   2.425544   2.775467   2.415524   1.392993
     7  O    4.190105   3.667182   2.362667   1.374232   2.438599
     8  C    2.530386   1.487424   2.500995   3.789897   4.297504
     9  O    3.691994   2.370721   2.699582   4.089729   4.960653
    10  O    2.956852   2.416831   3.642942   4.845299   5.128435
    11  O    1.361614   2.403439   3.675598   4.178751   3.680978
    12  H    3.413378   2.158003   1.082359   2.135628   3.384462
    13  H    3.414427   3.897819   3.398940   2.163356   1.087504
    14  H    2.152073   3.410199   3.862900   3.398361   2.147937
    15  H    4.643936   4.368905   3.178490   1.934664   2.489106
    16  H    4.398432   3.188709   3.664974   5.056033   5.881646
    17  H    1.914309   3.205628   4.344598   4.593263   3.811742
                    6          7          8          9         10
     6  C    0.000000
     7  O    3.694409   0.000000
     8  C    3.801064   4.861252   0.000000
     9  O    4.793401   4.844756   1.367402   0.000000
    10  O    4.350690   6.001723   1.214030   2.249732   0.000000
    11  O    2.405731   5.551525   2.868723   4.219313   2.700892
    12  H    3.857778   2.560287   2.701063   2.323859   3.915060
    13  H    2.150032   2.710279   5.385003   6.018940   6.199397
    14  H    1.087445   4.580585   4.678509   5.775064   5.038723
    15  H    3.870006   0.965554   5.668423   5.761111   6.763088
    16  H    5.604107   5.806505   1.883047   0.970895   2.266127
    17  H    2.424666   5.956157   3.826859   5.167978   3.638547
                   11         12         13         14         15
    11  O    0.000000
    12  H    4.555744   0.000000
    13  H    4.553483   4.287052   0.000000
    14  H    2.644060   4.945191   2.466298   0.000000
    15  H    5.989616   3.507393   2.346476   4.588039   0.000000
    16  H    4.690845   3.267227   6.950931   6.533482   6.728425
    17  H    0.966365   5.307793   4.509229   2.239207   6.258223
                   16         17
    16  H    0.000000
    17  H    5.657028   0.000000
 Stoichiometry    C7H6O4
 Framework group  C1[X(C7H6O4)]
 Deg. of freedom    45
 Full point group                 C1      NOp   1
 Largest Abelian subgroup         C1      NOp   1
 Largest concise Abelian subgroup C1      NOp   1
                         Standard orientation:                         
 ---------------------------------------------------------------------
 Center     Atomic      Atomic             Coordinates (Angstroms)
 Number     Number       Type             X           Y           Z
 ---------------------------------------------------------------------
      1          6           0        0.233610    1.274455    0.000012
      2          6           0        0.467803   -0.120760    0.000005
      3          6           0       -0.631221   -0.997043    0.000010
      4          6           0       -1.938045   -0.520034    0.000006
      5          6           0       -2.166080    0.859462    0.000006
      6          6           0       -1.087262    1.740701    0.000016
      7          8           0       -2.950129   -1.449657   -0.000017
      8          6           0        1.848747   -0.673412   -0.000016
      9          8           0        1.858429   -2.040780    0.000127
     10          8           0        2.883217   -0.038006   -0.000201
     11          8           0        1.285199    2.139413    0.000026
     12          1           0       -0.465286   -2.066607    0.000012
     13          1           0       -3.180735    1.250794   -0.000003
     14          1           0       -1.271786    2.812376    0.000023
     15          1           0       -3.809685   -1.009818    0.000138
     16          1           0        2.793425   -2.302353    0.000054
     17          1           0        0.955029    3.047625    0.000051
 ---------------------------------------------------------------------
 Rotational constants (GHZ):      1.7524450      0.9123726      0.5999971
 Standard basis: 6-31+G(d,p) (6D, 7F)
 There are   239 symmetry adapted cartesian basis functions of A   symmetry.
 There are   239 symmetry adapted basis functions of A   symmetry.
   239 basis functions,   394 primitive gaussians,   239 cartesian basis functions
    40 alpha electrons       40 beta electrons
       nuclear repulsion energy       589.1190713487 Hartrees.
 NAtoms=   17 NActive=   17 NUniq=   17 SFac= 1.00D+00 NAtFMM=   60 NAOKFM=F Big=F
 Integral buffers will be    131072 words long.
 Raffenetti 2 integral format.
 Two-electron integral symmetry is turned on.
 Nuclear repulsion after empirical dispersion term =      589.1118514867 Hartrees.
 One-electron integrals computed using PRISM.
 NBasis=   239 RedAO= T EigKep=  3.24D-06  NBF=   239
 NBsUse=   239 1.00D-06 EigRej= -1.00D+00 NBFU=   239
 ExpMin= 4.38D-02 ExpMax= 5.48D+03 ExpMxC= 8.25D+02 IAcc=2 IRadAn=         4 AccDes= 0.00D+00
 Harris functional with IExCor= 1009 and IRadAn=       4 diagonalized for initial guess.
 HarFok:  IExCor= 1009 AccDes= 0.00D+00 IRadAn=         4 IDoV= 1 UseB2=F ITyADJ=14
 ICtDFT=  3500011 ScaDFX=  1.000000  1.000000  1.000000  1.000000
 FoFCou: FMM=F IPFlag=           0 FMFlag=      100000 FMFlg1=           0
         NFxFlg=           0 DoJE=T BraDBF=F KetDBF=T FulRan=T
         wScrn=  0.000000 ICntrl=     500 IOpCl=  0 I1Cent=   200000004 NGrid=           0
         NMat0=    1 NMatS0=      1 NMatT0=    0 NMatD0=    1 NMtDS0=    0 NMtDT0=    0
 Petite list used in FoFCou.
 Keep J ints in memory in canonical form, NReq=418393415.
 Requested convergence on RMS density matrix=1.00D-08 within 128 cycles.
 Requested convergence on MAX density matrix=1.00D-06.
 Requested convergence on             energy=1.00D-06.
 No special actions if energy rises.
 EnCoef did     1 forward-backward iterations
 SCF Done:  E(RPBE-PBE) =  -570.667527814     A.U. after   15 cycles
            NFock= 15  Conv=0.62D-08     -V/T= 2.0089

 **********************************************************************

            Population analysis using the SCF density.

 **********************************************************************

 Orbital symmetries:
       Occupied  (A) (A) (A) (A) (A) (A) (A) (A) (A) (A) (A) (A)
                 (A) (A) (A) (A) (A) (A) (A) (A) (A) (A) (A) (A)
                 (A) (A) (A) (A) (A) (A) (A) (A) (A) (A) (A) (A)
                 (A) (A) (A) (A)
       Virtual   (A) (A) (A) (A) (A) (A) (A) (A) (A) (A) (A) (A)
                 (A) (A) (A) (A) (A) (A) (A) (A) (A) (A) (A) (A)
                 (A) (A) (A) (A) (A) (A) (A) (A) (A) (A) (A) (A)
                 (A) (A) (A) (A) (A) (A) (A) (A) (A) (A) (A) (A)
                 (A) (A) (A) (A) (A) (A) (A) (A) (A) (A) (A) (A)
                 (A) (A) (A) (A) (A) (A) (A) (A) (A) (A) (A) (A)
                 (A) (A) (A) (A) (A) (A) (A) (A) (A) (A) (A) (A)
                 (A) (A) (A) (A) (A) (A) (A) (A) (A) (A) (A) (A)
                 (A) (A) (A) (A) (A) (A) (A) (A) (A) (A) (A) (A)
                 (A) (A) (A) (A) (A) (A) (A) (A) (A) (A) (A) (A)
                 (A) (A) (A) (A) (A) (A) (A) (A) (A) (A) (A) (A)
                 (A) (A) (A) (A) (A) (A) (A) (A) (A) (A) (A) (A)
                 (A) (A) (A) (A) (A) (A) (A) (A) (A) (A) (A) (A)
                 (A) (A) (A) (A) (A) (A) (A) (A) (A) (A) (A) (A)
                 (A) (A) (A) (A) (A) (A) (A) (A) (A) (A) (A) (A)
                 (A) (A) (A) (A) (A) (A) (A) (A) (A) (A) (A) (A)
                 (A) (A) (A) (A) (A) (A) (A)
 The electronic state is 1-A.
 Alpha  occ. eigenvalues --  -18.82328 -18.82321 -18.82289 -18.76593 -10.02737
 Alpha  occ. eigenvalues --   -9.98223  -9.97425  -9.93272  -9.93001  -9.92655
 Alpha  occ. eigenvalues --   -9.91823  -1.01543  -0.99090  -0.98664  -0.92683
 Alpha  occ. eigenvalues --   -0.79419  -0.71320  -0.68491  -0.61402  -0.58559
 Alpha  occ. eigenvalues --   -0.55779  -0.50920  -0.50337  -0.45406  -0.43958
 Alpha  occ. eigenvalues --   -0.42135  -0.40605  -0.40322  -0.38701  -0.37671
 Alpha  occ. eigenvalues --   -0.36790  -0.35539  -0.34503  -0.32716  -0.31900
 Alpha  occ. eigenvalues --   -0.28144  -0.27664  -0.24793  -0.22632  -0.19482
 Alpha virt. eigenvalues --   -0.08515  -0.03550  -0.02754  -0.02299  -0.00602
 Alpha virt. eigenvalues --    0.00508   0.00987   0.03024   0.03877   0.04149
 Alpha virt. eigenvalues --    0.05100   0.06702   0.07053   0.07346   0.07894
 Alpha virt. eigenvalues --    0.09322   0.10905   0.10906   0.12082   0.12202
 Alpha virt. eigenvalues --    0.12629   0.12882   0.13801   0.14470   0.15227
 Alpha virt. eigenvalues --    0.15637   0.16442   0.16661   0.17100   0.17539
 Alpha virt. eigenvalues --    0.18343   0.19029   0.20178   0.20740   0.21074
 Alpha virt. eigenvalues --    0.21368   0.22488   0.23153   0.23702   0.24696
 Alpha virt. eigenvalues --    0.24854   0.25239   0.25499   0.26861   0.27263
 Alpha virt. eigenvalues --    0.28023   0.28336   0.28684   0.29402   0.29991
 Alpha virt. eigenvalues --    0.30995   0.31585   0.33515   0.34453   0.35498
 Alpha virt. eigenvalues --    0.36624   0.37255   0.38522   0.39804   0.41345
 Alpha virt. eigenvalues --    0.43715   0.47081   0.48033   0.55124   0.57060
 Alpha virt. eigenvalues --    0.60599   0.62551   0.63811   0.66345   0.67891
 Alpha virt. eigenvalues --    0.68888   0.69801   0.70511   0.71665   0.73434
 Alpha virt. eigenvalues --    0.74779   0.78979   0.79702   0.81044   0.81850
 Alpha virt. eigenvalues --    0.88862   0.89558   0.94056   0.95154   0.96645
 Alpha virt. eigenvalues --    0.98901   1.00876   1.03246   1.04299   1.09114
 Alpha virt. eigenvalues --    1.09694   1.12015   1.12030   1.12173   1.14443
 Alpha virt. eigenvalues --    1.14725   1.15996   1.17744   1.18138   1.19294
 Alpha virt. eigenvalues --    1.20810   1.22621   1.24765   1.25137   1.26743
 Alpha virt. eigenvalues --    1.27172   1.29189   1.31121   1.31385   1.31952
 Alpha virt. eigenvalues --    1.32648   1.34107   1.35018   1.36401   1.38777
 Alpha virt. eigenvalues --    1.41687   1.44299   1.50468   1.51024   1.52621
 Alpha virt. eigenvalues --    1.53278   1.62127   1.64076   1.66951   1.68661
 Alpha virt. eigenvalues --    1.70477   1.72570   1.77311   1.79327   1.79410
 Alpha virt. eigenvalues --    1.80946   1.81907   1.82174   1.83439   1.85672
 Alpha virt. eigenvalues --    1.86730   1.91219   1.94029   1.96991   1.98174
 Alpha virt. eigenvalues --    1.99186   2.02238   2.05915   2.14551   2.15961
 Alpha virt. eigenvalues --    2.17828   2.23758   2.24605   2.26386   2.28177
 Alpha virt. eigenvalues --    2.31044   2.31952   2.34050   2.37628   2.39682
 Alpha virt. eigenvalues --    2.41187   2.42955   2.44412   2.46980   2.47472
 Alpha virt. eigenvalues --    2.50457   2.51751   2.52222   2.55061   2.56823
 Alpha virt. eigenvalues --    2.59081   2.61122   2.63885   2.66707   2.67175
 Alpha virt. eigenvalues --    2.70505   2.75043   2.80054   2.87751   2.93994
 Alpha virt. eigenvalues --    2.96164   3.00070   3.04323   3.07159   3.12747
 Alpha virt. eigenvalues --    3.16883   3.22472   3.31026   3.38440   3.41832
 Alpha virt. eigenvalues --    3.44135   3.45127   3.70670   4.09966   4.16006
 Alpha virt. eigenvalues --    4.20289   4.23386   4.25069   4.36294   4.40213
 Alpha virt. eigenvalues --    4.45829   4.50449   4.72705   4.83891
          Condensed to atoms (all electrons):
               1          2          3          4          5          6
     1  C   17.242449  -5.031234  -4.191638   0.601965   0.792888  -0.969654
     2  C   -5.031234  14.999344  -2.188303   0.400839  -0.815241  -1.359591
     3  C   -4.191638  -2.188303  17.014193  -3.963974  -1.021463  -0.547611
     4  C    0.601965   0.400839  -3.963974   9.894213  -0.159682   0.135794
     5  C    0.792888  -0.815241  -1.021463  -0.159682   6.923790  -0.267318
     6  C   -0.969654  -1.359591  -0.547611   0.135794  -0.267318   8.956410
     7  O   -0.023571   0.066092  -0.059285  -0.027775  -0.065156   0.044698
     8  C   -1.404860  -0.202748   0.778825  -0.818799   0.100297  -0.460711
     9  O   -0.079939  -0.249555   0.073238   0.114897   0.006130  -0.020045
    10  O   -0.008636  -0.201293  -0.061089   0.054257   0.010643   0.028770
    11  O    0.213267  -0.436241   0.084976  -0.016192   0.054367   0.227400
    12  H    0.011908   0.025620   0.160011   0.092152   0.035980  -0.012629
    13  H   -0.004847   0.002094  -0.009680   0.031249   0.200059   0.091525
    14  H    0.043205   0.004753  -0.020705   0.001298   0.106347   0.168142
    15  H   -0.007466  -0.013982   0.147705  -0.034859  -0.090053   0.009214
    16  H   -0.000792   0.079244  -0.016981  -0.012025  -0.000917   0.007089
    17  H   -0.035860   0.226587  -0.003366   0.003163   0.002157  -0.206865
               7          8          9         10         11         12
     1  C   -0.023571  -1.404860  -0.079939  -0.008636   0.213267   0.011908
     2  C    0.066092  -0.202748  -0.249555  -0.201293  -0.436241   0.025620
     3  C   -0.059285   0.778825   0.073238  -0.061089   0.084976   0.160011
     4  C   -0.027775  -0.818799   0.114897   0.054257  -0.016192   0.092152
     5  C   -0.065156   0.100297   0.006130   0.010643   0.054367   0.035980
     6  C    0.044698  -0.460711  -0.020045   0.028770   0.227400  -0.012629
     7  O    8.395287  -0.003058   0.000349   0.000086   0.000396  -0.007224
     8  C   -0.003058   6.805800   0.123009   0.425972  -0.187023  -0.005233
     9  O    0.000349   0.123009   8.466005  -0.174650   0.000905   0.002891
    10  O    0.000086   0.425972  -0.174650   8.336494  -0.005144  -0.000233
    11  O    0.000396  -0.187023   0.000905  -0.005144   8.367505  -0.000444
    12  H   -0.007224  -0.005233   0.002891  -0.000233  -0.000444   0.519827
    13  H   -0.015720   0.000552   0.000002   0.000009  -0.000542  -0.000164
    14  H   -0.000625   0.010791   0.000021  -0.000010  -0.019628   0.000011
    15  H    0.189375   0.002643   0.000018  -0.000001  -0.000010  -0.000068
    16  H   -0.000004  -0.008332   0.172195   0.007997   0.000078   0.000082
    17  H   -0.000007   0.034410   0.000083   0.000945   0.151227   0.000005
              13         14         15         16         17
     1  C   -0.004847   0.043205  -0.007466  -0.000792  -0.035860
     2  C    0.002094   0.004753  -0.013982   0.079244   0.226587
     3  C   -0.009680  -0.020705   0.147705  -0.016981  -0.003366
     4  C    0.031249   0.001298  -0.034859  -0.012025   0.003163
     5  C    0.200059   0.106347  -0.090053  -0.000917   0.002157
     6  C    0.091525   0.168142   0.009214   0.007089  -0.206865
     7  O   -0.015720  -0.000625   0.189375  -0.000004  -0.000007
     8  C    0.000552   0.010791   0.002643  -0.008332   0.034410
     9  O    0.000002   0.000021   0.000018   0.172195   0.000083
    10  O    0.000009  -0.000010  -0.000001   0.007997   0.000945
    11  O   -0.000542  -0.019628  -0.000010   0.000078   0.151227
    12  H   -0.000164   0.000011  -0.000068   0.000082   0.000005
    13  H    0.576349  -0.006332   0.006960  -0.000000  -0.000027
    14  H   -0.006332   0.576722  -0.000013  -0.000000   0.010075
    15  H    0.006960  -0.000013   0.434807   0.000000   0.000000
    16  H   -0.000000  -0.000000   0.000000   0.392535  -0.000001
    17  H   -0.000027   0.010075   0.000000  -0.000001   0.452660
 Mulliken charges:
               1
     1  C   -1.147185
     2  C    0.693617
     3  C   -0.174854
     4  C   -0.296520
     5  C    0.187174
     6  C    0.175382
     7  O   -0.493858
     8  C    0.808465
     9  O   -0.435550
    10  O   -0.414117
    11  O   -0.434898
    12  H    0.177508
    13  H    0.128512
    14  H    0.125948
    15  H    0.355729
    16  H    0.379833
    17  H    0.364815
 Sum of Mulliken charges =  -0.00000
 Mulliken charges with hydrogens summed into heavy atoms:
               1
     1  C   -1.147185
     2  C    0.693617
     3  C    0.002654
     4  C   -0.296520
     5  C    0.315686
     6  C    0.301330
     7  O   -0.138129
     8  C    0.808465
     9  O   -0.055717
    10  O   -0.414117
    11  O   -0.070082
 Electronic spatial extent (au):  <R**2>=           1750.4590
 Charge=             -0.0000 electrons
 Dipole moment (field-independent basis, Debye):
    X=             -3.6776    Y=              1.7893    Z=              0.0005  Tot=              4.0898
 Quadrupole moment (field-independent basis, Debye-Ang):
   XX=            -58.0210   YY=            -53.2466   ZZ=            -65.6869
   XY=             -9.3653   XZ=             -0.0002   YZ=              0.0004
 Traceless Quadrupole moment (field-independent basis, Debye-Ang):
   XX=              0.9639   YY=              5.7382   ZZ=             -6.7021
   XY=             -9.3653   XZ=             -0.0002   YZ=              0.0004
 Octapole moment (field-independent basis, Debye-Ang**2):
  XXX=            -61.1671  YYY=             33.6618  ZZZ=             -0.0004  XYY=             23.6137
  XXY=            -20.3703  XXZ=              0.0078  XZZ=              7.8679  YZZ=             -2.9494
  YYZ=             -0.0000  XYZ=              0.0020
 Hexadecapole moment (field-independent basis, Debye-Ang**3):
 XXXX=          -1156.1094 YYYY=           -611.9321 ZZZZ=            -69.7179 XXXY=            -68.3942
 XXXZ=              0.0001 YYYX=            -22.6246 YYYZ=              0.0063 ZZZX=              0.0060
 ZZZY=              0.0026 XXYY=           -320.3184 XXZZ=           -247.9877 YYZZ=           -147.2560
 XXYZ=             -0.0038 YYXZ=              0.0004 ZZXY=              4.4055
 N-N= 5.891118514867D+02 E-N=-2.513151379820D+03  KE= 5.656195399203D+02
 Calling FoFJK, ICntrl=      2527 FMM=F ISym2X=0 I1Cent= 0 IOpClX= 0 NMat=1 NMatS=1 NMatT=0.
 ***** Axes restored to original set *****
 -------------------------------------------------------------------
 Center     Atomic                   Forces (Hartrees/Bohr)
 Number     Number              X              Y              Z
 -------------------------------------------------------------------
      1        6           0.001533586    0.003227188    0.000000066
      2        6           0.003583026   -0.003261472    0.000002103
      3        6           0.000784073    0.000427969   -0.000000041
      4        6          -0.004041673   -0.002130871   -0.000000246
      5        6          -0.000344051    0.001643122    0.000000356
      6        6          -0.001165266   -0.000235140   -0.000000035
      7        8           0.005135902   -0.007707264   -0.000000446
      8        6          -0.010621990   -0.002934127   -0.000005355
      9        8          -0.010729021   -0.007288018    0.000003860
     10        8           0.015348030    0.010897139   -0.000000121
     11        8           0.008260400   -0.006186385   -0.000000099
     12        1           0.001421322   -0.005916010    0.000000032
     13        1          -0.005281499    0.002169189   -0.000000018
     14        1          -0.001026593    0.005647080   -0.000000008
     15        1          -0.006680691    0.004950411    0.000000507
     16        1           0.008136327   -0.000764988   -0.000000726
     17        1          -0.004311883    0.007462180    0.000000171
 -------------------------------------------------------------------
 Cartesian Forces:  Max     0.015348030 RMS     0.004873229

 GradGradGradGradGradGradGradGradGradGradGradGradGradGradGradGradGradGrad
 Berny optimization.
 FormGI is forming the generalized inverse of G from B-inverse, IUseBI=4.
 Internal  Forces:  Max     0.018778777 RMS     0.003726780
 Search for a local minimum.
 Step number   1 out of a maximum of   85
 All quantities printed in internal units (Hartrees-Bohrs-Radians)
 Mixed Optimization -- RFO/linear search
 Second derivative matrix not updated -- first step.
 ITU=  0
     Eigenvalues ---    0.00932   0.01296   0.01645   0.01962   0.02032
     Eigenvalues ---    0.02033   0.02097   0.02109   0.02123   0.02125
     Eigenvalues ---    0.02136   0.02150   0.02164   0.02200   0.16000
     Eigenvalues ---    0.16000   0.16000   0.16000   0.16000   0.16000
     Eigenvalues ---    0.22368   0.23487   0.24600   0.25000   0.25000
     Eigenvalues ---    0.25000   0.25000   0.25000   0.33733   0.35103
     Eigenvalues ---    0.35110   0.35711   0.40966   0.41716   0.44440
     Eigenvalues ---    0.45420   0.46208   0.46794   0.50172   0.51479
     Eigenvalues ---    0.52623   0.53194   0.54127   0.54296   0.98078
 RFO step:  Lambda=-1.94501872D-03 EMin= 9.32301991D-03
 Linear search not attempted -- first point.
 Iteration  1 RMS(Cart)=  0.01060635 RMS(Int)=  0.00004419
 Iteration  2 RMS(Cart)=  0.00006021 RMS(Int)=  0.00000022
 Iteration  3 RMS(Cart)=  0.00000000 RMS(Int)=  0.00000022
 Variable       Old X    -DE/DX   Delta X   Delta X   Delta X     New X
                                 (Linear)    (Quad)   (Total)
    R1        2.67346   0.00659   0.00000   0.01503   0.01503   2.68849
    R2        2.64703   0.00693   0.00000   0.01511   0.01511   2.66214
    R3        2.57308   0.00386   0.00000   0.00731   0.00731   2.58039
    R4        2.65621   0.00550   0.00000   0.01219   0.01219   2.66840
    R5        2.81082   0.00201   0.00000   0.00593   0.00593   2.81676
    R6        2.62891   0.00715   0.00000   0.01518   0.01518   2.64409
    R7        2.04536   0.00606   0.00000   0.01689   0.01689   2.06225
    R8        2.64225   0.00734   0.00000   0.01603   0.01603   2.65828
    R9        2.59692   0.00300   0.00000   0.00596   0.00596   2.60288
   R10        2.63238   0.00563   0.00000   0.01203   0.01203   2.64440
   R11        2.05509   0.00571   0.00000   0.01617   0.01617   2.07126
   R12        2.05497   0.00574   0.00000   0.01626   0.01626   2.07123
   R13        1.82463   0.00821   0.00000   0.01506   0.01506   1.83969
   R14        2.58402   0.00804   0.00000   0.01556   0.01556   2.59958
   R15        2.29418   0.01878   0.00000   0.01911   0.01911   2.31329
   R16        1.83473   0.00804   0.00000   0.01506   0.01506   1.84978
   R17        1.82617   0.00848   0.00000   0.01562   0.01562   1.84178
    A1        2.07643  -0.00003   0.00000  -0.00047  -0.00047   2.07596
    A2        2.09282  -0.00059   0.00000  -0.00215  -0.00215   2.09067
    A3        2.11394   0.00061   0.00000   0.00262   0.00262   2.11656
    A4        2.07760   0.00005   0.00000  -0.00017  -0.00017   2.07743
    A5        2.11778  -0.00033   0.00000  -0.00112  -0.00112   2.11666
    A6        2.08781   0.00028   0.00000   0.00129   0.00129   2.08909
    A7        2.11850   0.00021   0.00000   0.00094   0.00094   2.11943
    A8        2.08999  -0.00061   0.00000  -0.00359  -0.00359   2.08640
    A9        2.07470   0.00040   0.00000   0.00265   0.00265   2.07735
   A10        2.08461  -0.00029   0.00000  -0.00085  -0.00085   2.08375
   A11        2.04865   0.00013   0.00000   0.00035   0.00035   2.04900
   A12        2.14993   0.00016   0.00000   0.00050   0.00050   2.15043
   A13        2.09191  -0.00015   0.00000  -0.00033  -0.00033   2.09158
   A14        2.10272   0.00021   0.00000   0.00098   0.00098   2.10369
   A15        2.08856  -0.00006   0.00000  -0.00065  -0.00065   2.08791
   A16        2.11733   0.00020   0.00000   0.00089   0.00089   2.11821
   A17        2.08064  -0.00005   0.00000  -0.00013  -0.00013   2.08051
   A18        2.08522  -0.00015   0.00000  -0.00076  -0.00076   2.08446
   A19        1.92567  -0.00250   0.00000  -0.01541  -0.01541   1.91026
   A20        1.95855  -0.00185   0.00000  -0.00733  -0.00733   1.95122
   A21        2.21010  -0.00051   0.00000  -0.00202  -0.00202   2.20808
   A22        2.11454   0.00236   0.00000   0.00935   0.00935   2.12389
   A23        1.85066  -0.00266   0.00000  -0.01643  -0.01643   1.83423
   A24        1.91044  -0.00274   0.00000  -0.01691  -0.01691   1.89353
    D1       -0.00001  -0.00000   0.00000  -0.00000  -0.00000  -0.00001
    D2        3.14158  -0.00000   0.00000  -0.00001  -0.00001   3.14157
    D3        3.14158  -0.00000   0.00000  -0.00000  -0.00000   3.14157
    D4       -0.00002  -0.00000   0.00000  -0.00000  -0.00000  -0.00003
    D5       -0.00001   0.00000   0.00000   0.00000   0.00000  -0.00000
    D6        3.14159   0.00000   0.00000   0.00000   0.00000  -3.14159
    D7       -3.14159   0.00000   0.00000   0.00000   0.00000  -3.14159
    D8        0.00001   0.00000   0.00000   0.00000   0.00000   0.00001
    D9       -3.14157  -0.00000   0.00000  -0.00000  -0.00000  -3.14157
   D10        0.00001  -0.00000   0.00000  -0.00000  -0.00000   0.00001
   D11        0.00001   0.00000   0.00000   0.00000   0.00000   0.00002
   D12       -3.14158   0.00000   0.00000   0.00000   0.00000  -3.14158
   D13       -3.14157   0.00000   0.00000   0.00001   0.00001  -3.14157
   D14        0.00001   0.00000   0.00000   0.00000   0.00000   0.00002
   D15        3.14148  -0.00000   0.00000  -0.00011  -0.00011   3.14137
   D16       -0.00018   0.00000   0.00000   0.00012   0.00012  -0.00005
   D17       -0.00012  -0.00000   0.00000  -0.00011  -0.00011  -0.00023
   D18        3.14141   0.00000   0.00000   0.00012   0.00012   3.14153
   D19       -0.00001  -0.00000   0.00000  -0.00000  -0.00000  -0.00001
   D20        3.14157  -0.00000   0.00000  -0.00000  -0.00000   3.14157
   D21        3.14159   0.00000   0.00000   0.00000   0.00000   3.14159
   D22       -0.00002   0.00000   0.00000   0.00000   0.00000  -0.00002
   D23       -0.00000  -0.00000   0.00000  -0.00000  -0.00000  -0.00001
   D24        3.14159   0.00000   0.00000   0.00000   0.00000   3.14159
   D25       -3.14158  -0.00000   0.00000  -0.00000  -0.00000  -3.14158
   D26        0.00001  -0.00000   0.00000  -0.00000  -0.00000   0.00001
   D27        3.14142   0.00000   0.00000   0.00003   0.00003   3.14146
   D28       -0.00019   0.00000   0.00000   0.00004   0.00004  -0.00015
   D29        0.00001   0.00000   0.00000   0.00000   0.00000   0.00001
   D30       -3.14159  -0.00000   0.00000  -0.00000  -0.00000  -3.14159
   D31       -3.14158  -0.00000   0.00000  -0.00000  -0.00000  -3.14158
   D32        0.00001  -0.00000   0.00000  -0.00000  -0.00000   0.00001
   D33        3.14154   0.00000   0.00000   0.00011   0.00011  -3.14153
   D34        0.00001  -0.00000   0.00000  -0.00011  -0.00011  -0.00010
         Item               Value     Threshold  Converged?
 Maximum Force            0.018779     0.000450     NO 
 RMS     Force            0.003727     0.000300     NO 
 Maximum Displacement     0.030420     0.001800     NO 
 RMS     Displacement     0.010594     0.001200     NO 
 Predicted change in Energy=-9.768395D-04
 GradGradGradGradGradGradGradGradGradGradGradGradGradGradGradGradGradGrad

                          Input orientation:                          
 ---------------------------------------------------------------------
 Center     Atomic      Atomic             Coordinates (Angstroms)
 Number     Number       Type             X           Y           Z
 ---------------------------------------------------------------------
      1          6           0        0.238421    1.278591   -0.000006
      2          6           0        0.473754   -0.124500   -0.000040
      3          6           0       -0.630576   -1.004477   -0.000025
      4          6           0       -1.945252   -0.525558    0.000003
      5          6           0       -2.174378    0.862357    0.000027
      6          6           0       -1.090155    1.747038    0.000030
      7          8           0       -2.959382   -1.457611   -0.000014
      8          6           0        1.858160   -0.676948   -0.000102
      9          8           0        1.859174   -2.052585    0.000163
     10          8           0        2.899314   -0.033115   -0.000180
     11          8           0        1.294967    2.143609    0.000001
     12          1           0       -0.459719   -2.082315   -0.000042
     13          1           0       -3.196550    1.257980    0.000044
     14          1           0       -1.276374    2.827152    0.000056
     15          1           0       -3.819232   -1.001095    0.000134
     16          1           0        2.804455   -2.306786    0.000156
     17          1           0        0.948602    3.054616    0.000045
 ---------------------------------------------------------------------
                    Distance matrix (angstroms):
                    1          2          3          4          5
     1  C    0.000000
     2  C    1.422689   0.000000
     3  C    2.442858   1.412057   0.000000
     4  C    2.832557   2.452027   1.399191   0.000000
     5  C    2.448439   2.826038   2.422477   1.406700   0.000000
     6  C    1.408743   2.438948   2.789633   2.428143   1.399357
     7  O    4.208651   3.682881   2.372482   1.377383   2.449179
     8  C    2.539230   1.490563   2.510195   3.806423   4.316344
     9  O    3.704535   2.374216   2.701367   4.099447   4.976588
    10  O    2.966636   2.427281   3.661102   4.869530   5.152109
    11  O    1.365484   2.412200   3.690280   4.198031   3.698373
    12  H    3.432650   2.168966   1.091295   2.151813   3.407513
    13  H    3.435032   3.922038   3.420956   2.178705   1.096062
    14  H    2.166251   3.431501   3.885671   3.418780   2.160285
    15  H    4.654193   4.381569   3.188658   1.933375   2.485557
    16  H    4.409020   3.192889   3.673615   5.072720   5.901885
    17  H    1.912753   3.214383   4.355462   4.603481   3.815627
                    6          7          8          9         10
     6  C    0.000000
     7  O    3.709957   0.000000
     8  C    3.816840   4.880384   0.000000
     9  O    4.809956   4.855150   1.375638   0.000000
    10  O    4.368617   6.029388   1.224142   2.271597   0.000000
    11  O    2.417866   5.573892   2.876235   4.233956   2.704082
    12  H    3.880901   2.576543   2.710649   2.319083   3.934759
    13  H    2.162423   2.725928   5.412396   6.043193   6.231090
    14  H    1.096049   4.603445   4.701491   5.800301   5.061373
    15  H    3.872995   0.973523   5.686637   5.774939   6.787919
    16  H    5.621519   5.826055   1.884634   0.978864   2.275649
    17  H    2.422043   5.969300   3.840816   5.187740   3.652309
                   11         12         13         14         15
    11  O    0.000000
    12  H    4.575736   0.000000
    13  H    4.577997   4.318311   0.000000
    14  H    2.660644   4.976926   2.479793   0.000000
    15  H    6.003682   3.529215   2.343321   4.595824   0.000000
    16  H    4.699423   3.271883   6.979944   6.558238   6.751152
    17  H    0.974629   5.326484   4.517764   2.236574   6.259476
                   16         17
    16  H    0.000000
    17  H    5.673519   0.000000
 Stoichiometry    C7H6O4
 Framework group  C1[X(C7H6O4)]
 Deg. of freedom    45
 Full point group                 C1      NOp   1
 Largest Abelian subgroup         C1      NOp   1
 Largest concise Abelian subgroup C1      NOp   1
                         Standard orientation:                         
 ---------------------------------------------------------------------
 Center     Atomic      Atomic             Coordinates (Angstroms)
 Number     Number       Type             X           Y           Z
 ---------------------------------------------------------------------
      1          6           0        0.238468    1.279635    0.000001
      2          6           0        0.471919   -0.123770   -0.000034
      3          6           0       -0.633591   -1.002265   -0.000018
      4          6           0       -1.947623   -0.521581    0.000010
      5          6           0       -2.174888    0.866639    0.000034
      6          6           0       -1.089478    1.749865    0.000036
      7          8           0       -2.963004   -1.452273   -0.000007
      8          6           0        1.855582   -0.678076   -0.000095
      9          8           0        1.854749   -2.053713    0.000169
     10          8           0        2.897599   -0.035640   -0.000174
     11          8           0        1.296174    2.143235    0.000007
     12          1           0       -0.464181   -2.080331   -0.000036
     13          1           0       -3.196527    1.263634    0.000050
     14          1           0       -1.274247    2.830227    0.000062
     15          1           0       -3.822240   -0.994604    0.000141
     16          1           0        2.799689   -2.309182    0.000163
     17          1           0        0.951033    3.054706    0.000052
 ---------------------------------------------------------------------
 Rotational constants (GHZ):      1.7381243      0.9051898      0.5952120
 Standard basis: 6-31+G(d,p) (6D, 7F)
 There are   239 symmetry adapted cartesian basis functions of A   symmetry.
 There are   239 symmetry adapted basis functions of A   symmetry.
   239 basis functions,   394 primitive gaussians,   239 cartesian basis functions
    40 alpha electrons       40 beta electrons
       nuclear repulsion energy       586.4630156162 Hartrees.
 NAtoms=   17 NActive=   17 NUniq=   17 SFac= 1.00D+00 NAtFMM=   60 NAOKFM=F Big=F
 Integral buffers will be    131072 words long.
 Raffenetti 2 integral format.
 Two-electron integral symmetry is turned on.
 Nuclear repulsion after empirical dispersion term =      586.4558016507 Hartrees.
 One-electron integrals computed using PRISM.
 NBasis=   239 RedAO= T EigKep=  3.40D-06  NBF=   239
 NBsUse=   239 1.00D-06 EigRej= -1.00D+00 NBFU=   239
 Initial guess from the checkpoint file:  "pbeD3DHB.chk"
 B after Tr=     0.000000   -0.000000    0.000000
         Rot=    1.000000    0.000001   -0.000001    0.000730 Ang=   0.08 deg.
 ExpMin= 4.38D-02 ExpMax= 5.48D+03 ExpMxC= 8.25D+02 IAcc=2 IRadAn=         4 AccDes= 0.00D+00
 Harris functional with IExCor= 1009 and IRadAn=       4 diagonalized for initial guess.
 HarFok:  IExCor= 1009 AccDes= 0.00D+00 IRadAn=         4 IDoV= 1 UseB2=F ITyADJ=14
 ICtDFT=  3500011 ScaDFX=  1.000000  1.000000  1.000000  1.000000
 FoFCou: FMM=F IPFlag=           0 FMFlag=      100000 FMFlg1=           0
         NFxFlg=           0 DoJE=T BraDBF=F KetDBF=T FulRan=T
         wScrn=  0.000000 ICntrl=     500 IOpCl=  0 I1Cent=   200000004 NGrid=           0
         NMat0=    1 NMatS0=      1 NMatT0=    0 NMatD0=    1 NMtDS0=    0 NMtDT0=    0
 Petite list used in FoFCou.
 Keep J ints in memory in canonical form, NReq=418393415.
 Requested convergence on RMS density matrix=1.00D-08 within 128 cycles.
 Requested convergence on MAX density matrix=1.00D-06.
 Requested convergence on             energy=1.00D-06.
 No special actions if energy rises.
 EnCoef did     5 forward-backward iterations
 SCF Done:  E(RPBE-PBE) =  -570.668514850     A.U. after   13 cycles
            NFock= 13  Conv=0.47D-08     -V/T= 2.0094
 Calling FoFJK, ICntrl=      2527 FMM=F ISym2X=0 I1Cent= 0 IOpClX= 0 NMat=1 NMatS=1 NMatT=0.
 ***** Axes restored to original set *****
 -------------------------------------------------------------------
 Center     Atomic                   Forces (Hartrees/Bohr)
 Number     Number              X              Y              Z
 -------------------------------------------------------------------
      1        6          -0.001087421   -0.000153196   -0.000000691
      2        6           0.000486618   -0.000558383   -0.000006468
      3        6          -0.000372860    0.000493663   -0.000000898
      4        6           0.000556087    0.000472521    0.000000027
      5        6           0.000643858    0.000032956    0.000000273
      6        6           0.000076555   -0.000641236    0.000000436
      7        8           0.000460077   -0.000996489    0.000000898
      8        6          -0.003167207    0.001599572    0.000023132
      9        8          -0.000369162   -0.001208365   -0.000006702
     10        8           0.001463822   -0.000082189   -0.000008672
     11        8           0.001192887   -0.000620008   -0.000000406
     12        1           0.000046802    0.000167996   -0.000000219
     13        1           0.000050469   -0.000003572   -0.000000027
     14        1          -0.000009237    0.000013038    0.000000033
     15        1          -0.000560694    0.000637897   -0.000000546
     16        1           0.001205286    0.000023473   -0.000000234
     17        1          -0.000615880    0.000822322    0.000000064
 -------------------------------------------------------------------
 Cartesian Forces:  Max     0.003167207 RMS     0.000715573

 GradGradGradGradGradGradGradGradGradGradGradGradGradGradGradGradGradGrad
 Berny optimization.
 Using GEDIIS/GDIIS optimizer.
 FormGI is forming the generalized inverse of G from B-inverse, IUseBI=4.
 Internal  Forces:  Max     0.001572729 RMS     0.000434468
 Search for a local minimum.
 Step number   2 out of a maximum of   85
 All quantities printed in internal units (Hartrees-Bohrs-Radians)
 Mixed Optimization -- En-DIIS/RFO-DIIS
 Update second derivatives using D2CorX and points    1    2
 DE= -9.87D-04 DEPred=-9.77D-04 R= 1.01D+00
 TightC=F SS=  1.41D+00  RLast= 6.67D-02 DXNew= 5.0454D-01 2.0019D-01
 Trust test= 1.01D+00 RLast= 6.67D-02 DXMaxT set to 3.00D-01
 ITU=  1  0
 Use linear search instead of GDIIS.
     Eigenvalues ---    0.00932   0.01300   0.01645   0.01962   0.02032
     Eigenvalues ---    0.02033   0.02097   0.02109   0.02123   0.02125
     Eigenvalues ---    0.02136   0.02150   0.02164   0.02200   0.15531
     Eigenvalues ---    0.16000   0.16000   0.16000   0.16000   0.16001
     Eigenvalues ---    0.22369   0.23483   0.24599   0.24949   0.25000
     Eigenvalues ---    0.25000   0.25000   0.25457   0.33730   0.35105
     Eigenvalues ---    0.35266   0.35973   0.41009   0.41756   0.44406
     Eigenvalues ---    0.46105   0.46226   0.48860   0.49414   0.50378
     Eigenvalues ---    0.52271   0.52785   0.53787   0.54244   0.96438
 RFO step:  Lambda=-4.12173823D-05 EMin= 9.32301985D-03
 Quartic linear search produced a step of  0.02458.
 Iteration  1 RMS(Cart)=  0.00342326 RMS(Int)=  0.00001134
 Iteration  2 RMS(Cart)=  0.00001437 RMS(Int)=  0.00000029
 Iteration  3 RMS(Cart)=  0.00000000 RMS(Int)=  0.00000029
 Variable       Old X    -DE/DX   Delta X   Delta X   Delta X     New X
                                 (Linear)    (Quad)   (Total)
    R1        2.68849  -0.00022   0.00037  -0.00053  -0.00016   2.68833
    R2        2.66214  -0.00069   0.00037  -0.00160  -0.00123   2.66091
    R3        2.58039   0.00058   0.00018   0.00110   0.00128   2.58167
    R4        2.66840  -0.00046   0.00030  -0.00107  -0.00077   2.66763
    R5        2.81676  -0.00093   0.00015  -0.00284  -0.00270   2.81406
    R6        2.64409  -0.00062   0.00037  -0.00138  -0.00101   2.64308
    R7        2.06225  -0.00016   0.00042  -0.00050  -0.00009   2.06216
    R8        2.65828  -0.00037   0.00039  -0.00088  -0.00049   2.65779
    R9        2.60288   0.00031   0.00015   0.00062   0.00077   2.60365
   R10        2.64440  -0.00069   0.00030  -0.00157  -0.00127   2.64313
   R11        2.07126  -0.00005   0.00040  -0.00019   0.00021   2.07147
   R12        2.07123   0.00002   0.00040  -0.00000   0.00040   2.07163
   R13        1.83969   0.00080   0.00037   0.00146   0.00183   1.84152
   R14        2.59958   0.00119   0.00038   0.00233   0.00271   2.60229
   R15        2.31329   0.00120   0.00047   0.00119   0.00166   2.31495
   R16        1.84978   0.00116   0.00037   0.00218   0.00255   1.85234
   R17        1.84178   0.00098   0.00038   0.00182   0.00220   1.84398
    A1        2.07596  -0.00001  -0.00001  -0.00001  -0.00002   2.07594
    A2        2.09067  -0.00002  -0.00005  -0.00008  -0.00013   2.09054
    A3        2.11656   0.00002   0.00006   0.00008   0.00015   2.11670
    A4        2.07743  -0.00004  -0.00000  -0.00010  -0.00010   2.07733
    A5        2.11666  -0.00035  -0.00003  -0.00146  -0.00148   2.11518
    A6        2.08909   0.00039   0.00003   0.00155   0.00158   2.09068
    A7        2.11943  -0.00000   0.00002   0.00005   0.00007   2.11951
    A8        2.08640  -0.00007  -0.00009  -0.00048  -0.00057   2.08583
    A9        2.07735   0.00007   0.00007   0.00043   0.00049   2.07785
   A10        2.08375  -0.00005  -0.00002  -0.00025  -0.00027   2.08349
   A11        2.04900   0.00006   0.00001   0.00027   0.00028   2.04928
   A12        2.15043  -0.00001   0.00001  -0.00002  -0.00001   2.15042
   A13        2.09158   0.00010  -0.00001   0.00037   0.00036   2.09194
   A14        2.10369  -0.00003   0.00002  -0.00006  -0.00003   2.10366
   A15        2.08791  -0.00007  -0.00002  -0.00031  -0.00032   2.08759
   A16        2.11821   0.00000   0.00002  -0.00007  -0.00005   2.11817
   A17        2.08051   0.00000  -0.00000   0.00005   0.00005   2.08056
   A18        2.08446  -0.00000  -0.00002   0.00001  -0.00000   2.08446
   A19        1.91026  -0.00056  -0.00038  -0.00355  -0.00393   1.90634
   A20        1.95122   0.00119  -0.00018   0.00491   0.00473   1.95595
   A21        2.20808   0.00038  -0.00005   0.00155   0.00150   2.20958
   A22        2.12389  -0.00157   0.00023  -0.00647  -0.00624   2.11765
   A23        1.83423  -0.00061  -0.00040  -0.00389  -0.00429   1.82994
   A24        1.89353  -0.00052  -0.00042  -0.00327  -0.00369   1.88984
    D1       -0.00001   0.00000  -0.00000   0.00002   0.00002   0.00001
    D2        3.14157   0.00000  -0.00000   0.00002   0.00002  -3.14159
    D3        3.14157   0.00000  -0.00000   0.00002   0.00002   3.14159
    D4       -0.00003   0.00000  -0.00000   0.00002   0.00002  -0.00001
    D5       -0.00000  -0.00000   0.00000  -0.00001  -0.00001  -0.00001
    D6       -3.14159  -0.00000   0.00000  -0.00001  -0.00001   3.14159
    D7       -3.14159  -0.00000   0.00000  -0.00000  -0.00000   3.14159
    D8        0.00001  -0.00000   0.00000  -0.00000  -0.00000   0.00001
    D9       -3.14157   0.00000  -0.00000   0.00000   0.00000  -3.14157
   D10        0.00001  -0.00000  -0.00000  -0.00000  -0.00000   0.00001
   D11        0.00002  -0.00000   0.00000  -0.00002  -0.00002  -0.00001
   D12       -3.14158  -0.00000   0.00000  -0.00001  -0.00001   3.14159
   D13       -3.14157  -0.00000   0.00000  -0.00002  -0.00002  -3.14159
   D14        0.00002  -0.00000   0.00000  -0.00001  -0.00001   0.00001
   D15        3.14137   0.00001  -0.00000   0.00048   0.00048  -3.14134
   D16       -0.00005  -0.00001   0.00000  -0.00043  -0.00043  -0.00048
   D17       -0.00023   0.00001  -0.00000   0.00048   0.00048   0.00025
   D18        3.14153  -0.00001   0.00000  -0.00043  -0.00043   3.14111
   D19       -0.00001   0.00000  -0.00000   0.00001   0.00001   0.00000
   D20        3.14157   0.00000  -0.00000   0.00001   0.00001   3.14158
   D21        3.14159  -0.00000   0.00000  -0.00000  -0.00000   3.14159
   D22       -0.00002   0.00000   0.00000   0.00000   0.00000  -0.00002
   D23       -0.00001   0.00000  -0.00000   0.00000   0.00000  -0.00000
   D24        3.14159  -0.00000   0.00000  -0.00000  -0.00000   3.14159
   D25       -3.14158  -0.00000  -0.00000  -0.00000  -0.00000  -3.14158
   D26        0.00001  -0.00000  -0.00000  -0.00000  -0.00000   0.00001
   D27        3.14146   0.00000   0.00000   0.00003   0.00003   3.14149
   D28       -0.00015   0.00000   0.00000   0.00003   0.00003  -0.00012
   D29        0.00001  -0.00000   0.00000  -0.00000  -0.00000   0.00001
   D30       -3.14159  -0.00000  -0.00000  -0.00000  -0.00000  -3.14159
   D31       -3.14158  -0.00000  -0.00000  -0.00000  -0.00000  -3.14158
   D32        0.00001  -0.00000  -0.00000  -0.00000  -0.00000   0.00001
   D33       -3.14153  -0.00001   0.00000  -0.00044  -0.00043   3.14122
   D34       -0.00010   0.00001  -0.00000   0.00042   0.00042   0.00032
         Item               Value     Threshold  Converged?
 Maximum Force            0.001573     0.000450     NO 
 RMS     Force            0.000434     0.000300     NO 
 Maximum Displacement     0.016572     0.001800     NO 
 RMS     Displacement     0.003429     0.001200     NO 
 Predicted change in Energy=-2.112239D-05
 GradGradGradGradGradGradGradGradGradGradGradGradGradGradGradGradGradGrad

                          Input orientation:                          
 ---------------------------------------------------------------------
 Center     Atomic      Atomic             Coordinates (Angstroms)
 Number     Number       Type             X           Y           Z
 ---------------------------------------------------------------------
      1          6           0        0.237887    1.276729    0.000063
      2          6           0        0.472161   -0.126451    0.000146
      3          6           0       -0.632593   -1.005240    0.000129
      4          6           0       -1.946397   -0.525490    0.000040
      5          6           0       -2.174040    0.862406   -0.000036
      6          6           0       -1.089736    1.745925   -0.000019
      7          8           0       -2.961806   -1.456753    0.000017
      8          6           0        1.855649   -0.677347    0.000240
      9          8           0        1.864200   -2.054392   -0.000014
     10          8           0        2.898044   -0.033849   -0.000214
     11          8           0        1.295713    2.141254    0.000079
     12          1           0       -0.462043   -2.083079    0.000192
     13          1           0       -3.195917    1.259097   -0.000113
     14          1           0       -1.275260    2.826372   -0.000076
     15          1           0       -3.820225   -0.995505    0.000052
     16          1           0        2.813224   -2.299692   -0.000275
     17          1           0        0.946369    3.052370    0.000037
 ---------------------------------------------------------------------
                    Distance matrix (angstroms):
                    1          2          3          4          5
     1  C    0.000000
     2  C    1.422602   0.000000
     3  C    2.442359   1.411649   0.000000
     4  C    2.831799   2.451256   1.398657   0.000000
     5  C    2.447254   2.824927   2.421603   1.406441   0.000000
     6  C    1.408093   2.438301   2.788887   2.427590   1.398685
     7  O    4.208320   3.682639   2.372571   1.377790   2.449301
     8  C    2.536842   1.489136   2.509754   3.805078   4.313842
     9  O    3.706921   2.377968   2.708264   4.105873   4.981475
    10  O    2.965477   2.427650   3.661830   4.869325   5.150661
    11  O    1.366162   2.412617   3.690364   4.197952   3.697923
    12  H    3.431940   2.168209   1.091248   2.151602   3.406877
    13  H    3.433849   3.921038   3.420213   2.178543   1.096174
    14  H    2.165873   3.431128   3.885135   3.418392   2.159854
    15  H    4.650948   4.379479   3.187647   1.931877   2.482290
    16  H    4.407170   3.194301   3.680932   5.079546   5.905224
    17  H    1.911765   3.213996   4.354000   4.600997   3.812203
                    6          7          8          9         10
     6  C    0.000000
     7  O    3.709689   0.000000
     8  C    3.814124   4.880097   0.000000
     9  O    4.813330   4.862870   1.377072   0.000000
    10  O    4.366919   6.030132   1.225021   2.269676   0.000000
    11  O    2.417984   5.574237   2.873681   4.233985   2.701581
    12  H    3.880112   2.577032   2.710679   2.326420   3.935674
    13  H    2.161713   2.725922   5.410004   6.048471   6.229613
    14  H    1.096260   4.603216   4.698791   5.803281   5.059381
    15  H    3.869239   0.974492   5.684784   5.782208   6.786746
    16  H    5.621398   5.836225   1.883866   0.980214   2.267429
    17  H    2.419198   5.967078   3.838955   5.188587   3.651545
                   11         12         13         14         15
    11  O    0.000000
    12  H    4.575445   0.000000
    13  H    4.577438   4.317894   0.000000
    14  H    2.660693   4.976347   2.478967   0.000000
    15  H    6.001007   3.529901   2.339442   4.591688   0.000000
    16  H    4.693063   3.282423   6.983893   6.556846   6.760441
    17  H    0.975793   5.325078   4.513797   2.233094   6.253456
                   16         17
    16  H    0.000000
    17  H    5.668307   0.000000
 Stoichiometry    C7H6O4
 Framework group  C1[X(C7H6O4)]
 Deg. of freedom    45
 Full point group                 C1      NOp   1
 Largest Abelian subgroup         C1      NOp   1
 Largest concise Abelian subgroup C1      NOp   1
                         Standard orientation:                         
 ---------------------------------------------------------------------
 Center     Atomic      Atomic             Coordinates (Angstroms)
 Number     Number       Type             X           Y           Z
 ---------------------------------------------------------------------
      1          6           0        0.236996    1.278722    0.000036
      2          6           0        0.470698   -0.124553    0.000119
      3          6           0       -0.634414   -1.002892    0.000103
      4          6           0       -1.948022   -0.522606    0.000013
      5          6           0       -2.175099    0.865382   -0.000063
      6          6           0       -1.090435    1.748459   -0.000046
      7          8           0       -2.963810   -1.453456   -0.000010
      8          6           0        1.853962   -0.676013    0.000213
      9          8           0        1.861952   -2.053062   -0.000040
     10          8           0        2.896619   -0.032940   -0.000240
     11          8           0        1.295174    2.142816    0.000052
     12          1           0       -0.464303   -2.080800    0.000165
     13          1           0       -3.196815    1.262489   -0.000139
     14          1           0       -1.275519    2.828982   -0.000103
     15          1           0       -3.822042   -0.991858    0.000026
     16          1           0        2.810876   -2.298747   -0.000302
     17          1           0        0.946202    3.054074    0.000010
 ---------------------------------------------------------------------
 Rotational constants (GHZ):      1.7393366      0.9045354      0.5950710
 Standard basis: 6-31+G(d,p) (6D, 7F)
 There are   239 symmetry adapted cartesian basis functions of A   symmetry.
 There are   239 symmetry adapted basis functions of A   symmetry.
   239 basis functions,   394 primitive gaussians,   239 cartesian basis functions
    40 alpha electrons       40 beta electrons
       nuclear repulsion energy       586.4438179622 Hartrees.
 NAtoms=   17 NActive=   17 NUniq=   17 SFac= 1.00D+00 NAtFMM=   60 NAOKFM=F Big=F
 Integral buffers will be    131072 words long.
 Raffenetti 2 integral format.
 Two-electron integral symmetry is turned on.
 Nuclear repulsion after empirical dispersion term =      586.4366072094 Hartrees.
 One-electron integrals computed using PRISM.
 NBasis=   239 RedAO= T EigKep=  3.39D-06  NBF=   239
 NBsUse=   239 1.00D-06 EigRej= -1.00D+00 NBFU=   239
 Initial guess from the checkpoint file:  "pbeD3DHB.chk"
 B after Tr=    -0.000000    0.000000   -0.000000
         Rot=    1.000000   -0.000003    0.000002   -0.000392 Ang=  -0.04 deg.
 Keep J ints in memory in canonical form, NReq=418393415.
 Requested convergence on RMS density matrix=1.00D-08 within 128 cycles.
 Requested convergence on MAX density matrix=1.00D-06.
 Requested convergence on             energy=1.00D-06.
 No special actions if energy rises.
 SCF Done:  E(RPBE-PBE) =  -570.668538254     A.U. after   11 cycles
            NFock= 11  Conv=0.57D-08     -V/T= 2.0094
 Calling FoFJK, ICntrl=      2527 FMM=F ISym2X=0 I1Cent= 0 IOpClX= 0 NMat=1 NMatS=1 NMatT=0.
 ***** Axes restored to original set *****
 -------------------------------------------------------------------
 Center     Atomic                   Forces (Hartrees/Bohr)
 Number     Number              X              Y              Z
 -------------------------------------------------------------------
      1        6          -0.000242398   -0.000071018    0.000002560
      2        6           0.000493054   -0.000313799    0.000025881
      3        6          -0.000033405    0.000016936    0.000002908
      4        6           0.000297970    0.000115147   -0.000001956
      5        6           0.000035208   -0.000033918    0.000000294
      6        6           0.000069290   -0.000012927   -0.000001778
      7        8          -0.000195339   -0.000043602    0.000000600
      8        6          -0.000760566    0.000583738   -0.000092852
      9        8          -0.000241892   -0.000614125    0.000027236
     10        8           0.000291744    0.000101125    0.000035208
     11        8           0.000106014    0.000193282    0.000001299
     12        1           0.000059619    0.000067052    0.000000507
     13        1           0.000090325   -0.000041207    0.000000277
     14        1           0.000004776   -0.000108495   -0.000000188
     15        1           0.000026363   -0.000048721   -0.000000586
     16        1          -0.000006297    0.000217033    0.000000769
     17        1           0.000005533   -0.000006500   -0.000000179
 -------------------------------------------------------------------
 Cartesian Forces:  Max     0.000760566 RMS     0.000205146

 GradGradGradGradGradGradGradGradGradGradGradGradGradGradGradGradGradGrad
 Berny optimization.
 Using GEDIIS/GDIIS optimizer.
 FormGI is forming the generalized inverse of G from B-inverse, IUseBI=4.
 Internal  Forces:  Max     0.000774115 RMS     0.000141513
 Search for a local minimum.
 Step number   3 out of a maximum of   85
 All quantities printed in internal units (Hartrees-Bohrs-Radians)
 Mixed Optimization -- En-DIIS/RFO-DIIS
 Swapping is turned off.
 Update second derivatives using D2CorX and points    1    2    3
 DE= -2.34D-05 DEPred=-2.11D-05 R= 1.11D+00
 TightC=F SS=  1.41D+00  RLast= 1.25D-02 DXNew= 5.0454D-01 3.7643D-02
 Trust test= 1.11D+00 RLast= 1.25D-02 DXMaxT set to 3.00D-01
 ITU=  1  1  0
     Eigenvalues ---    0.00932   0.01301   0.01645   0.01962   0.02032
     Eigenvalues ---    0.02033   0.02097   0.02109   0.02123   0.02125
     Eigenvalues ---    0.02136   0.02150   0.02164   0.02200   0.13420
     Eigenvalues ---    0.16000   0.16000   0.16000   0.16001   0.16339
     Eigenvalues ---    0.22357   0.23428   0.23745   0.24678   0.25000
     Eigenvalues ---    0.25000   0.25007   0.28572   0.32905   0.35110
     Eigenvalues ---    0.35434   0.35933   0.41000   0.41810   0.44228
     Eigenvalues ---    0.46069   0.46202   0.46768   0.49007   0.50418
     Eigenvalues ---    0.52435   0.53613   0.54216   0.55387   0.95421
 En-DIIS/RFO-DIIS IScMMF=        0 using points:     3    2
 RFO step:  Lambda=-2.87097762D-06.
 DidBck=F Rises=F RFO-DIIS coefs:    1.10415   -0.10415
 Iteration  1 RMS(Cart)=  0.00145624 RMS(Int)=  0.00000161
 Iteration  2 RMS(Cart)=  0.00000198 RMS(Int)=  0.00000050
 Iteration  3 RMS(Cart)=  0.00000000 RMS(Int)=  0.00000050
 Variable       Old X    -DE/DX   Delta X   Delta X   Delta X     New X
                                 (Linear)    (Quad)   (Total)
    R1        2.68833   0.00002  -0.00002   0.00013   0.00012   2.68844
    R2        2.66091  -0.00018  -0.00013  -0.00038  -0.00051   2.66040
    R3        2.58167   0.00021   0.00013   0.00050   0.00064   2.58231
    R4        2.66763  -0.00016  -0.00008  -0.00036  -0.00044   2.66719
    R5        2.81406  -0.00077  -0.00028  -0.00257  -0.00285   2.81121
    R6        2.64308  -0.00019  -0.00011  -0.00040  -0.00051   2.64257
    R7        2.06216  -0.00006  -0.00001  -0.00010  -0.00011   2.06205
    R8        2.65779  -0.00011  -0.00005  -0.00021  -0.00026   2.65753
    R9        2.60365   0.00018   0.00008   0.00045   0.00053   2.60418
   R10        2.64313  -0.00008  -0.00013  -0.00017  -0.00030   2.64283
   R11        2.07147  -0.00010   0.00002  -0.00023  -0.00021   2.07126
   R12        2.07163  -0.00011   0.00004  -0.00025  -0.00021   2.07142
   R13        1.84152  -0.00004   0.00019   0.00003   0.00022   1.84174
   R14        2.60229   0.00040   0.00028   0.00100   0.00129   2.60358
   R15        2.31495   0.00030   0.00017   0.00047   0.00064   2.31560
   R16        1.85234  -0.00006   0.00027   0.00001   0.00027   1.85261
   R17        1.84398  -0.00001   0.00023   0.00011   0.00034   1.84432
    A1        2.07594  -0.00010  -0.00000  -0.00042  -0.00042   2.07552
    A2        2.09054   0.00013  -0.00001   0.00055   0.00054   2.09108
    A3        2.11670  -0.00003   0.00002  -0.00014  -0.00012   2.11658
    A4        2.07733   0.00008  -0.00001   0.00035   0.00034   2.07767
    A5        2.11518   0.00021  -0.00015   0.00086   0.00071   2.11588
    A6        2.09068  -0.00028   0.00017  -0.00121  -0.00105   2.08963
    A7        2.11951  -0.00001   0.00001  -0.00004  -0.00003   2.11947
    A8        2.08583  -0.00007  -0.00006  -0.00048  -0.00054   2.08529
    A9        2.07785   0.00007   0.00005   0.00052   0.00057   2.07842
   A10        2.08349  -0.00003  -0.00003  -0.00020  -0.00022   2.08326
   A11        2.04928   0.00006   0.00003   0.00030   0.00033   2.04961
   A12        2.15042  -0.00003  -0.00000  -0.00011  -0.00011   2.15032
   A13        2.09194   0.00005   0.00004   0.00025   0.00029   2.09223
   A14        2.10366  -0.00003  -0.00000  -0.00013  -0.00013   2.10353
   A15        2.08759  -0.00003  -0.00003  -0.00012  -0.00015   2.08743
   A16        2.11817   0.00001  -0.00000   0.00005   0.00005   2.11822
   A17        2.08056   0.00001   0.00001   0.00005   0.00005   2.08061
   A18        2.08446  -0.00001  -0.00000  -0.00010  -0.00010   2.08436
   A19        1.90634   0.00005  -0.00041   0.00017  -0.00024   1.90609
   A20        1.95595  -0.00025   0.00049  -0.00101  -0.00052   1.95544
   A21        2.20958   0.00021   0.00016   0.00094   0.00109   2.21067
   A22        2.11765   0.00004  -0.00065   0.00007  -0.00058   2.11707
   A23        1.82994  -0.00038  -0.00045  -0.00279  -0.00324   1.82671
   A24        1.88984   0.00001  -0.00038  -0.00010  -0.00049   1.88935
    D1        0.00001  -0.00000   0.00000  -0.00008  -0.00008  -0.00007
    D2       -3.14159  -0.00000   0.00000  -0.00009  -0.00009   3.14151
    D3        3.14159  -0.00000   0.00000  -0.00006  -0.00006   3.14153
    D4       -0.00001  -0.00000   0.00000  -0.00007  -0.00006  -0.00007
    D5       -0.00001   0.00000  -0.00000   0.00004   0.00004   0.00003
    D6        3.14159   0.00000  -0.00000   0.00003   0.00003  -3.14157
    D7        3.14159   0.00000  -0.00000   0.00002   0.00002  -3.14158
    D8        0.00001   0.00000  -0.00000   0.00001   0.00001   0.00001
    D9       -3.14157  -0.00000   0.00000  -0.00002  -0.00002  -3.14159
   D10        0.00001   0.00000  -0.00000   0.00000   0.00000   0.00002
   D11       -0.00001   0.00000  -0.00000   0.00008   0.00008   0.00008
   D12        3.14159   0.00000  -0.00000   0.00003   0.00003  -3.14156
   D13       -3.14159   0.00000  -0.00000   0.00009   0.00009  -3.14150
   D14        0.00001   0.00000  -0.00000   0.00004   0.00004   0.00004
   D15       -3.14134  -0.00002   0.00005  -0.00202  -0.00197   3.13988
   D16       -0.00048   0.00002  -0.00004   0.00191   0.00187   0.00139
   D17        0.00025  -0.00002   0.00005  -0.00202  -0.00197  -0.00173
   D18        3.14111   0.00002  -0.00004   0.00191   0.00187  -3.14021
   D19        0.00000  -0.00000   0.00000  -0.00004  -0.00004  -0.00004
   D20        3.14158  -0.00000   0.00000  -0.00004  -0.00003   3.14155
   D21        3.14159   0.00000  -0.00000   0.00001   0.00001  -3.14159
   D22       -0.00002   0.00000   0.00000   0.00001   0.00001  -0.00000
   D23       -0.00000  -0.00000   0.00000  -0.00001  -0.00001  -0.00001
   D24        3.14159   0.00000  -0.00000   0.00001   0.00001  -3.14159
   D25       -3.14158  -0.00000  -0.00000  -0.00001  -0.00001  -3.14159
   D26        0.00001   0.00000  -0.00000   0.00001   0.00001   0.00001
   D27        3.14149   0.00000   0.00000   0.00003   0.00003   3.14151
   D28       -0.00012   0.00000   0.00000   0.00003   0.00003  -0.00009
   D29        0.00001   0.00000  -0.00000   0.00000   0.00000   0.00001
   D30       -3.14159   0.00000  -0.00000   0.00002   0.00002  -3.14157
   D31       -3.14158  -0.00000  -0.00000  -0.00001  -0.00001  -3.14159
   D32        0.00001   0.00000  -0.00000   0.00000   0.00000   0.00001
   D33        3.14122   0.00002  -0.00005   0.00188   0.00184  -3.14013
   D34        0.00032  -0.00002   0.00004  -0.00182  -0.00177  -0.00145
         Item               Value     Threshold  Converged?
 Maximum Force            0.000774     0.000450     NO 
 RMS     Force            0.000142     0.000300     YES
 Maximum Displacement     0.005876     0.001800     NO 
 RMS     Displacement     0.001457     0.001200     NO 
 Predicted change in Energy=-2.994660D-06
 GradGradGradGradGradGradGradGradGradGradGradGradGradGradGradGradGradGrad

                          Input orientation:                          
 ---------------------------------------------------------------------
 Center     Atomic      Atomic             Coordinates (Angstroms)
 Number     Number       Type             X           Y           Z
 ---------------------------------------------------------------------
      1          6           0        0.238231    1.277212   -0.000235
      2          6           0        0.472516   -0.126028   -0.000632
      3          6           0       -0.631755   -1.005050   -0.000509
      4          6           0       -1.945453   -0.525796   -0.000096
      5          6           0       -2.173188    0.861944    0.000248
      6          6           0       -1.089336    1.745763    0.000185
      7          8           0       -2.961092   -1.457225   -0.000060
      8          6           0        1.854215   -0.677340   -0.001188
      9          8           0        1.861091   -2.055074    0.000682
     10          8           0        2.898053   -0.035537    0.000006
     11          8           0        1.295851    2.142520   -0.000276
     12          1           0       -0.460263   -2.082681   -0.000781
     13          1           0       -3.195050    1.258374    0.000577
     14          1           0       -1.275351    2.826015    0.000472
     15          1           0       -3.819493   -0.995694    0.000313
     16          1           0        2.810749   -2.298491    0.001506
     17          1           0        0.945507    3.053444    0.000036
 ---------------------------------------------------------------------
                    Distance matrix (angstroms):
                    1          2          3          4          5
     1  C    0.000000
     2  C    1.422664   0.000000
     3  C    2.442457   1.411415   0.000000
     4  C    2.831839   2.450794   1.398388   0.000000
     5  C    2.446915   2.824153   2.421091   1.406302   0.000000
     6  C    1.407826   2.437823   2.788611   2.427533   1.398526
     7  O    4.208660   3.682628   2.372820   1.378072   2.449354
     8  C    2.536076   1.487628   2.507477   3.802689   4.311539
     9  O    3.706455   2.376839   2.704964   4.102252   4.978394
    10  O    2.966136   2.427224   3.660532   4.868255   5.150045
    11  O    1.366498   2.413336   3.690916   4.198329   3.697852
    12  H    3.431731   2.167618   1.091191   2.151669   3.406601
    13  H    3.433333   3.920154   3.419586   2.178246   1.096065
    14  H    2.165576   3.430684   3.884749   3.418139   2.159558
    15  H    4.650939   4.379231   3.187752   1.932054   2.482164
    16  H    4.404941   3.191698   3.677475   5.075816   5.901524
    17  H    1.911868   3.214461   4.354208   4.600935   3.811684
                    6          7          8          9         10
     6  C    0.000000
     7  O    3.709799   0.000000
     8  C    3.812600   4.878053   0.000000
     9  O    4.811588   4.859102   1.377753   0.000000
    10  O    4.367184   6.029161   1.225361   2.270203   0.000000
    11  O    2.417960   5.574920   2.874610   4.235481   2.703883
    12  H    3.879783   2.577856   2.707728   2.321518   3.933076
    13  H    2.161384   2.725658   5.407593   6.045122   6.228973
    14  H    1.096151   4.603029   4.697625   5.801922   5.060215
    15  H    3.869024   0.974609   5.682633   5.778522   6.785818
    16  H    5.618421   5.832828   1.882312   0.980359   2.264638
    17  H    2.418804   5.967215   3.839856   5.189918   3.654345
                   11         12         13         14         15
    11  O    0.000000
    12  H    4.575616   0.000000
    13  H    4.577107   4.317605   0.000000
    14  H    2.660496   4.975909   2.478457   0.000000
    15  H    6.001261   3.530718   2.338964   4.591092   0.000000
    16  H    4.692281   3.278124   6.980037   6.554142   6.757025
    17  H    0.975972   5.325032   4.512925   2.232472   6.253059
                   16         17
    16  H    0.000000
    17  H    5.667657   0.000000
 Stoichiometry    C7H6O4
 Framework group  C1[X(C7H6O4)]
 Deg. of freedom    45
 Full point group                 C1      NOp   1
 Largest Abelian subgroup         C1      NOp   1
 Largest concise Abelian subgroup C1      NOp   1
                         Standard orientation:                         
 ---------------------------------------------------------------------
 Center     Atomic      Atomic             Coordinates (Angstroms)
 Number     Number       Type             X           Y           Z
 ---------------------------------------------------------------------
      1          6           0        0.237844    1.279249   -0.000129
      2          6           0        0.471063   -0.124169   -0.000527
      3          6           0       -0.633875   -1.002352   -0.000404
      4          6           0       -1.947209   -0.522100    0.000009
      5          6           0       -2.173890    0.865812    0.000353
[...]
 ! D21   D(12,3,4,5)           179.9999         -DE/DX =    0.0                 !
 ! D22   D(12,3,4,7)            -0.0004         -DE/DX =    0.0                 !
 ! D23   D(3,4,5,6)             -0.0001         -DE/DX =    0.0                 !
 ! D24   D(3,4,5,13)          -180.0001         -DE/DX =    0.0                 !
 ! D25   D(7,4,5,6)           -179.9997         -DE/DX =    0.0                 !
 ! D26   D(7,4,5,13)             0.0003         -DE/DX =    0.0                 !
 ! D27   D(3,4,7,15)          -180.0034         -DE/DX =    0.0                 !
 ! D28   D(5,4,7,15)            -0.0038         -DE/DX =    0.0                 !
 ! D29   D(4,5,6,1)              0.0004         -DE/DX =    0.0                 !
 ! D30   D(4,5,6,14)           180.0002         -DE/DX =    0.0                 !
 ! D31   D(13,5,6,1)          -179.9996         -DE/DX =    0.0                 !
 ! D32   D(13,5,6,14)            0.0002         -DE/DX =    0.0                 !
 ! D33   D(2,8,9,16)           179.9996         -DE/DX =    0.0                 !
 ! D34   D(10,8,9,16)           -0.0014         -DE/DX =    0.0                 !
 --------------------------------------------------------------------------------
 GradGradGradGradGradGradGradGradGradGradGradGradGradGradGradGradGradGrad

 1\1\ WCSS.PL-BEM-JP\Freq\RPBEPBE\6-31+G(d,p)\C7H6O4\C612\17-Dec-2024\0
 \\#N Geom=AllCheck Guess=TCheck SCRF=Check GenChk RPBEPBE/6-31+G(d,p) 
 Freq\\[No Title]\\0,1\C,0.2381007846,1.2770467339,0.0000036968\C,0.472
 4400377,-0.1261491022,-0.000004301\C,-0.6320529267,-1.0051365481,0.000
 0087341\C,-1.9456924559,-0.5257072844,0.0000196629\C,-2.1733733013,0.8
 620392457,0.0000241212\C,-1.0894156051,1.7457990475,0.0000199819\O,-2.
 9614531594,-1.4569882754,0.0000175674\C,1.8541993021,-0.6772045931,-0.
 0000342295\O,1.8619987097,-2.0551694408,0.0001022264\O,2.89777765,-0.0
 350965319,-0.0001436136\O,1.2959228509,2.1420383665,0.0000031168\H,-0.
 4606439032,-2.0827123784,0.0000064076\H,-3.1951675384,1.2585153584,0.0
 000304706\H,-1.2753922269,2.8259950436,0.0000272467\H,-3.8198418133,-0
 .9957407121,0.0000805672\H,2.8116288974,-2.2981966795,0.0000614555\H,0
 .946194698,3.0530227504,0.0000258892\\Version=ES64L-G09RevE.01\State=1
 -A\HF=-570.6685409\RMSD=4.104e-09\RMSF=2.112e-05\ZeroPoint=0.1198056\T
 hermal=0.1297202\Dipole=-1.4718486,0.7251878,0.0001007\DipoleDeriv=0.6
 73802,0.8399181,0.0000045,0.4479879,0.6331222,0.0000053,0.0000096,-0.0
 000015,0.0590826,-0.6085421,0.4513438,0.0000113,-0.0041348,-0.1503185,
 0.0000064,0.0000213,-0.0000041,-0.0008363,0.0558562,-0.4484225,-0.0000
 033,0.1993039,-0.0542057,-0.000003,-0.0000105,0.000012,-0.1266567,0.84
 27958,0.8971634,0.0000008,0.9276883,0.3610904,-0.0000089,0.0000014,-0.
 0000047,0.0544051,-0.0359113,0.1512576,0.0000029,-0.3928203,0.1009747,
 0.000004,-0.0000055,-0.0000003,-0.143027,-0.1299734,-0.4415316,-0.0000
 055,0.1252914,0.0492414,-0.0000001,0.0000001,0.0000039,-0.1670409,-1.0
 676214,-0.6787491,-0.0000052,-0.7628235,-0.6171233,0.0000176,-0.000021
 9,0.0000033,-0.3449581,1.8751918,-0.3331965,-0.0000815,-0.2801187,1.69
 82627,-0.0001398,-0.0000568,-0.0001329,0.2310681,-0.4461364,0.2215292,
 -0.0000185,0.2893132,-1.3489748,0.0000844,-0.000036,0.0000961,-0.34526
 81,-1.2522132,-0.1219898,0.0000771,-0.1005011,-0.612114,0.0000447,0.00
 00467,0.0000492,-0.3209971,-0.68402,-0.7665438,-0.0000095,-0.6064137,-
 0.8155915,0.0000024,-0.0000037,-0.0000025,-0.3009446,0.1240642,-0.0047
 081,0.0000008,-0.0103776,0.0331184,-0.0000011,0.0000071,-0.0000018,0.1
 417724,-0.110438,0.0307483,0.0000021,0.0263433,0.0672819,0.,0.0000021,
 -0.0000003,0.1434693,0.0566451,-0.0213408,0.0000004,0.0001982,-0.11648
 98,-0.0000017,0.0000008,-0.0000026,0.1470544,0.3002268,0.0872905,0.000
 0049,0.140707,0.1798606,-0.0000127,0.0000168,-0.0000039,0.3279679,0.18
 59868,-0.0327732,0.0000144,-0.1014331,0.3376595,0.000005,0.0000277,-0.
 0000062,0.3254136,0.2202871,0.1700046,0.0000042,0.1017894,0.2542058,-0
 .0000027,0.0000007,-0.0000036,0.3194954\Polar=138.7184464,-1.3358248,1
 18.6078624,-0.0015167,-0.0006079,53.5180643\PG=C01 [X(C7H6O4)]\NImag=0
 \\0.65138059,0.00452777,0.66184825,-0.00000495,0.00000433,0.13729473,-
 0.12674467,0.05554315,0.00000197,0.60955913,0.01505192,-0.26847797,-0.
 00000181,0.02553685,0.65195068,0.00000220,-0.00000162,-0.05748534,-0.0
 0000820,-0.00000287,0.12246391,0.04591047,-0.05046908,-0.00000063,-0.2
 2602845,-0.08387627,0.00000183,0.67189708,-0.01883150,-0.03505009,0.00
 000008,-0.12024132,-0.19622441,0.00000188,-0.01224334,0.70373745,-0.00
 000079,0.00000049,-0.00134959,0.00000101,0.00000124,-0.04565822,-0.000
 00519,0.00000022,0.11274499,-0.03098685,0.02980193,0.00000029,-0.04833
 354,-0.03152068,0.00000056,-0.28979405,0.10833998,0.00000212,0.6777742
 1,0.03269262,-0.03645100,-0.00000057,0.00616247,0.04636066,-0.00000030
 ,0.04734203,-0.14671639,-0.00000046,-0.01607104,0.65734606,0.00000019,
 -0.00000033,0.00190587,0.00000067,0.00000093,-0.00248271,0.00000187,-0
 .00000157,-0.05543284,-0.00000584,0.00000327,0.12507253,-0.04928916,0.
 00008429,0.00000044,-0.00784704,-0.01293098,0.00000009,0.01077986,0.02
 949192,-0.00000014,-0.12642886,0.07539178,0.00000063,0.70100204,-0.039
 38641,0.05160946,0.00000061,-0.01635989,-0.03954898,0.00000033,0.06465
 471,-0.01024765,-0.00000082,0.00819471,-0.30040590,-0.00000085,-0.0025
 3152,0.65179154,0.00000022,0.00000022,-0.00351673,0.00000014,-0.000000
 08,0.00286506,0.,-0.00000013,0.00174517,0.00000071,-0.00000121,-0.0512
 1801,-0.00000337,0.00000164,0.10440716,-0.27140853,0.03797021,0.000002
 65,0.00909087,0.05786209,-0.00000027,-0.05001739,-0.00512737,0.0000007
 4,0.04686597,-0.05456260,-0.00000020,-0.25284064,-0.09188403,0.0000009
 8,0.65307237,0.10190336,-0.14491820,-0.00000157,0.02559501,-0.00678325
 ,-0.00000055,-0.00504565,-0.00353732,-0.00000001,-0.01636830,-0.038795
 38,-0.00000004,-0.14173386,-0.20464631,0.00000040,0.01631614,0.6971387
 1,0.00000270,-0.00000108,-0.05468035,-0.00000006,-0.00000015,0.0033343
 5,0.00000058,0.00000003,0.00282234,-0.00000051,0.00000052,-0.00206944,
 0.00000092,-0.00000015,-0.04132936,-0.00000472,0.00000320,0.10095891,0
 .00617439,-0.00063867,0.00000007,-0.00053411,0.00600178,0.00000011,-0.
 05028475,-0.03215116,0.00000009,-0.19733227,-0.12114272,0.00000083,-0.
 00005493,-0.00421213,-0.00000022,-0.00585050,0.00033816,0.00000022,0.6
 2473824,-0.00053915,0.00419291,0.00000010,0.00032067,-0.00594048,0.000
 00016,0.00391406,0.01538908,0.00000002,-0.06969797,-0.18558930,-0.0000
 0297,-0.04197654,-0.03557151,-0.00000012,0.00685350,-0.00255951,-0.000
 00018,-0.06169973,0.36057725,0.00000023,-0.00000012,-0.00158110,0.0000
 0044,-0.00000003,0.00430886,0.00000037,0.00000063,0.00544648,0.0000033
 6,-0.00000077,-0.03319756,0.00000014,0.00000012,0.00558787,-0.00000029
 ,0.,0.00646769,-0.00002965,0.00001748,0.02073348,0.01262538,0.03025387
 ,-0.00000065,-0.16211429,0.03434398,0.00000139,-0.03804170,-0.00243881
 ,0.00000147,0.00309540,-0.01200277,0.00000012,0.00286023,0.00419354,-0
 .00000004,-0.00146492,-0.00065531,0.00000029,0.00271743,0.00370372,-0.
 00000001,0.82929632,0.03108388,-0.00881341,-0.00000047,0.04856609,-0.1
 1216686,-0.00000133,-0.01125754,0.01855400,-0.00000008,-0.00485538,0.0
 0115878,-0.00000006,-0.00238063,-0.00402414,0.00000005,0.00153720,-0.0
 0609957,-0.00000012,-0.00389632,-0.00208840,0.00000009,0.14787803,0.59
 628808,-0.00000077,-0.00000101,0.00141108,0.00000019,-0.00000098,-0.07
 197731,0.00000033,0.00000009,-0.00107234,-0.00000006,0.00000019,0.0077
 8192,-0.00000002,-0.00000010,-0.00107567,0.00000008,0.00000007,0.00541
 250,0.,0.00000006,0.00042862,-0.00004492,-0.00004061,0.19014306,-0.008
 17304,-0.00423671,-0.00000002,-0.00634159,0.04020832,-0.00000285,-0.00
 568235,0.00280921,-0.00000037,0.00184284,0.00156537,0.00000019,-0.0004
 4511,0.00041407,0.,-0.00001875,0.00214794,0.00000018,-0.00090617,-0.00
 065842,-0.00000001,-0.11405044,0.02760862,0.00000025,0.56930801,0.0017
 2144,0.00415130,0.00000007,0.01806355,-0.02910282,0.00000264,-0.001731
 60,-0.00430098,0.00000041,0.00017658,-0.00302081,-0.00000006,0.0007011
 1,0.00111266,-0.00000005,0.00014575,-0.00031066,-0.00000002,0.00203755
 ,0.00189852,-0.00000002,-0.00611040,-0.21348941,0.00001511,-0.08311469
 ,0.37616074,0.00000038,-0.00000039,0.00172775,-0.00000061,0.00000148,0
 .00945030,0.00000011,0.00000020,0.00075421,0.00000016,0.00000012,-0.00
 082158,-0.00000003,0.00000009,0.00003639,-0.00000020,-0.00000008,-0.00
 061212,-0.00000015,-0.00000013,0.00011813,0.00000356,0.00001347,-0.057
 02850,-0.00002623,-0.00002734,0.03255806,-0.00615773,-0.01179401,0.000
 00017,-0.05616087,-0.01859110,0.00000526,0.00057611,0.00839747,-0.0000
 0012,-0.00221403,0.00349311,-0.00000030,-0.00149062,-0.00301948,0.0000
 0002,0.00228830,-0.00025475,-0.00000020,-0.00244849,-0.00144429,0.0000
 0003,-0.51876448,-0.24297754,0.00004430,0.00728411,-0.04754609,0.00000
 574,0.57580114,-0.00575700,-0.00683800,0.00000002,-0.01006915,0.018032
 11,0.00000085,0.00456258,-0.00113166,-0.00000019,-0.00131482,0.0023728
 5,-0.00000008,-0.00016737,-0.00089086,0.,0.00099798,0.00045937,-0.0000
 0014,0.00079121,0.00013439,0.,-0.24250836,-0.24761280,0.00002801,-0.06
 032131,-0.07013939,0.00001214,0.31002984,0.30132332,-0.00000003,0.0000
 0070,-0.00094652,0.00000423,0.00000162,0.01807263,0.00000013,-0.000000
 58,0.00277242,0.00000006,-0.00000003,-0.00151761,-0.00000003,0.0000000
 7,0.00021603,0.00000009,0.00000002,-0.00070896,0.00000013,0.,-0.000179
 05,0.00004443,0.00002712,-0.07002903,0.00000692,0.00001242,0.02683941,
 -0.00005610,-0.00003986,0.02893409,-0.22322739,-0.07335719,0.00000126,
 0.01650039,-0.00755386,-0.00000035,-0.00941670,0.00265951,0.00000029,0
 .00679941,-0.00275474,0.00000007,0.00036218,0.00846264,0.00000007,-0.0
 5014974,-0.03534641,0.00000021,-0.00532506,-0.00358248,-0.00000017,-0.
 01246000,0.00136800,0.00000063,0.00183363,-0.00029076,-0.00000004,0.00
 528365,0.00672254,-0.00000024,0.36860903,-0.12431049,-0.17621331,-0.00
 000032,-0.03017284,-0.03980423,-0.00000011,0.00314149,-0.00289936,0.00
 000004,0.00217578,0.00309266,0.00000007,0.00145843,-0.00357055,-0.0000
 0015,-0.00365174,0.00561173,-0.00000003,-0.00516562,-0.00349345,-0.000
 00012,-0.01373750,0.00096098,0.00000042,0.00138348,-0.00138827,0.00000
 011,0.00960823,-0.00191558,-0.00000056,-0.02426088,0.62993066,0.000000
 51,-0.00000128,-0.03646963,-0.00000029,-0.00000027,0.00333319,0.000000
 01,-0.00000008,0.00367753,0.00000009,-0.00000007,-0.00124132,0.0000001
 1,-0.00000006,0.00703360,0.00000033,0.00000022,0.00883580,-0.00000006,
 0.00000003,-0.00038822,-0.00000025,-0.00000007,-0.00288274,-0.00000005
 ,-0.00000018,0.00036276,0.00000020,-0.00000003,0.00117312,-0.00000517,
 0.00001135,0.02435476,-0.00364155,-0.00156253,0.00000015,0.00672121,-0
 .02237846,-0.00000010,-0.05915110,0.04538460,0.00000059,0.00004308,0.0
 2775073,0.00000003,-0.00518541,0.00112859,0.00000010,-0.00092415,-0.00
 075189,-0.00000003,0.00200978,-0.00011881,-0.00000005,0.00144015,-0.00
 367539,0.00000028,-0.00409105,0.00185138,-0.00000038,0.00060981,0.0011
 2141,-0.00000021,0.00031209,-0.00157530,-0.00000002,0.06172070,-0.0031
 2730,0.00104755,0.00000005,0.00335752,-0.01364112,-0.00000003,0.044233
 80,-0.32758249,-0.00000066,-0.00100148,-0.00619027,0.,0.00144837,0.000
 28307,0.00000001,0.00029896,0.00065173,-0.00000002,-0.00049773,0.00044
 308,0.,0.00038412,-0.00181283,0.00000005,0.00278112,0.00026446,0.00000
 003,0.00003701,0.00038137,0.,0.00051915,-0.00076444,0.,-0.04841662,0.3
 4666543,0.00000008,0.00000008,0.00536274,0.00000008,-0.00000001,0.0018
 5568,0.00000054,-0.00000057,-0.03294825,-0.00000015,-0.00000034,0.0061
 4167,0.00000010,-0.00000006,0.00474676,0.00000005,-0.00000003,-0.00066
 524,-0.00000005,0.00000004,-0.00312598,-0.00000011,0.00000009,-0.00397
 577,-0.00000042,0.00000004,0.00058266,0.00000023,0.00000014,0.00073423
 ,-0.00000002,0.00000001,0.00045647,-0.00000045,0.00000060,0.02252009,-
 0.00011704,-0.00396209,0.,0.00026244,-0.00031504,-0.00000001,0.0017424
 4,0.00128915,0.00000002,-0.00519400,-0.00302969,0.00000005,-0.28316727
 ,0.09125038,0.00000155,-0.01761380,0.01048925,0.00000016,0.00328299,0.
 00007127,-0.00000007,0.00024272,-0.00016078,0.,-0.00012849,0.00021402,
 -0.00000002,-0.00017204,0.00004171,0.00000001,-0.00165921,0.00012836,0
 .00000002,-0.00020165,-0.00001906,0.,0.30181295,-0.00279513,-0.0020545
 9,-0.00000003,-0.00120685,-0.00079541,0.00000003,0.00019171,-0.0061672
 0,-0.00000003,0.02741158,-0.00455760,-0.00000021,0.09215555,-0.0909512
 8,-0.00000059,-0.01841393,0.00982573,0.00000013,0.00120681,0.00269600,
 -0.00000004,0.00012824,-0.00036330,0.00000002,0.00013160,0.00014961,0.
 ,0.00000676,0.00007472,-0.00000001,-0.00120933,0.00021017,0.00000003,0
 .00144960,-0.00013139,-0.00000003,-0.09772741,0.09215546,0.00000006,0.
 00000005,0.00673888,0.00000002,-0.00000010,-0.00063984,0.00000002,-0.0
 0000002,0.00461552,0.00000022,0.00000014,0.00410513,0.00000141,-0.0000
 0072,-0.03005983,0.00000010,-0.00000005,0.00215480,-0.00000021,0.00000
 004,-0.00314288,-0.00000005,0.,-0.00074996,-0.00000003,0.00000001,0.00
 018091,0.00000004,0.00000004,0.00006980,0.00000002,0.,0.00005429,0.,-0
 .00000001,-0.00034579,-0.00000172,0.00000059,0.02033096,-0.00186851,0.
 02663190,0.00000019,-0.00482537,0.00068321,0.00000015,-0.00126138,-0.0
 0058570,0.,-0.00327543,-0.00208885,0.00000004,0.00694815,-0.02376641,-
 0.00000015,-0.06145646,0.04746728,0.00000051,-0.00011654,-0.00166968,0
 .00000002,0.00070293,0.00123401,-0.00000001,-0.00057896,0.00028013,0.0
 0000002,-0.00004241,-0.00012617,-0.00000002,0.00264072,0.00209795,0.,0
 .00007305,0.00003554,0.,0.00080736,0.00006646,-0.00000002,0.06300220,-
 0.00401322,-0.01023073,-0.00000004,0.00276935,0.00090677,-0.00000008,-
 0.00003933,0.00060606,0.,-0.00354536,0.00105673,-0.00000003,0.00525716
 ,-0.01529795,-0.00000011,0.04705830,-0.31069479,-0.00000188,-0.0000218
 1,-0.00136599,0.00000002,-0.00135142,-0.00039444,0.00000006,0.00043264
 ,-0.00021658,0.,0.00051021,0.00025741,-0.00000003,-0.00038469,0.003488
 51,0.00000005,0.00002627,-0.00007272,0.,-0.00014122,0.00081576,0.00000
 003,-0.04897675,0.33108381,0.00000015,-0.00000043,0.00354204,0.0000001
 3,-0.00000005,0.00400758,-0.00000007,0.00000003,-0.00081431,0.00000013
 ,0.,0.00604457,0.,0.00000017,0.00161548,0.00000037,-0.00000182,-0.0279
 1399,-0.00000004,0.00000002,0.00048846,-0.00000002,0.00000003,0.000325
 50,0.00000001,-0.00000002,-0.00009011,0.00000002,0.,-0.00000754,-0.000
 00007,0.00000006,-0.00360548,0.,0.,-0.00027084,-0.00000001,0.00000002,
 -0.00371537,-0.00000063,0.00000204,0.01987505,-0.00000787,-0.00048531,
 -0.00000003,-0.00029456,0.00167878,-0.00000009,-0.00220276,-0.00586276
 ,0.00000020,-0.03303713,0.01722699,0.00000171,0.00542517,0.00259355,-0
 .00000003,-0.00076283,0.00035111,-0.00000017,-0.37598492,0.16627564,0.
 00002568,-0.00072463,-0.00004885,0.,0.00014076,-0.00025139,0.00000002,
 0.00010716,0.00005183,0.,0.00069150,0.00055524,0.00000003,0.00038617,-
 0.00009116,0.00000003,-0.00006567,-0.00145202,0.00000013,0.00024764,0.
 00026550,0.,0.40618251,0.00037860,0.00010109,0.00000004,-0.00008570,0.
 00086595,-0.00000010,-0.00415355,-0.00323645,0.00000005,-0.03079680,0.
 00878512,0.00000194,-0.00386241,0.00198992,0.00000005,-0.00004648,-0.0
 0070158,-0.00000001,0.21848350,-0.14905283,-0.00001724,-0.00050709,0.0
 0000721,-0.00000003,0.00008776,-0.00017881,0.,0.00010081,0.00003828,0.
 00000001,-0.00004747,-0.00027966,-0.00000002,-0.00034574,0.00011028,0.
 00000002,0.00162045,-0.00112428,0.,0.00002785,0.00009709,-0.00000002,-
 0.18071568,0.14255562,-0.00000012,0.00000008,0.00028317,-0.00000023,-0
 .00000011,0.00165503,0.,-0.00000012,0.00162593,-0.00000102,-0.00000054
 ,-0.00346361,-0.00000026,-0.00000018,-0.00015132,0.00000016,-0.0000000
 4,-0.00081234,0.00002889,-0.00001455,-0.00186973,0.,-0.00000004,0.0000
 4730,0.,0.,-0.00004070,0.,0.,-0.00007093,0.00000006,0.00000007,-0.0000
 9889,0.,0.,-0.00072824,0.00000002,0.00000013,0.00044476,-0.00000002,-0
 .00000003,-0.00006023,-0.00002748,0.00001529,0.00318169,-0.00026115,0.
 00012678,-0.00000008,0.00158922,-0.00053215,0.00000027,0.00006044,-0.0
 0019315,0.00000005,0.00017918,-0.00011759,-0.00000005,0.00002330,0.000
 03710,0.,0.00010067,0.00018994,-0.00000002,0.00004597,0.00005132,0.,-0
 .00326901,0.01124370,-0.00000052,-0.44034072,0.11312328,0.00001785,-0.
 00421403,-0.00640837,0.00000048,-0.00002915,-0.00011567,-0.00000002,0.
 00014935,0.00023713,0.00000007,0.00001207,0.00001860,0.,-0.00001253,-0
 .00000062,0.00000001,-0.00003161,-0.00001321,0.,0.44598680,0.00193576,
 0.00025118,0.00000010,-0.00198841,-0.00722113,0.00000110,-0.00148387,-
 0.00006485,-0.00000018,0.00021254,0.00080381,0.,-0.00033121,-0.0001979
 8,0.,0.00001318,-0.00058291,-0.00000007,-0.00029292,-0.00026590,0.,0.0
 5603873,-0.02036801,-0.00000121,0.06911441,-0.06168619,0.00000024,-0.0
 0593310,0.00667260,-0.00000084,-0.00006664,0.00022728,0.00000003,0.000
 48473,0.00047231,0.00000003,-0.00003892,0.00004856,0.,0.00015202,-0.00
 005923,-0.00000001,0.00004236,0.00003312,0.,-0.11769960,0.08192953,-0.
 00000027,0.00000023,0.00076857,0.00000060,0.00000095,0.00410506,0.0000
 0003,-0.00000007,-0.00021499,-0.00000010,0.00000004,0.00023882,0.00000
 002,-0.00000007,0.00002114,0.00000010,0.00000012,-0.00031666,0.0000000
 3,0.00000002,-0.00007809,-0.00000540,0.00000182,0.00348275,0.00002248,
 -0.00000305,-0.01365452,0.00000058,-0.00000066,-0.00564657,-0.00000008
 ,-0.00000014,0.00009240,0.00000009,0.,-0.00035337,0.,0.,-0.00004469,-0
 .00000003,0.,-0.00005606,0.,0.,0.00004462,-0.00001806,0.00000080,0.011
 62639,0.00579265,-0.03843430,-0.00000082,-0.00449877,-0.00366839,0.000
 00003,0.00091423,-0.00069674,0.00000004,-0.00000393,0.00014490,0.,-0.0
 0065189,0.00023058,0.,0.00108954,-0.00464201,-0.00000004,-0.00013105,0
 .00019689,-0.00000001,-0.00209109,-0.00126708,0.00000023,0.00034732,0.
 00073014,-0.00000018,-0.00028555,0.00235346,0.00000012,-0.10076535,0.1
 8244109,0.00000458,-0.00027047,-0.00017935,0.00000002,0.00015621,0.000
 03779,0.,-0.00098444,0.00215500,0.,-0.00006895,-0.00012484,0.,0.000011
 20,-0.00015905,0.00000002,0.10144035,0.00946486,-0.03415444,-0.0000006
 0,-0.00579049,0.00159048,0.,0.00225985,-0.00112774,-0.00000006,-0.0011
 4127,0.00075000,0.,-0.00007407,-0.00143354,0.00000005,0.00463285,0.005
 94220,0.,0.00085978,0.00059614,0.00000002,0.00238744,0.00026411,-0.000
 00014,-0.00035339,0.00009663,0.00000006,-0.00062306,-0.00121813,-0.000
 00004,0.12912262,-0.41319315,-0.00000966,-0.00037257,-0.00012401,0.,0.
 00028964,0.00016903,0.,-0.00146279,0.00002029,-0.00000002,-0.00013382,
 -0.00001006,-0.00000001,0.00005252,0.00000780,0.00000001,-0.13911809,0
 .44182438,0.00000020,0.00000008,-0.00300558,-0.00000010,0.00000025,0.0
 0279177,0.00000005,-0.00000001,0.00128596,0.,0.00000001,0.00015416,0.,
 -0.00000001,-0.00092373,0.00000003,0.00000015,-0.00087792,0.,0.,-0.000
 01698,0.00000023,0.00000010,-0.00024141,-0.00000005,0.00000003,-0.0003
 6304,0.00000014,-0.00000024,0.00029449,0.00000353,-0.00001073,-0.00468
 764,-0.00000001,0.,0.00001318,0.,0.,0.00000332,-0.00000004,-0.00000001
 ,0.00063524,0.,0.,0.00001351,0.00000002,0.,-0.00001480,-0.00000401,0.0
 0001039,0.00493947\\-0.00002093,-0.00001479,0.00000010,-0.00002281,-0.
 00001346,0.00000081,0.00002940,0.00002235,0.00000012,0.00001174,0.0000
 2311,0.00000012,0.00001472,0.00000063,-0.00000013,-0.00000155,-0.00002
 176,-0.00000004,-0.00000684,-0.00002349,-0.00000045,-0.00007232,-0.000
 06798,-0.00000297,-0.00001907,0.00003750,0.00000100,0.00004266,0.00002
 389,0.00000104,0.00004784,-0.00000272,0.00000005,-0.00000752,0.0000071
 3,0.00000006,0.00000546,0.00000199,0.,0.00000516,-0.00000145,0.,-0.000
 02025,0.00001460,0.00000030,0.00002325,-0.00000322,-0.00000002,-0.0000
 0896,0.00001765,0.00000002\\\@


 CONFIDENCE IS WHAT YOU FEEL BEFORE YOU FULLY
 COMPREHEND THE SITUATION.
 Job cpu time:       0 days  0 hours 11 minutes 57.8 seconds.
 File lengths (MBytes):  RWF=    107 Int=      0 D2E=      0 Chk=      5 Scr=      1
 Normal termination of Gaussian 09 at Tue Dec 17 13:42:27 2024.
