 Entering Gaussian System, Link 0=g09
 Input=2PVTZDMAN.gjf
 Output=2PVTZDMAN.log
 Initial command:
 /home/phzd/g09E/g09/l1.exe "/home/phzd/g09E/scratch/Gau-1536762.inp" -scrdir="/home/phzd/g09E/scratch/"
 Default is to use a total of  18 processors:
                               18 via shared-memory
                                1 via Linda
 Entering Link 1 = /home/phzd/g09E/g09/l1.exe PID=   1536764.
  
 Copyright (c) 1988,1990,1992,1993,1995,1998,2003,2009,2015,
            Gaussian, Inc.  All Rights Reserved.
  
 This is part of the Gaussian(R) 09 program.  It is based on
 the Gaussian(R) 03 system (copyright 2003, Gaussian, Inc.),
 the Gaussian(R) 98 system (copyright 1998, Gaussian, Inc.),
 the Gaussian(R) 94 system (copyright 1995, Gaussian, Inc.),
 the Gaussian 92(TM) system (copyright 1992, Gaussian, Inc.),
 the Gaussian 90(TM) system (copyright 1990, Gaussian, Inc.),
 the Gaussian 88(TM) system (copyright 1988, Gaussian, Inc.),
 the Gaussian 86(TM) system (copyright 1986, Carnegie Mellon
 University), and the Gaussian 82(TM) system (copyright 1983,
 Carnegie Mellon University). Gaussian is a federally registered
 trademark of Gaussian, Inc.
  
 This software contains proprietary and confidential information,
 including trade secrets, belonging to Gaussian, Inc.
  
 This software is provided under written license and may be
 used, copied, transmitted, or stored only in accord with that
 written license.
  
 The following legend is applicable only to US Government
 contracts under FAR:
  
                    RESTRICTED RIGHTS LEGEND
  
 Use, reproduction and disclosure by the US Government is
 subject to restrictions as set forth in subparagraphs (a)
 and (c) of the Commercial Computer Software - Restricted
 Rights clause in FAR 52.227-19.
  
 Gaussian, Inc.
 340 Quinnipiac St., Bldg. 40, Wallingford CT 06492
  
  
 ---------------------------------------------------------------
 Warning -- This program may not be used in any manner that
 competes with the business of Gaussian, Inc. or will provide
 assistance to any competitor of Gaussian, Inc.  The licensee
 of this program is prohibited from giving any competitor of
 Gaussian, Inc. access to this program.  By using this program,
 the user acknowledges that Gaussian, Inc. is engaged in the
 business of creating and licensing software in the field of
 computational chemistry and represents and warrants to the
 licensee that it is not a competitor of Gaussian, Inc. and that
 it will not use this program in any manner prohibited above.
 ---------------------------------------------------------------
  

 Cite this work as:
 Gaussian 09, Revision E.01,
 M. J. Frisch, G. W. Trucks, H. B. Schlegel, G. E. Scuseria, 
 M. A. Robb, J. R. Cheeseman, G. Scalmani, V. Barone, B. Mennucci, 
 G. A. Petersson, H. Nakatsuji, M. Caricato, X. Li, H. P. Hratchian, 
 A. F. Izmaylov, J. Bloino, G. Zheng, J. L. Sonnenberg, M. Hada, 
 M. Ehara, K. Toyota, R. Fukuda, J. Hasegawa, M. Ishida, T. Nakajima, 
 Y. Honda, O. Kitao, H. Nakai, T. Vreven, J. A. Montgomery, Jr., 
 J. E. Peralta, F. Ogliaro, M. Bearpark, J. J. Heyd, E. Brothers, 
 K. N. Kudin, V. N. Staroverov, T. Keith, R. Kobayashi, J. Normand, 
 K. Raghavachari, A. Rendell, J. C. Burant, S. S. Iyengar, J. Tomasi, 
 M. Cossi, N. Rega, J. M. Millam, M. Klene, J. E. Knox, J. B. Cross, 
 V. Bakken, C. Adamo, J. Jaramillo, R. Gomperts, R. E. Stratmann, 
 O. Yazyev, A. J. Austin, R. Cammi, C. Pomelli, J. W. Ochterski, 
 R. L. Martin, K. Morokuma, V. G. Zakrzewski, G. A. Voth, 
 P. Salvador, J. J. Dannenberg, S. Dapprich, A. D. Daniels, 
 O. Farkas, J. B. Foresman, J. V. Ortiz, J. Cioslowski, 
 and D. J. Fox, Gaussian, Inc., Wallingford CT, 2013.
 
 ******************************************
 Gaussian 09:  ES64L-G09RevE.01 30-Nov-2015
                19-Dec-2024 
 ******************************************
 %chk=2PVTZDMAN.chk
 ------------------------
 # opt freq m062x/cc-pvtz
 ------------------------
 1/14=-1,18=20,19=15,26=3,38=1/1,3;
 2/9=110,12=2,17=6,18=5,40=1/2;
 3/5=16,6=1,11=2,16=1,25=1,30=1,71=1,74=-55/1,2,3;
 4//1;
 5/5=2,38=5/2;
 6/7=2,8=2,9=2,10=2,28=1/1;
 7//1,2,3,16;
 1/14=-1,18=20,19=15,26=3/3(2);
 2/9=110/2;
 99//99;
 2/9=110/2;
 3/5=16,6=1,11=2,16=1,25=1,30=1,71=1,74=-55/1,2,3;
 4/5=5,16=3,69=1/1;
 5/5=2,38=5/2;
 7//1,2,3,16;
 1/14=-1,18=20,19=15,26=3/3(-5);
 2/9=110/2;
 6/7=2,8=2,9=2,10=2,19=2,28=1/1;
 99/9=1/99;
 ----------
 [No Title]
 ----------
 Symbolic Z-matrix:
 Charge =  0 Multiplicity = 1
 C                     0.68179   2.43436   0.23277 
 C                     2.0813    2.39137   0.37759 
 C                     2.74936   1.20545   0.21114 
 C                     2.02994   0.0002    0. 
 C                     0.59207   0.00006   0. 
 C                    -0.06945   1.28941  -0.00738 
 C                     2.74959  -1.20492  -0.21114 
 C                     2.08176  -2.39097  -0.37759 
 C                     0.68226  -2.43423  -0.23277 
 C                    -0.0692   -1.28943   0.00738 
 N                    -1.44898   1.39117  -0.27144 
 N                    -1.44871  -1.39145   0.27144 
 C                    -1.89088   0.90343  -1.57118 
 C                    -2.11867   2.62062   0.09382 
 C                    -2.11816  -2.62103  -0.09382 
 C                    -1.89071  -0.90378   1.57117 
 H                     0.19219   3.40148   0.24579 
 H                     2.62705   3.31363   0.55855 
 H                     3.83484   1.16519   0.24297 
 H                     3.83507  -1.16445  -0.24296 
 H                     2.62769  -3.31312  -0.55855 
 H                     0.19285  -3.40144  -0.24579 
 H                    -1.33551   0.01158  -1.85542 
 H                    -2.95412   0.64353  -1.52848 
 H                    -1.74814   1.66924  -2.35444 
 H                    -1.87608   2.89594   1.12411 
 H                    -1.87322   3.4744   -0.56486 
 H                    -3.19993   2.45898   0.02984 
 H                    -1.87552  -2.89631  -1.1241 
 H                    -1.87254  -3.47477   0.56487 
 H                    -3.19945  -2.4596   -0.02983 
 H                    -1.33552  -0.01182   1.8554 
 H                    -2.95401  -0.6441    1.52846 
 H                    -1.74781  -1.66955   2.35444 
 

 GradGradGradGradGradGradGradGradGradGradGradGradGradGradGradGradGradGrad
 Berny optimization.
 Initialization pass.
                           ----------------------------
                           !    Initial Parameters    !
                           ! (Angstroms and Degrees)  !
 --------------------------                            --------------------------
 ! Name  Definition              Value          Derivative Info.                !
 --------------------------------------------------------------------------------
 ! R1    R(1,2)                  1.4076         estimate D2E/DX2                !
 ! R2    R(1,6)                  1.3903         estimate D2E/DX2                !
 ! R3    R(1,17)                 1.0841         estimate D2E/DX2                !
 ! R4    R(2,3)                  1.3713         estimate D2E/DX2                !
 ! R5    R(2,18)                 1.0868         estimate D2E/DX2                !
 ! R6    R(3,4)                  1.4194         estimate D2E/DX2                !
 ! R7    R(3,19)                 1.0867         estimate D2E/DX2                !
 ! R8    R(4,5)                  1.4379         estimate D2E/DX2                !
 ! R9    R(4,7)                  1.4194         estimate D2E/DX2                !
 ! R10   R(5,6)                  1.4492         estimate D2E/DX2                !
 ! R11   R(5,10)                 1.4492         estimate D2E/DX2                !
 ! R12   R(6,11)                 1.4083         estimate D2E/DX2                !
 ! R13   R(7,8)                  1.3713         estimate D2E/DX2                !
 ! R14   R(7,20)                 1.0867         estimate D2E/DX2                !
 ! R15   R(8,9)                  1.4076         estimate D2E/DX2                !
 ! R16   R(8,21)                 1.0868         estimate D2E/DX2                !
 ! R17   R(9,10)                 1.3903         estimate D2E/DX2                !
 ! R18   R(9,22)                 1.0841         estimate D2E/DX2                !
 ! R19   R(10,12)                1.4083         estimate D2E/DX2                !
 ! R20   R(11,13)                1.4569         estimate D2E/DX2                !
 ! R21   R(11,14)                1.4469         estimate D2E/DX2                !
 ! R22   R(12,15)                1.4469         estimate D2E/DX2                !
 ! R23   R(12,16)                1.4569         estimate D2E/DX2                !
 ! R24   R(13,23)                1.0884         estimate D2E/DX2                !
 ! R25   R(13,24)                1.0954         estimate D2E/DX2                !
 ! R26   R(13,25)                1.1047         estimate D2E/DX2                !
 ! R27   R(14,26)                1.0937         estimate D2E/DX2                !
 ! R28   R(14,27)                1.1059         estimate D2E/DX2                !
 ! R29   R(14,28)                1.0952         estimate D2E/DX2                !
 ! R30   R(15,29)                1.0937         estimate D2E/DX2                !
 ! R31   R(15,30)                1.1059         estimate D2E/DX2                !
 ! R32   R(15,31)                1.0952         estimate D2E/DX2                !
 ! R33   R(16,32)                1.0884         estimate D2E/DX2                !
 ! R34   R(16,33)                1.0954         estimate D2E/DX2                !
 ! R35   R(16,34)                1.1047         estimate D2E/DX2                !
 ! A1    A(2,1,6)              121.9951         estimate D2E/DX2                !
 ! A2    A(2,1,17)             118.3612         estimate D2E/DX2                !
 ! A3    A(6,1,17)             119.5199         estimate D2E/DX2                !
 ! A4    A(1,2,3)              119.8865         estimate D2E/DX2                !
 ! A5    A(1,2,18)             119.3722         estimate D2E/DX2                !
 ! A6    A(3,2,18)             120.6274         estimate D2E/DX2                !
 ! A7    A(2,3,4)              120.3628         estimate D2E/DX2                !
 ! A8    A(2,3,19)             121.0054         estimate D2E/DX2                !
 ! A9    A(4,3,19)             118.631          estimate D2E/DX2                !
 ! A10   A(3,4,5)              120.4585         estimate D2E/DX2                !
 ! A11   A(3,4,7)              119.0828         estimate D2E/DX2                !
 ! A12   A(5,4,7)              120.4586         estimate D2E/DX2                !
 ! A13   A(4,5,6)              117.1546         estimate D2E/DX2                !
 ! A14   A(4,5,10)             117.1545         estimate D2E/DX2                !
 ! A15   A(6,5,10)             125.6909         estimate D2E/DX2                !
 ! A16   A(1,6,5)              119.0238         estimate D2E/DX2                !
 ! A17   A(1,6,11)             120.1459         estimate D2E/DX2                !
 ! A18   A(5,6,11)             120.8245         estimate D2E/DX2                !
 ! A19   A(4,7,8)              120.3627         estimate D2E/DX2                !
 ! A20   A(4,7,20)             118.631          estimate D2E/DX2                !
 ! A21   A(8,7,20)             121.0054         estimate D2E/DX2                !
 ! A22   A(7,8,9)              119.8864         estimate D2E/DX2                !
 ! A23   A(7,8,21)             120.6274         estimate D2E/DX2                !
 ! A24   A(9,8,21)             119.3722         estimate D2E/DX2                !
 ! A25   A(8,9,10)             121.9951         estimate D2E/DX2                !
 ! A26   A(8,9,22)             118.3612         estimate D2E/DX2                !
 ! A27   A(10,9,22)            119.5198         estimate D2E/DX2                !
 ! A28   A(5,10,9)             119.0238         estimate D2E/DX2                !
 ! A29   A(5,10,12)            120.8245         estimate D2E/DX2                !
 ! A30   A(9,10,12)            120.1459         estimate D2E/DX2                !
 ! A31   A(6,11,13)            116.1185         estimate D2E/DX2                !
 ! A32   A(6,11,14)            117.8704         estimate D2E/DX2                !
 ! A33   A(13,11,14)           111.6728         estimate D2E/DX2                !
 ! A34   A(10,12,15)           117.8704         estimate D2E/DX2                !
 ! A35   A(10,12,16)           116.1185         estimate D2E/DX2                !
 ! A36   A(15,12,16)           111.6728         estimate D2E/DX2                !
 ! A37   A(11,13,23)           110.6427         estimate D2E/DX2                !
 ! A38   A(11,13,24)           109.8208         estimate D2E/DX2                !
 ! A39   A(11,13,25)           111.1787         estimate D2E/DX2                !
 ! A40   A(23,13,24)           108.1231         estimate D2E/DX2                !
 ! A41   A(23,13,25)           108.4778         estimate D2E/DX2                !
 ! A42   A(24,13,25)           108.5145         estimate D2E/DX2                !
 ! A43   A(11,14,26)           110.4301         estimate D2E/DX2                !
 ! A44   A(11,14,27)           113.7608         estimate D2E/DX2                !
 ! A45   A(11,14,28)           108.4708         estimate D2E/DX2                !
 ! A46   A(26,14,27)           108.5119         estimate D2E/DX2                !
 ! A47   A(26,14,28)           108.1307         estimate D2E/DX2                !
 ! A48   A(27,14,28)           107.3536         estimate D2E/DX2                !
 ! A49   A(12,15,29)           110.43           estimate D2E/DX2                !
 ! A50   A(12,15,30)           113.7608         estimate D2E/DX2                !
 ! A51   A(12,15,31)           108.4706         estimate D2E/DX2                !
 ! A52   A(29,15,30)           108.512          estimate D2E/DX2                !
 ! A53   A(29,15,31)           108.1308         estimate D2E/DX2                !
 ! A54   A(30,15,31)           107.3537         estimate D2E/DX2                !
 ! A55   A(12,16,32)           110.6428         estimate D2E/DX2                !
 ! A56   A(12,16,33)           109.8207         estimate D2E/DX2                !
 ! A57   A(12,16,34)           111.1787         estimate D2E/DX2                !
 ! A58   A(32,16,33)           108.123          estimate D2E/DX2                !
 ! A59   A(32,16,34)           108.4778         estimate D2E/DX2                !
 ! A60   A(33,16,34)           108.5145         estimate D2E/DX2                !
 ! D1    D(6,1,2,3)              3.4924         estimate D2E/DX2                !
 ! D2    D(6,1,2,18)           179.6371         estimate D2E/DX2                !
 ! D3    D(17,1,2,3)          -172.4402         estimate D2E/DX2                !
 ! D4    D(17,1,2,18)            3.7045         estimate D2E/DX2                !
 ! D5    D(2,1,6,5)              5.1451         estimate D2E/DX2                !
 ! D6    D(2,1,6,11)          -173.9853         estimate D2E/DX2                !
 ! D7    D(17,1,6,5)          -178.9682         estimate D2E/DX2                !
 ! D8    D(17,1,6,11)            1.9015         estimate D2E/DX2                !
 ! D9    D(1,2,3,4)             -5.0862         estimate D2E/DX2                !
 ! D10   D(1,2,3,19)           175.2525         estimate D2E/DX2                !
 ! D11   D(18,2,3,4)           178.8183         estimate D2E/DX2                !
 ! D12   D(18,2,3,19)           -0.8431         estimate D2E/DX2                !
 ! D13   D(2,3,4,5)             -1.9714         estimate D2E/DX2                !
 ! D14   D(2,3,4,7)            178.0287         estimate D2E/DX2                !
 ! D15   D(19,3,4,5)           177.6979         estimate D2E/DX2                !
 ! D16   D(19,3,4,7)            -2.302          estimate D2E/DX2                !
 ! D17   D(3,4,5,6)             10.2648         estimate D2E/DX2                !
 ! D18   D(3,4,5,10)          -169.7352         estimate D2E/DX2                !
 ! D19   D(7,4,5,6)           -169.7352         estimate D2E/DX2                !
 ! D20   D(7,4,5,10)            10.2648         estimate D2E/DX2                !
 ! D21   D(3,4,7,8)            178.0286         estimate D2E/DX2                !
 ! D22   D(3,4,7,20)            -2.3021         estimate D2E/DX2                !
 ! D23   D(5,4,7,8)             -1.9714         estimate D2E/DX2                !
 ! D24   D(5,4,7,20)           177.698          estimate D2E/DX2                !
 ! D25   D(4,5,6,1)            -11.7081         estimate D2E/DX2                !
 ! D26   D(4,5,6,11)           167.4162         estimate D2E/DX2                !
 ! D27   D(10,5,6,1)           168.2919         estimate D2E/DX2                !
 ! D28   D(10,5,6,11)          -12.5838         estimate D2E/DX2                !
 ! D29   D(4,5,10,9)           -11.7081         estimate D2E/DX2                !
 ! D30   D(4,5,10,12)          167.4163         estimate D2E/DX2                !
 ! D31   D(6,5,10,9)           168.2919         estimate D2E/DX2                !
 ! D32   D(6,5,10,12)          -12.5837         estimate D2E/DX2                !
 ! D33   D(1,6,11,13)          118.6793         estimate D2E/DX2                !
 ! D34   D(1,6,11,14)          -17.7519         estimate D2E/DX2                !
 ! D35   D(5,6,11,13)          -60.4352         estimate D2E/DX2                !
 ! D36   D(5,6,11,14)          163.1337         estimate D2E/DX2                !
 ! D37   D(4,7,8,9)             -5.0862         estimate D2E/DX2                !
 ! D38   D(4,7,8,21)           178.8183         estimate D2E/DX2                !
 ! D39   D(20,7,8,9)           175.2524         estimate D2E/DX2                !
 ! D40   D(20,7,8,21)           -0.8431         estimate D2E/DX2                !
 ! D41   D(7,8,9,10)             3.4924         estimate D2E/DX2                !
 ! D42   D(7,8,9,22)          -172.4401         estimate D2E/DX2                !
 ! D43   D(21,8,9,10)          179.6371         estimate D2E/DX2                !
 ! D44   D(21,8,9,22)            3.7045         estimate D2E/DX2                !
 ! D45   D(8,9,10,5)             5.145          estimate D2E/DX2                !
 ! D46   D(8,9,10,12)         -173.9854         estimate D2E/DX2                !
 ! D47   D(22,9,10,5)         -178.9682         estimate D2E/DX2                !
 ! D48   D(22,9,10,12)           1.9014         estimate D2E/DX2                !
 ! D49   D(5,10,12,15)         163.134          estimate D2E/DX2                !
 ! D50   D(5,10,12,16)         -60.4346         estimate D2E/DX2                !
 ! D51   D(9,10,12,15)         -17.7514         estimate D2E/DX2                !
 ! D52   D(9,10,12,16)         118.6799         estimate D2E/DX2                !
 ! D53   D(6,11,13,23)          37.6468         estimate D2E/DX2                !
 ! D54   D(6,11,13,24)         156.9294         estimate D2E/DX2                !
 ! D55   D(6,11,13,25)         -82.9621         estimate D2E/DX2                !
 ! D56   D(14,11,13,23)        176.6795         estimate D2E/DX2                !
 ! D57   D(14,11,13,24)        -64.0379         estimate D2E/DX2                !
 ! D58   D(14,11,13,25)         56.0706         estimate D2E/DX2                !
 ! D59   D(6,11,14,26)         -49.4178         estimate D2E/DX2                !
 ! D60   D(6,11,14,27)          72.8704         estimate D2E/DX2                !
 ! D61   D(6,11,14,28)        -167.7467         estimate D2E/DX2                !
 ! D62   D(13,11,14,26)        172.3352         estimate D2E/DX2                !
 ! D63   D(13,11,14,27)        -65.3766         estimate D2E/DX2                !
 ! D64   D(13,11,14,28)         54.0063         estimate D2E/DX2                !
 ! D65   D(10,12,15,29)        -49.4181         estimate D2E/DX2                !
 ! D66   D(10,12,15,30)         72.8701         estimate D2E/DX2                !
 ! D67   D(10,12,15,31)       -167.747          estimate D2E/DX2                !
 ! D68   D(16,12,15,29)        172.3347         estimate D2E/DX2                !
 ! D69   D(16,12,15,30)        -65.377          estimate D2E/DX2                !
 ! D70   D(16,12,15,31)         54.0058         estimate D2E/DX2                !
 ! D71   D(10,12,16,32)         37.6473         estimate D2E/DX2                !
 ! D72   D(10,12,16,33)        156.9298         estimate D2E/DX2                !
 ! D73   D(10,12,16,34)        -82.9618         estimate D2E/DX2                !
 ! D74   D(15,12,16,32)        176.6801         estimate D2E/DX2                !
 ! D75   D(15,12,16,33)        -64.0374         estimate D2E/DX2                !
 ! D76   D(15,12,16,34)         56.0711         estimate D2E/DX2                !
 --------------------------------------------------------------------------------
 Trust Radius=3.00D-01 FncErr=1.00D-07 GrdErr=1.00D-06
 Number of steps in this run=    181 maximum allowed number of steps=    204.
 GradGradGradGradGradGradGradGradGradGradGradGradGradGradGradGradGradGrad

                          Input orientation:                          
 ---------------------------------------------------------------------
 Center     Atomic      Atomic             Coordinates (Angstroms)
 Number     Number       Type             X           Y           Z
 ---------------------------------------------------------------------
      1          6           0        0.681787    2.434356    0.232772
      2          6           0        2.081296    2.391374    0.377594
      3          6           0        2.749356    1.205451    0.211140
      4          6           0        2.029943    0.000195    0.000000
      5          6           0        0.592068    0.000057    0.000000
      6          6           0       -0.069448    1.289413   -0.007378
      7          6           0        2.749590   -1.204921   -0.211139
      8          6           0        2.081759   -2.390974   -0.377593
      9          6           0        0.682259   -2.434226   -0.232771
     10          6           0       -0.069198   -1.289428    0.007378
     11          7           0       -1.448978    1.391169   -0.271439
     12          7           0       -1.448709   -1.391451    0.271437
     13          6           0       -1.890881    0.903425   -1.571175
     14          6           0       -2.118666    2.620615    0.093823
     15          6           0       -2.118156   -2.621030   -0.093817
     16          6           0       -1.890711   -0.903780    1.571167
     17          1           0        0.192189    3.401476    0.245792
     18          1           0        2.627048    3.313626    0.558547
     19          1           0        3.834841    1.165192    0.242965
     20          1           0        3.835067   -1.164452   -0.242963
     21          1           0        2.627689   -3.313121   -0.558545
     22          1           0        0.192847   -3.401440   -0.245790
     23          1           0       -1.335508    0.011584   -1.855416
     24          1           0       -2.954122    0.643530   -1.528475
     25          1           0       -1.748137    1.669235   -2.354440
     26          1           0       -1.876084    2.895937    1.124106
     27          1           0       -1.873221    3.474403   -0.564862
     28          1           0       -3.199932    2.458979    0.029838
     29          1           0       -1.875523   -2.896308   -1.124099
     30          1           0       -1.872542   -3.474766    0.564872
     31          1           0       -3.199453   -2.459603   -0.029829
     32          1           0       -1.335521   -0.011822    1.855399
     33          1           0       -2.954005   -0.644101    1.528462
     34          1           0       -1.747814   -1.669551    2.354442
 ---------------------------------------------------------------------
                    Distance matrix (angstroms):
                    1          2          3          4          5
     1  C    0.000000
     2  C    1.407639   0.000000
     3  C    2.405310   1.371286   0.000000
     4  C    2.792284   2.421353   1.419428   0.000000
     5  C    2.447048   2.842318   2.480211   1.437875   0.000000
     6  C    1.390295   2.447084   2.828508   2.463652   1.449171
     7  C    4.209181   3.704937   2.447083   1.419428   2.480212
     8  C    5.061252   4.841607   3.704938   2.421353   2.842320
     9  C    4.890789   5.061251   4.209180   2.792282   2.447049
    10  C    3.805437   4.279017   3.769640   2.463651   1.449172
    11  N    2.425413   3.726190   4.230057   3.756512   2.484903
    12  N    4.379190   5.175130   4.936728   3.756511   2.484903
    13  C    3.495225   4.667963   4.979926   4.319407   3.074036
    14  C    2.810078   4.215775   5.070906   4.907786   3.771499
    15  C    5.788201   6.556052   6.199002   4.907784   3.771500
    16  C    4.421787   5.297121   5.275296   4.319406   3.074033
    17  H    1.084065   2.146253   3.370880   3.873818   3.433652
    18  H    2.159464   1.086802   2.140106   3.412819   3.928468
    19  H    3.398916   2.143961   1.086697   2.161922   3.454294
    20  H    4.808422   4.013066   2.646019   2.161922   3.454295
    21  H    6.119331   5.806562   4.585271   3.412819   3.928470
    22  H    5.875764   6.124667   5.288475   3.873817   3.433653
    23  H    3.781512   4.724858   4.730971   3.843040   2.675491
    24  H    4.419150   5.660697   5.989297   5.252715   3.914812
    25  H    3.630924   4.759207   5.198532   4.754258   3.715656
    26  H    2.747770   4.058660   5.008587   4.990589   3.967557
    27  H    2.871582   4.207063   5.207546   5.255842   4.297418
    28  H    3.887098   5.293097   6.082617   5.779109   4.519563
    29  H    6.066046   6.772819   6.324302   4.990590   3.967560
    30  H    6.446131   7.076688   6.587222   5.255837   4.297415
    31  H    6.251705   7.182220   6.991353   5.779107   4.519563
    32  H    3.561774   4.431015   4.568540   3.843045   2.675490
    33  H    4.937073   5.991065   6.138771   5.252718   3.914814
    34  H    5.219818   5.921243   5.751862   4.754250   3.715647
                    6          7          8          9         10
     6  C    0.000000
     7  C    3.769641   0.000000
     8  C    4.279018   1.371287   0.000000
     9  C    3.805437   2.405310   1.407638   0.000000
    10  C    2.578883   2.828508   2.447084   1.390296   0.000000
    11  N    1.408256   4.936729   5.175131   4.379191   3.027727
    12  N    3.027727   4.230058   3.726190   2.425413   1.408257
    13  C    2.431474   5.275300   5.297129   4.421797   3.258675
    14  C    2.445738   6.199003   6.556053   5.788200   4.415453
    15  C    4.415455   5.070905   4.215773   2.810076   2.445738
    16  C    3.258665   4.979929   4.667968   3.495230   2.431475
    17  H    2.143212   5.288476   6.124668   5.875765   4.704226
    18  H    3.418889   4.585270   5.806562   6.119329   5.362988
    19  H    3.914278   2.646019   4.013067   4.808421   4.617595
    20  H    4.617596   1.086697   2.143961   3.398916   3.914278
    21  H    5.362989   2.140107   1.086802   2.159464   3.418889
    22  H    4.704226   3.370880   2.146253   1.084065   2.143212
    23  H    2.578953   4.568540   4.431022   3.561790   2.601187
    24  H    3.324492   6.138768   5.991063   4.937074   3.797099
    25  H    2.910492   5.751874   5.921260   5.219837   4.141341
    26  H    2.669290   6.324300   6.772817   6.066043   4.693527
    27  H    2.887658   6.587228   7.076693   6.446135   5.126016
    28  H    3.342035   6.991355   7.182221   6.251706   4.883908
    29  H    4.693531   5.008588   4.058659   2.747769   2.669291
    30  H    5.126014   5.207542   4.207059   2.871579   2.887655
    31  H    4.883908   6.082616   5.293095   3.887096   3.342034
    32  H    2.601171   4.730983   4.724872   3.781525   2.578960
    33  H    3.797098   5.989301   5.660700   4.419152   3.324493
    34  H    4.141325   5.198531   4.759212   3.630930   2.910490
                   11         12         13         14         15
    11  N    0.000000
    12  N    2.835082   0.000000
    13  C    1.456875   2.976103   0.000000
    14  C    1.446871   4.071494   2.402675   0.000000
    15  C    4.071497   1.446871   3.828319   5.245003   0.000000
    16  C    2.976091   1.456876   3.624956   3.828298   2.402676
    17  H    2.646184   5.066098   3.725696   2.443950   6.459381
    18  H    4.582434   6.231531   5.545851   4.818510   7.626446
    19  H    5.313607   5.869679   6.011948   6.130640   7.063078
    20  H    5.869680   5.313608   6.231111   7.063080   6.130638
    21  H    6.231532   4.582435   6.262759   7.626447   4.818507
    22  H    5.066098   2.646183   4.962905   6.459379   2.443946
    23  H    2.103595   2.550456   1.088399   3.349614   3.262886
    24  H    2.098705   3.105978   1.095377   2.690484   3.662572
    25  H    2.122666   4.043845   1.104692   2.652623   4.863507
    26  H    2.096257   4.392196   3.351845   1.093678   5.654985
    27  H    2.146146   4.955415   2.760961   1.105922   6.118511
    28  H    2.072879   4.236858   2.587780   1.095151   5.195385
    29  H    4.392201   2.096255   3.825975   5.654988   1.093677
    30  H    4.955416   2.146145   4.871508   6.118507   1.105922
    31  H    4.236860   2.072876   3.924037   5.195383   1.095151
    32  H    2.550431   2.103598   3.589918   3.262850   3.349616
    33  H    3.105974   2.098704   3.623923   3.662561   2.690480
    34  H    4.043830   2.122667   4.695864   4.863482   2.652628
                   16         17         18         19         20
    16  C    0.000000
    17  H    4.962894   0.000000
    18  H    6.262752   2.456435   0.000000
    19  H    6.231108   4.274329   2.484779   0.000000
    20  H    6.011951   5.861496   4.706900   2.379783   0.000000
    21  H    5.545858   7.187797   6.720243   4.706901   2.484780
    22  H    3.725702   6.820654   7.187795   5.861496   4.274329
    23  H    3.589932   4.270867   5.694958   5.697940   5.542374
    24  H    3.623919   4.544619   6.529512   7.035634   7.142438
    25  H    4.695862   3.677870   5.507428   6.178205   6.607593
    26  H    3.825954   2.303206   4.557688   6.032127   7.139530
    27  H    4.871490   2.219999   4.641155   6.210234   7.362550
    28  H    3.924016   3.527240   5.913007   7.155930   7.918010
    29  H    3.351844   6.768613   7.852880   7.139531   6.032128
    30  H    2.760965   7.186629   8.144238   7.362544   6.210229
    31  H    2.587775   6.777274   8.223410   7.918008   7.155929
    32  H    1.088399   4.071282   5.333140   5.542378   5.697952
    33  H    1.095377   5.283036   6.910318   7.142442   7.035639
    34  H    1.104692   5.824546   6.869986   6.607582   6.178203
                   21         22         23         24         25
    21  H    0.000000
    22  H    2.456435   0.000000
    23  H    5.333148   4.071302   0.000000
    24  H    6.910316   5.283037   1.768094   0.000000
    25  H    6.870005   5.824566   1.779633   1.785690   0.000000
    26  H    7.852878   6.768608   4.182017   3.643033   3.690725
    27  H    8.144244   7.186631   3.734405   3.179739   2.544969
    28  H    8.223412   6.777273   3.608324   2.405123   2.901066
    29  H    4.557686   2.303202   3.046683   3.722546   4.730132
    30  H    4.641150   2.219996   4.277948   4.744711   5.915962
    31  H    5.913004   3.527236   3.593581   3.454788   4.955546
    32  H    5.694974   4.270880   3.710889   3.807881   4.551807
    33  H    6.529516   4.544619   3.807898   3.317056   4.677881
    34  H    5.507435   3.677881   4.551826   4.677881   5.772440
                   26         27         28         29         30
    26  H    0.000000
    27  H    1.785285   0.000000
    28  H    1.772266   1.773391   0.000000
    29  H    6.213254   6.395210   5.636021   0.000000
    30  H    6.395202   7.040401   6.103897   1.785286   0.000000
    31  H    5.636016   6.103899   4.918944   1.772267   1.773392
    32  H    3.046647   4.277914   3.593544   4.182017   3.734412
    33  H    3.722538   4.744700   3.454773   3.643026   3.179738
    34  H    4.730102   5.915938   4.955521   3.690730   2.544979
                   31         32         33         34
    31  H    0.000000
    32  H    3.608318   0.000000
    33  H    2.405112   1.768094   0.000000
    34  H    2.901066   1.779633   1.785690   0.000000
 Stoichiometry    C14H18N2
 Framework group  C1[X(C14H18N2)]
 Deg. of freedom    96
 Full point group                 C1      NOp   1
 Largest Abelian subgroup         C1      NOp   1
 Largest concise Abelian subgroup C1      NOp   1
                         Standard orientation:                         
 ---------------------------------------------------------------------
 Center     Atomic      Atomic             Coordinates (Angstroms)
 Number     Number       Type             X           Y           Z
 ---------------------------------------------------------------------
      1          6           0        0.681780   -2.434358   -0.232772
      2          6           0        2.081289   -2.391380   -0.377594
      3          6           0        2.749352   -1.205459   -0.211140
      4          6           0        2.029943   -0.000201   -0.000000
      5          6           0        0.592068   -0.000059   -0.000000
      6          6           0       -0.069452   -1.289413    0.007378
      7          6           0        2.749594    1.204913    0.211139
      8          6           0        2.081766    2.390968    0.377593
      9          6           0        0.682266    2.434224    0.232771
     10          6           0       -0.069194    1.289428   -0.007378
     11          7           0       -1.448982   -1.391165    0.271439
     12          7           0       -1.448705    1.391455   -0.271437
     13          6           0       -1.890884   -0.903420    1.571175
     14          6           0       -2.118674   -2.620609   -0.093823
     15          6           0       -2.118148    2.621036    0.093817
     16          6           0       -1.890708    0.903785   -1.571167
     17          1           0        0.192179   -3.401477   -0.245792
     18          1           0        2.627038   -3.313634   -0.558547
     19          1           0        3.834838   -1.165203   -0.242965
     20          1           0        3.835070    1.164441    0.242963
     21          1           0        2.627699    3.313113    0.558545
     22          1           0        0.192857    3.401439    0.245790
     23          1           0       -1.335508   -0.011580    1.855416
     24          1           0       -2.954124   -0.643521    1.528475
     25          1           0       -1.748142   -1.669230    2.354440
     26          1           0       -1.876093   -2.895932   -1.124106
     27          1           0       -1.873231   -3.474398    0.564862
     28          1           0       -3.199939   -2.458970   -0.029838
     29          1           0       -1.875514    2.896313    1.124099
     30          1           0       -1.872532    3.474771   -0.564872
     31          1           0       -3.199446    2.459612    0.029829
     32          1           0       -1.335521    0.011826   -1.855399
     33          1           0       -2.954003    0.644110   -1.528462
     34          1           0       -1.747809    1.669556   -2.354442
 ---------------------------------------------------------------------
 Rotational constants (GHZ):      0.6355933      0.6302430      0.3587761
 Standard basis: CC-pVTZ (5D, 7F)
 There are   830 symmetry adapted cartesian basis functions of A   symmetry.
 There are   732 symmetry adapted basis functions of A   symmetry.
   732 basis functions,  1138 primitive gaussians,   830 cartesian basis functions
    58 alpha electrons       58 beta electrons
       nuclear repulsion energy      1123.7428048948 Hartrees.
 NAtoms=   34 NActive=   34 NUniq=   34 SFac= 1.00D+00 NAtFMM=   60 NAOKFM=F Big=F
 Integral buffers will be    131072 words long.
 Raffenetti 2 integral format.
 Two-electron integral symmetry is turned on.
 One-electron integrals computed using PRISM.
 NBasis=   732 RedAO= T EigKep=  1.90D-05  NBF=   732
 NBsUse=   732 1.00D-06 EigRej= -1.00D+00 NBFU=   732
 ExpMin= 1.03D-01 ExpMax= 1.14D+04 ExpMxC= 3.89D+02 IAcc=1 IRadAn=         1 AccDes= 0.00D+00
 Harris functional with IExCor= 1009 and IRadAn=       1 diagonalized for initial guess.
 HarFok:  IExCor= 1009 AccDes= 0.00D+00 IRadAn=         1 IDoV= 1 UseB2=F ITyADJ=14
 ICtDFT=  3500011 ScaDFX=  1.000000  1.000000  1.000000  1.000000
 FoFCou: FMM=F IPFlag=           0 FMFlag=      100000 FMFlg1=           0
         NFxFlg=           0 DoJE=T BraDBF=F KetDBF=T FulRan=T
         wScrn=  0.000000 ICntrl=     500 IOpCl=  0 I1Cent=   200000004 NGrid=           0
         NMat0=    1 NMatS0=      1 NMatT0=    0 NMatD0=    1 NMtDS0=    0 NMtDT0=    0
 Petite list used in FoFCou.
 Requested convergence on RMS density matrix=1.00D-08 within 128 cycles.
 Requested convergence on MAX density matrix=1.00D-06.
 Requested convergence on             energy=1.00D-06.
 No special actions if energy rises.
 Integral accuracy reduced to 1.0D-05 until final iterations.
 Initial convergence to 1.0D-05 achieved.  Increase integral accuracy.
 SCF Done:  E(RM062X) =  -653.752581229     A.U. after   15 cycles
            NFock= 15  Conv=0.47D-08     -V/T= 2.0066

 **********************************************************************

            Population analysis using the SCF density.

 **********************************************************************

 Orbital symmetries:
       Occupied  (A) (A) (A) (A) (A) (A) (A) (A) (A) (A) (A) (A)
                 (A) (A) (A) (A) (A) (A) (A) (A) (A) (A) (A) (A)
                 (A) (A) (A) (A) (A) (A) (A) (A) (A) (A) (A) (A)
                 (A) (A) (A) (A) (A) (A) (A) (A) (A) (A) (A) (A)
                 (A) (A) (A) (A) (A) (A) (A) (A) (A) (A)
       Virtual   (A) (A) (A) (A) (A) (A) (A) (A) (A) (A) (A) (A)
                 (A) (A) (A) (A) (A) (A) (A) (A) (A) (A) (A) (A)
                 (A) (A) (A) (A) (A) (A) (A) (A) (A) (A) (A) (A)
                 (A) (A) (A) (A) (A) (A) (A) (A) (A) (A) (A) (A)
                 (A) (A) (A) (A) (A) (A) (A) (A) (A) (A) (A) (A)
                 (A) (A) (A) (A) (A) (A) (A) (A) (A) (A) (A) (A)
                 (A) (A) (A) (A) (A) (A) (A) (A) (A) (A) (A) (A)
                 (A) (A) (A) (A) (A) (A) (A) (A) (A) (A) (A) (A)
                 (A) (A) (A) (A) (A) (A) (A) (A) (A) (A) (A) (A)
                 (A) (A) (A) (A) (A) (A) (A) (A) (A) (A) (A) (A)
                 (A) (A) (A) (A) (A) (A) (A) (A) (A) (A) (A) (A)
                 (A) (A) (A) (A) (A) (A) (A) (A) (A) (A) (A) (A)
                 (A) (A) (A) (A) (A) (A) (A) (A) (A) (A) (A) (A)
                 (A) (A) (A) (A) (A) (A) (A) (A) (A) (A) (A) (A)
                 (A) (A) (A) (A) (A) (A) (A) (A) (A) (A) (A) (A)
                 (A) (A) (A) (A) (A) (A) (A) (A) (A) (A) (A) (A)
                 (A) (A) (A) (A) (A) (A) (A) (A) (A) (A) (A) (A)
                 (A) (A) (A) (A) (A) (A) (A) (A) (A) (A) (A) (A)
                 (A) (A) (A) (A) (A) (A) (A) (A) (A) (A) (A) (A)
                 (A) (A) (A) (A) (A) (A) (A) (A) (A) (A) (A) (A)
                 (A) (A) (A) (A) (A) (A) (A) (A) (A) (A) (A) (A)
                 (A) (A) (A) (A) (A) (A) (A) (A) (A) (A) (A) (A)
                 (A) (A) (A) (A) (A) (A) (A) (A) (A) (A) (A) (A)
                 (A) (A) (A) (A) (A) (A) (A) (A) (A) (A) (A) (A)
                 (A) (A) (A) (A) (A) (A) (A) (A) (A) (A) (A) (A)
                 (A) (A) (A) (A) (A) (A) (A) (A) (A) (A) (A) (A)
                 (A) (A) (A) (A) (A) (A) (A) (A) (A) (A) (A) (A)
                 (A) (A) (A) (A) (A) (A) (A) (A) (A) (A) (A) (A)
                 (A) (A) (A) (A) (A) (A) (A) (A) (A) (A) (A) (A)
                 (A) (A) (A) (A) (A) (A) (A) (A) (A) (A) (A) (A)
                 (A) (A) (A) (A) (A) (A) (A) (A) (A) (A) (A) (A)
                 (A) (A) (A) (A) (A) (A) (A) (A) (A) (A) (A) (A)
                 (A) (A) (A) (A) (A) (A) (A) (A) (A) (A) (A) (A)
                 (A) (A) (A) (A) (A) (A) (A) (A) (A) (A) (A) (A)
                 (A) (A) (A) (A) (A) (A) (A) (A) (A) (A) (A) (A)
                 (A) (A) (A) (A) (A) (A) (A) (A) (A) (A) (A) (A)
                 (A) (A) (A) (A) (A) (A) (A) (A) (A) (A) (A) (A)
                 (A) (A) (A) (A) (A) (A) (A) (A) (A) (A) (A) (A)
                 (A) (A) (A) (A) (A) (A) (A) (A) (A) (A) (A) (A)
                 (A) (A) (A) (A) (A) (A) (A) (A) (A) (A) (A) (A)
                 (A) (A) (A) (A) (A) (A) (A) (A) (A) (A) (A) (A)
                 (A) (A) (A) (A) (A) (A) (A) (A) (A) (A) (A) (A)
                 (A) (A) (A) (A) (A) (A) (A) (A) (A) (A) (A) (A)
                 (A) (A) (A) (A) (A) (A) (A) (A) (A) (A) (A) (A)
                 (A) (A) (A) (A) (A) (A) (A) (A) (A) (A) (A) (A)
                 (A) (A) (A) (A) (A) (A) (A) (A) (A) (A) (A) (A)
                 (A) (A) (A) (A) (A) (A) (A) (A) (A) (A) (A) (A)
                 (A) (A) (A) (A) (A) (A) (A) (A) (A) (A) (A) (A)
                 (A) (A) (A) (A) (A) (A) (A) (A) (A) (A) (A) (A)
                 (A) (A) (A) (A) (A) (A) (A) (A) (A) (A) (A) (A)
                 (A) (A) (A) (A) (A) (A) (A) (A) (A) (A) (A) (A)
                 (A) (A) (A) (A) (A) (A) (A) (A) (A) (A) (A) (A)
                 (A) (A) (A) (A) (A) (A) (A) (A) (A) (A) (A) (A)
                 (A) (A) (A) (A) (A) (A) (A) (A) (A) (A) (A) (A)
                 (A) (A) (A) (A) (A) (A) (A) (A) (A) (A) (A) (A)
                 (A) (A) (A) (A) (A) (A) (A) (A) (A) (A) (A) (A)
                 (A) (A)
 The electronic state is 1-A.
 Alpha  occ. eigenvalues --  -14.74936 -14.74936 -10.58093 -10.58092 -10.56021
 Alpha  occ. eigenvalues --  -10.56020 -10.55455 -10.55454 -10.55202 -10.54871
 Alpha  occ. eigenvalues --  -10.53807 -10.53807 -10.53229 -10.53229 -10.53186
 Alpha  occ. eigenvalues --  -10.53183  -1.05674  -1.03993  -0.96201  -0.91197
 Alpha  occ. eigenvalues --   -0.85910  -0.83541  -0.81458  -0.80148  -0.79912
 Alpha  occ. eigenvalues --   -0.73834  -0.73763  -0.69133  -0.67780  -0.63427
 Alpha  occ. eigenvalues --   -0.59193  -0.58299  -0.57251  -0.54911  -0.54375
 Alpha  occ. eigenvalues --   -0.53357  -0.52493  -0.51988  -0.51110  -0.48561
 Alpha  occ. eigenvalues --   -0.47288  -0.46801  -0.45992  -0.45615  -0.45257
 Alpha  occ. eigenvalues --   -0.44472  -0.44082  -0.43173  -0.42998  -0.42779
 Alpha  occ. eigenvalues --   -0.39775  -0.39019  -0.38911  -0.34822  -0.31806
 Alpha  occ. eigenvalues --   -0.29154  -0.25779  -0.23348
 Alpha virt. eigenvalues --   -0.00573   0.01464   0.05741   0.06768   0.08220
 Alpha virt. eigenvalues --    0.08334   0.09977   0.10396   0.10808   0.10985
 Alpha virt. eigenvalues --    0.12310   0.13169   0.13221   0.14000   0.14104
 Alpha virt. eigenvalues --    0.15081   0.15880   0.16231   0.16651   0.17149
 Alpha virt. eigenvalues --    0.18384   0.18961   0.19203   0.19228   0.22794
 Alpha virt. eigenvalues --    0.22839   0.24236   0.24368   0.24681   0.25395
 Alpha virt. eigenvalues --    0.27066   0.27919   0.28802   0.29224   0.30350
 Alpha virt. eigenvalues --    0.31645   0.32130   0.32716   0.33489   0.33740
 Alpha virt. eigenvalues --    0.34417   0.35571   0.36044   0.36989   0.37454
 Alpha virt. eigenvalues --    0.37855   0.37973   0.39489   0.40299   0.41041
 Alpha virt. eigenvalues --    0.41466   0.41647   0.41960   0.42142   0.42194
 Alpha virt. eigenvalues --    0.43076   0.43511   0.44447   0.44653   0.45523
 Alpha virt. eigenvalues --    0.45820   0.46419   0.46645   0.46792   0.47347
 Alpha virt. eigenvalues --    0.47962   0.48132   0.48570   0.49138   0.49305
 Alpha virt. eigenvalues --    0.49582   0.50097   0.50154   0.50749   0.51211
 Alpha virt. eigenvalues --    0.52120   0.52387   0.52799   0.53317   0.53617
 Alpha virt. eigenvalues --    0.54363   0.54900   0.55024   0.56032   0.56530
 Alpha virt. eigenvalues --    0.56931   0.57713   0.58325   0.59618   0.59944
 Alpha virt. eigenvalues --    0.60595   0.61500   0.61931   0.63665   0.63963
 Alpha virt. eigenvalues --    0.65098   0.65759   0.67083   0.67858   0.68339
 Alpha virt. eigenvalues --    0.69974   0.71097   0.71861   0.72388   0.72733
 Alpha virt. eigenvalues --    0.74005   0.74322   0.75640   0.76335   0.76922
 Alpha virt. eigenvalues --    0.77173   0.78555   0.78582   0.80522   0.80987
 Alpha virt. eigenvalues --    0.82243   0.83395   0.83398   0.83966   0.85413
 Alpha virt. eigenvalues --    0.85820   0.86776   0.88661   0.88826   0.89295
 Alpha virt. eigenvalues --    0.90845   0.90912   0.91472   0.91730   0.92389
 Alpha virt. eigenvalues --    0.93750   0.95123   0.95239   0.95387   0.96083
 Alpha virt. eigenvalues --    0.97231   0.98223   0.98665   0.99012   0.99877
 Alpha virt. eigenvalues --    1.01163   1.01303   1.01470   1.03350   1.03464
 Alpha virt. eigenvalues --    1.05469   1.06189   1.06420   1.06865   1.07430
 Alpha virt. eigenvalues --    1.08549   1.08690   1.09529   1.09796   1.10528
 Alpha virt. eigenvalues --    1.10917   1.12749   1.13060   1.13122   1.14007
 Alpha virt. eigenvalues --    1.14815   1.15720   1.16165   1.17540   1.18347
 Alpha virt. eigenvalues --    1.18910   1.19018   1.20541   1.21524   1.21972
 Alpha virt. eigenvalues --    1.22200   1.23253   1.23680   1.24852   1.26506
 Alpha virt. eigenvalues --    1.26799   1.27262   1.27600   1.28404   1.28634
 Alpha virt. eigenvalues --    1.29537   1.30322   1.32032   1.32471   1.33267
 Alpha virt. eigenvalues --    1.33368   1.33560   1.33769   1.34270   1.35017
 Alpha virt. eigenvalues --    1.35619   1.35847   1.36286   1.36653   1.36852
 Alpha virt. eigenvalues --    1.37693   1.37793   1.38765   1.39929   1.40082
 Alpha virt. eigenvalues --    1.41520   1.41897   1.43413   1.44322   1.45411
 Alpha virt. eigenvalues --    1.46885   1.47049   1.48096   1.50521   1.50699
 Alpha virt. eigenvalues --    1.51509   1.51521   1.52818   1.53601   1.53793
 Alpha virt. eigenvalues --    1.54709   1.55331   1.57164   1.57408   1.58295
 Alpha virt. eigenvalues --    1.58905   1.59778   1.60337   1.61292   1.62266
 Alpha virt. eigenvalues --    1.62958   1.64184   1.67083   1.67671   1.69523
 Alpha virt. eigenvalues --    1.70794   1.71775   1.72214   1.72638   1.77111
 Alpha virt. eigenvalues --    1.77956   1.80997   1.83589   1.84863   1.85245
 Alpha virt. eigenvalues --    1.85674   1.90959   1.91757   1.93959   1.97622
 Alpha virt. eigenvalues --    1.97878   1.98572   2.01386   2.02169   2.02636
 Alpha virt. eigenvalues --    2.04045   2.10530   2.12176   2.13408   2.14435
 Alpha virt. eigenvalues --    2.18307   2.19434   2.21888   2.21943   2.23583
 Alpha virt. eigenvalues --    2.24038   2.26451   2.27947   2.28925   2.30678
 Alpha virt. eigenvalues --    2.32286   2.33476   2.33818   2.36846   2.38575
 Alpha virt. eigenvalues --    2.38690   2.39495   2.40699   2.42209   2.44201
 Alpha virt. eigenvalues --    2.45504   2.45529   2.46455   2.47232   2.48084
 Alpha virt. eigenvalues --    2.49857   2.50898   2.51486   2.53643   2.53882
 Alpha virt. eigenvalues --    2.54315   2.56440   2.58248   2.58415   2.59055
 Alpha virt. eigenvalues --    2.59695   2.60117   2.62141   2.62375   2.63851
 Alpha virt. eigenvalues --    2.64193   2.65966   2.66373   2.67926   2.68531
 Alpha virt. eigenvalues --    2.69159   2.69973   2.70705   2.72359   2.72718
 Alpha virt. eigenvalues --    2.73245   2.74361   2.74667   2.74870   2.75234
 Alpha virt. eigenvalues --    2.75781   2.77159   2.78340   2.78428   2.79441
 Alpha virt. eigenvalues --    2.79983   2.80324   2.80770   2.81829   2.82328
 Alpha virt. eigenvalues --    2.83034   2.83817   2.84223   2.84495   2.85964
 Alpha virt. eigenvalues --    2.85965   2.85992   2.87518   2.87841   2.88246
 Alpha virt. eigenvalues --    2.89290   2.90200   2.91767   2.91927   2.92887
 Alpha virt. eigenvalues --    2.94143   2.94145   2.95285   2.96078   2.96693
 Alpha virt. eigenvalues --    2.97836   2.98764   2.98766   2.99656   3.00168
 Alpha virt. eigenvalues --    3.00595   3.00752   3.01246   3.02044   3.02257
 Alpha virt. eigenvalues --    3.02664   3.03286   3.03561   3.04062   3.04985
 Alpha virt. eigenvalues --    3.05589   3.06016   3.07124   3.07549   3.08537
 Alpha virt. eigenvalues --    3.08579   3.08937   3.09473   3.10227   3.11087
 Alpha virt. eigenvalues --    3.11221   3.11753   3.12658   3.13048   3.13254
 Alpha virt. eigenvalues --    3.13523   3.14513   3.14614   3.15719   3.16373
 Alpha virt. eigenvalues --    3.17855   3.18070   3.18644   3.19636   3.19824
 Alpha virt. eigenvalues --    3.20459   3.22467   3.22492   3.23987   3.24512
 Alpha virt. eigenvalues --    3.25255   3.25563   3.25951   3.26207   3.27553
 Alpha virt. eigenvalues --    3.27893   3.28533   3.29201   3.30377   3.30794
 Alpha virt. eigenvalues --    3.31395   3.31472   3.32098   3.33089   3.33793
 Alpha virt. eigenvalues --    3.34642   3.34755   3.35096   3.36874   3.37942
 Alpha virt. eigenvalues --    3.38831   3.39271   3.39613   3.40319   3.40851
 Alpha virt. eigenvalues --    3.42056   3.42116   3.42597   3.43126   3.43259
 Alpha virt. eigenvalues --    3.44138   3.45017   3.45281   3.46731   3.47594
 Alpha virt. eigenvalues --    3.48109   3.48812   3.49629   3.50460   3.50523
 Alpha virt. eigenvalues --    3.50958   3.51488   3.53126   3.53204   3.55511
 Alpha virt. eigenvalues --    3.55689   3.55927   3.56688   3.57433   3.57890
 Alpha virt. eigenvalues --    3.58173   3.59144   3.59181   3.60888   3.62402
 Alpha virt. eigenvalues --    3.63260   3.64399   3.64953   3.67222   3.67366
 Alpha virt. eigenvalues --    3.67813   3.69692   3.69841   3.71765   3.71788
 Alpha virt. eigenvalues --    3.73038   3.73085   3.73752   3.75218   3.75591
 Alpha virt. eigenvalues --    3.77230   3.77508   3.78907   3.79440   3.79630
 Alpha virt. eigenvalues --    3.80006   3.81765   3.81959   3.83091   3.84288
 Alpha virt. eigenvalues --    3.84765   3.85948   3.86014   3.86670   3.87314
 Alpha virt. eigenvalues --    3.87673   3.89166   3.89674   3.90823   3.91852
 Alpha virt. eigenvalues --    3.92895   3.93850   3.94879   3.95178   3.95341
 Alpha virt. eigenvalues --    3.96536   3.97152   3.98431   3.98731   3.99317
 Alpha virt. eigenvalues --    3.99459   3.99815   4.01005   4.01640   4.01657
 Alpha virt. eigenvalues --    4.03069   4.04819   4.05199   4.05326   4.05430
 Alpha virt. eigenvalues --    4.06217   4.06475   4.09175   4.09182   4.09268
 Alpha virt. eigenvalues --    4.10308   4.10643   4.11975   4.12509   4.13932
 Alpha virt. eigenvalues --    4.14445   4.15255   4.15454   4.15985   4.16270
 Alpha virt. eigenvalues --    4.17822   4.17863   4.18700   4.19433   4.19634
 Alpha virt. eigenvalues --    4.20426   4.22216   4.22373   4.23665   4.24103
 Alpha virt. eigenvalues --    4.24644   4.25052   4.25380   4.27149   4.27990
 Alpha virt. eigenvalues --    4.28312   4.29349   4.30055   4.31634   4.32158
 Alpha virt. eigenvalues --    4.32804   4.34610   4.35184   4.36358   4.36515
 Alpha virt. eigenvalues --    4.38091   4.38794   4.40296   4.41945   4.43001
 Alpha virt. eigenvalues --    4.43837   4.44269   4.45325   4.45340   4.49639
 Alpha virt. eigenvalues --    4.51688   4.52634   4.53029   4.53946   4.56864
 Alpha virt. eigenvalues --    4.58167   4.60430   4.61085   4.61335   4.64707
 Alpha virt. eigenvalues --    4.65979   4.66340   4.68004   4.68924   4.69008
 Alpha virt. eigenvalues --    4.71438   4.72132   4.73255   4.75560   4.76160
 Alpha virt. eigenvalues --    4.76791   4.78408   4.81689   4.83004   4.83013
 Alpha virt. eigenvalues --    4.84814   4.86964   4.87266   4.87512   4.89291
 Alpha virt. eigenvalues --    4.90777   4.90863   4.94867   4.95606   4.95788
 Alpha virt. eigenvalues --    4.97553   4.97899   4.98651   4.99620   5.01502
 Alpha virt. eigenvalues --    5.01860   5.03147   5.03240   5.06487   5.06898
 Alpha virt. eigenvalues --    5.08595   5.09498   5.11050   5.12931   5.12944
 Alpha virt. eigenvalues --    5.13594   5.14536   5.15094   5.17144   5.18099
 Alpha virt. eigenvalues --    5.20268   5.20904   5.21124   5.22753   5.24800
 Alpha virt. eigenvalues --    5.24900   5.27445   5.27757   5.28192   5.28759
 Alpha virt. eigenvalues --    5.29213   5.29478   5.34391   5.34954   5.36238
 Alpha virt. eigenvalues --    5.38186   5.38641   5.42119   5.42419   5.45714
 Alpha virt. eigenvalues --    5.46860   5.48348   5.48932   5.52914   5.53096
 Alpha virt. eigenvalues --    5.54740   5.56951   5.57991   5.59449   5.61326
 Alpha virt. eigenvalues --    5.72867   5.73816   5.74269   5.75698   5.76285
 Alpha virt. eigenvalues --    5.79766   5.81450   5.81786   5.82446   5.85763
 Alpha virt. eigenvalues --    5.87212   5.87863   5.87972   5.88254   5.89920
 Alpha virt. eigenvalues --    5.92478   5.93491   5.95014   5.96111   5.97721
 Alpha virt. eigenvalues --    5.98754   6.01976   6.06171   6.11486   6.21599
 Alpha virt. eigenvalues --    6.28488   6.43781   6.75766   8.59394  10.70314
 Alpha virt. eigenvalues --   11.43469  11.61974  12.38436  12.87128  12.97007
 Alpha virt. eigenvalues --   13.02616  13.19956  13.46217  13.53507  13.76717
 Alpha virt. eigenvalues --   13.85231  13.95676  15.12352  15.31788
          Condensed to atoms (all electrons):
               1          2          3          4          5          6
     1  C    5.152714   0.412794  -0.054964  -0.055996  -0.025043   0.507301
     2  C    0.412794   4.921341   0.549808  -0.048680  -0.034375  -0.053570
     3  C   -0.054964   0.549808   5.012677   0.422948  -0.046970  -0.039320
     4  C   -0.055996  -0.048680   0.422948   4.991579   0.424086  -0.052033
     5  C   -0.025043  -0.034375  -0.046970   0.424086   5.038725   0.376352
     6  C    0.507301  -0.053570  -0.039320  -0.052033   0.376352   5.014714
     7  C   -0.000513   0.005219  -0.061239   0.422948  -0.046969   0.010986
     8  C    0.000023  -0.000299   0.005219  -0.048681  -0.034375  -0.001477
     9  C    0.000044   0.000023  -0.000513  -0.055996  -0.025043   0.010348
    10  C    0.010348  -0.001478   0.010986  -0.052032   0.376347  -0.043522
    11  N   -0.092283   0.006518   0.000155   0.002174  -0.074911   0.397551
    12  N    0.000327  -0.000050  -0.000057   0.002174  -0.074911   0.004161
    13  C   -0.006135   0.000135  -0.000079   0.001393  -0.011165  -0.044989
    14  C   -0.021542  -0.002207   0.000242  -0.000585   0.008933  -0.055696
    15  C   -0.000030   0.000003  -0.000003  -0.000585   0.008933   0.000202
    16  C    0.000189  -0.000171   0.000261   0.001393  -0.011164  -0.007048
    17  H    0.442154  -0.045136   0.007527  -0.000974   0.007256  -0.069524
    18  H   -0.052098   0.436942  -0.057523   0.008945  -0.001485   0.008560
    19  H    0.008971  -0.048777   0.434345  -0.063801   0.009182  -0.001261
    20  H    0.000017   0.000260  -0.004392  -0.063800   0.009182  -0.000183
    21  H   -0.000001   0.000014  -0.000428   0.008945  -0.001485   0.000064
    22  H    0.000010  -0.000002   0.000059  -0.000974   0.007256  -0.000156
    23  H    0.001282   0.000084   0.000171   0.001428   0.001462  -0.007751
    24  H   -0.000453   0.000064  -0.000006   0.000084   0.002719   0.003250
    25  H    0.004375  -0.000722  -0.000087  -0.000668  -0.003740   0.006392
    26  H   -0.004788   0.000992  -0.000249   0.000099   0.001692   0.004037
    27  H   -0.004739  -0.002072   0.000034  -0.000141  -0.001630   0.002477
    28  H    0.002436   0.000173  -0.000008   0.000042  -0.000287   0.004614
    29  H    0.000001   0.000000   0.000002   0.000099   0.001692  -0.000047
    30  H   -0.000003   0.000000  -0.000002  -0.000141  -0.001630   0.000070
    31  H    0.000002  -0.000000   0.000000   0.000042  -0.000287   0.000013
    32  H    0.000987   0.000242  -0.000270   0.001428   0.001462   0.004316
    33  H   -0.000092   0.000002  -0.000002   0.000084   0.002719  -0.002237
    34  H   -0.000035  -0.000023   0.000038  -0.000668  -0.003740   0.000828
               7          8          9         10         11         12
     1  C   -0.000513   0.000023   0.000044   0.010348  -0.092283   0.000327
     2  C    0.005219  -0.000299   0.000023  -0.001478   0.006518  -0.000050
     3  C   -0.061239   0.005219  -0.000513   0.010986   0.000155  -0.000057
     4  C    0.422948  -0.048681  -0.055996  -0.052032   0.002174   0.002174
     5  C   -0.046969  -0.034375  -0.025043   0.376347  -0.074911  -0.074911
     6  C    0.010986  -0.001477   0.010348  -0.043522   0.397551   0.004161
     7  C    5.012678   0.549808  -0.054965  -0.039320  -0.000057   0.000155
     8  C    0.549808   4.921344   0.412793  -0.053570  -0.000050   0.006518
     9  C   -0.054965   0.412793   5.152717   0.507299   0.000327  -0.092284
    10  C   -0.039320  -0.053570   0.507299   5.014716   0.004162   0.397553
    11  N   -0.000057  -0.000050   0.000327   0.004162   6.562811  -0.023383
    12  N    0.000155   0.006518  -0.092284   0.397553  -0.023383   6.562808
    13  C    0.000261  -0.000171   0.000189  -0.007048   0.293719   0.011876
    14  C   -0.000003   0.000003  -0.000030   0.000202   0.332649   0.000035
    15  C    0.000242  -0.002207  -0.021543  -0.055696   0.000035   0.332650
    16  C   -0.000079   0.000135  -0.006135  -0.044990   0.011876   0.293719
    17  H    0.000059  -0.000002   0.000010  -0.000156  -0.010911   0.000006
    18  H   -0.000428   0.000014  -0.000001   0.000064  -0.000231  -0.000001
    19  H   -0.004392   0.000260   0.000017  -0.000183   0.000020   0.000008
    20  H    0.434345  -0.048777   0.008971  -0.001261   0.000008   0.000020
    21  H   -0.057522   0.436941  -0.052098   0.008560  -0.000001  -0.000231
    22  H    0.007527  -0.045137   0.442155  -0.069525   0.000006  -0.010911
    23  H   -0.000270   0.000242   0.000987   0.004316  -0.031404  -0.015212
    24  H   -0.000002   0.000002  -0.000092  -0.002237  -0.048628   0.002206
    25  H    0.000038  -0.000023  -0.000035   0.000828  -0.054340   0.001762
    26  H    0.000002   0.000000   0.000001  -0.000047  -0.039934   0.000091
    27  H   -0.000002   0.000000  -0.000003   0.000070  -0.059644  -0.000183
    28  H    0.000000  -0.000000   0.000002   0.000013  -0.041779   0.000092
    29  H   -0.000249   0.000992  -0.004788   0.004037   0.000091  -0.039934
    30  H    0.000034  -0.002072  -0.004739   0.002478  -0.000183  -0.059644
    31  H   -0.000008   0.000173   0.002436   0.004613   0.000092  -0.041779
    32  H    0.000171   0.000084   0.001282  -0.007751  -0.015213  -0.031404
    33  H   -0.000006   0.000064  -0.000453   0.003250   0.002205  -0.048628
    34  H   -0.000087  -0.000722   0.004375   0.006392   0.001762  -0.054340
              13         14         15         16         17         18
     1  C   -0.006135  -0.021542  -0.000030   0.000189   0.442154  -0.052098
     2  C    0.000135  -0.002207   0.000003  -0.000171  -0.045136   0.436942
     3  C   -0.000079   0.000242  -0.000003   0.000261   0.007527  -0.057523
     4  C    0.001393  -0.000585  -0.000585   0.001393  -0.000974   0.008945
     5  C   -0.011165   0.008933   0.008933  -0.011164   0.007256  -0.001485
     6  C   -0.044989  -0.055696   0.000202  -0.007048  -0.069524   0.008560
     7  C    0.000261  -0.000003   0.000242  -0.000079   0.000059  -0.000428
     8  C   -0.000171   0.000003  -0.002207   0.000135  -0.000002   0.000014
     9  C    0.000189  -0.000030  -0.021543  -0.006135   0.000010  -0.000001
    10  C   -0.007048   0.000202  -0.055696  -0.044990  -0.000156   0.000064
    11  N    0.293719   0.332649   0.000035   0.011876  -0.010911  -0.000231
    12  N    0.011876   0.000035   0.332650   0.293719   0.000006  -0.000001
    13  C    4.929584  -0.064130  -0.001059  -0.006456  -0.000862   0.000023
    14  C   -0.064130   4.947704  -0.000032  -0.001059   0.001478  -0.000010
    15  C   -0.001059  -0.000032   4.947702  -0.064130  -0.000000   0.000000
    16  C   -0.006456  -0.001059  -0.064130   4.929587   0.000057   0.000001
    17  H   -0.000862   0.001478  -0.000000   0.000057   0.564086  -0.007974
    18  H    0.000023  -0.000010   0.000000   0.000001  -0.007974   0.577947
    19  H   -0.000003   0.000003  -0.000000   0.000000  -0.000308  -0.008863
    20  H    0.000000  -0.000000   0.000003  -0.000003  -0.000001  -0.000041
    21  H    0.000001   0.000000  -0.000010   0.000023   0.000000  -0.000001
    22  H    0.000057  -0.000000   0.001478  -0.000862  -0.000001   0.000000
    23  H    0.400838   0.007209  -0.002249  -0.000184  -0.000006  -0.000000
    24  H    0.409419  -0.009661  -0.000001  -0.001743  -0.000082  -0.000001
    25  H    0.399018  -0.005530   0.000134   0.000465   0.000572   0.000008
    26  H    0.010261   0.393038  -0.000002  -0.001053  -0.006595   0.000020
    27  H   -0.015384   0.415081   0.000002   0.000516   0.001080   0.000057
    28  H   -0.002945   0.397622  -0.000012  -0.001070   0.000191  -0.000003
    29  H   -0.001053  -0.000002   0.393037   0.010261  -0.000000   0.000000
    30  H    0.000516   0.000002   0.415081  -0.015384   0.000000  -0.000000
    31  H   -0.001070  -0.000012   0.397623  -0.002945  -0.000000  -0.000000
    32  H   -0.000184  -0.002249   0.007209   0.400838  -0.000065   0.000002
    33  H   -0.001743  -0.000001  -0.009661   0.409419  -0.000003   0.000000
    34  H    0.000465   0.000134  -0.005529   0.399018   0.000006  -0.000000
              19         20         21         22         23         24
     1  C    0.008971   0.000017  -0.000001   0.000010   0.001282  -0.000453
     2  C   -0.048777   0.000260   0.000014  -0.000002   0.000084   0.000064
     3  C    0.434345  -0.004392  -0.000428   0.000059   0.000171  -0.000006
     4  C   -0.063801  -0.063800   0.008945  -0.000974   0.001428   0.000084
     5  C    0.009182   0.009182  -0.001485   0.007256   0.001462   0.002719
     6  C   -0.001261  -0.000183   0.000064  -0.000156  -0.007751   0.003250
     7  C   -0.004392   0.434345  -0.057522   0.007527  -0.000270  -0.000002
     8  C    0.000260  -0.048777   0.436941  -0.045137   0.000242   0.000002
     9  C    0.000017   0.008971  -0.052098   0.442155   0.000987  -0.000092
    10  C   -0.000183  -0.001261   0.008560  -0.069525   0.004316  -0.002237
    11  N    0.000020   0.000008  -0.000001   0.000006  -0.031404  -0.048628
    12  N    0.000008   0.000020  -0.000231  -0.010911  -0.015212   0.002206
    13  C   -0.000003   0.000000   0.000001   0.000057   0.400838   0.409419
    14  C    0.000003  -0.000000   0.000000  -0.000000   0.007209  -0.009661
    15  C   -0.000000   0.000003  -0.000010   0.001478  -0.002249  -0.000001
    16  C    0.000000  -0.000003   0.000023  -0.000862  -0.000184  -0.001743
    17  H   -0.000308  -0.000001   0.000000  -0.000001  -0.000006  -0.000082
    18  H   -0.008863  -0.000041  -0.000001   0.000000  -0.000000  -0.000001
    19  H    0.574917   0.004638  -0.000041  -0.000001  -0.000002   0.000000
    20  H    0.004638   0.574917  -0.008863  -0.000308  -0.000004  -0.000000
    21  H   -0.000041  -0.008863   0.577945  -0.007974   0.000002   0.000000
    22  H   -0.000001  -0.000308  -0.007974   0.564088  -0.000065  -0.000003
    23  H   -0.000002  -0.000004   0.000002  -0.000065   0.554001  -0.029188
    24  H    0.000000  -0.000000   0.000000  -0.000003  -0.029188   0.589192
    25  H    0.000002   0.000001  -0.000000   0.000006  -0.038809  -0.049760
    26  H   -0.000001  -0.000000   0.000000  -0.000000  -0.000193   0.000762
    27  H    0.000003   0.000000  -0.000000   0.000000  -0.000808  -0.003659
    28  H   -0.000000   0.000000  -0.000000  -0.000000   0.000522   0.005560
    29  H   -0.000000  -0.000001   0.000020  -0.006595   0.001255  -0.000041
    30  H    0.000000   0.000003   0.000057   0.001080  -0.000263   0.000045
    31  H    0.000000  -0.000000  -0.000003   0.000191   0.000395   0.000314
    32  H   -0.000004  -0.000002  -0.000000  -0.000006   0.000535   0.000179
    33  H   -0.000000   0.000000  -0.000001  -0.000082   0.000179   0.000116
    34  H    0.000001   0.000002   0.000008   0.000572  -0.000250  -0.000114
              25         26         27         28         29         30
     1  C    0.004375  -0.004788  -0.004739   0.002436   0.000001  -0.000003
     2  C   -0.000722   0.000992  -0.002072   0.000173   0.000000   0.000000
     3  C   -0.000087  -0.000249   0.000034  -0.000008   0.000002  -0.000002
     4  C   -0.000668   0.000099  -0.000141   0.000042   0.000099  -0.000141
     5  C   -0.003740   0.001692  -0.001630  -0.000287   0.001692  -0.001630
     6  C    0.006392   0.004037   0.002477   0.004614  -0.000047   0.000070
     7  C    0.000038   0.000002  -0.000002   0.000000  -0.000249   0.000034
     8  C   -0.000023   0.000000   0.000000  -0.000000   0.000992  -0.002072
     9  C   -0.000035   0.000001  -0.000003   0.000002  -0.004788  -0.004739
    10  C    0.000828  -0.000047   0.000070   0.000013   0.004037   0.002478
    11  N   -0.054340  -0.039934  -0.059644  -0.041779   0.000091  -0.000183
    12  N    0.001762   0.000091  -0.000183   0.000092  -0.039934  -0.059644
    13  C    0.399018   0.010261  -0.015384  -0.002945  -0.001053   0.000516
    14  C   -0.005530   0.393038   0.415081   0.397622  -0.000002   0.000002
    15  C    0.000134  -0.000002   0.000002  -0.000012   0.393037   0.415081
    16  C    0.000465  -0.001053   0.000516  -0.001070   0.010261  -0.015384
    17  H    0.000572  -0.006595   0.001080   0.000191  -0.000000   0.000000
    18  H    0.000008   0.000020   0.000057  -0.000003   0.000000  -0.000000
    19  H    0.000002  -0.000001   0.000003  -0.000000  -0.000000   0.000000
    20  H    0.000001  -0.000000   0.000000   0.000000  -0.000001   0.000003
    21  H   -0.000000   0.000000  -0.000000  -0.000000   0.000020   0.000057
    22  H    0.000006  -0.000000   0.000000  -0.000000  -0.006595   0.001080
    23  H   -0.038809  -0.000193  -0.000808   0.000522   0.001255  -0.000263
    24  H   -0.049760   0.000762  -0.003659   0.005560  -0.000041   0.000045
    25  H    0.616451  -0.001459   0.017066  -0.004699  -0.000136   0.000020
    26  H   -0.001459   0.574349  -0.054899  -0.016037   0.000000  -0.000000
    27  H    0.017066  -0.054899   0.635674  -0.051780  -0.000000  -0.000001
    28  H   -0.004699  -0.016037  -0.051780   0.577234   0.000002   0.000000
    29  H   -0.000136   0.000000  -0.000000   0.000002   0.574350  -0.054899
    30  H    0.000020  -0.000000  -0.000001   0.000000  -0.054899   0.635675
    31  H   -0.000088   0.000002   0.000000   0.000015  -0.016037  -0.051780
    32  H   -0.000250   0.001255  -0.000263   0.000395  -0.000193  -0.000808
    33  H   -0.000114  -0.000041   0.000045   0.000314   0.000762  -0.003659
    34  H    0.000056  -0.000136   0.000020  -0.000088  -0.001459   0.017066
              31         32         33         34
     1  C    0.000002   0.000987  -0.000092  -0.000035
     2  C   -0.000000   0.000242   0.000002  -0.000023
     3  C    0.000000  -0.000270  -0.000002   0.000038
     4  C    0.000042   0.001428   0.000084  -0.000668
     5  C   -0.000287   0.001462   0.002719  -0.003740
     6  C    0.000013   0.004316  -0.002237   0.000828
     7  C   -0.000008   0.000171  -0.000006  -0.000087
     8  C    0.000173   0.000084   0.000064  -0.000722
     9  C    0.002436   0.001282  -0.000453   0.004375
    10  C    0.004613  -0.007751   0.003250   0.006392
    11  N    0.000092  -0.015213   0.002205   0.001762
    12  N   -0.041779  -0.031404  -0.048628  -0.054340
    13  C   -0.001070  -0.000184  -0.001743   0.000465
    14  C   -0.000012  -0.002249  -0.000001   0.000134
    15  C    0.397623   0.007209  -0.009661  -0.005529
    16  C   -0.002945   0.400838   0.409419   0.399018
    17  H   -0.000000  -0.000065  -0.000003   0.000006
    18  H   -0.000000   0.000002   0.000000  -0.000000
    19  H    0.000000  -0.000004  -0.000000   0.000001
    20  H   -0.000000  -0.000002   0.000000   0.000002
    21  H   -0.000003  -0.000000  -0.000001   0.000008
    22  H    0.000191  -0.000006  -0.000082   0.000572
    23  H    0.000395   0.000535   0.000179  -0.000250
    24  H    0.000314   0.000179   0.000116  -0.000114
    25  H   -0.000088  -0.000250  -0.000114   0.000056
    26  H    0.000002   0.001255  -0.000041  -0.000136
    27  H    0.000000  -0.000263   0.000045   0.000020
    28  H    0.000015   0.000395   0.000314  -0.000088
    29  H   -0.016037  -0.000193   0.000762  -0.001459
    30  H   -0.051780  -0.000808  -0.003659   0.017066
    31  H    0.577233   0.000522   0.005560  -0.004699
    32  H    0.000522   0.554000  -0.029188  -0.038809
    33  H    0.005560  -0.029188   0.589192  -0.049760
    34  H   -0.004699  -0.038809  -0.049760   0.616450
 Mulliken charges:
               1
     1  C   -0.225261
     2  C   -0.097054
     3  C   -0.178363
     4  C    0.155863
     5  C    0.121213
     6  C    0.022576
     7  C   -0.178364
     8  C   -0.097054
     9  C   -0.225262
    10  C    0.022579
    11  N   -0.123209
    12  N   -0.123209
    13  C   -0.293281
    14  C   -0.341589
    15  C   -0.341587
    16  C   -0.293283
    17  H    0.118118
    18  H    0.096075
    19  H    0.095274
    20  H    0.095273
    21  H    0.096077
    22  H    0.118116
    23  H    0.151751
    24  H    0.131759
    25  H    0.113268
    26  H    0.138831
    27  H    0.123083
    28  H    0.129481
    29  H    0.138830
    30  H    0.123082
    31  H    0.129481
    32  H    0.151753
    33  H    0.131759
    34  H    0.113269
 Sum of Mulliken charges =  -0.00000
 Mulliken charges with hydrogens summed into heavy atoms:
               1
     1  C   -0.107143
     2  C   -0.000979
     3  C   -0.083089
     4  C    0.155863
     5  C    0.121213
     6  C    0.022576
     7  C   -0.083091
     8  C   -0.000977
     9  C   -0.107145
    10  C    0.022579
    11  N   -0.123209
    12  N   -0.123209
    13  C    0.103498
    14  C    0.049807
    15  C    0.049807
    16  C    0.103498
 Electronic spatial extent (au):  <R**2>=           3315.8099
 Charge=             -0.0000 electrons
 Dipole moment (field-independent basis, Debye):
    X=             -1.5653    Y=              0.0002    Z=             -0.0000  Tot=              1.5653
 Quadrupole moment (field-independent basis, Debye-Ang):
   XX=            -89.9477   YY=            -88.9835   ZZ=           -100.9240
   XY=              0.0001   XZ=              0.0002   YZ=              1.5781
 Traceless Quadrupole moment (field-independent basis, Debye-Ang):
   XX=              3.3374   YY=              4.3016   ZZ=             -7.6390
   XY=              0.0001   XZ=              0.0002   YZ=              1.5781
 Octapole moment (field-independent basis, Debye-Ang**2):
  XXX=             -3.0490  YYY=              0.0015  ZZZ=              0.0001  XYY=             -4.9262
  XXY=             -0.0007  XXZ=              0.0006  XZZ=            -15.4743  YZZ=              0.0015
  YYZ=             -0.0007  XYZ=              3.2574
 Hexadecapole moment (field-independent basis, Debye-Ang**3):
 XXXX=          -1972.1290 YYYY=          -1990.8962 ZZZZ=           -416.3714 XXXY=             -0.0023
 XXXZ=              0.0039 YYYX=             -0.0008 YYYZ=             28.8440 ZZZX=             -0.0006
 ZZZY=             -5.2726 XXYY=           -663.0230 XXZZ=           -444.3381 YYZZ=           -438.2777
 XXYZ=             13.3734 YYXZ=              0.0002 ZZXY=              0.0004
 N-N= 1.123742804895D+03 E-N=-3.763530993687D+03  KE= 6.494510781921D+02
 Calling FoFJK, ICntrl=      2127 FMM=F ISym2X=0 I1Cent= 0 IOpClX= 0 NMat=1 NMatS=1 NMatT=0.
 ***** Axes restored to original set *****
 -------------------------------------------------------------------
 Center     Atomic                   Forces (Hartrees/Bohr)
 Number     Number              X              Y              Z
 -------------------------------------------------------------------
      1        6          -0.003065452   -0.005020466   -0.001691143
      2        6           0.002722737   -0.006327616   -0.001243396
      3        6          -0.003757542    0.004989123    0.000521527
      4        6          -0.004418824    0.000000379    0.000000235
      5        6           0.004650670   -0.000000341   -0.000000248
      6        6           0.004413347    0.004492008    0.001518606
      7        6          -0.003757038   -0.004990464   -0.000521777
      8        6           0.002721839    0.006328466    0.001243788
      9        6          -0.003067160    0.005020202    0.001691408
     10        6           0.004413829   -0.004491446   -0.001518683
     11        7          -0.000148384   -0.000972071    0.000604610
     12        7          -0.000147477    0.000973522   -0.000604493
     13        6           0.000112637   -0.000873704   -0.001931635
     14        6          -0.001021800    0.001985166    0.000320238
     15        6          -0.001021807   -0.001984830   -0.000319758
     16        6           0.000111571    0.000873785    0.001931868
     17        1           0.001032260   -0.003054578    0.000119614
     18        1          -0.001745381   -0.003024256   -0.000496650
     19        1          -0.003314917   -0.000085538   -0.000084010
     20        1          -0.003314711    0.000084957    0.000083949
     21        1          -0.001746023    0.003023999    0.000496419
     22        1           0.001032230    0.003054411   -0.000119787
     23        1          -0.000781761    0.002053188    0.000880638
     24        1           0.002725712    0.000716619    0.000571968
     25        1          -0.000332358   -0.001906932    0.002968377
     26        1          -0.000016121   -0.001079091   -0.002737645
     27        1          -0.000061029   -0.003139771    0.001751259
     28        1           0.003123462   -0.000088389   -0.000143071
     29        1          -0.000016409    0.001078792    0.002737287
     30        1          -0.000061845    0.003139611   -0.001751353
     31        1           0.003123343    0.000088721    0.000142940
     32        1          -0.000780912   -0.002054019   -0.000880626
     33        1           0.002726165   -0.000716080   -0.000572067
     34        1          -0.000332853    0.001906644   -0.002968391
 -------------------------------------------------------------------
 Cartesian Forces:  Max     0.006328466 RMS     0.002388192

 GradGradGradGradGradGradGradGradGradGradGradGradGradGradGradGradGradGrad
 Berny optimization.
 FormGI is forming the generalized inverse of G from B-inverse, IUseBI=4.
 Internal  Forces:  Max     0.010764798 RMS     0.002532451
 Search for a local minimum.
 Step number   1 out of a maximum of  181
 All quantities printed in internal units (Hartrees-Bohrs-Radians)
 Mixed Optimization -- RFO/linear search
 Second derivative matrix not updated -- first step.
 ITU=  0
     Eigenvalues ---    0.00939   0.00939   0.01072   0.01072   0.01555
     Eigenvalues ---    0.01583   0.01583   0.01639   0.01705   0.01766
     Eigenvalues ---    0.01768   0.01926   0.01962   0.02086   0.02091
     Eigenvalues ---    0.02130   0.02145   0.02186   0.02186   0.02190
     Eigenvalues ---    0.02200   0.02288   0.02294   0.07135   0.07135
     Eigenvalues ---    0.07345   0.07345   0.07502   0.07502   0.07705
     Eigenvalues ---    0.07705   0.15953   0.15953   0.15974   0.15975
     Eigenvalues ---    0.16000   0.16000   0.16000   0.16000   0.16000
     Eigenvalues ---    0.16000   0.16000   0.16000   0.16000   0.16000
     Eigenvalues ---    0.16000   0.16000   0.16000   0.16000   0.19429
     Eigenvalues ---    0.19429   0.21341   0.21341   0.22050   0.22119
     Eigenvalues ---    0.23115   0.23617   0.24660   0.24848   0.24997
     Eigenvalues ---    0.24997   0.33036   0.33036   0.33169   0.33169
     Eigenvalues ---    0.34199   0.34199   0.34224   0.34224   0.34391
     Eigenvalues ---    0.34391   0.34998   0.34998   0.35185   0.35185
     Eigenvalues ---    0.35197   0.35197   0.35508   0.35508   0.35849
     Eigenvalues ---    0.37268   0.37358   0.37358   0.37374   0.38658
     Eigenvalues ---    0.38658   0.41011   0.41281   0.43352   0.43500
     Eigenvalues ---    0.44279   0.44279   0.46160   0.46247   0.49445
     Eigenvalues ---    0.49549
 RFO step:  Lambda=-3.40704277D-03 EMin= 9.39423649D-03
 Linear search not attempted -- first point.
 Iteration  1 RMS(Cart)=  0.08164992 RMS(Int)=  0.00083585
 Iteration  2 RMS(Cart)=  0.00181190 RMS(Int)=  0.00004086
 Iteration  3 RMS(Cart)=  0.00000114 RMS(Int)=  0.00004085
 Iteration  4 RMS(Cart)=  0.00000000 RMS(Int)=  0.00004085
 Variable       Old X    -DE/DX   Delta X   Delta X   Delta X     New X
                                 (Linear)    (Quad)   (Total)
    R1        2.66005  -0.00290   0.00000  -0.00681  -0.00676   2.65329
    R2        2.62728  -0.01051   0.00000  -0.02221  -0.02219   2.60508
    R3        2.04859  -0.00319   0.00000  -0.00890  -0.00890   2.03969
    R4        2.59135  -0.00926   0.00000  -0.01831  -0.01827   2.57309
    R5        2.05376  -0.00353   0.00000  -0.00992  -0.00992   2.04383
    R6        2.68233  -0.00465   0.00000  -0.01071  -0.01072   2.67162
    R7        2.05356  -0.00331   0.00000  -0.00932  -0.00932   2.04424
    R8        2.71719  -0.01076   0.00000  -0.02602  -0.02612   2.69107
    R9        2.68233  -0.00465   0.00000  -0.01071  -0.01072   2.67161
   R10        2.73854  -0.00849   0.00000  -0.02172  -0.02176   2.71678
   R11        2.73854  -0.00849   0.00000  -0.02172  -0.02176   2.71678
   R12        2.66122  -0.00419   0.00000  -0.00938  -0.00938   2.65183
   R13        2.59136  -0.00926   0.00000  -0.01831  -0.01827   2.57309
   R14        2.05356  -0.00331   0.00000  -0.00932  -0.00932   2.04424
   R15        2.66005  -0.00290   0.00000  -0.00681  -0.00676   2.65329
   R16        2.05376  -0.00353   0.00000  -0.00992  -0.00992   2.04383
   R17        2.62728  -0.01051   0.00000  -0.02221  -0.02219   2.60508
   R18        2.04859  -0.00319   0.00000  -0.00890  -0.00890   2.03969
   R19        2.66122  -0.00419   0.00000  -0.00938  -0.00938   2.65184
   R20        2.75310  -0.00273   0.00000  -0.00723  -0.00723   2.74587
   R21        2.73419  -0.00312   0.00000  -0.00800  -0.00800   2.72619
   R22        2.73419  -0.00312   0.00000  -0.00800  -0.00800   2.72619
   R23        2.75310  -0.00273   0.00000  -0.00723  -0.00723   2.74587
   R24        2.05678  -0.00231   0.00000  -0.00653  -0.00653   2.05025
   R25        2.06996  -0.00279   0.00000  -0.00809  -0.00809   2.06188
   R26        2.08757  -0.00347   0.00000  -0.01036  -0.01036   2.07721
   R27        2.06675  -0.00286   0.00000  -0.00824  -0.00824   2.05851
   R28        2.08989  -0.00348   0.00000  -0.01041  -0.01041   2.07948
   R29        2.06954  -0.00306   0.00000  -0.00886  -0.00886   2.06068
   R30        2.06675  -0.00286   0.00000  -0.00824  -0.00824   2.05851
   R31        2.08989  -0.00348   0.00000  -0.01041  -0.01041   2.07947
   R32        2.06954  -0.00306   0.00000  -0.00886  -0.00886   2.06068
   R33        2.05678  -0.00231   0.00000  -0.00653  -0.00653   2.05025
   R34        2.06996  -0.00279   0.00000  -0.00809  -0.00809   2.06188
   R35        2.08757  -0.00347   0.00000  -0.01036  -0.01036   2.07721
    A1        2.12922  -0.00120   0.00000  -0.00458  -0.00467   2.12454
    A2        2.06579   0.00107   0.00000   0.00562   0.00560   2.07139
    A3        2.08602   0.00015   0.00000  -0.00001  -0.00003   2.08599
    A4        2.09241   0.00058   0.00000   0.00318   0.00313   2.09554
    A5        2.08344  -0.00024   0.00000  -0.00095  -0.00097   2.08247
    A6        2.10534  -0.00031   0.00000  -0.00138  -0.00140   2.10394
    A7        2.10073  -0.00057   0.00000  -0.00118  -0.00126   2.09947
    A8        2.11194   0.00049   0.00000   0.00186   0.00190   2.11384
    A9        2.07050   0.00008   0.00000  -0.00069  -0.00065   2.06986
   A10        2.10240  -0.00106   0.00000  -0.00308  -0.00317   2.09923
[...]
 019711,-0.00032608,0.00004885,0.00001240,0.00003931,0.01172268,-0.0628
 9479,-0.05439409,-0.00449431,-0.00414955,-0.00046300,-0.00000540,-0.00
 000236,-0.00001473,0.00000235,-0.00000273,-0.00000039,-0.00000048,0.00
 000536,-0.00000103,-0.00000539,-0.00000477,-0.00001560,-0.00000528,0.0
 0000931,-0.00001258,0.00016274,-0.00008195,0.00022083,-0.00025795,-0.0
 0010588,0.00007799,0.00011221,-0.00004887,-0.00003545,-0.00000643,0.00
 008118,0.00007330,0.00000118,0.00005324,0.00002385,-0.00000366,-0.0000
 1212,0.00000804,0.00000720,0.00000006,-0.00002472,-0.01236502,0.073856
 34,-0.00000507,-0.00004475,-0.00002051,0.00007694,0.00004787,0.0000234
 2,-0.00006279,0.00003334,-0.00002167,0.00009758,-0.00001435,-0.0000434
 7,-0.00037217,-0.00019467,0.00013535,0.00021534,0.00011794,0.00004480,
 -0.00004246,0.00005243,-0.00002975,0.00013271,0.00036869,0.00016187,0.
 00021367,-0.00039294,0.00039931,0.00201035,-0.00006435,0.00008328,-0.0
 0018100,-0.00010986,0.00019693,0.00015796,-0.00470157,-0.00648298,-0.0
 0012964,-0.00006036,0.00001894,-0.00000318,0.00001690,-0.00001650,0.05
 568957,-0.06079635,-0.28927256,-0.00218577,-0.00139214,0.00057092,0.00
 000021,0.00000951,-0.00000365,-0.00000393,-0.00000316,0.00000378,0.000
 00005,0.00000122,-0.00000844,0.00003004,0.00004097,0.00000381,-0.00003
 078,-0.00000154,-0.00000372,-0.00004516,0.00065806,-0.00028211,0.00007
 061,-0.00034227,-0.00002702,0.00000221,-0.00004795,-0.00001565,0.00001
 626,-0.00003922,-0.00000865,0.00001010,0.00002385,0.00000257,0.0000004
 5,-0.00000694,0.00000959,-0.00000338,0.00000830,-0.00001329,-0.0617553
 4,0.07006885,0.31164330,-0.00018217,-0.00005955,0.00001219,0.00014721,
 -0.00007532,-0.00000742,-0.00005763,0.00016124,0.00008240,0.00041648,-
 0.00053737,-0.00023111,-0.00075765,-0.00041851,-0.00066886,0.00011345,
 0.00038650,0.00007910,0.00014188,0.00068186,0.00006389,-0.00068618,-0.
 00023123,-0.00056697,0.00090085,0.00106681,0.00045127,0.00277668,-0.00
 088733,0.00023588,0.00010698,-0.00035990,0.00012629,0.00473519,-0.0173
 6287,0.01100620,-0.00020947,-0.00005269,-0.00014838,-0.00009405,-0.000
 00123,0.00006860,-0.06762031,0.04762577,-0.04096380,-0.00029399,0.0003
 1195,0.00150685,-0.00000170,-0.00000153,-0.00000568,0.00000330,0.00000
 353,-0.00000787,-0.00001225,-0.00000967,0.00000051,-0.00000698,-0.0000
 1077,0.00012241,-0.00001878,-0.00001446,0.00004944,-0.00214485,-0.0005
 6220,0.00167210,-0.00000979,0.00002569,-0.00002088,0.00007449,-0.00006
 211,0.00002130,0.00005882,-0.00000220,0.00000323,0.00000749,0.00000367
 ,-0.00000045,0.00002569,-0.00004809,-0.00000513,0.00001733,-0.00001163
 ,-0.00000532,0.00136577,-0.00558117,0.00525871,0.06967559,0.00001104,-
 0.00015731,-0.00007429,0.00007565,0.00004195,0.00002723,-0.00012434,0.
 00003456,-0.00000783,0.00007558,-0.00010489,-0.00018721,-0.00112315,-0
 .00023004,-0.00009797,0.00050928,0.00046537,0.00003437,-0.00031097,-0.
 00010206,0.00007749,0.00031017,0.00047272,0.00008742,-0.00110014,0.000
 67212,0.00030008,0.00714955,0.00001034,-0.00133098,-0.00008239,-0.0008
 6444,0.00011703,-0.00610140,-0.03780035,0.01029632,-0.00009599,0.00013
 056,-0.00033858,-0.00020734,0.00004555,0.00020099,0.04835389,-0.173551
 53,0.10747176,-0.00103800,0.00110598,0.00553076,0.00000039,-0.00001093
 ,0.00001275,-0.00001253,-0.00002246,0.00000037,-0.00002931,-0.00001638
 ,-0.00001140,0.00001738,0.00003511,0.00001465,-0.00009875,0.00002533,-
 0.00003768,-0.00021083,0.00066010,0.00016714,-0.00001317,-0.00003990,-
 0.00015360,0.00002626,0.00000716,-0.00002252,0.00002042,-0.00010945,0.
 00000470,-0.00000516,-0.00001212,-0.00000694,0.00004812,-0.00013678,-0
 .00000309,0.00002934,0.00000385,0.00000085,-0.00153093,0.00684950,-0.0
 0419508,-0.04785740,0.20548385,0.00003063,0.00005013,0.00004769,-0.000
 04269,-0.00003697,-0.00001530,0.00004199,0.00000321,0.00002172,0.00000
 043,-0.00007133,-0.00003595,0.00015162,-0.00004075,-0.00024936,-0.0002
 2187,-0.00004086,-0.00000025,0.00001275,0.00009502,0.00000909,-0.00017
 646,-0.00053905,-0.00013170,0.00016196,0.00140883,-0.00045938,-0.00090
 044,-0.00015645,0.00070958,0.00013908,-0.00006958,0.00019246,0.0063208
 0,-0.00566750,0.00779968,-0.00006422,-0.00023448,-0.00002449,0.0000374
 5,-0.00000256,0.00004165,-0.03984330,0.10563082,-0.14263359,0.00004629
 ,-0.00168853,0.00415529,-0.00000314,-0.00000815,-0.00000435,0.00000637
 ,0.00000544,-0.00000390,0.00000153,0.00000108,-0.00000078,-0.00003262,
 -0.00005083,0.00000600,0.00005353,0.00000928,-0.00001245,0.00032081,-0
 .00042535,-0.00004134,-0.00011149,-0.00016903,0.00003497,0.00008445,-0
 .00005875,-0.00000244,0.00001182,0.00006006,0.00002518,-0.00000058,0.0
 0000804,0.00000959,0.00000513,-0.00000309,-0.00001417,0.00001509,-0.00
 001498,-0.00000609,-0.00916792,0.02198950,-0.01768099,0.04299403,-0.11
 992395,0.14681693,0.00015663,-0.00003973,0.00004969,-0.00009149,-0.000
 00036,-0.00000783,0.00001211,-0.00004765,0.00000239,-0.00010584,-0.000
 08639,0.00011353,-0.00049829,0.00029132,-0.00008075,-0.00041966,0.0001
 1624,-0.00011007,-0.00018242,-0.00013893,-0.00001759,0.00023041,-0.000
 05807,-0.00015701,0.00005262,0.00009147,0.00018117,0.00096322,-0.00132
 239,-0.00255949,0.00039863,-0.00004423,0.00009392,-0.01907866,-0.00497
 169,0.00277182,-0.00022938,-0.00015649,-0.00006311,-0.00005377,0.00003
 716,0.00007225,-0.30189041,0.04421762,0.01966224,0.00084954,0.00106978
 ,0.00146106,-0.00000999,-0.00003156,0.00000157,0.00000122,-0.00001303,
 -0.00000548,-0.00001967,-0.00002126,-0.00000321,-0.00001673,-0.0000268
 8,0.00001719,-0.00004179,0.00001735,-0.00000018,0.00006167,-0.00025786
 ,0.00013862,-0.00003746,-0.00000332,-0.00006221,0.00003381,-0.00014711
 ,0.00006356,0.00005214,-0.00002395,0.00001620,-0.00001178,-0.00000720,
 0.00000338,0.00001734,-0.00002933,-0.00001509,0.00004390,-0.00002634,0
 .00000753,-0.00428350,0.00130539,0.00031860,-0.00814352,0.00278609,0.0
 0072345,0.33178183,0.00004480,-0.00007800,0.00001949,0.00003865,-0.000
 00473,0.00000610,-0.00006994,0.00008106,0.00000362,0.00008734,-0.00039
 549,0.00016086,-0.00140847,0.00011189,0.00027290,-0.00035367,0.0002897
 0,-0.00010946,-0.00008041,0.00011749,-0.00002718,-0.00003562,0.0004109
 9,0.00010645,0.00030483,-0.00109304,0.00021123,-0.00070811,-0.00421690
 ,-0.00347041,0.00027918,0.00008213,-0.00001703,-0.03753513,-0.00164490
 ,0.00274122,-0.00025908,-0.00000110,-0.00010743,0.00000169,-0.00003639
 ,0.00003268,0.05199898,-0.05512518,-0.00471970,-0.00183218,0.00110657,
 0.00082928,-0.00001219,-0.00001857,-0.00000605,0.00000476,-0.00000626,
 -0.00000121,-0.00001908,-0.00003087,-0.00000067,0.00002681,0.00005043,
 0.00001198,-0.00005491,-0.00000498,0.00001145,0.00035665,0.00079257,0.
 00000730,-0.00004254,0.00000494,-0.00002081,0.00017143,0.00000144,0.00
 002041,0.00010022,0.00004166,0.00001449,-0.00000193,0.00000006,0.00000
 830,0.00001164,0.00000385,-0.00001498,0.00002635,-0.00002717,0.0000010
 8,0.00667787,-0.00170223,0.00088461,0.02318057,-0.00368334,-0.00250242
 ,-0.04203122,0.06545103,-0.00017672,-0.00006749,-0.00003491,0.00012599
 ,-0.00006617,0.00000622,-0.00002851,0.00013357,-0.00000434,0.00031120,
 -0.00035679,-0.00001603,-0.00051927,-0.00041475,0.00031155,-0.00001204
 ,0.00018620,0.00002790,0.00007089,0.00044715,-0.00002841,-0.00046269,-
 0.00014058,0.00026234,0.00081255,-0.00001976,0.00065789,0.00029573,-0.
 00107546,-0.00053570,-0.00005220,-0.00000927,-0.00016975,-0.00861226,-
 0.00091779,0.00006408,0.00025416,0.00003829,0.00013854,-0.00001195,-0.
 00000522,0.00000377,0.02261799,-0.00389463,-0.05109579,-0.00180039,0.0
 0021442,0.00045022,-0.00000071,0.00000080,-0.00000338,0.00000044,-0.00
 000004,0.00000309,-0.00000217,-0.00000583,-0.00000424,0.00000169,0.000
 02041,-0.00002351,0.00000235,-0.00001508,0.00003442,0.00025156,0.00025
 234,-0.00052656,0.00007408,-0.00003282,0.00000420,-0.00014344,0.000062
 96,0.00002881,-0.00007611,-0.00002551,-0.00003099,-0.00000873,-0.00002
 472,-0.00001329,0.00000532,0.00000085,-0.00000609,-0.00000753,0.000001
 08,0.00001909,0.02920818,-0.00431137,0.00035928,-0.02061971,0.00440620
 ,0.00132640,-0.02161885,0.00552454,0.04872083,-0.00044142,-0.00011160,
 -0.00043805,0.00018149,-0.00016911,-0.00007071,-0.00001572,0.00023093,
 0.00008077,0.00016931,-0.00019369,-0.00006091,-0.00107780,-0.00010926,
 0.00123110,0.00146257,-0.00059981,0.00167560,-0.00006999,0.00035628,0.
 00000875,-0.00035379,-0.00018120,0.00009099,0.00044792,-0.00028153,-0.
 00002283,0.00040980,0.00154784,0.00092651,-0.00142421,-0.00072777,0.00
 163894,0.00506683,0.00993458,0.00401813,-0.00026508,-0.00010295,-0.000
 35825,-0.00013118,0.00032524,-0.00029928,-0.00084863,0.00084237,0.0018
 0027,-0.13910414,-0.12838838,-0.04456448,0.00003744,0.00004520,0.00001
 180,0.00000222,0.00000210,0.00001391,0.00000691,0.00000458,0.00003510,
 0.00000927,0.00000525,-0.00001489,0.00000429,-0.00000870,-0.00001009,0
 .00003271,0.00000182,-0.00004588,-0.00003813,0.00004809,0.00007072,0.0
 0009773,0.00000518,-0.00000842,0.00009011,0.00006872,0.00009638,0.0000
 7704,0.00025786,-0.00007048,-0.00000979,0.00001313,0.00011150,-0.00003
 742,0.00004252,-0.00007407,0.00066578,0.00040438,0.00033508,-0.0000111
 4,-0.00017036,-0.00002657,0.00053675,0.00003345,0.00005734,0.14680712,
 0.00019279,0.00020333,-0.00025145,-0.00031046,-0.00004254,-0.00011022,
 0.00016862,-0.00013114,0.00003695,0.00061957,-0.00000992,0.00008000,-0
 .00016686,0.00016033,0.00057063,-0.00106865,-0.00032621,0.00161817,0.0
 0003675,0.00025726,0.00001099,-0.00034160,-0.00008914,-0.00001718,0.00
 046160,-0.00050597,0.00001943,-0.00184160,0.00028469,0.00026512,-0.000
 12490,-0.00104161,0.00254141,-0.00442877,-0.01053406,-0.00416513,0.000
 07287,-0.00016290,0.00019929,0.00001763,0.00026107,0.00040794,0.001730
 81,0.00018195,-0.00236833,-0.12356763,-0.22030541,-0.06362427,-0.00000
 504,-0.00004557,0.00002319,0.00001177,0.00000955,0.00000372,-0.0000051
 4,-0.00001623,0.00000054,-0.00000179,0.00001841,-0.00001645,-0.0000027
 8,-0.00000862,-0.00001046,-0.00006086,0.00006711,-0.00001844,-0.000048
 10,-0.00001770,-0.00001775,0.00000576,-0.00001726,-0.00001351,0.000020
 58,0.00005776,0.00008306,-0.00004910,-0.00010606,-0.00034204,-0.000025
 58,-0.00004027,-0.00016895,0.00000331,0.00000497,-0.00003284,-0.000492
 28,-0.00040045,-0.00020024,-0.00003287,0.00027515,0.00014974,-0.000088
 96,0.00007888,0.00018325,0.13627072,0.23950177,0.00006529,-0.00007493,
 -0.00016499,-0.00005017,0.00012044,0.00005954,-0.00021113,-0.00013971,
 -0.00007369,0.00050128,-0.00001568,0.00008606,0.00016438,-0.00029150,-
 0.00012475,0.00191590,0.00117150,-0.00116312,0.00004766,0.00031203,0.0
 0000268,-0.00035102,-0.00009097,-0.00011759,0.00053271,-0.00010362,-0.
 00013505,-0.00259587,-0.00105743,0.00087841,-0.00048937,0.00046005,-0.
 00019876,-0.01693479,-0.02605974,-0.01180171,-0.00018315,-0.00024215,-
 0.00058954,-0.00021513,0.00056666,0.00011062,0.00291660,-0.00048385,-0
 .00493253,-0.03514187,-0.05361550,-0.06652349,0.00000588,-0.00000995,-
 0.00003027,-0.00003199,-0.00001617,0.00001039,-0.00001531,0.00000249,-
 0.00000727,-0.00001865,0.00002471,0.00003381,0.00001484,0.00000473,0.0
 0000459,-0.00009260,0.00008851,0.00000791,-0.00007069,-0.00001787,0.00
 010051,0.00012993,-0.00000248,0.00005331,0.00006505,0.00004883,0.00017
 228,-0.00003716,0.00007820,-0.00002708,0.00002087,-0.00015339,0.000034
 96,0.00006222,-0.00002080,0.00000421,-0.00063682,-0.00185260,-0.000318
 76,0.00010603,-0.00045450,0.00006160,0.00007568,0.00031113,0.00000443,
 0.03969158,0.06646859,0.07852040,0.00042240,0.00014938,0.00022625,-0.0
 0023569,0.00002524,0.00001496,0.00011172,-0.00015403,-0.00001798,0.000
 14876,0.00005352,0.00005985,0.00016396,0.00019918,-0.00005559,-0.00132
 390,0.00023003,-0.00035025,-0.00011672,-0.00004968,0.00002321,0.000080
 69,0.00022119,-0.00008826,-0.00061945,-0.00038233,0.00050360,0.0016187
 9,0.00287015,0.00052336,0.00156473,0.00042741,-0.00075831,-0.01042049,
 0.00114069,0.00712966,-0.00000770,-0.00019297,0.00052701,-0.00005897,-
 0.00023445,0.00018696,0.00016478,-0.00087647,-0.00081374,-0.28712920,0
 .07088275,-0.02120457,-0.00002302,-0.00005823,-0.00001366,0.00000524,-
 0.00000678,-0.00001039,-0.00001756,-0.00001580,-0.00001578,-0.00001370
 ,-0.00001050,0.00000262,-0.00009194,0.00001347,-0.00003977,0.00004804,
 0.00005437,0.00002059,0.00009772,-0.00000562,-0.00013000,-0.00017001,-
 0.00009059,0.00026728,-0.00004055,-0.00006207,-0.00003167,-0.00011332,
 -0.00011219,-0.00000222,0.00007452,-0.00002626,-0.00008443,0.00003390,
 -0.00017137,0.00014340,0.00051468,-0.00000698,0.00012818,-0.00019828,0
 .00035461,-0.00013820,0.00023152,0.00064293,0.00019772,-0.01497330,0.0
 0573009,-0.00195253,0.31242706,0.00026558,0.00015994,0.00022431,-0.000
 16689,0.00009594,-0.00000492,0.00000308,-0.00017940,-0.00003941,0.0002
 0979,0.00006398,0.00006322,-0.00017146,0.00015633,0.00033191,-0.000832
 17,0.00005876,-0.00023325,0.00002648,-0.00002779,0.00000386,0.00002231
 ,-0.00008567,0.00002236,0.00037491,0.00025150,-0.00001374,-0.00069952,
 -0.00164051,-0.00054593,0.00067813,0.00059309,-0.00073112,0.00988363,-
 0.00226435,-0.00546147,0.00003052,0.00001847,0.00018409,-0.00009598,-0
 .00016483,0.00005695,0.00199004,0.00076823,0.00053192,0.07010340,-0.06
 983221,0.00656844,-0.00001634,-0.00001811,-0.00000701,0.00000261,0.000
 00567,-0.00000459,0.00000138,-0.00000529,-0.00000996,0.00000197,0.0000
 0792,-0.00000192,0.00004310,0.00000343,-0.00002495,-0.00000025,-0.0000
 0732,0.00003053,-0.00000515,-0.00001731,-0.00000247,0.00009048,0.00001
 156,0.00004451,0.00000073,0.00003198,-0.00002150,-0.00005364,-0.000048
 90,-0.00004797,0.00006211,0.00000716,-0.00005876,0.00014705,0.00000156
 ,0.00006299,-0.00018175,0.00012343,0.00011047,-0.00006381,-0.00010063,
 0.00024638,-0.00055057,-0.00017669,-0.00026670,-0.02383091,0.00907068,
 -0.00120989,-0.08064134,0.06984232,-0.00013386,0.00000798,-0.00004642,
 0.00006396,0.00003305,0.00000667,-0.00002978,0.00000083,-0.00000629,0.
 00002269,0.00003433,0.00004604,-0.00006324,-0.00011144,0.00001006,0.00
 037636,-0.00010754,0.00004750,0.00008683,0.00000696,-0.00001382,0.0001
 3613,-0.00045205,0.00011061,0.00175728,0.00065135,-0.00040722,0.001243
 12,-0.00519070,-0.00277198,-0.00042825,-0.00033632,0.00008868,0.034773
 49,-0.00903321,-0.00658139,0.00039492,0.00002834,-0.00000883,0.0000506
 9,0.00016834,0.00000998,0.00189148,0.00121113,0.00068595,-0.02779135,0
 .00706380,-0.04779143,0.00001120,0.00002322,0.00000173,-0.00000823,0.0
 0000301,0.00000268,0.00001211,0.00001286,-0.00000332,0.00001228,0.0000
 1930,-0.00001206,0.00016424,-0.00000958,-0.00000239,-0.00005694,-0.000
 02572,-0.00009705,0.00000842,-0.00001357,0.00005335,-0.00026734,0.0000
 4457,-0.00018208,-0.00014326,-0.00002823,-0.00001238,-0.00004505,-0.00
 003544,-0.00001564,-0.00002130,-0.00002252,-0.00000244,-0.00006355,0.0
 0002040,0.00002881,0.00006148,0.00025999,0.00005511,-0.00048876,-0.000
 34564,-0.00025870,-0.00072665,-0.00006774,0.00027410,-0.00731320,0.003
 88564,-0.00091148,0.01697916,-0.00282519,0.05850379,-0.00001246,0.0000
 5797,-0.00000880,0.00005663,-0.00008766,0.00001617,0.00001288,0.000101
 76,0.00002871,0.00038770,-0.00027102,-0.00005920,-0.00054735,-0.000685
 51,-0.00013859,-0.00009420,0.00032740,0.00007383,-0.00011371,0.0003727
 7,0.00008862,-0.00036868,-0.00017057,-0.00019877,0.00022505,0.00064831
 ,-0.00068363,0.00347881,-0.00092936,0.00021183,0.00039413,0.00001451,0
 .00013062,0.00111374,-0.00811482,0.01311212,-0.00011668,-0.00020590,0.
 00036448,-0.00012867,-0.00005582,0.00003215,-0.00013806,-0.00051748,-0
 .00088681,-0.05578127,0.01832094,-0.01758566,-0.00000536,-0.00001933,-
 0.00002617,0.00000274,-0.00000075,0.00000142,-0.00000832,-0.00000734,0
 .00000742,-0.00000136,0.00000503,0.00002423,0.00001241,-0.00000749,0.0
 0002086,0.00005972,-0.00001080,0.00012874,0.00009013,-0.00002054,-0.00
 006508,-0.00004057,-0.00000074,0.00014329,0.00004886,-0.00005451,0.000
 03587,-0.00003236,0.00000640,-0.00001626,0.00005883,-0.00002039,-0.000
 01184,0.00005219,-0.00010021,0.00007612,-0.00018171,-0.00005242,0.0000
 5604,-0.00011846,0.00034441,-0.00042971,-0.00030896,0.00045635,-0.0001
 3392,0.00269645,-0.01267990,0.01271238,-0.00215469,0.02337249,-0.02046
 508,0.05146262,-0.00020332,-0.00007341,-0.00023289,0.00011406,-0.00000
 367,-0.00000908,-0.00013162,0.00002852,-0.00002216,0.00018282,-0.00005
 407,0.00007490,-0.00009336,-0.00013062,0.00051031,0.00142983,0.0001781
 0,0.00017288,-0.00003670,0.00017449,-0.00005529,-0.00020866,-0.0000273
 0,0.00016482,-0.00010997,-0.00062778,0.00067057,-0.00233995,0.00072302
 ,-0.00063922,-0.00119415,-0.00076660,0.00153769,-0.00010135,0.00929891
 ,-0.01097184,-0.00007305,-0.00013120,-0.00045069,-0.00021335,0.0005461
 6,0.00000402,-0.00027584,0.00408412,-0.00244867,0.01777050,-0.18367098
 ,0.11818690,0.00001433,0.00000983,0.00000622,-0.00002521,-0.00001752,0
 .00001577,-0.00001613,0.00000296,0.00001847,-0.00002034,0.00000754,-0.
 00000746,-0.00004158,0.00001374,0.00002534,0.00002584,0.00002492,-0.00
 010561,-0.00006872,0.00005777,0.00004879,0.00006205,0.00003199,-0.0000
 2821,0.00005450,0.00000767,0.00018234,0.00000280,0.00008116,-0.0000392
 3,0.00000223,-0.00010945,0.00006006,0.00002394,0.00004165,-0.00002550,
 -0.00003993,0.00019482,0.00016474,0.00079632,0.00062340,0.00204705,0.0
 0019211,-0.00037883,0.00017791,0.00443503,-0.01663186,0.01625490,0.000
 10264,-0.00670296,0.00512976,-0.02001578,0.19319549,-0.00004299,0.0003
 2265,0.00003961,-0.00005486,-0.00001449,-0.00001350,-0.00006868,0.0000
 3326,0.00000422,0.00002228,-0.00012006,0.00007668,0.00086233,0.0006834
 4,0.00011917,0.00059603,-0.00049419,0.00020657,0.00066357,0.00008896,-
 0.00007431,-0.00058406,0.00011390,0.00012163,0.00138783,-0.00142558,-0
 .00066953,-0.00832896,0.00057383,0.00034307,-0.00059220,-0.00044758,0.
 00070515,0.00913057,0.01186593,-0.03904751,0.00008664,-0.00013898,-0.0
 0037596,0.00000767,0.00007829,-0.00007089,0.00191247,0.00373668,0.0015
 6498,-0.01837391,0.11946901,-0.15257111,0.00001911,0.00002720,-0.00004
 514,-0.00000114,0.00002430,0.00000895,0.00001399,-0.00000010,0.0000215
 1,-0.00001435,0.00001764,-0.00001623,0.00004262,-0.00004219,0.00001788
 ,0.00004687,-0.00004602,-0.00009143,-0.00009638,0.00008287,0.00017241,
 0.00003168,-0.00002151,-0.00001237,-0.00003591,0.00018236,0.00006389,0
 .00002177,0.00007331,-0.00000865,-0.00000324,0.00000469,0.00002518,-0.
 00001620,0.00001449,-0.00003099,0.00013202,-0.00039004,0.00053746,-0.0
 0012006,-0.00155884,0.00031741,-0.00034632,-0.00011406,-0.00020419,0.0
 0148362,-0.00519041,0.00697437,-0.00122647,0.00302881,-0.00080015,0.01
 344464,-0.13041759,0.18271182\\0.00001611,0.00000731,-0.00000067,-0.00
 001507,-0.00000169,-0.00000552,-0.00000937,-0.00001415,-0.00000342,0.0
 0003884,0.00000070,0.00000025,-0.00003267,0.00000010,-0.00000010,0.000
 00423,-0.00001585,-0.00001208,-0.00000938,0.00001487,0.00000310,-0.000
 01639,0.00000137,0.00000640,0.00001485,-0.00000608,0.00000100,0.000002
 62,0.00001323,0.00001205,0.00000766,0.00000038,0.00001003,0.00000955,0
 .00000256,-0.00001197,-0.00000712,-0.00000748,-0.00001372,-0.00000607,
 0.00000601,-0.00001235,-0.00000392,-0.00000588,0.00001206,-0.00000692,
 0.00000702,0.00001590,0.00000219,-0.00000466,-0.00000450,-0.00000015,-
 0.00000401,-0.00000606,-0.00000346,0.00000292,-0.00000256,-0.00000306,
 -0.00000273,0.00000240,-0.00000061,0.00000392,0.00000544,0.00000210,0.
 00000333,0.00000408,-0.00000092,-0.00000153,0.00000322,0.00000489,0.00
 000083,0.00000267,0.00000247,-0.00000660,0.00000255,-0.00000158,-0.000
 00067,-0.00000629,-0.00000042,-0.00000479,-0.00000198,0.00000401,0.000
 00114,-0.00000522,-0.00000158,0.00000057,0.00000619,-0.00000031,0.0000
 0475,0.00000189,0.00000414,-0.00000054,0.00000524,-0.00000140,-0.00000
 009,-0.00000266,0.00000469,-0.00000094,-0.00000236,0.00000205,0.000006
 67,-0.00000298\\\@


 The arm of the moral universe is long, but it bends toward justice.
 -- Martin Luther King, Jr.
 Job cpu time:       1 days  7 hours 15 minutes 52.4 seconds.
 File lengths (MBytes):  RWF=   1323 Int=      0 D2E=      0 Chk=     39 Scr=      1
 Normal termination of Gaussian 09 at Fri Dec 20 03:02:50 2024.
