 Entering Gaussian System, Link 0=g09
 Input=B2PLYPD3SA.gjf
 Output=B2PLYPD3SA.log
 Initial command:
 /home/c612/g09E/g09/l1.exe "/mnt/ja_sm883/scratch/Gau-1863736.inp" -scrdir="/mnt/ja_sm883/scratch/"
 Default is to use a total of  18 processors:
                               18 via shared-memory
                                1 via Linda
 Entering Link 1 = /home/c612/g09E/g09/l1.exe PID=   1863738.
  
 Copyright (c) 1988,1990,1992,1993,1995,1998,2003,2009,2015,
            Gaussian, Inc.  All Rights Reserved.
  
 This is part of the Gaussian(R) 09 program.  It is based on
 the Gaussian(R) 03 system (copyright 2003, Gaussian, Inc.),
 the Gaussian(R) 98 system (copyright 1998, Gaussian, Inc.),
 the Gaussian(R) 94 system (copyright 1995, Gaussian, Inc.),
 the Gaussian 92(TM) system (copyright 1992, Gaussian, Inc.),
 the Gaussian 90(TM) system (copyright 1990, Gaussian, Inc.),
 the Gaussian 88(TM) system (copyright 1988, Gaussian, Inc.),
 the Gaussian 86(TM) system (copyright 1986, Carnegie Mellon
 University), and the Gaussian 82(TM) system (copyright 1983,
 Carnegie Mellon University). Gaussian is a federally registered
 trademark of Gaussian, Inc.
  
 This software contains proprietary and confidential information,
 including trade secrets, belonging to Gaussian, Inc.
  
 This software is provided under written license and may be
 used, copied, transmitted, or stored only in accord with that
 written license.
  
 The following legend is applicable only to US Government
 contracts under FAR:
  
                    RESTRICTED RIGHTS LEGEND
  
 Use, reproduction and disclosure by the US Government is
 subject to restrictions as set forth in subparagraphs (a)
 and (c) of the Commercial Computer Software - Restricted
 Rights clause in FAR 52.227-19.
  
 Gaussian, Inc.
 340 Quinnipiac St., Bldg. 40, Wallingford CT 06492
  
  
 ---------------------------------------------------------------
 Warning -- This program may not be used in any manner that
 competes with the business of Gaussian, Inc. or will provide
 assistance to any competitor of Gaussian, Inc.  The licensee
 of this program is prohibited from giving any competitor of
 Gaussian, Inc. access to this program.  By using this program,
 the user acknowledges that Gaussian, Inc. is engaged in the
 business of creating and licensing software in the field of
 computational chemistry and represents and warrants to the
 licensee that it is not a competitor of Gaussian, Inc. and that
 it will not use this program in any manner prohibited above.
 ---------------------------------------------------------------
  

 Cite this work as:
 Gaussian 09, Revision E.01,
 M. J. Frisch, G. W. Trucks, H. B. Schlegel, G. E. Scuseria, 
 M. A. Robb, J. R. Cheeseman, G. Scalmani, V. Barone, B. Mennucci, 
 G. A. Petersson, H. Nakatsuji, M. Caricato, X. Li, H. P. Hratchian, 
 A. F. Izmaylov, J. Bloino, G. Zheng, J. L. Sonnenberg, M. Hada, 
 M. Ehara, K. Toyota, R. Fukuda, J. Hasegawa, M. Ishida, T. Nakajima, 
 Y. Honda, O. Kitao, H. Nakai, T. Vreven, J. A. Montgomery, Jr., 
 J. E. Peralta, F. Ogliaro, M. Bearpark, J. J. Heyd, E. Brothers, 
 K. N. Kudin, V. N. Staroverov, T. Keith, R. Kobayashi, J. Normand, 
 K. Raghavachari, A. Rendell, J. C. Burant, S. S. Iyengar, J. Tomasi, 
 M. Cossi, N. Rega, J. M. Millam, M. Klene, J. E. Knox, J. B. Cross, 
 V. Bakken, C. Adamo, J. Jaramillo, R. Gomperts, R. E. Stratmann, 
 O. Yazyev, A. J. Austin, R. Cammi, C. Pomelli, J. W. Ochterski, 
 R. L. Martin, K. Morokuma, V. G. Zakrzewski, G. A. Voth, 
 P. Salvador, J. J. Dannenberg, S. Dapprich, A. D. Daniels, 
 O. Farkas, J. B. Foresman, J. V. Ortiz, J. Cioslowski, 
 and D. J. Fox, Gaussian, Inc., Wallingford CT, 2013.
 
 ******************************************
 Gaussian 09:  ES64L-G09RevE.01 30-Nov-2015
                17-Dec-2024 
 ******************************************
 %chk=B2PLYPD3SA.chk
 -----------------------------------------------------
 # opt freq B2PLYP/6-31+g(d,p) EmpiricalDispersion=GD3
 -----------------------------------------------------
 1/18=20,19=15,38=1/1,3;
 2/9=110,12=2,17=6,18=5,40=1/2;
 3/5=1,6=6,7=111,11=9,16=1,25=1,30=1,71=1,74=-47,124=31/1,2,3;
 4//1;
 5/5=2,38=5/2;
 8/6=4,10=2/1;
 9/15=2,16=-3/6;
 10/5=1/2;
 6/7=2,8=2,9=2,10=2/1;
 7/12=2/1,2,3,16;
 1/18=20,19=15/3(2);
 2/9=110/2;
 99//99;
 2/9=110/2;
 3/5=1,6=6,7=111,11=9,16=1,25=1,30=1,71=1,74=-47,124=31/1,2,3;
 4/5=5,16=3,69=1/1;
 5/5=2,38=5/2;
 8/6=4,10=2/1;
 9/15=2,16=-3/6;
 10/5=1/2;
 7/12=2/1,2,3,16;
 1/18=20,19=15/3(-8);
 2/9=110/2;
 6/7=2,8=2,9=2,10=2/1;
 99//99;
 ----------
 [No Title]
 ----------
 Symbolic Z-matrix:
 Charge =  0 Multiplicity = 1
 C                    -2.38817  -0.2068    0.00004 
 C                    -1.9102    1.11233   0.00001 
 C                    -0.53303   1.33741  0. 
 C                     0.3807    0.26902  -0.00002 
 C                    -0.10406  -1.05127  -0.00003 
 C                    -1.47319  -1.27464   0.00001 
 O                    -3.71822  -0.43932   0.00008 
 O                    -2.86106   2.07846   0.00002 
 C                    -2.43659   3.42879  -0.00004 
 O                    -2.08454  -2.49822  -0.00001 
 C                    -1.26955  -3.65833  -0.00006 
 C                     1.80028   0.58453  -0.00002 
 C                     2.84409  -0.27058   0.00002 
 C                     4.21548   0.24749   0.00001 
 O                     5.12985  -0.75782   0.00006 
 O                     4.55218   1.41826  -0.00004 
 H                    -0.14816   2.35102   0.00003 
 H                     0.58695  -1.88514  -0.0001 
 H                    -3.84306  -1.40037   0.00001 
 H                    -3.3493    4.02576  -0.0001 
 H                    -1.84907   3.66499   0.89628 
 H                    -1.84902   3.66489  -0.89635 
 H                    -0.63975  -3.69766  -0.89687 
 H                    -0.63968  -3.69769   0.89671 
 H                    -1.95453  -4.50679  -0.00005 
 H                     2.05293   1.64471  -0.00005 
 H                     2.73125  -1.34984   0.00008 
 H                     6.00131  -0.33253   0.00004 
 

 GradGradGradGradGradGradGradGradGradGradGradGradGradGradGradGradGradGrad
 Berny optimization.
 Initialization pass.
                           ----------------------------
                           !    Initial Parameters    !
                           ! (Angstroms and Degrees)  !
 --------------------------                            --------------------------
 ! Name  Definition              Value          Derivative Info.                !
 --------------------------------------------------------------------------------
 ! R1    R(1,2)                  1.4031         estimate D2E/DX2                !
 ! R2    R(1,6)                  1.4062         estimate D2E/DX2                !
 ! R3    R(1,7)                  1.3502         estimate D2E/DX2                !
 ! R4    R(2,3)                  1.3954         estimate D2E/DX2                !
 ! R5    R(2,8)                  1.3556         estimate D2E/DX2                !
 ! R6    R(3,4)                  1.4058         estimate D2E/DX2                !
 ! R7    R(3,17)                 1.0842         estimate D2E/DX2                !
 ! R8    R(4,5)                  1.4065         estimate D2E/DX2                !
 ! R9    R(4,12)                 1.4542         estimate D2E/DX2                !
 ! R10   R(5,6)                  1.3872         estimate D2E/DX2                !
 ! R11   R(5,18)                 1.083          estimate D2E/DX2                !
 ! R12   R(6,10)                 1.3678         estimate D2E/DX2                !
 ! R13   R(7,19)                 0.9691         estimate D2E/DX2                !
 ! R14   R(8,9)                  1.4155         estimate D2E/DX2                !
 ! R15   R(9,20)                 1.0906         estimate D2E/DX2                !
 ! R16   R(9,21)                 1.0974         estimate D2E/DX2                !
 ! R17   R(9,22)                 1.0974         estimate D2E/DX2                !
 ! R18   R(10,11)                1.4178         estimate D2E/DX2                !
 ! R19   R(11,23)                1.0966         estimate D2E/DX2                !
 ! R20   R(11,24)                1.0966         estimate D2E/DX2                !
 ! R21   R(11,25)                1.0905         estimate D2E/DX2                !
 ! R22   R(12,13)                1.3494         estimate D2E/DX2                !
 ! R23   R(12,26)                1.0899         estimate D2E/DX2                !
 ! R24   R(13,14)                1.466          estimate D2E/DX2                !
 ! R25   R(13,27)                1.0851         estimate D2E/DX2                !
 ! R26   R(14,15)                1.3589         estimate D2E/DX2                !
 ! R27   R(14,16)                1.2182         estimate D2E/DX2                !
 ! R28   R(15,28)                0.9697         estimate D2E/DX2                !
 ! A1    A(2,1,6)              119.4911         estimate D2E/DX2                !
 ! A2    A(2,1,7)              119.8339         estimate D2E/DX2                !
 ! A3    A(6,1,7)              120.6751         estimate D2E/DX2                !
 ! A4    A(1,2,3)              119.1997         estimate D2E/DX2                !
 ! A5    A(1,2,8)              115.5386         estimate D2E/DX2                !
 ! A6    A(3,2,8)              125.2617         estimate D2E/DX2                !
 ! A7    A(2,3,4)              121.2562         estimate D2E/DX2                !
 ! A8    A(2,3,17)             120.0743         estimate D2E/DX2                !
 ! A9    A(4,3,17)             118.6695         estimate D2E/DX2                !
 ! A10   A(3,4,5)              119.3003         estimate D2E/DX2                !
 ! A11   A(3,4,12)             118.0075         estimate D2E/DX2                !
 ! A12   A(5,4,12)             122.6922         estimate D2E/DX2                !
 ! A13   A(4,5,6)              119.4276         estimate D2E/DX2                !
 ! A14   A(4,5,18)             120.1914         estimate D2E/DX2                !
 ! A15   A(6,5,18)             120.3811         estimate D2E/DX2                !
 ! A16   A(1,6,5)              121.3251         estimate D2E/DX2                !
 ! A17   A(1,6,10)             112.8603         estimate D2E/DX2                !
 ! A18   A(5,6,10)             125.8146         estimate D2E/DX2                !
 ! A19   A(1,7,19)             107.3173         estimate D2E/DX2                !
 ! A20   A(2,8,9)              118.0057         estimate D2E/DX2                !
 ! A21   A(8,9,20)             105.737          estimate D2E/DX2                !
 ! A22   A(8,9,21)             111.459          estimate D2E/DX2                !
 ! A23   A(8,9,22)             111.4588         estimate D2E/DX2                !
 ! A24   A(20,9,21)            109.2845         estimate D2E/DX2                !
 ! A25   A(20,9,22)            109.2846         estimate D2E/DX2                !
 ! A26   A(21,9,22)            109.5195         estimate D2E/DX2                !
 ! A27   A(6,10,11)            118.3631         estimate D2E/DX2                !
 ! A28   A(10,11,23)           111.0712         estimate D2E/DX2                !
 ! A29   A(10,11,24)           111.0712         estimate D2E/DX2                !
 ! A30   A(10,11,25)           105.9966         estimate D2E/DX2                !
 ! A31   A(23,11,24)           109.7327         estimate D2E/DX2                !
 ! A32   A(23,11,25)           109.4433         estimate D2E/DX2                !
 ! A33   A(24,11,25)           109.4441         estimate D2E/DX2                !
 ! A34   A(4,12,13)            128.144          estimate D2E/DX2                !
 ! A35   A(4,12,26)            115.9351         estimate D2E/DX2                !
 ! A36   A(13,12,26)           115.9208         estimate D2E/DX2                !
 ! A37   A(12,13,14)           119.9796         estimate D2E/DX2                !
 ! A38   A(12,13,27)           123.3565         estimate D2E/DX2                !
 ! A39   A(14,13,27)           116.6639         estimate D2E/DX2                !
 ! A40   A(13,14,15)           111.5923         estimate D2E/DX2                !
 ! A41   A(13,14,16)           126.7397         estimate D2E/DX2                !
 ! A42   A(15,14,16)           121.668          estimate D2E/DX2                !
 ! A43   A(14,15,28)           106.2744         estimate D2E/DX2                !
 ! D1    D(6,1,2,3)             -0.0016         estimate D2E/DX2                !
 ! D2    D(6,1,2,8)            179.9993         estimate D2E/DX2                !
 ! D3    D(7,1,2,3)            179.9986         estimate D2E/DX2                !
 ! D4    D(7,1,2,8)             -0.0006         estimate D2E/DX2                !
 ! D5    D(2,1,6,5)              0.0003         estimate D2E/DX2                !
 ! D6    D(2,1,6,10)          -179.9978         estimate D2E/DX2                !
 ! D7    D(7,1,6,5)           -179.9998         estimate D2E/DX2                !
 ! D8    D(7,1,6,10)             0.0021         estimate D2E/DX2                !
 ! D9    D(2,1,7,19)           179.9951         estimate D2E/DX2                !
 ! D10   D(6,1,7,19)            -0.0048         estimate D2E/DX2                !
 ! D11   D(1,2,3,4)              0.0014         estimate D2E/DX2                !
 ! D12   D(1,2,3,17)          -179.997          estimate D2E/DX2                !
 ! D13   D(8,2,3,4)           -179.9996         estimate D2E/DX2                !
 ! D14   D(8,2,3,17)             0.0021         estimate D2E/DX2                !
 ! D15   D(1,2,8,9)           -179.9984         estimate D2E/DX2                !
 ! D16   D(3,2,8,9)              0.0025         estimate D2E/DX2                !
 ! D17   D(2,3,4,5)              0.0001         estimate D2E/DX2                !
 ! D18   D(2,3,4,12)          -179.9994         estimate D2E/DX2                !
 ! D19   D(17,3,4,5)           179.9985         estimate D2E/DX2                !
 ! D20   D(17,3,4,12)           -0.001          estimate D2E/DX2                !
 ! D21   D(3,4,5,6)             -0.0013         estimate D2E/DX2                !
 ! D22   D(3,4,5,18)           179.9962         estimate D2E/DX2                !
 ! D23   D(12,4,5,6)           179.9981         estimate D2E/DX2                !
 ! D24   D(12,4,5,18)           -0.0044         estimate D2E/DX2                !
 ! D25   D(3,4,12,13)          179.9968         estimate D2E/DX2                !
 ! D26   D(3,4,12,26)           -0.0027         estimate D2E/DX2                !
 ! D27   D(5,4,12,13)           -0.0027         estimate D2E/DX2                !
 ! D28   D(5,4,12,26)          179.9978         estimate D2E/DX2                !
 ! D29   D(4,5,6,1)              0.0011         estimate D2E/DX2                !
 ! D30   D(4,5,6,10)           179.999          estimate D2E/DX2                !
 ! D31   D(18,5,6,1)          -179.9964         estimate D2E/DX2                !
 ! D32   D(18,5,6,10)            0.0015         estimate D2E/DX2                !
 ! D33   D(1,6,10,11)          179.999          estimate D2E/DX2                !
 ! D34   D(5,6,10,11)            0.0009         estimate D2E/DX2                !
 ! D35   D(2,8,9,20)           179.9959         estimate D2E/DX2                !
 ! D36   D(2,8,9,21)           -61.355          estimate D2E/DX2                !
 ! D37   D(2,8,9,22)            61.3469         estimate D2E/DX2                !
 ! D38   D(6,10,11,23)         -61.2141         estimate D2E/DX2                !
 ! D39   D(6,10,11,24)          61.2114         estimate D2E/DX2                !
 ! D40   D(6,10,11,25)         179.9992         estimate D2E/DX2                !
 ! D41   D(4,12,13,14)        -180.0            estimate D2E/DX2                !
 ! D42   D(4,12,13,27)          -0.0008         estimate D2E/DX2                !
 ! D43   D(26,12,13,14)         -0.0005         estimate D2E/DX2                !
 ! D44   D(26,12,13,27)        179.9987         estimate D2E/DX2                !
 ! D45   D(12,13,14,15)       -179.9997         estimate D2E/DX2                !
 ! D46   D(12,13,14,16)         -0.0005         estimate D2E/DX2                !
 ! D47   D(27,13,14,15)          0.0011         estimate D2E/DX2                !
 ! D48   D(27,13,14,16)       -179.9998         estimate D2E/DX2                !
 ! D49   D(13,14,15,28)        179.9996         estimate D2E/DX2                !
 ! D50   D(16,14,15,28)          0.0004         estimate D2E/DX2                !
 --------------------------------------------------------------------------------
 Trust Radius=3.00D-01 FncErr=1.00D-07 GrdErr=1.00D-07
 Number of steps in this run=    131 maximum allowed number of steps=    168.
 GradGradGradGradGradGradGradGradGradGradGradGradGradGradGradGradGradGrad

                          Input orientation:                          
 ---------------------------------------------------------------------
 Center     Atomic      Atomic             Coordinates (Angstroms)
 Number     Number       Type             X           Y           Z
 ---------------------------------------------------------------------
      1          6           0       -2.388170   -0.206797    0.000035
      2          6           0       -1.910195    1.112333    0.000010
      3          6           0       -0.533033    1.337412   -0.000004
      4          6           0        0.380699    0.269019   -0.000022
      5          6           0       -0.104059   -1.051265   -0.000028
      6          6           0       -1.473194   -1.274642    0.000012
      7          8           0       -3.718223   -0.439319    0.000078
      8          8           0       -2.861061    2.078459    0.000019
      9          6           0       -2.436589    3.428789   -0.000041
     10          8           0       -2.084538   -2.498224   -0.000008
     11          6           0       -1.269547   -3.658330   -0.000055
     12          6           0        1.800277    0.584534   -0.000022
     13          6           0        2.844090   -0.270582    0.000022
     14          6           0        4.215479    0.247493    0.000014
     15          8           0        5.129845   -0.757822    0.000056
     16          8           0        4.552176    1.418264   -0.000039
     17          1           0       -0.148160    2.351016    0.000026
     18          1           0        0.586946   -1.885143   -0.000104
     19          1           0       -3.843058   -1.400372    0.000010
     20          1           0       -3.349295    4.025761   -0.000097
     21          1           0       -1.849071    3.664993    0.896278
     22          1           0       -1.849024    3.664894   -0.896354
     23          1           0       -0.639749   -3.697661   -0.896868
     24          1           0       -0.639680   -3.697685    0.896706
     25          1           0       -1.954532   -4.506792   -0.000049
     26          1           0        2.052931    1.644712   -0.000054
     27          1           0        2.731252   -1.349843    0.000077
     28          1           0        6.001311   -0.332533    0.000041
 ---------------------------------------------------------------------
                    Distance matrix (angstroms):
                    1          2          3          4          5
     1  C    0.000000
     2  C    1.403055   0.000000
     3  C    2.413735   1.395434   0.000000
     4  C    2.809455   2.441183   1.405834   0.000000
     5  C    2.435219   2.818383   2.426890   1.406464   0.000000
     6  C    1.406227   2.426648   2.776100   2.412428   1.387238
     7  O    1.350225   2.382559   3.647219   4.159676   3.665605
     8  O    2.333671   1.355561   2.443126   3.712557   4.170879
     9  C    3.635908   2.375512   2.827964   4.233351   5.050899
    10  O    2.311456   3.614764   4.137544   3.706080   2.452751
    11  C    3.628277   4.813487   5.049742   4.259974   2.855722
    12  C    4.262545   3.747823   2.451767   1.454218   2.510445
    13  C    5.232649   4.951331   3.740402   2.521798   3.049762
    14  C    6.619257   6.186423   4.871990   3.834840   4.510563
    15  O    7.538181   7.284205   6.038062   4.858888   5.242124
    16  O    7.128059   6.469608   5.085852   4.326891   5.270588
    17  H    3.400008   2.153858   1.084214   2.148116   3.402567
    18  H    3.415869   3.901356   3.411629   2.164013   1.082978
    19  H    1.881840   3.170118   4.295547   4.541695   3.755262
    20  H    4.340312   3.249473   3.893399   5.293956   6.025591
    21  H    4.010566   2.706124   2.820091   4.160273   5.107986
    22  H    4.010509   2.706063   2.820009   4.160173   5.107882
    23  H    4.005938   5.055142   5.115439   4.192875   2.845118
    24  H    4.005937   5.055150   5.115434   4.192855   2.845094
    25  H    4.321805   5.619300   6.014597   5.316171   3.919811
    26  H    4.811597   3.998724   2.604159   2.165385   3.452665
    27  H    5.245478   5.254079   4.228108   2.854087   2.850989
    28  H    8.390423   8.042361   6.744358   5.652711   6.147529
                    6          7          8          9         10
     6  C    0.000000
     7  O    2.395396   0.000000
     8  O    3.628975   2.659687   0.000000
     9  C    4.801082   4.074904   1.415474   0.000000
    10  O    1.367806   2.628311   4.642092   5.937459   0.000000
    11  C    2.392371   4.044508   5.953458   7.182565   1.417765
    12  C    3.764591   5.612675   4.894883   5.103021   4.959353
    13  C    4.432502   6.564482   6.169825   6.447551   5.408675
    14  C    5.888794   7.963375   7.309573   7.373646   6.872349
    15  O    6.623234   8.853799   8.479332   8.647464   7.421342
    16  O    6.599760   8.476445   7.442576   7.272211   7.706157
    17  H    3.860196   4.531150   2.726558   2.529526   5.221560
    18  H    2.148695   4.541463   5.253465   6.113889   2.740930
    19  H    2.373197   0.969127   3.614773   5.029806   2.073083
    20  H    5.622635   4.480295   2.007575   1.090600   6.645449
    21  H    5.034339   4.598074   2.084345   1.097432   6.232497
    22  H    5.034256   4.598050   2.084341   1.097431   6.232409
    23  H    2.714783   4.571467   6.253175   7.404000   2.080967
    24  H    2.714764   4.571468   6.253193   7.404031   2.080965
    25  H    3.267794   4.433390   6.647355   7.950209   2.012771
    26  H    4.577793   6.135911   4.933098   4.831017   5.855132
    27  H    4.205118   6.513431   6.559514   7.038601   4.950819
    28  H    7.533644   9.720121   9.184472   9.238274   8.370852
                   11         12         13         14         15
    11  C    0.000000
    12  C    5.236957   0.000000
    13  C    5.329057   1.349359   0.000000
    14  C    6.733570   2.438606   1.465984   0.000000
    15  O    7.026035   3.589978   2.337109   1.358942   0.000000
    16  O    7.724265   2.875422   2.402032   1.218224   2.251455
    17  H    6.113080   2.629993   3.978233   4.844188   6.125538
    18  H    2.567247   2.751632   2.775159   4.208846   4.680682
    19  H    3.423643   5.982230   6.781915   8.225295   8.995880
    20  H    7.960566   6.193556   7.537677   8.455833   9.735424
    21  H    7.400697   4.859045   6.190136   7.018644   8.310823
    22  H    7.400592   4.858953   6.190055   7.018568   8.310751
    23  H    1.096570   5.009516   4.968543   6.319959   6.537227
    24  H    1.096568   5.009482   4.968474   6.319894   6.537140
    25  H    1.090455   6.326151   6.400957   7.789240   8.015184
    26  H    6.257884   1.089868   2.072265   2.574652   3.903789
    27  H    4.619037   2.146748   1.085144   2.180461   2.470574
    28  H    7.995393   4.299965   3.157829   1.877665   0.969703
                   16         17         18         19         20
    16  O    0.000000
    17  H    4.791992   0.000000
    18  H    5.160964   4.299468   0.000000
    19  H    8.855770   5.265471   4.456449   0.000000
    20  H    8.320594   3.612760   7.101604   5.448552   0.000000
    21  H    6.843036   2.328712   6.127127   5.516992   1.784465
    22  H    6.842959   2.328671   6.127000   5.516934   1.784465
    23  H    7.343914   6.134539   2.365204   4.042662   8.233899
    24  H    7.343872   6.134526   2.365204   4.042690   8.233947
    25  H    8.800201   7.091721   3.651322   3.635433   8.645798
    26  H    2.509483   2.311637   3.822171   6.635904   5.903680
    27  H    3.313334   4.689069   2.210112   6.574504   8.116044
    28  H    2.272726   6.709503   5.632579   9.902115  10.316422
                   21         22         23         24         25
    21  H    0.000000
    22  H    1.792632   0.000000
    23  H    7.673754   7.461204   0.000000
    24  H    7.461344   7.673666   1.793574   0.000000
    25  H    8.221472   8.221371   1.785394   1.785402   0.000000
    26  H    4.484481   4.484389   6.049442   6.049425   7.341714
    27  H    6.850629   6.850555   4.204808   4.204698   5.650035
    28  H    8.855052   8.854982   7.498814   7.498734   8.984424
                   26         27         28
    26  H    0.000000
    27  H    3.070420   0.000000
    28  H    4.415790   3.424647   0.000000
 Stoichiometry    C11H12O5
 Framework group  C1[X(C11H12O5)]
 Deg. of freedom    78
 Full point group                 C1      NOp   1
 Largest Abelian subgroup         C1      NOp   1
 Largest concise Abelian subgroup C1      NOp   1
                         Standard orientation:                         
 ---------------------------------------------------------------------
 Center     Atomic      Atomic             Coordinates (Angstroms)
 Number     Number       Type             X           Y           Z
 ---------------------------------------------------------------------
      1          6           0       -2.388170    0.206797   -0.000035
      2          6           0       -1.910195   -1.112333   -0.000010
      3          6           0       -0.533033   -1.337412    0.000004
      4          6           0        0.380699   -0.269019    0.000022
      5          6           0       -0.104059    1.051265    0.000028
      6          6           0       -1.473194    1.274642   -0.000012
      7          8           0       -3.718223    0.439319   -0.000078
      8          8           0       -2.861061   -2.078459   -0.000019
      9          6           0       -2.436589   -3.428789    0.000041
     10          8           0       -2.084538    2.498224    0.000008
     11          6           0       -1.269547    3.658330    0.000055
     12          6           0        1.800277   -0.584534    0.000022
     13          6           0        2.844090    0.270582   -0.000022
     14          6           0        4.215479   -0.247493   -0.000014
     15          8           0        5.129845    0.757822   -0.000056
     16          8           0        4.552176   -1.418264    0.000039
     17          1           0       -0.148160   -2.351016   -0.000026
     18          1           0        0.586946    1.885143    0.000104
     19          1           0       -3.843058    1.400372   -0.000010
     20          1           0       -3.349295   -4.025761    0.000097
     21          1           0       -1.849071   -3.664993   -0.896278
     22          1           0       -1.849024   -3.664894    0.896354
     23          1           0       -0.639749    3.697661    0.896868
     24          1           0       -0.639680    3.697685   -0.896706
     25          1           0       -1.954532    4.506792    0.000049
     26          1           0        2.052931   -1.644712    0.000054
     27          1           0        2.731252    1.349843   -0.000077
     28          1           0        6.001311    0.332533   -0.000041
 ---------------------------------------------------------------------
 Rotational constants (GHZ):      0.7203599      0.2736549      0.1988226
 Standard basis: 6-31+G(d,p) (6D, 7F)
 There are   364 symmetry adapted cartesian basis functions of A   symmetry.
 There are   364 symmetry adapted basis functions of A   symmetry.
   364 basis functions,   596 primitive gaussians,   364 cartesian basis functions
    59 alpha electrons       59 beta electrons
       nuclear repulsion energy      1054.9051199974 Hartrees.
 NAtoms=   28 NActive=   28 NUniq=   28 SFac= 1.00D+00 NAtFMM=   60 NAOKFM=F Big=F
 Integral buffers will be    131072 words long.
 Regular integral format.
 Two-electron integral symmetry is turned on.
 Nuclear repulsion after empirical dispersion term =     1054.8915708007 Hartrees.
 One-electron integrals computed using PRISM.
 NBasis=   364 RedAO= T EigKep=  1.45D-06  NBF=   364
 NBsUse=   362 1.00D-06 EigRej=  8.61D-07 NBFU=   362
 ExpMin= 4.38D-02 ExpMax= 5.48D+03 ExpMxC= 8.25D+02 IAcc=2 IRadAn=         4 AccDes= 0.00D+00
 Harris functional with IExCor=  419 and IRadAn=       4 diagonalized for initial guess.
 HarFok:  IExCor=  419 AccDes= 0.00D+00 IRadAn=         4 IDoV= 1 UseB2=F ITyADJ=14
 ICtDFT=  3500011 ScaDFX=  1.000000  1.000000  1.000000  1.000000
 FoFCou: FMM=F IPFlag=           0 FMFlag=      100000 FMFlg1=           0
         NFxFlg=           0 DoJE=T BraDBF=F KetDBF=T FulRan=T
         wScrn=  0.000000 ICntrl=     500 IOpCl=  0 I1Cent=   200000004 NGrid=           0
         NMat0=    1 NMatS0=      1 NMatT0=    0 NMatD0=    1 NMtDS0=    0 NMtDT0=    0
 Petite list used in FoFCou.
 Requested convergence on RMS density matrix=1.00D-08 within 128 cycles.
 Requested convergence on MAX density matrix=1.00D-06.
 Requested convergence on             energy=1.00D-06.
 No special actions if energy rises.
 SCF Done:  E(RB2PLYP) =  -800.986412543     A.U. after   16 cycles
            NFock= 16  Conv=0.21D-08     -V/T= 2.0067
 DoSCS=T DFT=T ScalE2(SS,OS)=  0.270000  0.270000
 ExpMin= 4.38D-02 ExpMax= 5.48D+03 ExpMxC= 8.25D+02 IAcc=3 IRadAn=         5 AccDes= 0.00D+00
 HarFok:  IExCor=  205 AccDes= 0.00D+00 IRadAn=         5 IDoV=-2 UseB2=F ITyADJ=14
 ICtDFT= 12500011 ScaDFX=  1.000000  1.000000  1.000000  1.000000
 Range of M.O.s used for correlation:    17   362
 NBasis=   364 NAE=    59 NBE=    59 NFC=    16 NFV=     0
 NROrb=    346 NOA=    43 NOB=    43 NVA=   303 NVB=   303

 **** Warning!!: The largest alpha MO coefficient is  0.21016755D+03

 DoSCS=T DFT=T ScalE2(SS,OS)=  0.270000  0.270000
 Fully direct method using O(ONN) memory.
 JobTyp=1 Pass  1:  I=  17 to  17 NPSUse= 18 ParTrn=T ParDer=T DoDerP=T.
 JobTyp=1 Pass  2:  I=  18 to  18 NPSUse= 18 ParTrn=T ParDer=T DoDerP=T.
 JobTyp=1 Pass  3:  I=  19 to  19 NPSUse= 18 ParTrn=T ParDer=T DoDerP=T.
 JobTyp=1 Pass  4:  I=  20 to  20 NPSUse= 18 ParTrn=T ParDer=T DoDerP=T.
 JobTyp=1 Pass  5:  I=  21 to  21 NPSUse= 18 ParTrn=T ParDer=T DoDerP=T.
 JobTyp=1 Pass  6:  I=  22 to  22 NPSUse= 18 ParTrn=T ParDer=T DoDerP=T.
 JobTyp=1 Pass  7:  I=  23 to  23 NPSUse= 18 ParTrn=T ParDer=T DoDerP=T.
 JobTyp=1 Pass  8:  I=  24 to  24 NPSUse= 18 ParTrn=T ParDer=T DoDerP=T.
 JobTyp=1 Pass  9:  I=  25 to  25 NPSUse= 18 ParTrn=T ParDer=T DoDerP=T.
 JobTyp=1 Pass 10:  I=  26 to  26 NPSUse= 18 ParTrn=T ParDer=T DoDerP=T.
 JobTyp=1 Pass 11:  I=  27 to  27 NPSUse= 18 ParTrn=T ParDer=T DoDerP=T.
 JobTyp=1 Pass 12:  I=  28 to  28 NPSUse= 18 ParTrn=T ParDer=T DoDerP=T.
 JobTyp=1 Pass 13:  I=  29 to  29 NPSUse= 18 ParTrn=T ParDer=T DoDerP=T.
 JobTyp=1 Pass 14:  I=  30 to  30 NPSUse= 18 ParTrn=T ParDer=T DoDerP=T.
 JobTyp=1 Pass 15:  I=  31 to  31 NPSUse= 18 ParTrn=T ParDer=T DoDerP=T.
 JobTyp=1 Pass 16:  I=  32 to  32 NPSUse= 18 ParTrn=T ParDer=T DoDerP=T.
 JobTyp=1 Pass 17:  I=  33 to  33 NPSUse= 18 ParTrn=T ParDer=T DoDerP=T.
 JobTyp=1 Pass 18:  I=  34 to  34 NPSUse= 18 ParTrn=T ParDer=T DoDerP=T.
 JobTyp=1 Pass 19:  I=  35 to  35 NPSUse= 18 ParTrn=T ParDer=T DoDerP=T.
 JobTyp=1 Pass 20:  I=  36 to  36 NPSUse= 18 ParTrn=T ParDer=T DoDerP=T.
 JobTyp=1 Pass 21:  I=  37 to  37 NPSUse= 18 ParTrn=T ParDer=T DoDerP=T.
 JobTyp=1 Pass 22:  I=  38 to  38 NPSUse= 18 ParTrn=T ParDer=T DoDerP=T.
 JobTyp=1 Pass 23:  I=  39 to  39 NPSUse= 18 ParTrn=T ParDer=T DoDerP=T.
 JobTyp=1 Pass 24:  I=  40 to  40 NPSUse= 18 ParTrn=T ParDer=T DoDerP=T.
 JobTyp=1 Pass 25:  I=  41 to  41 NPSUse= 18 ParTrn=T ParDer=T DoDerP=T.
 JobTyp=1 Pass 26:  I=  42 to  42 NPSUse= 18 ParTrn=T ParDer=T DoDerP=T.
 JobTyp=1 Pass 27:  I=  43 to  43 NPSUse= 18 ParTrn=T ParDer=T DoDerP=T.
 JobTyp=1 Pass 28:  I=  44 to  44 NPSUse= 18 ParTrn=T ParDer=T DoDerP=T.
 JobTyp=1 Pass 29:  I=  45 to  45 NPSUse= 18 ParTrn=T ParDer=T DoDerP=T.
 JobTyp=1 Pass 30:  I=  46 to  46 NPSUse= 18 ParTrn=T ParDer=T DoDerP=T.
 JobTyp=1 Pass 31:  I=  47 to  47 NPSUse= 18 ParTrn=T ParDer=T DoDerP=T.
 JobTyp=1 Pass 32:  I=  48 to  48 NPSUse= 18 ParTrn=T ParDer=T DoDerP=T.
 JobTyp=1 Pass 33:  I=  49 to  49 NPSUse= 18 ParTrn=T ParDer=T DoDerP=T.
 JobTyp=1 Pass 34:  I=  50 to  50 NPSUse= 18 ParTrn=T ParDer=T DoDerP=T.
 JobTyp=1 Pass 35:  I=  51 to  51 NPSUse= 18 ParTrn=T ParDer=T DoDerP=T.
 JobTyp=1 Pass 36:  I=  52 to  52 NPSUse= 18 ParTrn=T ParDer=T DoDerP=T.
 JobTyp=1 Pass 37:  I=  53 to  53 NPSUse= 18 ParTrn=T ParDer=T DoDerP=T.
 JobTyp=1 Pass 38:  I=  54 to  54 NPSUse= 18 ParTrn=T ParDer=T DoDerP=T.
 JobTyp=1 Pass 39:  I=  55 to  55 NPSUse= 18 ParTrn=T ParDer=T DoDerP=T.
 JobTyp=1 Pass 40:  I=  56 to  56 NPSUse= 18 ParTrn=T ParDer=T DoDerP=T.
 JobTyp=1 Pass 41:  I=  57 to  57 NPSUse= 18 ParTrn=T ParDer=T DoDerP=T.
 JobTyp=1 Pass 42:  I=  58 to  58 NPSUse= 18 ParTrn=T ParDer=T DoDerP=T.
 JobTyp=1 Pass 43:  I=  59 to  59 NPSUse= 18 ParTrn=T ParDer=T DoDerP=T.
 Spin components of T(2) and E(2):
     alpha-alpha T2 =       0.1694608095D+00 E2=     -0.1069750821D+00
     alpha-beta  T2 =       0.8853694407D+00 E2=     -0.5799222490D+00
     beta-beta   T2 =       0.1694608095D+00 E2=     -0.1069750821D+00
 E2(B2PLYP) =    -0.7938724133D+00 E(B2PLYP) =    -0.80178028495628D+03
          IDoAtm=1111111111111111111111111111
          Differentiating once with respect to electric field.
                with respect to dipole field.
          Differentiating once with respect to nuclear coordinates.
          There are     1 degrees of freedom in the 1st order CPHF.  IDoFFX=0 NUNeed=     1.
 LinEq1:  Iter=  0 NonCon=     1 RMS=1.61D-03 Max=5.36D-02 NDo=     1
 AX will form     1 AO Fock derivatives at one time.
 LinEq1:  Iter=  1 NonCon=     1 RMS=7.11D-04 Max=1.31D-02 NDo=     1
 LinEq1:  Iter=  2 NonCon=     1 RMS=2.43D-04 Max=8.07D-03 NDo=     1
 LinEq1:  Iter=  3 NonCon=     1 RMS=1.68D-04 Max=4.66D-03 NDo=     1
 LinEq1:  Iter=  4 NonCon=     1 RMS=7.12D-05 Max=1.99D-03 NDo=     1
 LinEq1:  Iter=  5 NonCon=     1 RMS=2.76D-05 Max=9.77D-04 NDo=     1
 LinEq1:  Iter=  6 NonCon=     1 RMS=1.39D-05 Max=4.18D-04 NDo=     1
 LinEq1:  Iter=  7 NonCon=     1 RMS=7.15D-06 Max=2.90D-04 NDo=     1
 LinEq1:  Iter=  8 NonCon=     1 RMS=3.22D-06 Max=1.04D-04 NDo=     1
 LinEq1:  Iter=  9 NonCon=     1 RMS=1.66D-06 Max=4.04D-05 NDo=     1
 LinEq1:  Iter= 10 NonCon=     1 RMS=6.43D-07 Max=2.40D-05 NDo=     1
 LinEq1:  Iter= 11 NonCon=     1 RMS=3.15D-07 Max=1.22D-05 NDo=     1
 LinEq1:  Iter= 12 NonCon=     1 RMS=1.28D-07 Max=6.79D-06 NDo=     1
 LinEq1:  Iter= 13 NonCon=     1 RMS=5.95D-08 Max=2.24D-06 NDo=     1
 LinEq1:  Iter= 14 NonCon=     1 RMS=2.63D-08 Max=8.30D-07 NDo=     1
 LinEq1:  Iter= 15 NonCon=     1 RMS=9.40D-09 Max=2.91D-07 NDo=     1
 LinEq1:  Iter= 16 NonCon=     1 RMS=5.07D-09 Max=2.33D-07 NDo=     1
 LinEq1:  Iter= 17 NonCon=     1 RMS=2.13D-09 Max=6.33D-08 NDo=     1
 LinEq1:  Iter= 18 NonCon=     1 RMS=9.97D-10 Max=2.46D-08 NDo=     1
 LinEq1:  Iter= 19 NonCon=     1 RMS=2.42D-10 Max=7.18D-09 NDo=     1
 LinEq1:  Iter= 20 NonCon=     1 RMS=1.06D-10 Max=3.14D-09 NDo=     1
 LinEq1:  Iter= 21 NonCon=     1 RMS=5.92D-11 Max=2.16D-09 NDo=     1
 LinEq1:  Iter= 22 NonCon=     0 RMS=1.97D-11 Max=4.52D-10 NDo=     1
 Linear equations converged to 1.000D-10 1.000D-09 after    22 iterations.
 End of Minotr F.D. properties file   721 does not exist.
 End of Minotr F.D. properties file   722 does not exist.
 End of Minotr F.D. properties file   788 does not exist.

 **********************************************************************

            Population analysis using the SCF density.

 **********************************************************************

 Orbital symmetries:
       Occupied  (A) (A) (A) (A) (A) (A) (A) (A) (A) (A) (A) (A)
                 (A) (A) (A) (A) (A) (A) (A) (A) (A) (A) (A) (A)
                 (A) (A) (A) (A) (A) (A) (A) (A) (A) (A) (A) (A)
                 (A) (A) (A) (A) (A) (A) (A) (A) (A) (A) (A) (A)
                 (A) (A) (A) (A) (A) (A) (A) (A) (A) (A) (A)
       Virtual   (A) (A) (A) (A) (A) (A) (A) (A) (A) (A) (A) (A)
                 (A) (A) (A) (A) (A) (A) (A) (A) (A) (A) (A) (A)
                 (A) (A) (A) (A) (A) (A) (A) (A) (A) (A) (A) (A)
                 (A) (A) (A) (A) (A) (A) (A) (A) (A) (A) (A) (A)
                 (A) (A) (A) (A) (A) (A) (A) (A) (A) (A) (A) (A)
                 (A) (A) (A) (A) (A) (A) (A) (A) (A) (A) (A) (A)
                 (A) (A) (A) (A) (A) (A) (A) (A) (A) (A) (A) (A)
                 (A) (A) (A) (A) (A) (A) (A) (A) (A) (A) (A) (A)
                 (A) (A) (A) (A) (A) (A) (A) (A) (A) (A) (A) (A)
                 (A) (A) (A) (A) (A) (A) (A) (A) (A) (A) (A) (A)
                 (A) (A) (A) (A) (A) (A) (A) (A) (A) (A) (A) (A)
                 (A) (A) (A) (A) (A) (A) (A) (A) (A) (A) (A) (A)
                 (A) (A) (A) (A) (A) (A) (A) (A) (A) (A) (A) (A)
                 (A) (A) (A) (A) (A) (A) (A) (A) (A) (A) (A) (A)
                 (A) (A) (A) (A) (A) (A) (A) (A) (A) (A) (A) (A)
                 (A) (A) (A) (A) (A) (A) (A) (A) (A) (A) (A) (A)
                 (A) (A) (A) (A) (A) (A) (A) (A) (A) (A) (A) (A)
                 (A) (A) (A) (A) (A) (A) (A) (A) (A) (A) (A) (A)
                 (A) (A) (A) (A) (A) (A) (A) (A) (A) (A) (A) (A)
                 (A) (A) (A) (A) (A) (A) (A) (A) (A) (A) (A) (A)
                 (A) (A) (A) (A) (A) (A) (A) (A) (A) (A) (A) (A)
                 (A) (A) (A) (A) (A) (A) (A) (A) (A) (A) (A) (A)
                 (A) (A) (A) (A) (A) (A) (A) (A) (A) (A) (A) (A)
                 (A) (A) (A) (A) (A) (A) (A) (A) (A) (A) (A) (A)
                 (A) (A) (A) (A) (A) (A) (A) (A) (A) (A) (A) (A)
                 (A) (A) (A)
 The electronic state is 1-A.
 Alpha  occ. eigenvalues --  -19.80216 -19.79697 -19.78471 -19.78354 -19.73421
 Alpha  occ. eigenvalues --  -10.77227 -10.70956 -10.70506 -10.70390 -10.70014
 Alpha  occ. eigenvalues --  -10.68614 -10.66429 -10.65628 -10.64659 -10.64509
 Alpha  occ. eigenvalues --  -10.64204  -1.25544  -1.24678  -1.22651  -1.20495
 Alpha  occ. eigenvalues --   -1.15663  -0.99936  -0.93339  -0.88773  -0.87544
 Alpha  occ. eigenvalues --   -0.83208  -0.80995  -0.77529  -0.71399  -0.70653
 Alpha  occ. eigenvalues --   -0.66009  -0.63898  -0.62831  -0.59527  -0.59060
 Alpha  occ. eigenvalues --   -0.58056  -0.57206  -0.56565  -0.55566  -0.54815
 Alpha  occ. eigenvalues --   -0.53185  -0.52275  -0.50804  -0.49767  -0.49522
 Alpha  occ. eigenvalues --   -0.48578  -0.47252  -0.45347  -0.43615  -0.43510
 Alpha  occ. eigenvalues --   -0.42995  -0.42652  -0.41115  -0.40270  -0.38854
 Alpha  occ. eigenvalues --   -0.35359  -0.32975  -0.28095  -0.24862
 Alpha virt. eigenvalues --   -0.02363   0.02395   0.03239   0.03395   0.04035
 Alpha virt. eigenvalues --    0.04982   0.05404   0.05745   0.05957   0.07070
 Alpha virt. eigenvalues --    0.07289   0.08112   0.08205   0.08983   0.09202
 Alpha virt. eigenvalues --    0.09298   0.10398   0.11142   0.11615   0.12022
 Alpha virt. eigenvalues --    0.12838   0.13179   0.13504   0.14571   0.15516
 Alpha virt. eigenvalues --    0.16112   0.16859   0.17075   0.17377   0.17708
 Alpha virt. eigenvalues --    0.18161   0.18311   0.18884   0.19238   0.19436
 Alpha virt. eigenvalues --    0.19924   0.22313   0.22822   0.23220   0.23332
 Alpha virt. eigenvalues --    0.23839   0.24230   0.24997   0.25651   0.25729
 Alpha virt. eigenvalues --    0.26673   0.26871   0.27064   0.27531   0.28399
 Alpha virt. eigenvalues --    0.29534   0.29684   0.29930   0.30234   0.30277
 Alpha virt. eigenvalues --    0.30593   0.30864   0.31435   0.31498   0.32454
 Alpha virt. eigenvalues --    0.33078   0.33729   0.33790   0.34699   0.35327
 Alpha virt. eigenvalues --    0.35561   0.35805   0.36376   0.37151   0.37778
 Alpha virt. eigenvalues --    0.38525   0.39206   0.39442   0.39450   0.40379
 Alpha virt. eigenvalues --    0.40563   0.41392   0.42056   0.42780   0.43816
 Alpha virt. eigenvalues --    0.44770   0.45344   0.47651   0.47721   0.49385
 Alpha virt. eigenvalues --    0.50416   0.51580   0.52401   0.53687   0.56102
 Alpha virt. eigenvalues --    0.60089   0.60282   0.64814   0.67280   0.71063
 Alpha virt. eigenvalues --    0.74205   0.74531   0.75932   0.76821   0.77225
 Alpha virt. eigenvalues --    0.77595   0.78659   0.79195   0.80354   0.81008
 Alpha virt. eigenvalues --    0.81746   0.83225   0.84253   0.84906   0.85306
 Alpha virt. eigenvalues --    0.87231   0.88552   0.90155   0.90484   0.93986
 Alpha virt. eigenvalues --    0.94150   0.96415   0.97892   0.98965   1.00039
 Alpha virt. eigenvalues --    1.00785   1.02030   1.03304   1.05189   1.06811
 Alpha virt. eigenvalues --    1.08725   1.10044   1.12623   1.14301   1.16376
 Alpha virt. eigenvalues --    1.18791   1.19303   1.20518   1.20987   1.22626
 Alpha virt. eigenvalues --    1.23178   1.26200   1.27091   1.27312   1.27434
 Alpha virt. eigenvalues --    1.28575   1.29984   1.30607   1.31400   1.31538
 Alpha virt. eigenvalues --    1.32053   1.33426   1.35046   1.35904   1.36442
 Alpha virt. eigenvalues --    1.36568   1.37311   1.38142   1.40293   1.40765
 Alpha virt. eigenvalues --    1.41062   1.42029   1.43208   1.44359   1.44657
 Alpha virt. eigenvalues --    1.47201   1.47849   1.48691   1.48920   1.49127
 Alpha virt. eigenvalues --    1.50959   1.52909   1.55366   1.55431   1.56674
 Alpha virt. eigenvalues --    1.58201   1.61675   1.63215   1.65771   1.67518
 Alpha virt. eigenvalues --    1.70253   1.70389   1.70691   1.74185   1.79066
 Alpha virt. eigenvalues --    1.80242   1.84027   1.87220   1.88256   1.89104
 Alpha virt. eigenvalues --    1.89189   1.90678   1.94379   1.94622   1.95396
 Alpha virt. eigenvalues --    1.96857   1.98155   1.98575   1.99894   2.02722
 Alpha virt. eigenvalues --    2.03187   2.05027   2.05830   2.06542   2.07383
 Alpha virt. eigenvalues --    2.08587   2.09920   2.10864   2.12652   2.13444
 Alpha virt. eigenvalues --    2.13976   2.16407   2.17680   2.17838   2.18890
 Alpha virt. eigenvalues --    2.20752   2.22342   2.22802   2.23841   2.25831
 Alpha virt. eigenvalues --    2.27574   2.28828   2.31325   2.33921   2.34406
 Alpha virt. eigenvalues --    2.36554   2.38799   2.40400   2.44336   2.44586
 Alpha virt. eigenvalues --    2.46915   2.52396   2.52822   2.55329   2.59441
 Alpha virt. eigenvalues --    2.59901   2.60762   2.62181   2.63222   2.64691
 Alpha virt. eigenvalues --    2.64722   2.66684   2.67154   2.67779   2.70798
 Alpha virt. eigenvalues --    2.71808   2.72296   2.76079   2.76379   2.76889
 Alpha virt. eigenvalues --    2.77583   2.80177   2.81836   2.84024   2.84825
 Alpha virt. eigenvalues --    2.85928   2.86666   2.88944   2.90043   2.92400
 Alpha virt. eigenvalues --    2.95587   2.96104   2.97294   2.97548   2.98510
 Alpha virt. eigenvalues --    2.98821   3.03264   3.04542   3.08796   3.10660
 Alpha virt. eigenvalues --    3.13281   3.18311   3.22622   3.28860   3.31435
 Alpha virt. eigenvalues --    3.32418   3.34225   3.37430   3.38464   3.39572
 Alpha virt. eigenvalues --    3.43371   3.52150   3.54948   3.56297   3.59343
 Alpha virt. eigenvalues --    3.60251   3.61573   3.63328   3.69380   3.72425
 Alpha virt. eigenvalues --    3.77349   3.91744   4.34193   4.40288   4.46215
 Alpha virt. eigenvalues --    4.49951   4.54364   4.58490   4.59362   4.62729
 Alpha virt. eigenvalues --    4.66001   4.72536   4.77740   4.78716   4.84229
 Alpha virt. eigenvalues --    4.95972   5.00185   5.46374
          Condensed to atoms (all electrons):
               1          2          3          4          5          6
     1  C   21.604868  -0.075057  -7.274430  -0.024959  -5.870399  -0.573156
     2  C   -0.075057  18.529063  -1.203278  -1.645250  -0.984798  -7.777911
     3  C   -7.274430  -1.203278  21.912799   0.550276  -0.683434  -4.107494
     4  C   -0.024959  -1.645250   0.550276  12.072157  -1.858219  -1.348594
     5  C   -5.870399  -0.984798  -0.683434  -1.858219  12.189158   1.443773
     6  C   -0.573156  -7.777911  -4.107494  -1.348594   1.443773  17.907165
     7  O    0.240887  -0.926418  -0.009350  -0.081559   0.132164   0.613142
     8  O   -0.651714   0.306884   0.285835  -0.017491   0.016747   0.053293
     9  C    0.180702  -0.051993  -0.208566  -0.097375   0.018087   0.063905
    10  O   -0.624664   0.084496   0.023929  -0.016647   0.235588   0.221190
    11  C    0.025242   0.042667   0.018243  -0.076629  -0.030074  -0.097129
    12  C   -1.006820  -0.194334  -1.858811  -0.887974   1.121879  -0.089450
    13  C    0.005486  -0.603819  -1.601359  -0.289128   0.074391   0.062150
    14  C    0.011002   0.008353  -0.410871  -0.543975   0.162570   0.082743
    15  O    0.000215   0.000763   0.009951   0.076198  -0.020796  -0.001974
    16  O   -0.000146  -0.003214   0.052423   0.128058  -0.029331  -0.002162
    17  H    0.008842  -0.120585   0.088115   0.154724   0.027958   0.001078
    18  H    0.003605  -0.008065   0.052647   0.264347   0.152229  -0.137763
    19  H    0.195880   0.307733   0.025207  -0.003653  -0.048326  -0.487128
    20  H    0.072055   0.052198  -0.097679  -0.014162  -0.001926   0.012696
    21  H   -0.040604  -0.071367   0.083813   0.022353   0.003566  -0.010623
    22  H   -0.040607  -0.071318   0.083744   0.022377   0.003567  -0.010629
    23  H   -0.024415  -0.006906   0.004213   0.014329   0.039200  -0.037851
    24  H   -0.024417  -0.006907   0.004219   0.014330   0.039212  -0.037872
    25  H    0.040865   0.008033  -0.003130  -0.010328  -0.052974   0.040981
    26  H    0.012650   0.031262   0.147103  -0.018317   0.004823   0.001408
    27  H    0.000430   0.000209   0.011424   0.040726   0.032081   0.000009
    28  H    0.000025   0.000037   0.000315  -0.005301   0.001775   0.000194
               7          8          9         10         11         12
     1  C    0.240887  -0.651714   0.180702  -0.624664   0.025242  -1.006820
     2  C   -0.926418   0.306884  -0.051993   0.084496   0.042667  -0.194334
     3  C   -0.009350   0.285835  -0.208566   0.023929   0.018243  -1.858811
     4  C   -0.081559  -0.017491  -0.097375  -0.016647  -0.076629  -0.887974
     5  C    0.132164   0.016747   0.018087   0.235588  -0.030074   1.121879
     6  C    0.613142   0.053293   0.063905   0.221190  -0.097129  -0.089450
     7  O    8.384215   0.040125   0.002200  -0.006603  -0.000910   0.001468
     8  O    0.040125   8.523996   0.033897  -0.001849  -0.000104  -0.010909
     9  C    0.002200   0.033897   4.920481  -0.000074   0.000317  -0.032177
    10  O   -0.006603  -0.001849  -0.000074   8.669065   0.046181   0.003169
    11  C   -0.000910  -0.000104   0.000317   0.046181   4.884610   0.003778
    12  C    0.001468  -0.010909  -0.032177   0.003169   0.003778   9.300066
    13  C   -0.001197  -0.002874  -0.009264   0.000266  -0.007701  -1.168491
    14  C    0.000125  -0.000014  -0.000803   0.000484  -0.002357   0.322076
    15  O    0.000000   0.000000   0.000001   0.000000   0.000029  -0.118574
    16  O    0.000000   0.000002   0.000101  -0.000001   0.000006   0.070264
    17  H   -0.000562  -0.010916  -0.004160   0.000119   0.000038   0.141568
    18  H   -0.000385   0.000137   0.000090  -0.011986  -0.001764  -0.034434
    19  H    0.188949  -0.001925  -0.000091   0.035961   0.005307   0.001037
    20  H   -0.000743  -0.080132   0.428344  -0.000003   0.000010  -0.001108
    21  H    0.000069  -0.037550   0.412969   0.000002  -0.000020   0.000745
    22  H    0.000069  -0.037551   0.412967   0.000002  -0.000020   0.000750
    23  H   -0.000149   0.000001  -0.000014  -0.043448   0.420615  -0.000127
    24  H   -0.000149   0.000001  -0.000014  -0.043445   0.420625  -0.000130
    25  H   -0.000002  -0.000002   0.000009  -0.072768   0.420102   0.000109
    26  H   -0.000011   0.000054   0.000281   0.000029   0.000106   0.300503
    27  H   -0.000005   0.000002   0.000027   0.000116   0.000732  -0.025678
    28  H    0.000000   0.000000  -0.000000  -0.000000  -0.000002   0.036304
              13         14         15         16         17         18
     1  C    0.005486   0.011002   0.000215  -0.000146   0.008842   0.003605
     2  C   -0.603819   0.008353   0.000763  -0.003214  -0.120585  -0.008065
     3  C   -1.601359  -0.410871   0.009951   0.052423   0.088115   0.052647
     4  C   -0.289128  -0.543975   0.076198   0.128058   0.154724   0.264347
     5  C    0.074391   0.162570  -0.020796  -0.029331   0.027958   0.152229
     6  C    0.062150   0.082743  -0.001974  -0.002162   0.001078  -0.137763
     7  O   -0.001197   0.000125   0.000000   0.000000  -0.000562  -0.000385
     8  O   -0.002874  -0.000014   0.000000   0.000002  -0.010916   0.000137
     9  C   -0.009264  -0.000803   0.000001   0.000101  -0.004160   0.000090
    10  O    0.000266   0.000484   0.000000  -0.000001   0.000119  -0.011986
    11  C   -0.007701  -0.002357   0.000029   0.000006   0.000038  -0.001764
    12  C   -1.168491   0.322076  -0.118574   0.070264   0.141568  -0.034434
    13  C   10.613878  -0.738098   0.259907  -0.208647   0.029023   0.023500
    14  C   -0.738098   6.069455  -0.169147   0.339567   0.001090   0.013605
    15  O    0.259907  -0.169147   8.398966  -0.134975   0.000000   0.000098
    16  O   -0.208647   0.339567  -0.134975   8.343444  -0.000033   0.000034
    17  H    0.029023   0.001090   0.000000  -0.000033   0.537735  -0.000135
    18  H    0.023500   0.013605   0.000098   0.000034  -0.000135   0.551583
    19  H    0.000610   0.000023   0.000000   0.000000   0.000003  -0.000027
    20  H    0.000039  -0.000002  -0.000000  -0.000000   0.000170  -0.000000
    21  H   -0.000317  -0.000003   0.000000   0.000000  -0.001530   0.000000
    22  H   -0.000317  -0.000002   0.000000   0.000000  -0.001531   0.000000
    23  H   -0.000551  -0.000256   0.000000  -0.000000   0.000000  -0.001336
    24  H   -0.000553  -0.000256   0.000000  -0.000000   0.000000  -0.001336
    25  H    0.000191   0.000035  -0.000000   0.000000  -0.000000   0.000164
    26  H   -0.151281  -0.013597   0.000883  -0.005110   0.002128  -0.000037
    27  H    0.312331  -0.048169  -0.006026   0.003890  -0.000000  -0.000296
    28  H   -0.065050   0.057377   0.212544   0.006195  -0.000000  -0.000000
              19         20         21         22         23         24
     1  C    0.195880   0.072055  -0.040604  -0.040607  -0.024415  -0.024417
     2  C    0.307733   0.052198  -0.071367  -0.071318  -0.006906  -0.006907
     3  C    0.025207  -0.097679   0.083813   0.083744   0.004213   0.004219
     4  C   -0.003653  -0.014162   0.022353   0.022377   0.014329   0.014330
     5  C   -0.048326  -0.001926   0.003566   0.003567   0.039200   0.039212
     6  C   -0.487128   0.012696  -0.010623  -0.010629  -0.037851  -0.037872
     7  O    0.188949  -0.000743   0.000069   0.000069  -0.000149  -0.000149
     8  O   -0.001925  -0.080132  -0.037550  -0.037551   0.000001   0.000001
     9  C   -0.000091   0.428344   0.412969   0.412967  -0.000014  -0.000014
    10  O    0.035961  -0.000003   0.000002   0.000002  -0.043448  -0.043445
    11  C    0.005307   0.000010  -0.000020  -0.000020   0.420615   0.420625
    12  C    0.001037  -0.001108   0.000745   0.000750  -0.000127  -0.000130
    13  C    0.000610   0.000039  -0.000317  -0.000317  -0.000551  -0.000553
    14  C    0.000023  -0.000002  -0.000003  -0.000002  -0.000256  -0.000256
    15  O    0.000000  -0.000000   0.000000   0.000000   0.000000   0.000000
    16  O    0.000000  -0.000000   0.000000   0.000000  -0.000000  -0.000000
    17  H    0.000003   0.000170  -0.001530  -0.001531   0.000000   0.000000
    18  H   -0.000027  -0.000000   0.000000   0.000000  -0.001336  -0.001336
    19  H    0.365609  -0.000001   0.000000   0.000000   0.000023   0.000023
    20  H   -0.000001   0.536649  -0.027548  -0.027547   0.000000   0.000000
    21  H    0.000000  -0.027548   0.573979  -0.044524  -0.000000  -0.000000
    22  H    0.000000  -0.027547  -0.044524   0.573978  -0.000000  -0.000000
    23  H    0.000023   0.000000  -0.000000  -0.000000   0.562615  -0.041809
    24  H    0.000023   0.000000  -0.000000  -0.000000  -0.041809   0.562612
    25  H   -0.000063  -0.000000   0.000000   0.000000  -0.027141  -0.027140
    26  H   -0.000000   0.000000  -0.000001  -0.000001   0.000000   0.000000
    27  H   -0.000000  -0.000000   0.000000   0.000000  -0.000003  -0.000003
    28  H    0.000000   0.000000   0.000000   0.000000   0.000000   0.000000
              25         26         27         28
     1  C    0.040865   0.012650   0.000430   0.000025
     2  C    0.008033   0.031262   0.000209   0.000037
     3  C   -0.003130   0.147103   0.011424   0.000315
     4  C   -0.010328  -0.018317   0.040726  -0.005301
     5  C   -0.052974   0.004823   0.032081   0.001775
     6  C    0.040981   0.001408   0.000009   0.000194
     7  O   -0.000002  -0.000011  -0.000005   0.000000
     8  O   -0.000002   0.000054   0.000002   0.000000
     9  C    0.000009   0.000281   0.000027  -0.000000
    10  O   -0.072768   0.000029   0.000116  -0.000000
    11  C    0.420102   0.000106   0.000732  -0.000002
    12  C    0.000109   0.300503  -0.025678   0.036304
    13  C    0.000191  -0.151281   0.312331  -0.065050
    14  C    0.000035  -0.013597  -0.048169   0.057377
    15  O   -0.000000   0.000883  -0.006026   0.212544
    16  O    0.000000  -0.005110   0.003890   0.006195
    17  H   -0.000000   0.002128  -0.000000  -0.000000
    18  H    0.000164  -0.000037  -0.000296  -0.000000
    19  H   -0.000063  -0.000000  -0.000000   0.000000
    20  H   -0.000000   0.000000  -0.000000   0.000000
    21  H    0.000000  -0.000001   0.000000   0.000000
    22  H    0.000000  -0.000001   0.000000   0.000000
    23  H   -0.027141   0.000000  -0.000003   0.000000
    24  H   -0.027140   0.000000  -0.000003   0.000000
    25  H    0.535237  -0.000000  -0.000000  -0.000000
    26  H   -0.000000   0.510977   0.003455  -0.000001
    27  H   -0.000000   0.003455   0.531293  -0.000015
    28  H   -0.000000  -0.000001  -0.000015   0.372856
 Mulliken charges:
               1
     1  C   -0.171364
     2  C    0.379522
     3  C    0.104146
     4  C   -0.420314
     5  C   -0.118491
     6  C    0.216009
     7  O   -0.575369
     8  O   -0.407943
     9  C   -0.069847
    10  O   -0.499107
    11  C   -0.071899
    12  C    0.125299
    13  C   -0.533125
    14  C    0.859046
    15  O   -0.508063
    16  O   -0.560364
    17  H    0.146862
    18  H    0.135526
    19  H    0.414849
    20  H    0.148690
    21  H    0.136592
    22  H    0.136591
    23  H    0.143010
    24  H    0.143011
    25  H    0.147821
    26  H    0.172696
    27  H    0.143468
    28  H    0.382749
 Sum of Mulliken charges =  -0.00000
 Mulliken charges with hydrogens summed into heavy atoms:
               1
     1  C   -0.171364
     2  C    0.379522
     3  C    0.251008
     4  C   -0.420314
     5  C    0.017035
     6  C    0.216009
     7  O   -0.160521
     8  O   -0.407943
     9  C    0.352026
    10  O   -0.499107
    11  C    0.361942
    12  C    0.297995
    13  C   -0.389657
    14  C    0.859046
    15  O   -0.125314
    16  O   -0.560364
 Electronic spatial extent (au):  <R**2>=           5097.5689
 Charge=             -0.0000 electrons
 Dipole moment (field-independent basis, Debye):
    X=             -0.7249    Y=              2.5386    Z=              0.0002  Tot=              2.6400
 Quadrupole moment (field-independent basis, Debye-Ang):
   XX=           -105.9922   YY=            -75.0654   ZZ=            -96.8732
   XY=              5.0094   XZ=             -0.0011   YZ=              0.0004
 Traceless Quadrupole moment (field-independent basis, Debye-Ang):
   XX=            -13.3486   YY=             17.5782   ZZ=             -4.2296
   XY=              5.0094   XZ=             -0.0011   YZ=              0.0004
 Octapole moment (field-independent basis, Debye-Ang**2):
  XXX=             60.8061  YYY=             16.0201  ZZZ=             -0.0002  XYY=            -64.1488
  XXY=             49.2253  XXZ=              0.0011  XZZ=              0.0312  YZZ=              0.8786
  YYZ=              0.0014  XYZ=              0.0010
 Hexadecapole moment (field-independent basis, Debye-Ang**3):
 XXXX=          -3994.0981 YYYY=          -1608.2185 ZZZZ=           -117.0804 XXXY=             86.5326
 XXXZ=             -0.0210 YYYX=             49.8430 YYYZ=              0.0022 ZZZX=              0.0001
 ZZZY=              0.0005 XXYY=          -1096.7936 XXZZ=           -763.4809 YYZZ=           -346.3723
 XXYZ=              0.0039 YYXZ=             -0.0043 ZZXY=             -3.5429
 N-N= 1.054891570801D+03 E-N=-3.982354945176D+03  KE= 7.956950213718D+02
 Calling FoFJK, ICntrl=  10002127 FMM=F ISym2X=0 I1Cent= 0 IOpClX= 0 NMat=1 NMatS=1 NMatT=0.
 ***** Axes restored to original set *****
 -------------------------------------------------------------------
 Center     Atomic                   Forces (Hartrees/Bohr)
 Number     Number              X              Y              Z
 -------------------------------------------------------------------
      1        6           0.004955680    0.000896457    0.000000497
      2        6           0.001944906   -0.003529231    0.000001738
      3        6           0.002407253    0.003788560    0.000001451
      4        6          -0.000835892   -0.000541365    0.000000326
      5        6           0.003878186   -0.002763266   -0.000002012
      6        6           0.000883467    0.003719368   -0.000002442
      7        8          -0.006317311   -0.000225064   -0.000001340
      8        8          -0.005662270   -0.000973247    0.000000154
      9        6           0.001581155    0.007220765   -0.000000210
     10        8          -0.005128904   -0.001080635    0.000001056
     11        6           0.003800386   -0.006215145   -0.000002149
     12        6           0.001249502    0.003695177   -0.000000358
     13        6          -0.001002558   -0.004323751    0.000001593
     14        6          -0.003097584   -0.002697566   -0.000002091
     15        8           0.002032267   -0.004487611    0.000000771
     16        8           0.001654032    0.008206728    0.000000435
     17        1          -0.000513827   -0.001699113   -0.000001046
     18        1          -0.000987266    0.001339133    0.000001744
     19        1          -0.000788359   -0.000547049    0.000000814
     20        1           0.001485290   -0.001308939    0.000000256
     21        1          -0.000783004   -0.000600292   -0.001479795
     22        1          -0.000783167   -0.000599460    0.001479350
     23        1          -0.000918574    0.000353266    0.001509558
     24        1          -0.000918735    0.000352559   -0.001508382
     25        1           0.001002637    0.001685767    0.000000771
     26        1          -0.000360260   -0.001455665   -0.000000307
     27        1          -0.000044501    0.001710530   -0.000000418
     28        1           0.001267449    0.000079089    0.000000038
 -------------------------------------------------------------------
 Cartesian Forces:  Max     0.008206728 RMS     0.002411617

 GradGradGradGradGradGradGradGradGradGradGradGradGradGradGradGradGradGrad
 Berny optimization.
 FormGI is forming the generalized inverse of G from B-inverse, IUseBI=4.
 GSVD:  received Info=                   1 from GESDD.
 Internal  Forces:  Max     0.008341904 RMS     0.001680508
 Search for a local minimum.
 Step number   1 out of a maximum of  131
 All quantities printed in internal units (Hartrees-Bohrs-Radians)
 Mixed Optimization -- RFO/linear search
 Second derivative matrix not updated -- first step.
 ITU=  0
     Eigenvalues ---    0.01216   0.01372   0.01457   0.01487   0.01529
     Eigenvalues ---    0.01817   0.02015   0.02039   0.02053   0.02065
     Eigenvalues ---    0.02074   0.02101   0.02118   0.02119   0.02130
     Eigenvalues ---    0.02137   0.02175   0.02235   0.02280   0.02350
     Eigenvalues ---    0.02759   0.10060   0.10120   0.10683   0.10694
     Eigenvalues ---    0.16000   0.16000   0.16000   0.16000   0.16000
     Eigenvalues ---    0.16000   0.16000   0.16000   0.16000   0.16000
     Eigenvalues ---    0.16000   0.16000   0.22000   0.22000   0.23477
     Eigenvalues ---    0.23487   0.25000   0.25000   0.25000   0.25000
     Eigenvalues ---    0.25000   0.25000   0.25000   0.25000   0.25000
     Eigenvalues ---    0.33968   0.33968   0.34064   0.34065   0.34743
     Eigenvalues ---    0.34760   0.34828   0.35380   0.35490   0.35637
     Eigenvalues ---    0.36225   0.37698   0.41167   0.41975   0.42799
     Eigenvalues ---    0.43149   0.44636   0.44839   0.45647   0.47317
     Eigenvalues ---    0.51400   0.53162   0.53438   0.53556   0.53855
     Eigenvalues ---    0.54974   0.55158   0.96175
 RFO step:  Lambda=-6.88614490D-04 EMin= 1.21591207D-02
 Linear search not attempted -- first point.
 Iteration  1 RMS(Cart)=  0.01248335 RMS(Int)=  0.00002925
 Iteration  2 RMS(Cart)=  0.00006035 RMS(Int)=  0.00000068
 Iteration  3 RMS(Cart)=  0.00000000 RMS(Int)=  0.00000068
 Variable       Old X    -DE/DX   Delta X   Delta X   Delta X     New X
                                 (Linear)    (Quad)   (Total)
    R1        2.65139   0.00117   0.00000   0.00258   0.00258   2.65397
    R2        2.65738   0.00197   0.00000   0.00442   0.00442   2.66181
    R3        2.55156   0.00713   0.00000   0.01296   0.01296   2.56451
    R4        2.63699   0.00282   0.00000   0.00605   0.00605   2.64304
    R5        2.56164   0.00558   0.00000   0.01035   0.01035   2.57199
    R6        2.65664   0.00148   0.00000   0.00330   0.00330   2.65994
    R7        2.04887  -0.00177   0.00000  -0.00498  -0.00498   2.04389
    R8        2.65783   0.00134   0.00000   0.00302   0.00302   2.66085
    R9        2.74807   0.00181   0.00000   0.00480   0.00480   2.75287
   R10        2.62150   0.00289   0.00000   0.00606   0.00606   2.62756
   R11        2.04653  -0.00166   0.00000  -0.00465  -0.00465   2.04188
   R12        2.58478   0.00536   0.00000   0.01040   0.01040   2.59518
   R13        1.83138   0.00064   0.00000   0.00120   0.00120   1.83258
   R14        2.67486   0.00495   0.00000   0.01146   0.01146   2.68632
   R15        2.06093  -0.00196   0.00000  -0.00563  -0.00563   2.05530
   R16        2.07385  -0.00176   0.00000  -0.00516  -0.00516   2.06869
   R17        2.07384  -0.00176   0.00000  -0.00516  -0.00516   2.06869
   R18        2.67919   0.00483   0.00000   0.01126   0.01126   2.69045
   R19        2.07222  -0.00178   0.00000  -0.00520  -0.00520   2.06701
   R20        2.07221  -0.00178   0.00000  -0.00520  -0.00520   2.06701
   R21        2.06066  -0.00194   0.00000  -0.00557  -0.00557   2.05509
   R22        2.54992   0.00159   0.00000   0.00289   0.00289   2.55280
   R23        2.05955  -0.00150   0.00000  -0.00430  -0.00430   2.05525
   R24        2.77031   0.00212   0.00000   0.00585   0.00585   2.77615
   R25        2.05062  -0.00169   0.00000  -0.00478  -0.00478   2.04584
   R26        2.56803   0.00549   0.00000   0.01031   0.01031   2.57833
   R27        2.30211   0.00834   0.00000   0.00867   0.00867   2.31078
   R28        1.83247   0.00117   0.00000   0.00219   0.00219   1.83466
    A1        2.08551  -0.00034   0.00000  -0.00129  -0.00129   2.08423
    A2        2.09150  -0.00108   0.00000  -0.00434  -0.00434   2.08716
    A3        2.10618   0.00142   0.00000   0.00562   0.00562   2.11180
    A4        2.08043   0.00047   0.00000   0.00185   0.00185   2.08228
    A5        2.01653  -0.00060   0.00000  -0.00238  -0.00238   2.01415
    A6        2.18623   0.00013   0.00000   0.00053   0.00053   2.18676
    A7        2.11632  -0.00038   0.00000  -0.00175  -0.00175   2.11457
    A8        2.09569   0.00032   0.00000   0.00166   0.00166   2.09736
    A9        2.07117   0.00006   0.00000   0.00008   0.00008   2.07126
   A10        2.08218   0.00034   0.00000   0.00141   0.00141   2.08360
   A11        2.05962   0.00030   0.00000   0.00117   0.00117   2.06078
   A12        2.14138  -0.00064   0.00000  -0.00258  -0.00258   2.13881
   A13        2.08440  -0.00021   0.00000  -0.00081  -0.00081   2.08359
   A14        2.09773   0.00001   0.00000  -0.00019  -0.00019   2.09755
   A15        2.10105   0.00020   0.00000   0.00100   0.00100   2.10204
   A16        2.11752   0.00012   0.00000   0.00058   0.00058   2.11810
   A17        1.96978   0.00062   0.00000   0.00242   0.00242   1.97220
   A18        2.19588  -0.00074   0.00000  -0.00300  -0.00300   2.19288
   A19        1.87304   0.00130   0.00000   0.00812   0.00812   1.88116
   A20        2.05959  -0.00012   0.00000  -0.00049  -0.00049   2.05910
   A21        1.84546  -0.00024   0.00000  -0.00116  -0.00116   1.84430
   A22        1.94533  -0.00021   0.00000  -0.00148  -0.00149   1.94384
   A23        1.94532  -0.00021   0.00000  -0.00148  -0.00148   1.94384
   A24        1.90737   0.00033   0.00000   0.00242   0.00242   1.90979
   A25        1.90738   0.00033   0.00000   0.00242   0.00242   1.90979
   A26        1.91148   0.00001   0.00000  -0.00053  -0.00053   1.91094
   A27        2.06583  -0.00072   0.00000  -0.00288  -0.00288   2.06295
   A28        1.93856  -0.00024   0.00000  -0.00170  -0.00171   1.93685
   A29        1.93856  -0.00024   0.00000  -0.00171  -0.00171   1.93685
   A30        1.84999  -0.00022   0.00000  -0.00098  -0.00098   1.84901
   A31        1.91520  -0.00000   0.00000  -0.00074  -0.00074   1.91445
   A32        1.91015   0.00036   0.00000   0.00265   0.00265   1.91279
   A33        1.91016   0.00036   0.00000   0.00264   0.00264   1.91280
   A34        2.23653  -0.00123   0.00000  -0.00556  -0.00556   2.23097
   A35        2.02345   0.00060   0.00000   0.00271   0.00271   2.02616
   A36        2.02320   0.00063   0.00000   0.00286   0.00286   2.02606
   A37        2.09404  -0.00005   0.00000  -0.00024  -0.00024   2.09380
   A38        2.15298  -0.00020   0.00000  -0.00130  -0.00130   2.15168
   A39        2.03617   0.00026   0.00000   0.00154   0.00154   2.03771
   A40        1.94765  -0.00098   0.00000  -0.00392  -0.00392   1.94373
   A41        2.21203  -0.00029   0.00000  -0.00115  -0.00115   2.21088
   A42        2.12351   0.00127   0.00000   0.00507   0.00507   2.12858
   A43        1.85484   0.00089   0.00000   0.00556   0.00556   1.86040
    D1       -0.00003   0.00000   0.00000   0.00001   0.00001  -0.00001
    D2        3.14158   0.00000   0.00000   0.00000   0.00000   3.14158
    D3        3.14157   0.00000   0.00000   0.00002   0.00002   3.14158
    D4       -0.00001   0.00000   0.00000   0.00000   0.00000  -0.00001
    D5        0.00001   0.00000   0.00000  -0.00000  -0.00000   0.00001
    D6       -3.14155  -0.00000   0.00000  -0.00003  -0.00003  -3.14159
    D7       -3.14159  -0.00000   0.00000  -0.00000  -0.00000  -3.14159
    D8        0.00004  -0.00000   0.00000  -0.00003  -0.00003   0.00000
    D9        3.14151   0.00000   0.00000   0.00003   0.00003   3.14154
   D10       -0.00008   0.00000   0.00000   0.00003   0.00003  -0.00005
   D11        0.00002  -0.00000   0.00000  -0.00001  -0.00001   0.00001
   D12       -3.14154  -0.00000   0.00000  -0.00003  -0.00003  -3.14157
   D13       -3.14158  -0.00000   0.00000  -0.00000  -0.00000  -3.14159
   D14        0.00004  -0.00000   0.00000  -0.00002  -0.00002   0.00002
   D15       -3.14156   0.00000   0.00000   0.00001   0.00001  -3.14155
   D16        0.00004   0.00000   0.00000   0.00000   0.00000   0.00004
   D17        0.00000   0.00000   0.00000  -0.00000  -0.00000   0.00000
   D18       -3.14158   0.00000   0.00000  -0.00000  -0.00000  -3.14158
   D19        3.14157   0.00000   0.00000   0.00002   0.00002   3.14158
   D20       -0.00002   0.00000   0.00000   0.00002   0.00002  -0.00000
   D21       -0.00002   0.00000   0.00000   0.00001   0.00001  -0.00001
   D22        3.14153   0.00000   0.00000   0.00004   0.00004   3.14157
   D23        3.14156   0.00000   0.00000   0.00001   0.00001   3.14157
   D24       -0.00008   0.00000   0.00000   0.00004   0.00004  -0.00003
   D25        3.14154  -0.00000   0.00000  -0.00001  -0.00001   3.14153
   D26       -0.00005  -0.00000   0.00000  -0.00001  -0.00001  -0.00006
   D27       -0.00005  -0.00000   0.00000  -0.00001  -0.00001  -0.00005
   D28        3.14155  -0.00000   0.00000  -0.00001  -0.00001   3.14154
   D29        0.00002  -0.00000   0.00000  -0.00001  -0.00001   0.00001
   D30        3.14157   0.00000   0.00000   0.00002   0.00002  -3.14159
   D31       -3.14153  -0.00000   0.00000  -0.00004  -0.00004  -3.14157
   D32        0.00003  -0.00000   0.00000  -0.00001  -0.00001   0.00002
   D33        3.14157   0.00000   0.00000   0.00002   0.00002  -3.14159
   D34        0.00002  -0.00000   0.00000  -0.00001  -0.00001   0.00001
   D35        3.14152   0.00000   0.00000   0.00003   0.00003   3.14155
   D36       -1.07085   0.00014   0.00000   0.00143   0.00143  -1.06941
   D37        1.07070  -0.00014   0.00000  -0.00138  -0.00138   1.06932
   D38       -1.06839   0.00017   0.00000   0.00168   0.00168  -1.06671
   D39        1.06834  -0.00017   0.00000  -0.00166  -0.00166   1.06668
   D40        3.14158  -0.00000   0.00000   0.00000   0.00000   3.14158
   D41       -3.14159  -0.00000   0.00000  -0.00001  -0.00001   3.14158
   D42       -0.00001   0.00000   0.00000   0.00000   0.00000  -0.00001
   D43       -0.00001  -0.00000   0.00000  -0.00000  -0.00000  -0.00001
   D44        3.14157   0.00000   0.00000   0.00001   0.00001   3.14158
   D45       -3.14159  -0.00000   0.00000  -0.00003  -0.00003   3.14157
   D46       -0.00001   0.00000   0.00000   0.00004   0.00004   0.00003
   D47        0.00002  -0.00000   0.00000  -0.00004  -0.00004  -0.00002
   D48       -3.14159   0.00000   0.00000   0.00003   0.00003  -3.14156
   D49        3.14159   0.00000   0.00000   0.00003   0.00003  -3.14157
   D50        0.00001  -0.00000   0.00000  -0.00003  -0.00003  -0.00002
         Item               Value     Threshold  Converged?
 Maximum Force            0.008342     0.000450     NO 
 RMS     Force            0.001681     0.000300     NO 
 Maximum Displacement     0.063206     0.001800     NO 
 RMS     Displacement     0.012512     0.001200     NO 
 Predicted change in Energy=-3.448618D-04
 GradGradGradGradGradGradGradGradGradGradGradGradGradGradGradGradGradGrad

                          Input orientation:                          
 ---------------------------------------------------------------------
 Center     Atomic      Atomic             Coordinates (Angstroms)
 Number     Number       Type             X           Y           Z
 ---------------------------------------------------------------------
      1          6           0       -2.391313   -0.206200    0.000015
      2          6           0       -1.913844    1.114566    0.000013
      3          6           0       -0.534112    1.343732   -0.000004
      4          6           0        0.381653    0.274779   -0.000030
      5          6           0       -0.100678   -1.048094   -0.000040
      6          6           0       -1.472652   -1.273965   -0.000015
      7          8           0       -3.728954   -0.435088    0.000042
      8          8           0       -2.871569    2.081619    0.000029
      9          6           0       -2.448839    3.438848   -0.000025
     10          8           0       -2.080995   -2.505186   -0.000017
     11          6           0       -1.254074   -3.664146   -0.000042
     12          6           0        1.803814    0.590382   -0.000033
     13          6           0        2.843748   -0.271840    0.000011
     14          6           0        4.220940    0.239562   -0.000011
     15          8           0        5.129275   -0.778526    0.000068
     16          8           0        4.564188    1.413208   -0.000039
     17          1           0       -0.151108    2.355226    0.000013
     18          1           0        0.590785   -1.878391   -0.000083
     19          1           0       -3.865132   -1.395239   -0.000013
     20          1           0       -3.361300    4.030737   -0.000048
     21          1           0       -1.862355    3.674086    0.893884
     22          1           0       -1.862356    3.674016   -0.893953
     23          1           0       -0.625112   -3.696319   -0.894361
     24          1           0       -0.625064   -3.696320    0.894243
     25          1           0       -1.931827   -4.514629   -0.000026
     26          1           0        2.059146    1.647578   -0.000074
     27          1           0        2.723437   -1.347748    0.000065
     28          1           0        6.008126   -0.365980    0.000071
 ---------------------------------------------------------------------
                    Distance matrix (angstroms):
                    1          2          3          4          5
     1  C    0.000000
     2  C    1.404421   0.000000
     3  C    2.418983   1.398634   0.000000
     4  C    2.814371   2.444290   1.407582   0.000000
     5  C    2.440450   2.822175   2.430780   1.408061   0.000000
     6  C    1.408567   2.428937   2.780862   2.416000   1.390443
     7  O    1.357082   2.386640   3.656666   4.171451   3.679696
     8  O    2.337683   1.361039   2.451159   3.721307   4.180065
     9  C    3.645502   2.385059   2.838255   4.245353   5.064238
    10  O    2.319835   3.623610   4.148134   3.713872   2.458613
    11  C    3.640152   4.824043   5.059366   4.265060   2.859031
    12  C    4.270085   3.754431   2.456305   1.456758   2.512308
    13  C    5.235473   4.955483   3.744331   2.522044   3.045031
    14  C    6.627261   6.196872   4.881569   3.839449   4.509372
    15  O    7.542334   7.293102   6.047970   4.863061   5.236895
    16  O    7.141532   6.484913   5.098774   4.334699   5.274370
    17  H    3.402855   2.155569   1.081580   2.147579   3.403694
    18  H    3.418937   3.902686   3.412838   2.163302   1.080515
    19  H    1.893662   3.179095   4.312499   4.563348   3.780427
    20  H    4.346551   3.255638   3.900383   5.302539   6.035410
    21  H    4.016891   2.711604   2.827334   4.170125   5.118749
    22  H    4.016846   2.711569   2.827296   4.170070   5.118682
    23  H    4.012518   5.060173   5.119596   4.193211   2.843930
    24  H    4.012508   5.060161   5.119577   4.193189   2.843911
    25  H    4.332862   5.629224   6.022790   5.318893   3.920456
    26  H    4.821107   4.008585   2.610999   2.167616   3.454198
    27  H    5.240591   5.250464   4.225599   2.848955   2.839968
    28  H    8.400959   8.059134   6.761952   5.662841   6.146768
                    6          7          8          9         10
     6  C    0.000000
     7  O    2.407200   0.000000
     8  O    3.635507   2.658744   0.000000
     9  C    4.812853   4.079960   1.421538   0.000000
    10  O    1.373312   2.645955   4.654438   5.955406   0.000000
    11  C    2.400155   4.068396   5.969096   7.202777   1.423723
    12  C    3.769750   5.626998   4.907442   5.118478   4.967321
    13  C    4.431204   6.574729   6.180908   6.463799   5.407489
    14  C    5.891329   7.978469   7.327814   7.397391   6.873720
    15  O    6.620491   8.864884   8.496702   8.672605   7.414132
    16  O    6.607900   8.496611   7.465739   7.299710   7.714420
    17  H    3.862319   4.537272   2.734185   2.540434   5.229539
    18  H    2.150140   4.554477   5.260187   6.124732   2.744317
    19  H    2.395552   0.969760   3.616035   5.037289   2.101221
    20  H    5.630884   4.480933   2.009701   1.087620   6.660141
    21  H    5.043227   4.600919   2.086490   1.094703   6.247421
    22  H    5.043165   4.600885   2.086491   1.094702   6.247357
    23  H    2.717715   4.590143   6.263471   7.418654   2.082844
    24  H    2.717703   4.590138   6.263464   7.418659   2.082843
    25  H    3.273033   4.457838   6.662853   7.970264   2.014972
    26  H    4.583559   6.151390   4.949782   4.850833   5.863976
    27  H    4.196738   6.516617   6.562366   7.047265   4.941885
    28  H    7.535680   9.737325   9.210848   9.273456   8.367203
                   11         12         13         14         15
    11  C    0.000000
    12  C    5.239436   0.000000
    13  C    5.319764   1.350886   0.000000
    14  C    6.724189   2.442453   1.469078   0.000000
    15  O    7.005280   3.596193   2.341018   1.364396   0.000000
    16  O    7.722157   2.880401   2.408174   1.222811   2.263410
    17  H    6.119590   2.633703   3.983797   4.857040   6.140265
    18  H    2.567572   2.750687   2.767102   4.202827   4.669861
    19  H    3.459128   6.006633   6.802286   8.249675   9.015525
    20  H    7.978197   6.206000   7.550814   8.477227   9.758016
    21  H    7.417464   4.873306   6.206187   7.042833   8.337120
    22  H    7.417393   4.873263   6.206156   7.042805   8.337105
    23  H    1.093817   5.007525   4.955800   6.306761   6.513562
    24  H    1.093816   5.007494   4.955741   6.306712   6.513485
    25  H    1.087506   6.325832   6.388066   7.775531   7.988594
    26  H    6.260339   1.087592   2.073587   2.579896   3.913013
    27  H    4.602858   2.145240   1.082613   2.182216   2.472260
    28  H    7.976055   4.311713   3.165778   1.886985   0.970862
                   16         17         18         19         20
    16  O    0.000000
    17  H    4.808473   0.000000
    18  H    5.159705   4.298130   0.000000
    19  H    8.884864   5.278254   4.482034   0.000000
    20  H    8.346545   3.621142   7.108921   5.449317   0.000000
    21  H    6.871035   2.338111   6.135721   5.523425   1.781333
    22  H    6.871012   2.338109   6.135644   5.523367   1.781334
    23  H    7.337296   6.135616   2.362837   4.073396   8.245842
    24  H    7.337258   6.135593   2.362831   4.073415   8.245857
    25  H    8.794173   7.096892   3.648743   3.669913   8.664103
    26  H    2.515982   2.320773   3.819495   6.660015   5.921206
    27  H    3.318319   4.687752   2.197678   6.588740   8.121091
    28  H    2.291390   6.733582   5.624498   9.926762  10.349747
                   21         22         23         24         25
    21  H    0.000000
    22  H    1.787837   0.000000
    23  H    7.684495   7.473460   0.000000
    24  H    7.473539   7.684425   1.788603   0.000000
    25  H    8.237655   8.237587   1.782406   1.782408   0.000000
    26  H    4.503784   4.503737   6.046670   6.046655   7.341707
    27  H    6.859097   6.859072   4.186713   4.186622   5.630331
    28  H    8.891879   8.891869   7.476029   7.475956   8.958468
                   26         27         28
    26  H    0.000000
    27  H    3.068103   0.000000
    28  H    4.432703   3.428272   0.000000
 Stoichiometry    C11H12O5
 Framework group  C1[X(C11H12O5)]
 Deg. of freedom    78
 Full point group                 C1      NOp   1
 Largest Abelian subgroup         C1      NOp   1
 Largest concise Abelian subgroup C1      NOp   1
                         Standard orientation:                         
 ---------------------------------------------------------------------
 Center     Atomic      Atomic             Coordinates (Angstroms)
 Number     Number       Type             X           Y           Z
 ---------------------------------------------------------------------
      1          6           0       -2.390312    0.216922   -0.000020
      2          6           0       -1.919142   -1.106104   -0.000018
      3          6           0       -0.540518   -1.341841   -0.000001
[...]
 ,0.03181882,0.07053379,0.00033909,-0.00039774,-0.00025664,-0.00122195,
 0.00116496,0.00053762,-0.00090267,-0.00096836,-0.00005949,0.00043184,0
 .00028389,-0.00005542,0.00011237,0.00002318,-0.00003966,-0.00023575,0.
 00009545,-0.00005573,0.00002056,0.00008696,0.00007503,0.00159602,-0.00
 514491,0.00757717,-0.11443162,-0.03657527,-0.23590570,0.00011128,0.000
 04846,0.00001736,0.00000322,-0.00000024,0.00000196,-0.00004790,-0.0000
 9696,0.00008004,0.00005213,0.00001819,-0.00000808,0.00000375,-0.000091
 10,-0.00001048,-0.00003137,0.00004105,0.00000376,-0.00000168,0.0000693
 8,0.00001605,0.00068957,0.00026988,-0.00015849,0.00002385,0.00006151,0
 .00001116,0.00002426,0.00003127,-0.00001932,0.00181762,0.00074825,0.00
 188600,0.12710121,0.04404904,0.24692712,0.00049289,-0.00005984,0.00007
 014,-0.00083576,0.00193668,-0.00085991,0.00014748,-0.00050329,-0.00041
 597,-0.00003243,0.00036115,0.00032706,0.00008729,-0.00042218,0.0000405
 1,0.00013380,0.00019624,-0.00000654,-0.00035090,-0.00011195,-0.0000554
 5,-0.00476779,-0.01159388,0.00660224,-0.12648767,-0.02164452,0.1143932
 9,0.00004132,-0.00018959,-0.00000595,-0.00005708,0.00007892,0.00000492
 ,-0.00012876,-0.00001899,0.00000978,0.00018421,-0.00001963,0.00000022,
 -0.00026713,-0.00008495,-0.00000363,0.00010861,-0.00003284,-0.00000409
 ,0.00010835,0.00008950,0.00000054,-0.00059522,0.00110887,-0.00094529,0
 .00000510,-0.00000354,-0.00005156,0.00004483,0.00005773,0.00003063,-0.
 01191005,-0.00493617,0.02346640,0.01026112,0.00398687,-0.01549226,0.13
 381909,0.00001062,-0.00176188,-0.00061915,-0.00564769,0.00560157,0.001
 71252,0.00082939,0.00054244,-0.00016287,0.00046577,-0.00064078,-0.0003
 5917,0.00064078,0.00038547,0.00008797,-0.00094465,0.00057613,-0.000314
 66,0.00021144,0.00006688,0.00003096,-0.02189147,-0.02615861,0.02856239
 ,-0.01851778,-0.05724218,0.03223771,0.00007315,-0.00027278,0.00002801,
 -0.00004278,0.00007769,0.00004949,-0.00020356,-0.00007563,-0.00002930,
 0.00021065,-0.00000790,-0.00005605,-0.00017859,-0.00008658,0.00002741,
 0.00006135,-0.00001809,0.00000082,0.00005953,0.00008104,-0.00001141,0.
 00102817,-0.00076265,0.00113008,0.00002753,0.00001542,0.00005408,0.000
 11043,-0.00000181,0.00003848,0.00786933,0.00542357,-0.01466456,0.00398
 734,0.00376413,-0.00372239,0.03181344,0.07053076,-0.00033925,0.0003986
 2,-0.00025661,0.00122186,-0.00116589,0.00053771,0.00090276,0.00096808,
 -0.00005960,-0.00043175,-0.00028382,-0.00005571,-0.00011255,-0.0000231
 2,-0.00003946,0.00023613,-0.00009573,-0.00005555,-0.00002046,-0.000086
 99,0.00007502,-0.00159490,0.00514623,0.00757581,0.11442975,0.03656973,
 -0.23591375,-0.00011132,-0.00004846,0.00001735,-0.00000320,0.00000030,
 0.00000197,0.00004759,0.00009741,0.00007992,-0.00005212,-0.00001876,-0
 .00000794,-0.00000353,0.00009108,-0.00001050,0.00003145,-0.00004103,0.
 00000375,0.00000158,-0.00006936,0.00001604,-0.00068953,-0.00026974,-0.
 00015854,-0.00002389,-0.00006148,0.00001116,-0.00002425,-0.00003124,-0
 .00001932,-0.00181760,-0.00074827,0.00188607,0.01549141,0.00372147,-0.
 02052994,-0.12709966,-0.04404368,0.24693645,-0.00004593,0.00058385,-0.
 00011017,0.00001376,-0.00033885,-0.00006526,0.00014381,0.00029174,0.00
 002262,0.00017076,-0.00003282,0.00025083,0.00017941,0.00034065,-0.0003
 8600,-0.00091773,-0.00357841,-0.00036943,-0.00005252,0.00026438,-0.000
 11977,-0.00005029,0.00025174,0.00000764,-0.00003379,-0.00011222,0.0000
 1901,-0.01753368,0.01418383,0.01512717,-0.13246435,-0.00350528,0.11978
 600,-0.00022111,0.00008973,-0.00004399,0.00024944,-0.00002748,0.000012
 46,-0.00033843,-0.00005107,0.00001174,0.00014447,-0.00006696,-0.000001
 59,0.00012180,0.00008128,-0.00000513,0.00001943,0.00000590,-0.00002960
 ,-0.00000244,-0.00075558,-0.00051577,0.00057818,-0.00036910,0.00028101
 ,-0.00001158,0.00001723,0.00000205,0.00001598,0.00001601,-0.00000416,0
 .00001599,0.00001117,0.00000218,0.14709407,0.00100037,-0.00133662,0.00
 075296,0.00060862,0.00064615,0.00001816,-0.00058835,0.00025633,0.00014
 006,-0.00028424,-0.00079351,0.00028128,-0.00086320,0.00041800,0.000166
 81,0.00303994,0.00558080,-0.00181555,-0.00051650,-0.00051337,-0.000008
 06,-0.00000752,-0.00015346,-0.00002541,0.00000317,0.00004428,-0.000043
 42,0.02611708,-0.01417956,-0.02492138,-0.00717595,-0.05176869,0.006222
 19,0.00024246,-0.00004811,0.00000514,-0.00010725,0.00003059,0.00003837
 ,0.00005993,0.00004384,-0.00001233,-0.00001815,0.00001018,0.00000195,-
 0.00000812,-0.00002266,0.00000371,-0.00003150,0.00000943,-0.00004849,-
 0.00067624,-0.00133728,-0.00131394,-0.00061235,0.00042144,-0.00021915,
 -0.00000078,-0.00000686,-0.00000004,-0.00000091,-0.00003033,0.00000087
 ,-0.00000089,-0.00000961,0.00000706,-0.00623998,0.05781621,-0.00012432
 ,-0.00036074,-0.00023595,0.00016713,0.00009881,-0.00004658,-0.00009660
 ,0.00000190,-0.00005206,-0.00052303,0.00007002,-0.00004946,0.00115260,
 -0.00049091,0.00003366,0.00066692,0.00116115,0.00038980,-0.00017792,0.
 00004769,0.00005518,-0.00011622,0.00004573,0.00001708,-0.00000513,-0.0
 0001534,0.00000350,-0.00011259,-0.00487985,0.00768980,0.12166010,0.001
 78069,-0.23844144,0.00011559,-0.00004971,0.00001617,-0.00006300,-0.000
 07484,0.00001305,0.00001180,-0.00003433,-0.00000945,-0.00001748,0.0000
 4255,0.00001740,0.00003087,0.00005449,0.00000634,-0.00004319,0.0000451
 1,0.00000912,-0.00072735,0.00000242,-0.00012839,-0.00009793,0.00009758
 ,-0.00001681,-0.00000153,-0.00000155,-0.00000038,0.00000509,0.00000307
 ,-0.00000055,0.00000598,-0.00000422,0.00000162,-0.13543627,0.00089943,
 0.24896334,-0.00004614,0.00058562,0.00011065,0.00001293,-0.00034000,0.
 00006411,0.00014424,0.00029109,-0.00002103,0.00017104,-0.00003264,-0.0
 0024465,0.00017912,0.00034100,0.00038237,-0.00091626,-0.00357887,0.000
 36544,-0.00005242,0.00026423,0.00011952,-0.00005014,0.00025182,-0.0000
 0768,-0.00003384,-0.00011231,-0.00001894,-0.01753400,0.01418409,-0.015
 12644,-0.13246831,-0.00350381,-0.11978795,-0.00022197,0.00009139,0.000
 04724,0.00024905,-0.00002915,-0.00001646,-0.00033819,-0.00005088,-0.00
 001035,0.00014453,-0.00006696,0.00000149,0.00012183,0.00008124,0.00000
 506,0.00001942,0.00000584,0.00002963,-0.00000242,-0.00075559,0.0005158
 0,0.00057814,-0.00036908,-0.00028100,-0.00001161,0.00001724,-0.0000020
 5,0.00001597,0.00001119,-0.00000219,0.00001596,0.00001599,0.00000412,0
 .01217570,-0.00111834,0.01589051,0.14709856,0.00100040,-0.00133669,-0.
 00075326,0.00060860,0.00064627,-0.00001743,-0.00058835,0.00025636,-0.0
 0014107,-0.00028426,-0.00079351,-0.00028526,-0.00086318,0.00041805,-0.
 00016442,0.00304001,0.00558090,0.00181807,-0.00051653,-0.00051338,0.00
 000820,-0.00000750,-0.00015345,0.00002543,0.00000317,0.00004426,0.0000
 4339,0.02611750,-0.01417998,0.02492055,-0.00717459,-0.05176863,-0.0062
 1968,0.00024248,-0.00004806,-0.00000719,-0.00010730,0.00003055,-0.0000
 3585,0.00005988,0.00004388,0.00001150,-0.00001817,0.00001017,-0.000001
 91,-0.00000807,-0.00002267,-0.00000369,-0.00003152,0.00000937,0.000048
 48,-0.00067618,-0.00133734,0.00131392,-0.00061235,0.00042143,0.0002191
 6,-0.00000078,-0.00000686,0.00000003,-0.00000090,-0.00000962,-0.000007
 05,-0.00000092,-0.00003031,-0.00000086,-0.00111811,0.00208762,0.001450
 28,-0.00624168,0.05781623,0.00012421,0.00036196,-0.00023527,-0.0001677
 9,-0.00009945,-0.00004847,0.00009693,-0.00000239,-0.00004941,0.0005232
 4,-0.00006985,-0.00003908,-0.00115277,0.00049122,0.00002754,-0.0006655
 8,-0.00116127,0.00038333,0.00017795,-0.00004784,0.00005479,0.00011637,
 -0.00004566,0.00001701,0.00000508,0.00001523,0.00000359,0.00011330,0.0
 0487932,0.00769064,-0.12166193,-0.00177837,-0.23843779,-0.00011625,0.0
 0005110,0.00002154,0.00006258,0.00007355,0.00000645,-0.00001171,0.0000
 3454,-0.00000727,0.00001747,-0.00004257,0.00001726,-0.00003077,-0.0000
 5456,0.00000630,0.00004313,-0.00004530,0.00000916,0.00072736,-0.000002
 46,-0.00012837,0.00009786,-0.00009757,-0.00001678,0.00000150,0.0000015
 6,-0.00000036,-0.00000601,0.00000426,0.00000159,-0.00000513,-0.0000030
 9,-0.00000059,-0.01589108,-0.00145002,-0.02026125,0.13543791,-0.000901
 65,0.24895888,0.00092665,0.00106824,-0.00000030,-0.00056547,-0.0000429
 6,0.00000092,0.00012429,-0.00017546,-0.00000129,0.00053672,0.00009061,
 -0.00000490,-0.00112804,0.00015544,0.00000294,-0.00241488,0.00344717,0
 .00000311,0.00003019,-0.00020416,0.00000016,0.00013767,0.00003454,0.00
 000003,-0.00001391,0.00005328,-0.00000003,0.01340983,0.02713745,-0.000
 00005,-0.17243375,-0.15094035,0.00000019,-0.00003262,0.00006996,-0.000
 00254,-0.00004597,0.00003526,0.00000307,0.00014750,0.00001005,-0.00000
 099,-0.00006410,0.00001797,0.00000005,-0.00006994,-0.00004610,0.000000
 01,0.00003819,-0.00003599,-0.00000002,0.00061277,-0.00058266,-0.000000
 05,-0.00008048,0.00013737,0.,0.00000797,0.00000891,0.,-0.00000696,0.00
 000048,0.00000124,-0.00000695,0.00000050,-0.00000122,-0.00922835,-0.01
 281184,-0.00212011,-0.00922863,-0.01281222,0.00212010,0.17929930,-0.00
 155133,-0.00154262,-0.00000009,0.00042302,0.00026819,0.00000030,-0.000
 08388,-0.00002732,-0.00000044,-0.00038432,-0.00012439,-0.00000179,0.00
 086672,0.00009291,0.00000105,0.00489028,-0.00082189,0.00000106,0.00033
 909,0.00023957,0.00000005,0.00006529,-0.00044371,0.00000001,0.00007557
 ,0.00011681,0.,-0.01268236,-0.03550785,-0.00000021,-0.13718080,-0.2096
 8002,0.00000025,0.00027492,-0.00006742,-0.00000089,-0.00023894,0.00001
 677,0.00000108,0.00029725,0.00005209,-0.00000033,-0.00012768,0.0000633
 3,0.,-0.00009661,-0.00006282,0.,-0.00002544,0.00000074,0.,-0.00017372,
 0.00028013,0.,-0.00014056,-0.00021466,0.,0.00000346,-0.00003197,0.,-0.
 00001691,-0.00001444,-0.00000239,-0.00001690,-0.00001443,0.00000240,0.
 00002979,0.00281912,0.00009431,0.00003000,0.00281939,-0.00009433,0.145
 41975,0.24180022,0.00000004,-0.00000040,0.00037861,0.00000012,0.000000
 34,-0.00007657,-0.00000006,0.00000014,-0.00002718,-0.00000004,0.,0.000
 22889,0.00000008,-0.00000005,0.00015686,-0.00000010,0.00000007,0.00068
 100,-0.00000003,0.00000001,-0.00012646,0.,-0.00000001,-0.00003664,0.,0
 .,-0.00000345,-0.00000018,-0.00000046,0.00027300,0.00000013,0.00000028
 ,-0.05355206,0.00000015,-0.00000023,0.00004399,0.,0.00000026,0.0000192
 8,-0.00000009,0.,-0.00000103,-0.00000004,0.,0.00000441,0.00000004,0.,-
 0.00000090,-0.00000002,-0.00000007,-0.00002822,0.,0.,-0.00049061,0.,-0
 .00000002,0.00017819,0.,0.,0.00000269,-0.00000243,-0.00000043,-0.00000
 038,0.00000242,0.00000043,-0.00000037,0.01747341,0.02133748,0.00207540
 ,-0.01747318,-0.02133727,0.00207543,-0.00000021,0.,0.04826261,0.000032
 62,0.00024118,-0.00000040,-0.00003740,0.00004205,0.00000118,0.00077778
 ,-0.00203351,-0.00000176,-0.00573105,-0.02925708,-0.00000508,-0.005445
 66,0.00081018,0.00000398,0.00066019,-0.00164839,0.00000399,-0.00003159
 ,0.00012306,0.00000023,0.00001794,0.00020277,0.00000005,-0.00008516,-0
 .00013257,-0.00000005,-0.00057287,-0.00003389,-0.00000017,-0.00005681,
 0.00011873,0.00000018,-0.07203850,-0.06334979,0.00000043,0.00865020,0.
 02634980,0.00000242,-0.00057921,0.00455914,-0.00000151,0.00101416,-0.0
 0166356,0.00000017,-0.00069011,-0.00193469,0.00000014,-0.00087600,0.00
 114458,0.00000005,0.00013566,0.00000511,-0.00000001,0.00004818,-0.0000
 3131,-0.00000003,0.00003674,0.00002342,0.,-0.00000200,0.00001588,0.000
 05183,-0.00000200,0.00001592,-0.00005179,0.00000694,0.00000644,0.00000
 100,0.00000693,0.00000642,-0.00000105,0.00000164,-0.00001115,-0.000000
 02,0.07869491,0.00026946,0.00001278,-0.00000145,-0.00002101,0.00012165
 ,0.00000385,0.00198624,0.00114424,-0.00000560,0.00023640,-0.00461274,-
 0.00002081,-0.00031666,0.00116296,0.00001271,0.00014980,-0.00009386,0.
 00001324,-0.00020437,0.00000742,0.00000080,-0.00007992,0.00011985,0.00
 000015,-0.00004413,-0.00008058,-0.00000017,-0.00010718,-0.00003793,-0.
 00000056,-0.00000294,0.00003635,0.00000061,-0.06142983,-0.32309326,0.0
 0000551,-0.00482156,-0.02051625,0.00001501,-0.00107009,-0.00245701,-0.
 00000475,-0.00001912,0.00060518,0.00000030,-0.00121969,0.00192360,-0.0
 0000001,-0.00016619,0.00062320,0.,0.00011804,0.00009499,-0.00000012,0.
 00003349,0.00002609,-0.00000007,0.00000283,0.00000873,-0.00000003,0.00
 000026,0.00001126,0.00000396,0.00000028,0.00001139,-0.00000383,0.00001
 009,0.00000174,0.00001684,0.00001006,0.00000169,-0.00001698,-0.0000115
 9,-0.00000436,-0.00000006,0.06398242,0.34552626,0.00000025,-0.00000051
 ,0.00017092,0.00000003,0.00000048,0.00008722,0.,-0.00000002,-0.0012859
 9,-0.00000103,-0.00000012,0.00333977,0.00000032,0.00000018,0.00271561,
 -0.00000018,0.00000034,0.00037183,-0.00000018,-0.00000007,-0.00005874,
 0.00000006,0.00000001,0.00001616,0.,-0.00000006,0.00007263,0.00000003,
 -0.00000006,-0.00050738,-0.00000003,-0.00000005,0.00006658,0.00000457,
 0.00001623,-0.04231440,-0.00000038,0.00000257,0.00648829,0.00000006,-0
 .00000011,-0.00738983,-0.00000014,-0.00000001,0.00044252,0.00000021,-0
 .00000028,0.00010567,-0.00000004,-0.00000031,0.00023549,0.00000004,-0.
 00000003,-0.00001984,-0.00000004,-0.00000001,-0.00000611,-0.00000002,0
 .,-0.00001228,0.00001031,-0.00002735,-0.00002371,-0.00001037,0.0000273
 6,-0.00002371,-0.00000126,-0.00000229,-0.00000105,0.00000133,0.0000022
 4,-0.00000094,-0.00000005,-0.00000002,-0.00000636,-0.00000330,-0.00001
 890,0.02716806,0.00004824,-0.00002544,0.00000013,-0.00016903,-0.000120
 02,-0.00000035,0.00023099,-0.00011114,0.00000047,0.00030140,-0.0008404
 7,0.00000199,-0.00110024,0.00071858,-0.00000110,-0.00013314,-0.0002753
 4,-0.00000111,-0.00000220,-0.00007061,-0.00000009,0.00015427,-0.000217
 06,-0.00000001,0.00004438,0.00011267,0.00000002,0.00007103,0.00006670,
 0.00000004,-0.00002185,0.00002910,-0.00000006,0.00948742,0.02612233,-0
 .00000078,-0.06221353,-0.03162562,0.00000067,0.00361310,-0.02979348,0.
 00000235,-0.00129363,0.00120606,-0.00000007,-0.00739764,-0.00337145,0.
 00000024,0.00011203,-0.00016181,0.,-0.00209539,-0.00080904,-0.00000028
 ,-0.00004200,0.00001694,0.00000001,-0.00000248,-0.00001087,0.,-0.00000
 945,-0.00000861,-0.00001405,-0.00000945,-0.00000863,0.00001403,-0.0000
 0996,-0.00001712,-0.00004038,-0.00000998,-0.00001712,0.00004040,0.0000
 3479,-0.00000068,0.00000001,-0.00379415,0.00262278,-0.00000034,0.06350
 941,-0.00011834,-0.00013233,-0.00000028,0.00018652,-0.00002784,0.00000
 054,-0.00003903,0.00007749,-0.00000076,-0.00083354,-0.00025458,-0.0000
 0356,-0.00052324,-0.00025033,0.00000170,0.00018236,0.00062194,0.000001
 98,-0.00008063,0.00006824,0.00000016,-0.00006694,0.00018593,0.00000003
 ,-0.00004483,-0.00010151,-0.00000003,0.00001517,-0.00008340,-0.0000000
 9,0.00001072,0.00004620,0.00000008,-0.00469958,-0.01522425,-0.00000047
 ,-0.03503238,-0.34536409,0.00002393,0.00475683,-0.00933049,-0.00000021
 ,0.00058036,0.00160031,-0.00000005,-0.00232291,0.00068968,0.00000023,-
 0.00004756,0.00013856,0.,-0.00084455,0.00088000,0.00000004,0.00003527,
 0.00000242,-0.00000002,0.00000179,0.00000973,0.,0.00000860,0.00000631,
 0.00001565,0.00000860,0.00000633,-0.00001562,0.00001059,0.00001283,-0.
 00000108,0.00001061,0.00001283,0.00000108,-0.00001758,-0.00000607,-0.0
 0000001,0.00242798,-0.00053680,0.00000074,0.03646327,0.36681138,0.0000
 0015,-0.00000086,-0.00040882,0.00000025,0.00000069,-0.00001861,0.00000
 003,0.00000024,-0.00008558,-0.00000035,-0.00000045,-0.00526059,-0.0000
 0006,0.00000007,-0.00038667,-0.00000044,0.00000013,-0.00042321,-0.0000
 0008,0.00000002,0.00031011,-0.00000002,-0.00000005,0.00002772,0.000000
 02,0.00000004,0.00003039,0.00000004,0.,0.00002070,-0.00000004,-0.00000
 005,0.00019358,0.00000128,0.00000077,0.00354526,0.00000209,0.00002288,
 -0.03245585,-0.00000057,0.00000026,-0.00038826,-0.00000013,-0.00000015
 ,-0.00059719,0.00000018,0.00000013,0.00284342,0.,-0.00000014,0.0001646
 4,-0.00000023,-0.00000016,0.00129431,-0.00000001,-0.00000002,0.0000072
 8,0.,0.,-0.00000229,-0.00000038,-0.00000125,-0.00000649,0.00000036,0.0
 0000125,-0.00000647,-0.00001826,-0.00001642,-0.00004132,0.00001829,0.0
 0001641,-0.00004125,0.,0.,-0.00003030,-0.00000041,0.00000055,0.0102008
 9,-0.00000175,-0.00002389,0.02180137,-0.00037425,-0.00006926,0.0000009
 5,-0.00005280,0.00038706,-0.00000258,-0.00021468,0.00005842,0.00000362
 ,0.00029800,0.00055463,0.00001412,0.00001774,-0.00012732,-0.00000834,0
 .00007219,-0.00034111,-0.00000887,0.00041852,0.00012561,-0.00000053,0.
 00011544,-0.00021313,-0.00000010,0.00001343,0.00009546,0.00000011,0.00
 005633,0.00027625,0.00000036,0.00005674,-0.00010715,-0.00000041,-0.001
 81571,-0.00075291,0.00000734,-0.00040992,0.00563813,-0.00000927,-0.043
 51108,-0.01381285,0.00000402,-0.40464379,-0.15482093,0.00001175,0.0070
 3776,-0.00595383,0.00000027,-0.00002709,0.00001318,0.00000005,-0.00002
 495,-0.00001969,0.00000008,-0.00003258,-0.00006086,0.00000005,0.000015
 65,-0.00001070,0.00000002,-0.00001484,-0.00000726,0.00000576,-0.000014
 85,-0.00000735,-0.00000585,-0.00001955,0.00000123,-0.00000457,-0.00001
 953,0.00000127,0.00000467,0.00001253,0.00001612,0.00000004,-0.00014139
 ,0.00009213,0.00000015,0.00069703,-0.00002759,0.00000006,0.44250564,0.
 00008451,-0.00000467,0.00000029,0.00001403,-0.00006709,-0.00000067,0.0
 0006262,0.00003434,0.00000088,0.00012570,-0.00027921,0.00000388,-0.000
 03648,-0.00002366,-0.00000224,0.00000082,0.00010901,-0.00000246,-0.000
 09445,-0.00003078,-0.00000016,-0.00001399,0.00001286,-0.00000002,0.000
 01161,0.00000548,0.00000004,-0.00001357,-0.00010686,0.00000010,-0.0000
 2867,0.00004433,-0.00000010,0.00119427,0.00079074,0.00000213,0.0025432
 5,-0.00400115,-0.00000207,0.03862798,0.02025267,-0.00000042,-0.2060021
 8,-0.13793770,0.00000848,-0.00573551,-0.00319395,-0.00000012,0.0000111
 6,-0.00001359,0.00000002,0.00001250,0.00001842,0.00000003,0.00000740,0
 .00001664,0.00000002,-0.00000360,0.00000081,0.,0.00000177,0.00000044,-
 0.00000553,0.00000177,0.00000041,0.00000549,0.00000789,0.00000150,0.00
 000047,0.00000787,0.00000151,-0.00000046,-0.00000606,-0.00000530,0.000
 00001,0.00002085,-0.00000658,0.00000004,0.00012607,0.00014152,0.,0.169
 07244,0.12423990,0.00000008,-0.00000033,-0.00005298,-0.00000002,0.0000
 0044,0.00011772,0.00000001,0.00000009,-0.00026708,-0.00000003,-0.00000
 001,-0.00045515,0.00000008,0.00000007,0.00000964,0.00000016,0.00000019
 ,0.00005116,-0.00000008,-0.00000004,-0.00000751,0.00000006,0.,0.000001
 73,-0.00000001,-0.00000005,0.00003045,0.00000003,0.,-0.00000972,-0.000
 00002,-0.00000007,0.00003505,0.00000009,0.00000014,0.00090651,-0.00000
 045,0.00000050,0.00447474,-0.00000196,-0.00000072,0.00400719,0.0000147
 5,0.00000824,-0.01540422,0.00000041,-0.00000023,-0.00565621,-0.0000000
 7,-0.00000024,-0.00001561,0.00000005,-0.00000004,-0.00000138,-0.000000
 04,-0.00000003,0.00000983,-0.00000002,0.,0.00000116,-0.00000139,-0.000
 00159,-0.00000479,0.00000133,0.00000160,-0.00000479,0.00000160,0.00000
 101,-0.00000675,-0.00000154,-0.00000105,-0.00000665,-0.00000004,-0.000
 00002,0.00000017,-0.00000007,-0.00000019,0.00016873,0.,-0.00000006,-0.
 00028678,-0.00001290,-0.00000764,0.01236552\\-0.00000715,0.00000200,-0
 .00000003,0.00001116,0.00000180,-0.00000015,-0.00000733,-0.00000306,0.
 00000008,-0.00000216,-0.00000620,0.00000006,-0.00000320,0.00000156,0.0
 0000004,0.00000403,0.00000769,0.00000002,-0.00000168,0.00000425,0.0000
 0005,-0.00000489,0.00000374,0.00000016,0.00000635,-0.00000556,-0.00000
 009,-0.00000637,-0.00000445,0.,0.00000409,0.00000652,0.,0.00000540,-0.
 00000757,-0.00000014,0.00000126,0.00000987,-0.00000110,0.00000692,0.,0
 .00000371,-0.00000216,0.00000132,-0.00000110,-0.00000373,-0.00001287,-
 0.00000142,0.00000192,0.00000347,0.,0.00000196,-0.00000354,0.,0.000002
 69,0.00000042,-0.00000003,-0.00000047,0.00000379,0.,0.00000248,0.00000
 204,0.00000264,0.00000251,0.00000202,-0.00000261,-0.00000142,-0.000000
 61,-0.00000285,-0.00000142,-0.00000061,0.00000285,-0.00000535,0.000000
 76,0.,0.00000081,0.00000080,0.,-0.00000118,-0.00000513,-0.00000006,-0.
 00000308,-0.00000246,-0.00000002\\\@


 FAULTILY FAULTLESS, ICILY REGULAR, SPLENDIDLY NULL...
           MAUDE BY TENNYSON
 Job cpu time:       1 days  0 hours 57 minutes 51.6 seconds.
 File lengths (MBytes):  RWF= 102717 Int=      0 D2E=      0 Chk=     15 Scr=      1
 Normal termination of Gaussian 09 at Wed Dec 18 02:13:22 2024.
