 Entering Gaussian System, Link 0=g09
 Input=b3lypD3SAYang.gjf
 Output=b3lypD3SAYang.log
 Initial command:
 /home/c612/g09E/g09/l1.exe "/mnt/ja_sm883/scratch/Gau-1399517.inp" -scrdir="/mnt/ja_sm883/scratch/"
 Default is to use a total of  18 processors:
                               18 via shared-memory
                                1 via Linda
 Entering Link 1 = /home/c612/g09E/g09/l1.exe PID=   1399519.
  
 Copyright (c) 1988,1990,1992,1993,1995,1998,2003,2009,2015,
            Gaussian, Inc.  All Rights Reserved.
  
 This is part of the Gaussian(R) 09 program.  It is based on
 the Gaussian(R) 03 system (copyright 2003, Gaussian, Inc.),
 the Gaussian(R) 98 system (copyright 1998, Gaussian, Inc.),
 the Gaussian(R) 94 system (copyright 1995, Gaussian, Inc.),
 the Gaussian 92(TM) system (copyright 1992, Gaussian, Inc.),
 the Gaussian 90(TM) system (copyright 1990, Gaussian, Inc.),
 the Gaussian 88(TM) system (copyright 1988, Gaussian, Inc.),
 the Gaussian 86(TM) system (copyright 1986, Carnegie Mellon
 University), and the Gaussian 82(TM) system (copyright 1983,
 Carnegie Mellon University). Gaussian is a federally registered
 trademark of Gaussian, Inc.
  
 This software contains proprietary and confidential information,
 including trade secrets, belonging to Gaussian, Inc.
  
 This software is provided under written license and may be
 used, copied, transmitted, or stored only in accord with that
 written license.
  
 The following legend is applicable only to US Government
 contracts under FAR:
  
                    RESTRICTED RIGHTS LEGEND
  
 Use, reproduction and disclosure by the US Government is
 subject to restrictions as set forth in subparagraphs (a)
 and (c) of the Commercial Computer Software - Restricted
 Rights clause in FAR 52.227-19.
  
 Gaussian, Inc.
 340 Quinnipiac St., Bldg. 40, Wallingford CT 06492
  
  
 ---------------------------------------------------------------
 Warning -- This program may not be used in any manner that
 competes with the business of Gaussian, Inc. or will provide
 assistance to any competitor of Gaussian, Inc.  The licensee
 of this program is prohibited from giving any competitor of
 Gaussian, Inc. access to this program.  By using this program,
 the user acknowledges that Gaussian, Inc. is engaged in the
 business of creating and licensing software in the field of
 computational chemistry and represents and warrants to the
 licensee that it is not a competitor of Gaussian, Inc. and that
 it will not use this program in any manner prohibited above.
 ---------------------------------------------------------------
  

 Cite this work as:
 Gaussian 09, Revision E.01,
 M. J. Frisch, G. W. Trucks, H. B. Schlegel, G. E. Scuseria, 
 M. A. Robb, J. R. Cheeseman, G. Scalmani, V. Barone, B. Mennucci, 
 G. A. Petersson, H. Nakatsuji, M. Caricato, X. Li, H. P. Hratchian, 
 A. F. Izmaylov, J. Bloino, G. Zheng, J. L. Sonnenberg, M. Hada, 
 M. Ehara, K. Toyota, R. Fukuda, J. Hasegawa, M. Ishida, T. Nakajima, 
 Y. Honda, O. Kitao, H. Nakai, T. Vreven, J. A. Montgomery, Jr., 
 J. E. Peralta, F. Ogliaro, M. Bearpark, J. J. Heyd, E. Brothers, 
 K. N. Kudin, V. N. Staroverov, T. Keith, R. Kobayashi, J. Normand, 
 K. Raghavachari, A. Rendell, J. C. Burant, S. S. Iyengar, J. Tomasi, 
 M. Cossi, N. Rega, J. M. Millam, M. Klene, J. E. Knox, J. B. Cross, 
 V. Bakken, C. Adamo, J. Jaramillo, R. Gomperts, R. E. Stratmann, 
 O. Yazyev, A. J. Austin, R. Cammi, C. Pomelli, J. W. Ochterski, 
 R. L. Martin, K. Morokuma, V. G. Zakrzewski, G. A. Voth, 
 P. Salvador, J. J. Dannenberg, S. Dapprich, A. D. Daniels, 
 O. Farkas, J. B. Foresman, J. V. Ortiz, J. Cioslowski, 
 and D. J. Fox, Gaussian, Inc., Wallingford CT, 2013.
 
 ******************************************
 Gaussian 09:  ES64L-G09RevE.01 30-Nov-2015
                17-Dec-2024 
 ******************************************
 %chk=b3lypD3SAYang.chk
 ----------------------------------------------------
 # opt freq b3lyp/6-31+g(d,p) EmpiricalDispersion=GD3
 ----------------------------------------------------
 1/14=-1,18=20,19=15,26=3,38=1/1,3;
 2/9=110,12=2,17=6,18=5,40=1/2;
 3/5=1,6=6,7=111,11=2,16=1,25=1,30=1,71=1,74=-5,124=31/1,2,3;
 4//1;
 5/5=2,38=5/2;
 6/7=2,8=2,9=2,10=2,28=1/1;
 7//1,2,3,16;
 1/14=-1,18=20,19=15,26=3/3(2);
 2/9=110/2;
 99//99;
 2/9=110/2;
 3/5=1,6=6,7=111,11=2,16=1,25=1,30=1,71=1,74=-5,124=31/1,2,3;
 4/5=5,16=3,69=1/1;
 5/5=2,38=5/2;
 7//1,2,3,16;
 1/14=-1,18=20,19=15,26=3/3(-5);
 2/9=110/2;
 6/7=2,8=2,9=2,10=2,19=2,28=1/1;
 99/9=1/99;
 ----------
 [No Title]
 ----------
 Symbolic Z-matrix:
 Charge =  1 Multiplicity = 1
 C                     2.39977   0.19741  -0.00093 
 C                     1.92442  -1.13829   0.00673 
 C                     0.55613  -1.34974   0.01083 
 C                    -0.35861  -0.26016   0.00797 
 C                     0.1316    1.07468  -0.00253 
 C                     1.49108   1.29181  -0.00528 
 O                     3.70376   0.4131   -0.00486 
 O                     2.87874  -2.07851   0.00902 
 C                     2.48492  -3.44701   0.01728 
 O                     2.12824   2.48355  -0.01383 
 C                     1.3542    3.68245  -0.01884 
 C                    -1.73644  -0.56583   0.01189 
 C                    -2.80391   0.32655   0.01727 
 C                    -4.11838  -0.11078  -0.00086 
 O                    -5.08312   0.78649   0.10787 
 O                    -4.4099   -1.39558  -0.13569 
 H                     0.16351  -2.36021   0.01665 
 H                    -0.5536    1.91277  -0.00816 
 H                     3.8654    1.37291  -0.01067 
 H                     3.41281  -4.01727   0.01828 
 H                     1.90922  -3.68398   0.91944 
 H                     1.90517  -3.69374  -0.87965 
 H                     2.07426   4.4994   -0.02479 
 H                     0.73121   3.73473  -0.91811 
 H                     0.73488   3.74454   0.88235 
 H                    -1.98951  -1.62459   0.00955 
 H                    -2.67214   1.40124   0.03745 
 H                    -5.96261   0.46538  -0.14042 
 H                    -5.3091   -1.63006   0.13677 
 

 GradGradGradGradGradGradGradGradGradGradGradGradGradGradGradGradGradGrad
 Berny optimization.
 Initialization pass.
                           ----------------------------
                           !    Initial Parameters    !
                           ! (Angstroms and Degrees)  !
 --------------------------                            --------------------------
 ! Name  Definition              Value          Derivative Info.                !
 --------------------------------------------------------------------------------
 ! R1    R(1,2)                  1.4178         estimate D2E/DX2                !
 ! R2    R(1,6)                  1.4225         estimate D2E/DX2                !
 ! R3    R(1,7)                  1.3217         estimate D2E/DX2                !
 ! R4    R(2,3)                  1.3845         estimate D2E/DX2                !
 ! R5    R(2,8)                  1.3397         estimate D2E/DX2                !
 ! R6    R(3,4)                  1.4227         estimate D2E/DX2                !
 ! R7    R(3,17)                 1.0841         estimate D2E/DX2                !
 ! R8    R(4,5)                  1.422          estimate D2E/DX2                !
 ! R9    R(4,12)                 1.4113         estimate D2E/DX2                !
 ! R10   R(5,6)                  1.3767         estimate D2E/DX2                !
 ! R11   R(5,18)                 1.0826         estimate D2E/DX2                !
 ! R12   R(6,10)                 1.3514         estimate D2E/DX2                !
 ! R13   R(7,19)                 0.9733         estimate D2E/DX2                !
 ! R14   R(8,9)                  1.4241         estimate D2E/DX2                !
 ! R15   R(9,20)                 1.0891         estimate D2E/DX2                !
 ! R16   R(9,21)                 1.0961         estimate D2E/DX2                !
 ! R17   R(9,22)                 1.0961         estimate D2E/DX2                !
 ! R18   R(10,11)                1.4271         estimate D2E/DX2                !
 ! R19   R(11,23)                1.089          estimate D2E/DX2                !
 ! R20   R(11,24)                1.0952         estimate D2E/DX2                !
 ! R21   R(11,25)                1.0952         estimate D2E/DX2                !
 ! R22   R(12,13)                1.3914         estimate D2E/DX2                !
 ! R23   R(12,26)                1.0886         estimate D2E/DX2                !
 ! R24   R(13,14)                1.3854         estimate D2E/DX2                !
 ! R25   R(13,27)                1.0829         estimate D2E/DX2                !
 ! R26   R(14,15)                1.322          estimate D2E/DX2                !
 ! R27   R(14,16)                1.3243         estimate D2E/DX2                !
 ! R28   R(15,28)                0.9686         estimate D2E/DX2                !
 ! R29   R(16,29)                0.9684         estimate D2E/DX2                !
 ! A1    A(2,1,6)              120.7072         estimate D2E/DX2                !
 ! A2    A(2,1,7)              118.9827         estimate D2E/DX2                !
 ! A3    A(6,1,7)              120.3101         estimate D2E/DX2                !
 ! A4    A(1,2,3)              118.3752         estimate D2E/DX2                !
 ! A5    A(1,2,8)              114.9834         estimate D2E/DX2                !
 ! A6    A(3,2,8)              126.6414         estimate D2E/DX2                !
 ! A7    A(2,3,4)              121.2292         estimate D2E/DX2                !
 ! A8    A(2,3,17)             120.0191         estimate D2E/DX2                !
 ! A9    A(4,3,17)             118.7517         estimate D2E/DX2                !
 ! A10   A(3,4,5)              119.82           estimate D2E/DX2                !
 ! A11   A(3,4,12)             117.5058         estimate D2E/DX2                !
 ! A12   A(5,4,12)             122.6739         estimate D2E/DX2                !
 ! A13   A(4,5,6)              119.2398         estimate D2E/DX2                !
 ! A14   A(4,5,18)             120.5675         estimate D2E/DX2                !
 ! A15   A(6,5,18)             120.1927         estimate D2E/DX2                !
 ! A16   A(1,6,5)              120.6284         estimate D2E/DX2                !
 ! A17   A(1,6,10)             112.1663         estimate D2E/DX2                !
 ! A18   A(5,6,10)             127.2053         estimate D2E/DX2                !
 ! A19   A(1,7,19)             108.9521         estimate D2E/DX2                !
 ! A20   A(2,8,9)              118.519          estimate D2E/DX2                !
 ! A21   A(8,9,20)             105.5198         estimate D2E/DX2                !
 ! A22   A(8,9,21)             110.9636         estimate D2E/DX2                !
 ! A23   A(8,9,22)             110.9666         estimate D2E/DX2                !
 ! A24   A(20,9,21)            109.4826         estimate D2E/DX2                !
 ! A25   A(20,9,22)            109.4818         estimate D2E/DX2                !
 ! A26   A(21,9,22)            110.3057         estimate D2E/DX2                !
 ! A27   A(6,10,11)            119.0223         estimate D2E/DX2                !
 ! A28   A(10,11,23)           105.761          estimate D2E/DX2                !
 ! A29   A(10,11,24)           110.5798         estimate D2E/DX2                !
 ! A30   A(10,11,25)           110.5762         estimate D2E/DX2                !
 ! A31   A(23,11,24)           109.6216         estimate D2E/DX2                !
 ! A32   A(23,11,25)           109.6247         estimate D2E/DX2                !
 ! A33   A(24,11,25)           110.5632         estimate D2E/DX2                !
 ! A34   A(4,12,13)            127.5975         estimate D2E/DX2                !
 ! A35   A(4,12,26)            115.9507         estimate D2E/DX2                !
 ! A36   A(13,12,26)           116.4517         estimate D2E/DX2                !
 ! A37   A(12,13,14)           121.6961         estimate D2E/DX2                !
 ! A38   A(12,13,27)           122.9022         estimate D2E/DX2                !
 ! A39   A(14,13,27)           115.4016         estimate D2E/DX2                !
 ! A40   A(13,14,15)           118.4934         estimate D2E/DX2                !
 ! A41   A(13,14,16)           121.0925         estimate D2E/DX2                !
 ! A42   A(15,14,16)           120.4115         estimate D2E/DX2                !
 ! A43   A(14,15,28)           114.6145         estimate D2E/DX2                !
 ! A44   A(14,16,29)           114.246          estimate D2E/DX2                !
 ! D1    D(6,1,2,3)             -0.0455         estimate D2E/DX2                !
 ! D2    D(6,1,2,8)            179.9438         estimate D2E/DX2                !
 ! D3    D(7,1,2,3)            179.9975         estimate D2E/DX2                !
 ! D4    D(7,1,2,8)             -0.0132         estimate D2E/DX2                !
 ! D5    D(2,1,6,5)             -0.0195         estimate D2E/DX2                !
 ! D6    D(2,1,6,10)          -179.9358         estimate D2E/DX2                !
 ! D7    D(7,1,6,5)            179.937          estimate D2E/DX2                !
 ! D8    D(7,1,6,10)             0.0207         estimate D2E/DX2                !
 ! D9    D(2,1,7,19)           179.9564         estimate D2E/DX2                !
 ! D10   D(6,1,7,19)            -0.0009         estimate D2E/DX2                !
 ! D11   D(1,2,3,4)             -0.0227         estimate D2E/DX2                !
 ! D12   D(1,2,3,17)           179.997          estimate D2E/DX2                !
 ! D13   D(8,2,3,4)            179.9894         estimate D2E/DX2                !
 ! D14   D(8,2,3,17)             0.0091         estimate D2E/DX2                !
 ! D15   D(1,2,8,9)            179.9705         estimate D2E/DX2                !
 ! D16   D(3,2,8,9)             -0.0412         estimate D2E/DX2                !
 ! D17   D(2,3,4,5)              0.1536         estimate D2E/DX2                !
 ! D18   D(2,3,4,12)           179.9711         estimate D2E/DX2                !
 ! D19   D(17,3,4,5)          -179.8659         estimate D2E/DX2                !
 ! D20   D(17,3,4,12)           -0.0483         estimate D2E/DX2                !
 ! D21   D(3,4,5,6)             -0.2158         estimate D2E/DX2                !
 ! D22   D(3,4,5,18)           179.7942         estimate D2E/DX2                !
 ! D23   D(12,4,5,6)           179.9765         estimate D2E/DX2                !
 ! D24   D(12,4,5,18)           -0.0135         estimate D2E/DX2                !
 ! D25   D(3,4,12,13)          179.6304         estimate D2E/DX2                !
 ! D26   D(3,4,12,26)           -0.4271         estimate D2E/DX2                !
 ! D27   D(5,4,12,13)           -0.5576         estimate D2E/DX2                !
 ! D28   D(5,4,12,26)          179.3848         estimate D2E/DX2                !
 ! D29   D(4,5,6,1)              0.1498         estimate D2E/DX2                !
 ! D30   D(4,5,6,10)          -179.9476         estimate D2E/DX2                !
 ! D31   D(18,5,6,1)          -179.8602         estimate D2E/DX2                !
 ! D32   D(18,5,6,10)            0.0425         estimate D2E/DX2                !
 ! D33   D(1,6,10,11)         -179.9872         estimate D2E/DX2                !
 ! D34   D(5,6,10,11)            0.1032         estimate D2E/DX2                !
 ! D35   D(2,8,9,20)          -179.9686         estimate D2E/DX2                !
 ! D36   D(2,8,9,21)           -61.4742         estimate D2E/DX2                !
 ! D37   D(2,8,9,22)            61.5364         estimate D2E/DX2                !
 ! D38   D(6,10,11,23)         179.9655         estimate D2E/DX2                !
 ! D39   D(6,10,11,24)         -61.4352         estimate D2E/DX2                !
 ! D40   D(6,10,11,25)          61.3643         estimate D2E/DX2                !
 ! D41   D(4,12,13,14)         178.9515         estimate D2E/DX2                !
 ! D42   D(4,12,13,27)          -1.159          estimate D2E/DX2                !
 ! D43   D(26,12,13,14)         -0.9908         estimate D2E/DX2                !
 ! D44   D(26,12,13,27)        178.8988         estimate D2E/DX2                !
 ! D45   D(12,13,14,15)        174.9439         estimate D2E/DX2                !
 ! D46   D(12,13,14,16)         -5.6498         estimate D2E/DX2                !
 ! D47   D(27,13,14,15)         -4.9534         estimate D2E/DX2                !
 ! D48   D(27,13,14,16)        174.4528         estimate D2E/DX2                !
 ! D49   D(13,14,15,28)        164.7182         estimate D2E/DX2                !
 ! D50   D(16,14,15,28)        -14.6922         estimate D2E/DX2                !
 ! D51   D(13,14,16,29)        161.7848         estimate D2E/DX2                !
 ! D52   D(15,14,16,29)        -18.8203         estimate D2E/DX2                !
 --------------------------------------------------------------------------------
 Trust Radius=3.00D-01 FncErr=1.00D-07 GrdErr=1.00D-06
 Number of steps in this run=    135 maximum allowed number of steps=    174.
 GradGradGradGradGradGradGradGradGradGradGradGradGradGradGradGradGradGrad

                          Input orientation:                          
 ---------------------------------------------------------------------
 Center     Atomic      Atomic             Coordinates (Angstroms)
 Number     Number       Type             X           Y           Z
 ---------------------------------------------------------------------
      1          6           0        2.399773    0.197409   -0.000930
      2          6           0        1.924415   -1.138293    0.006730
      3          6           0        0.556127   -1.349743    0.010830
      4          6           0       -0.358612   -0.260162    0.007972
      5          6           0        0.131600    1.074679   -0.002531
      6          6           0        1.491080    1.291807   -0.005278
      7          8           0        3.703759    0.413102   -0.004856
      8          8           0        2.878740   -2.078506    0.009017
      9          6           0        2.484923   -3.447013    0.017284
     10          8           0        2.128240    2.483546   -0.013832
     11          6           0        1.354202    3.682445   -0.018837
     12          6           0       -1.736436   -0.565825    0.011892
     13          6           0       -2.803912    0.326551    0.017270
     14          6           0       -4.118381   -0.110782   -0.000863
     15          8           0       -5.083118    0.786492    0.107872
     16          8           0       -4.409895   -1.395578   -0.135692
     17          1           0        0.163505   -2.360210    0.016650
     18          1           0       -0.553596    1.912774   -0.008157
     19          1           0        3.865395    1.372907   -0.010667
     20          1           0        3.412809   -4.017274    0.018279
     21          1           0        1.909223   -3.683977    0.919440
     22          1           0        1.905173   -3.693735   -0.879646
     23          1           0        2.074260    4.499404   -0.024791
     24          1           0        0.731210    3.734728   -0.918107
     25          1           0        0.734880    3.744538    0.882345
     26          1           0       -1.989511   -1.624591    0.009551
     27          1           0       -2.672137    1.401240    0.037453
     28          1           0       -5.962609    0.465381   -0.140424
     29          1           0       -5.309102   -1.630060    0.136774
 ---------------------------------------------------------------------
                    Distance matrix (angstroms):
                    1          2          3          4          5
     1  C    0.000000
     2  C    1.417788   0.000000
     3  C    2.406834   1.384536   0.000000
     4  C    2.796093   2.446084   1.422653   0.000000
     5  C    2.431916   2.848072   2.461346   1.422047   0.000000
     6  C    1.422480   2.468463   2.802175   2.414569   1.376713
     7  O    1.321710   2.360726   3.607694   4.117804   3.632906
     8  O    2.325790   1.339680   2.434262   3.713061   4.182043
     9  C    3.645462   2.375809   2.849357   4.271042   5.097472
    10  O    2.302242   3.627628   4.143218   3.703085   2.443687
    11  C    3.638546   4.854412   5.095166   4.298674   2.880185
    12  C    4.206057   3.705344   2.422885   1.411327   2.486166
    13  C    5.205319   4.950046   3.754979   2.514719   3.029409
    14  C    6.525436   6.129537   4.835927   3.762746   4.412217
    15  O    7.506831   7.267774   6.031086   4.840085   5.223842
    16  O    6.994809   6.341133   4.968395   4.209834   5.171564
    17  H    3.397443   2.143358   1.084080   2.163997   3.435091
    18  H    3.415394   3.930620   3.446137   2.181726   1.082556
    19  H    1.878813   3.173930   4.285387   4.528741   3.745695
    20  H    4.334762   3.240985   3.908505   5.323496   6.057619
    21  H    4.019064   2.704400   2.846944   4.206704   5.162827
    22  H    4.019673   2.704869   2.847309   4.207376   5.162622
    23  H    4.314358   5.639776   6.043055   5.345410   3.937406
    24  H    4.017206   5.101509   5.171598   4.243169   2.876399
    25  H    4.016736   5.101346   5.171382   4.242390   2.876647
    26  H    4.752432   3.944022   2.560433   2.126382   3.432975
    27  H    5.212960   5.251520   4.241498   2.848425   2.822974
    28  H    8.367837   8.049756   6.768417   5.652718   6.126144
    29  H    7.923721   7.251380   5.873274   5.138148   6.077521
                    6          7          8          9         10
     6  C    0.000000
     7  O    2.380771   0.000000
     8  O    3.644834   2.624683   0.000000
     9  C    4.841967   4.048029   1.424069   0.000000
    10  O    1.351402   2.601745   4.623428   5.941357   0.000000
    11  C    2.394592   4.026067   5.959324   7.218657   1.427066
    12  C    3.723970   5.527594   4.856754   5.110885   4.922910
    13  C    4.402179   6.508284   6.170648   6.497042   5.383281
    14  C    5.782156   7.839665   7.268544   7.398269   6.763947
    15  O    6.594560   8.795529   8.462220   8.672140   7.409351
    16  O    6.485411   8.313833   7.321990   7.195158   7.603267
    17  H    3.885893   4.497235   2.729820   2.563225   5.227149
    18  H    2.136892   4.513768   5.264175   6.161214   2.741908
    19  H    2.375706   0.973337   3.589725   5.013792   2.061853
    20  H    5.646232   4.439980   2.011004   1.089115   6.626599
    21  H    5.078225   4.567356   2.084795   1.096115   6.241579
    22  H    5.078545   4.567962   2.084831   1.096114   6.241650
    23  H    3.260239   4.399265   6.627008   7.957132   2.016610
    24  H    2.716344   4.550085   6.266190   7.451702   2.082033
    25  H    2.715806   4.549707   6.266313   7.451804   2.081991
    26  H    4.540937   6.046960   4.889367   4.831340   5.816632
    27  H    4.164874   6.452151   6.551464   7.078222   4.921142
    28  H    7.500582   9.667460   9.201258   9.310880   8.339715
    29  H    7.402700   9.242631   8.201109   8.003900   8.500500
                   11         12         13         14         15
    11  C    0.000000
    12  C    5.253645   0.000000
    13  C    5.343523   1.391355   0.000000
    14  C    6.658683   2.425054   1.385431   0.000000
    15  O    7.059865   3.610852   2.326915   1.321984   0.000000
    16  O    7.682759   2.803151   2.359726   1.324334   2.296515
    17  H    6.158953   2.613353   4.003030   4.836815   6.118587
    18  H    2.602219   2.746446   2.753302   4.099088   4.668891
    19  H    3.411762   5.927875   6.750948   8.120475   8.968490
    20  H    7.970252   6.198973   7.583959   8.484095   9.760378
    21  H    7.446649   4.882350   6.253950   7.067297   8.338859
    22  H    7.446650   4.882620   6.256408   7.063499   8.359655
    23  H    1.089009   6.338714   6.419582   7.720310   8.064203
    24  H    1.095235   5.044693   4.998769   6.256822   6.599329
    25  H    1.095237   5.044236   4.995402   6.260806   6.572590
    26  H    6.272627   1.088594   2.114300   2.612243   3.923441
    27  H    4.628009   2.178425   1.082926   2.092678   2.489117
    28  H    7.993748   4.352829   3.165677   1.937168   0.968642
    29  H    8.523294   3.729897   3.180972   1.935191   2.427268
                   16         17         18         19         20
    16  O    0.000000
    17  H    4.676506   0.000000
    18  H    5.082568   4.332810   0.000000
    19  H    8.727002   5.257461   4.451847   0.000000
    20  H    8.251769   3.647443   7.134321   5.409226   0.000000
    21  H    6.803038   2.369582   6.184621   5.501253   1.784362
    22  H    6.761293   2.369608   6.183687   5.501678   1.784352
    23  H    8.763982   7.120885   3.687351   3.603241   8.621332
    24  H    7.305010   6.192280   2.407956   4.027997   8.255987
    25  H    7.343426   6.192241   2.410088   4.027683   8.256127
    26  H    2.435529   2.275228   3.817737   6.577638   5.908474
    27  H    3.297268   4.710606   2.179900   6.537770   8.147836
    28  H    2.423657   6.748178   5.600881   9.870669  10.393163
    29  H    0.968397   5.522407   5.931907   9.654582   9.043482
                   21         22         23         24         25
    21  H    0.000000
    22  H    1.799117   0.000000
    23  H    8.239328   8.239350   0.000000
    24  H    7.733142   7.520753   1.785084   0.000000
    25  H    7.520857   7.733182   1.785121   1.800482   0.000000
    26  H    4.502121   4.498955   7.349743   6.081544   6.083718
    27  H    6.901173   6.910254   5.668402   4.235686   4.220504
    28  H    8.961374   8.930100   8.993218   7.490036   7.526971
    29  H    7.545552   7.572161   9.597420   8.147337   8.122309
                   26         27         28         29
    26  H    0.000000
    27  H    3.102001   0.000000
    28  H    4.491768   3.425592   0.000000
    29  H    3.322033   4.018984   2.212416   0.000000
 Stoichiometry    C11H13O5(1+)
 Framework group  C1[X(C11H13O5)]
 Deg. of freedom    81
 Full point group                 C1      NOp   1
 Largest Abelian subgroup         C1      NOp   1
 Largest concise Abelian subgroup C1      NOp   1
                         Standard orientation:                         
 ---------------------------------------------------------------------
 Center     Atomic      Atomic             Coordinates (Angstroms)
 Number     Number       Type             X           Y           Z
 ---------------------------------------------------------------------
      1          6           0       -2.399773    0.197409    0.000930
      2          6           0       -1.924415   -1.138293   -0.006730
      3          6           0       -0.556127   -1.349743   -0.010830
      4          6           0        0.358612   -0.260162   -0.007972
      5          6           0       -0.131600    1.074679    0.002531
      6          6           0       -1.491080    1.291807    0.005278
      7          8           0       -3.703759    0.413102    0.004856
      8          8           0       -2.878740   -2.078506   -0.009017
      9          6           0       -2.484923   -3.447013   -0.017284
     10          8           0       -2.128240    2.483546    0.013832
     11          6           0       -1.354202    3.682445    0.018837
     12          6           0        1.736436   -0.565825   -0.011892
     13          6           0        2.803912    0.326551   -0.017270
     14          6           0        4.118381   -0.110782    0.000863
     15          8           0        5.083118    0.786492   -0.107872
     16          8           0        4.409895   -1.395578    0.135692
     17          1           0       -0.163505   -2.360210   -0.016650
     18          1           0        0.553596    1.912774    0.008157
     19          1           0       -3.865395    1.372907    0.010667
     20          1           0       -3.412809   -4.017274   -0.018279
     21          1           0       -1.909223   -3.683977   -0.919440
     22          1           0       -1.905173   -3.693735    0.879646
     23          1           0       -2.074260    4.499404    0.024791
     24          1           0       -0.731210    3.734728    0.918107
     25          1           0       -0.734880    3.744538   -0.882345
     26          1           0        1.989511   -1.624591   -0.009551
     27          1           0        2.672137    1.401240   -0.037453
     28          1           0        5.962609    0.465381    0.140424
     29          1           0        5.309102   -1.630060   -0.136774
 ---------------------------------------------------------------------
 Rotational constants (GHZ):      0.7123006      0.2741089      0.1985303
 Standard basis: 6-31+G(d,p) (6D, 7F)
 There are   369 symmetry adapted cartesian basis functions of A   symmetry.
 There are   369 symmetry adapted basis functions of A   symmetry.
   369 basis functions,   603 primitive gaussians,   369 cartesian basis functions
    59 alpha electrons       59 beta electrons
       nuclear repulsion energy      1072.8770088524 Hartrees.
 NAtoms=   29 NActive=   29 NUniq=   29 SFac= 1.00D+00 NAtFMM=   60 NAOKFM=F Big=F
 Integral buffers will be    131072 words long.
 Raffenetti 2 integral format.
 Two-electron integral symmetry is turned on.
 Nuclear repulsion after empirical dispersion term =     1072.8532309824 Hartrees.
 One-electron integrals computed using PRISM.
 NBasis=   369 RedAO= T EigKep=  1.45D-06  NBF=   369
 NBsUse=   367 1.00D-06 EigRej=  7.85D-07 NBFU=   367
 ExpMin= 4.38D-02 ExpMax= 5.48D+03 ExpMxC= 8.25D+02 IAcc=2 IRadAn=         4 AccDes= 0.00D+00
 Harris functional with IExCor=  402 and IRadAn=       4 diagonalized for initial guess.
 HarFok:  IExCor=  402 AccDes= 0.00D+00 IRadAn=         4 IDoV= 1 UseB2=F ITyADJ=14
 ICtDFT=  3500011 ScaDFX=  1.000000  1.000000  1.000000  1.000000
 FoFCou: FMM=F IPFlag=           0 FMFlag=      100000 FMFlg1=           0
         NFxFlg=           0 DoJE=T BraDBF=F KetDBF=T FulRan=T
         wScrn=  0.000000 ICntrl=     500 IOpCl=  0 I1Cent=   200000004 NGrid=           0
         NMat0=    1 NMatS0=      1 NMatT0=    0 NMatD0=    1 NMtDS0=    0 NMtDT0=    0
 Petite list used in FoFCou.
 Requested convergence on RMS density matrix=1.00D-08 within 128 cycles.
 Requested convergence on MAX density matrix=1.00D-06.
 Requested convergence on             energy=1.00D-06.
 No special actions if energy rises.
 SCF Done:  E(RB3LYP) =  -802.916799530     A.U. after   16 cycles
            NFock= 16  Conv=0.24D-08     -V/T= 2.0090

 **********************************************************************

            Population analysis using the SCF density.

 **********************************************************************

 Orbital symmetries:
       Occupied  (A) (A) (A) (A) (A) (A) (A) (A) (A) (A) (A) (A)
                 (A) (A) (A) (A) (A) (A) (A) (A) (A) (A) (A) (A)
                 (A) (A) (A) (A) (A) (A) (A) (A) (A) (A) (A) (A)
                 (A) (A) (A) (A) (A) (A) (A) (A) (A) (A) (A) (A)
                 (A) (A) (A) (A) (A) (A) (A) (A) (A) (A) (A)
       Virtual   (A) (A) (A) (A) (A) (A) (A) (A) (A) (A) (A) (A)
                 (A) (A) (A) (A) (A) (A) (A) (A) (A) (A) (A) (A)
                 (A) (A) (A) (A) (A) (A) (A) (A) (A) (A) (A) (A)
                 (A) (A) (A) (A) (A) (A) (A) (A) (A) (A) (A) (A)
                 (A) (A) (A) (A) (A) (A) (A) (A) (A) (A) (A) (A)
                 (A) (A) (A) (A) (A) (A) (A) (A) (A) (A) (A) (A)
                 (A) (A) (A) (A) (A) (A) (A) (A) (A) (A) (A) (A)
                 (A) (A) (A) (A) (A) (A) (A) (A) (A) (A) (A) (A)
                 (A) (A) (A) (A) (A) (A) (A) (A) (A) (A) (A) (A)
                 (A) (A) (A) (A) (A) (A) (A) (A) (A) (A) (A) (A)
                 (A) (A) (A) (A) (A) (A) (A) (A) (A) (A) (A) (A)
                 (A) (A) (A) (A) (A) (A) (A) (A) (A) (A) (A) (A)
                 (A) (A) (A) (A) (A) (A) (A) (A) (A) (A) (A) (A)
                 (A) (A) (A) (A) (A) (A) (A) (A) (A) (A) (A) (A)
                 (A) (A) (A) (A) (A) (A) (A) (A) (A) (A) (A) (A)
                 (A) (A) (A) (A) (A) (A) (A) (A) (A) (A) (A) (A)
                 (A) (A) (A) (A) (A) (A) (A) (A) (A) (A) (A) (A)
                 (A) (A) (A) (A) (A) (A) (A) (A) (A) (A) (A) (A)
                 (A) (A) (A) (A) (A) (A) (A) (A) (A) (A) (A) (A)
                 (A) (A) (A) (A) (A) (A) (A) (A) (A) (A) (A) (A)
                 (A) (A) (A) (A) (A) (A) (A) (A) (A) (A) (A) (A)
                 (A) (A) (A) (A) (A) (A) (A) (A) (A) (A) (A) (A)
                 (A) (A) (A) (A) (A) (A) (A) (A) (A) (A) (A) (A)
                 (A) (A) (A) (A) (A) (A) (A) (A) (A) (A) (A) (A)
                 (A) (A) (A) (A) (A) (A) (A) (A) (A) (A) (A) (A)
                 (A) (A) (A) (A) (A) (A) (A) (A)
 The electronic state is 1-A.
 Alpha  occ. eigenvalues --  -19.38723 -19.38591 -19.33116 -19.32750 -19.30725
 Alpha  occ. eigenvalues --  -10.51021 -10.40844 -10.39633 -10.38970 -10.37675
 Alpha  occ. eigenvalues --  -10.36346 -10.35109 -10.35010 -10.34816 -10.33930
 Alpha  occ. eigenvalues --  -10.33698  -1.31137  -1.23484  -1.23424  -1.20537
 Alpha  occ. eigenvalues --   -1.19188  -1.00841  -0.96952  -0.91487  -0.90045
 Alpha  occ. eigenvalues --   -0.85336  -0.84558  -0.81348  -0.79616  -0.78029
 Alpha  occ. eigenvalues --   -0.73882  -0.71366  -0.70280  -0.67761  -0.65738
 Alpha  occ. eigenvalues --   -0.64292  -0.63769  -0.63063  -0.61174  -0.60803
 Alpha  occ. eigenvalues --   -0.60108  -0.58823  -0.57892  -0.55659  -0.55188
 Alpha  occ. eigenvalues --   -0.55104  -0.54700  -0.53333  -0.52891  -0.52170
 Alpha  occ. eigenvalues --   -0.50580  -0.49503  -0.47911  -0.47854  -0.46363
 Alpha  occ. eigenvalues --   -0.45622  -0.41939  -0.36500  -0.34515
 Alpha virt. eigenvalues --   -0.24387  -0.15978  -0.13947  -0.12374  -0.10438
 Alpha virt. eigenvalues --   -0.10123  -0.10012  -0.09118  -0.07586  -0.07198
 Alpha virt. eigenvalues --   -0.06681  -0.06426  -0.05760  -0.04992  -0.04831
 Alpha virt. eigenvalues --   -0.04254  -0.03647  -0.02510  -0.02392  -0.01966
 Alpha virt. eigenvalues --   -0.01717  -0.00486  -0.00091   0.00397   0.00781
 Alpha virt. eigenvalues --    0.01044   0.02240   0.02751   0.02885   0.03332
 Alpha virt. eigenvalues --    0.03440   0.03623   0.04082   0.04593   0.04713
 Alpha virt. eigenvalues --    0.05045   0.05205   0.05651   0.06617   0.06735
 Alpha virt. eigenvalues --    0.07202   0.07676   0.07772   0.09006   0.09418
 Alpha virt. eigenvalues --    0.09682   0.10319   0.10681   0.11280   0.11541
 Alpha virt. eigenvalues --    0.12080   0.12655   0.13176   0.13728   0.14570
 Alpha virt. eigenvalues --    0.14752   0.14862   0.15003   0.15217   0.15502
 Alpha virt. eigenvalues --    0.15742   0.16093   0.17100   0.17448   0.18535
 Alpha virt. eigenvalues --    0.18619   0.19389   0.19985   0.20396   0.20971
 Alpha virt. eigenvalues --    0.21604   0.21834   0.22001   0.22398   0.23023
 Alpha virt. eigenvalues --    0.23916   0.24585   0.24989   0.25408   0.26037
 Alpha virt. eigenvalues --    0.26150   0.27465   0.27766   0.28867   0.29793
 Alpha virt. eigenvalues --    0.30806   0.31556   0.33985   0.34715   0.35357
 Alpha virt. eigenvalues --    0.35792   0.37833   0.40533   0.44009   0.45621
 Alpha virt. eigenvalues --    0.49188   0.52738   0.53603   0.53666   0.54231
 Alpha virt. eigenvalues --    0.56448   0.57046   0.57107   0.58228   0.58896
 Alpha virt. eigenvalues --    0.59134   0.59783   0.61005   0.61687   0.62434
 Alpha virt. eigenvalues --    0.62922   0.63349   0.65217   0.66170   0.67890
 Alpha virt. eigenvalues --    0.72296   0.73241   0.74404   0.76557   0.78241
 Alpha virt. eigenvalues --    0.79022   0.79502   0.80607   0.80928   0.81050
 Alpha virt. eigenvalues --    0.82330   0.84258   0.88648   0.89031   0.91172
 Alpha virt. eigenvalues --    0.92668   0.93383   0.94444   0.96008   0.97093
 Alpha virt. eigenvalues --    0.98443   0.99324   1.00545   1.01363   1.02359
 Alpha virt. eigenvalues --    1.04426   1.04517   1.05403   1.06487   1.06952
 Alpha virt. eigenvalues --    1.07000   1.08293   1.08679   1.09794   1.10087
 Alpha virt. eigenvalues --    1.11120   1.11489   1.12896   1.13626   1.14291
 Alpha virt. eigenvalues --    1.14631   1.16276   1.17307   1.18125   1.18597
 Alpha virt. eigenvalues --    1.19438   1.19749   1.20652   1.22344   1.24258
 Alpha virt. eigenvalues --    1.25382   1.25886   1.26563   1.28874   1.30096
 Alpha virt. eigenvalues --    1.33288   1.33999   1.35814   1.38911   1.40242
 Alpha virt. eigenvalues --    1.41713   1.43022   1.44118   1.46063   1.46945
 Alpha virt. eigenvalues --    1.47847   1.49797   1.53709   1.55842   1.58286
 Alpha virt. eigenvalues --    1.60856   1.62385   1.65619   1.67409   1.67519
 Alpha virt. eigenvalues --    1.70234   1.70503   1.71228   1.73770   1.74580
 Alpha virt. eigenvalues --    1.74771   1.76588   1.77511   1.79401   1.79661
 Alpha virt. eigenvalues --    1.80782   1.82364   1.83436   1.84648   1.85436
 Alpha virt. eigenvalues --    1.86542   1.89781   1.90295   1.91693   1.92918
 Alpha virt. eigenvalues --    1.94394   1.95731   1.95793   1.96447   1.98013
 Alpha virt. eigenvalues --    2.00891   2.01830   2.03608   2.04600   2.05693
 Alpha virt. eigenvalues --    2.07308   2.09371   2.10790   2.13060   2.13594
 Alpha virt. eigenvalues --    2.16055   2.19307   2.19812   2.22965   2.24818
 Alpha virt. eigenvalues --    2.25501   2.28284   2.30598   2.33256   2.34759
 Alpha virt. eigenvalues --    2.35587   2.37053   2.38310   2.40087   2.40203
 Alpha virt. eigenvalues --    2.41740   2.42971   2.44061   2.45247   2.47029
 Alpha virt. eigenvalues --    2.48166   2.49333   2.50234   2.52475   2.52704
 Alpha virt. eigenvalues --    2.55200   2.55805   2.56796   2.58612   2.59171
 Alpha virt. eigenvalues --    2.59813   2.61953   2.63730   2.65934   2.67872
 Alpha virt. eigenvalues --    2.70728   2.71811   2.72157   2.73676   2.74982
 Alpha virt. eigenvalues --    2.75794   2.77765   2.80685   2.84207   2.85294
 Alpha virt. eigenvalues --    2.87128   2.95057   2.96156   3.03487   3.06511
 Alpha virt. eigenvalues --    3.08446   3.08770   3.12747   3.14221   3.16656
 Alpha virt. eigenvalues --    3.24597   3.28938   3.29534   3.30996   3.31484
 Alpha virt. eigenvalues --    3.32096   3.36304   3.37841   3.42960   3.44200
 Alpha virt. eigenvalues --    3.48247   3.62342   4.05964   4.11504   4.15600
 Alpha virt. eigenvalues --    4.21485   4.22891   4.27244   4.28448   4.33441
 Alpha virt. eigenvalues --    4.36520   4.40640   4.45747   4.50088   4.54939
 Alpha virt. eigenvalues --    4.67424   4.71570   5.20474
          Condensed to atoms (all electrons):
               1          2          3          4          5          6
     1  C   23.503456  -0.888301  -7.402667   0.354869  -7.119919   0.360762
     2  C   -0.888301  19.432070  -1.143794  -2.844669  -0.434975  -6.851972
     3  C   -7.402667  -1.143794  23.678386  -0.425007  -1.382835  -4.189367
     4  C    0.354869  -2.844669  -0.425007  15.653670  -2.424769  -2.510236
     5  C   -7.119919  -0.434975  -1.382835  -2.424769  14.573885   0.860061
     6  C    0.360762  -6.851972  -4.189367  -2.510236   0.860061  18.157343
     7  O    0.116888  -0.908191  -0.030462  -0.059779   0.168164   0.666278
     8  O   -0.729950   0.272486   0.474731  -0.004727   0.000726   0.010365
     9  C    0.177094  -0.145733  -0.072609  -0.208477   0.017051   0.100486
    10  O   -0.706560   0.101743   0.008078  -0.015850   0.332227   0.213876
    11  C   -0.060375   0.058690   0.052995  -0.045855   0.051465  -0.182172
    12  C   -1.464670  -0.569167  -1.705472  -0.952238   1.344772  -0.187879
    13  C   -0.124888  -0.759094  -1.697589   0.523531  -0.258894  -0.262514
    14  C   -0.066602   0.066394  -0.740028  -1.255254   0.316900   0.142783
    15  O    0.000637   0.001504   0.005614   0.020574  -0.005333   0.001938
    16  O   -0.003426   0.001709  -0.006888  -0.000491  -0.022233  -0.006916
    17  H    0.014912  -0.116771   0.180547   0.108428   0.028039   0.001009
    18  H   -0.003975  -0.004054   0.098112   0.221584   0.181982  -0.127640
    19  H    0.167927   0.276236   0.018692   0.001590  -0.040014  -0.434570
    20  H    0.087021   0.112813  -0.175904  -0.025910  -0.000350   0.013714
    21  H   -0.045848  -0.153623   0.148117   0.050741   0.001517  -0.011194
    22  H   -0.049919  -0.151222   0.159291   0.031916   0.001550  -0.009498
    23  H    0.049345   0.006378  -0.004230  -0.024777  -0.092486   0.077198
    24  H   -0.029119  -0.003666   0.009515   0.042112   0.071749  -0.097569
    25  H   -0.017299  -0.005272   0.006254   0.037980   0.047344  -0.073005
    26  H    0.015129   0.016710   0.172772   0.028075   0.022399   0.003647
    27  H    0.000268   0.000164   0.037172   0.114463  -0.024754  -0.012205
    28  H    0.000066  -0.000046   0.000192  -0.003627   0.003942   0.000492
    29  H   -0.000079   0.000353   0.007266   0.012927  -0.003700  -0.000441
               7          8          9         10         11         12
     1  C    0.116888  -0.729950   0.177094  -0.706560  -0.060375  -1.464670
     2  C   -0.908191   0.272486  -0.145733   0.101743   0.058690  -0.569167
     3  C   -0.030462   0.474731  -0.072609   0.008078   0.052995  -1.705472
     4  C   -0.059779  -0.004727  -0.208477  -0.015850  -0.045855  -0.952238
     5  C    0.168164   0.000726   0.017051   0.332227   0.051465   1.344772
     6  C    0.666278   0.010365   0.100486   0.213876  -0.182172  -0.187879
     7  O    8.303377   0.044180  -0.000076  -0.027086  -0.001125   0.016981
     8  O    0.044180   8.457045   0.028159  -0.001917   0.000099  -0.033472
     9  C   -0.000076   0.028159   5.007771  -0.000019   0.001071  -0.023719
    10  O   -0.027086  -0.001917  -0.000019   8.608691   0.044229   0.010166
    11  C   -0.001125   0.000099   0.001071   0.044229   4.963773  -0.002525
    12  C    0.016981  -0.033472  -0.023719   0.010166  -0.002525  10.625714
    13  C    0.001378  -0.004692  -0.005074  -0.006358  -0.012285  -2.453024
    14  C    0.000778  -0.000539  -0.001554  -0.000407  -0.004933   0.972513
    15  O    0.000000   0.000001  -0.000006   0.000000  -0.000035  -0.109882
    16  O    0.000000  -0.000006   0.000081  -0.000002   0.000049   0.078916
    17  H   -0.000722  -0.013729  -0.000499   0.000120   0.000087   0.077704
    18  H   -0.000500   0.000144   0.000216  -0.015129   0.003457  -0.065362
    19  H    0.171363  -0.002512  -0.000198   0.047864   0.003776   0.001686
    20  H   -0.000789  -0.070949   0.430685  -0.000003   0.000006  -0.004040
    21  H    0.000049  -0.035658   0.394286   0.000002  -0.000015   0.006300
    22  H    0.000062  -0.035654   0.398199   0.000001  -0.000010   0.009943
    23  H    0.000079  -0.000001   0.000002  -0.062641   0.419215   0.000009
    24  H   -0.000278  -0.000002   0.000001  -0.041468   0.407233  -0.001407
    25  H   -0.000310  -0.000001  -0.000008  -0.041368   0.405066  -0.001667
    26  H   -0.000016   0.000106   0.000621   0.000040   0.000130   0.271337
    27  H   -0.000006   0.000003   0.000038   0.000118   0.000709  -0.047460
    28  H   -0.000000   0.000000  -0.000000  -0.000000  -0.000004   0.056520
    29  H   -0.000000  -0.000000   0.000012   0.000000   0.000003  -0.003847
              13         14         15         16         17         18
     1  C   -0.124888  -0.066602   0.000637  -0.003426   0.014912  -0.003975
     2  C   -0.759094   0.066394   0.001504   0.001709  -0.116771  -0.004054
     3  C   -1.697589  -0.740028   0.005614  -0.006888   0.180547   0.098112
     4  C    0.523531  -1.255254   0.020574  -0.000491   0.108428   0.221584
     5  C   -0.258894   0.316900  -0.005333  -0.022233   0.028039   0.181982
     6  C   -0.262514   0.142783   0.001938  -0.006916   0.001009  -0.127640
     7  O    0.001378   0.000778   0.000000   0.000000  -0.000722  -0.000500
     8  O   -0.004692  -0.000539   0.000001  -0.000006  -0.013729   0.000144
     9  C   -0.005074  -0.001554  -0.000006   0.000081  -0.000499   0.000216
    10  O   -0.006358  -0.000407   0.000000  -0.000002   0.000120  -0.015129
    11  C   -0.012285  -0.004933  -0.000035   0.000049   0.000087   0.003457
    12  C   -2.453024   0.972513  -0.109882   0.078916   0.077704  -0.065362
    13  C   13.833483  -2.319059   0.228381  -0.180580   0.022132   0.000675
    14  C   -2.319059   7.891069  -0.016142   0.257601  -0.001517   0.008254
    15  O    0.228381  -0.016142   8.190044  -0.101883   0.000002   0.000050
    16  O   -0.180580   0.257601  -0.101883   8.238959  -0.000144   0.000063
    17  H    0.022132  -0.001517   0.000002  -0.000144   0.556449  -0.000122
    18  H    0.000675   0.008254   0.000050   0.000063  -0.000122   0.575278
    19  H    0.000640   0.000031   0.000000  -0.000000   0.000004  -0.000034
    20  H   -0.000173  -0.000003   0.000000  -0.000000   0.000059  -0.000000
    21  H    0.000819  -0.000057  -0.000000  -0.000001  -0.000497   0.000000
    22  H    0.000774   0.000017  -0.000000   0.000001  -0.000515   0.000000
    23  H    0.000024   0.000061   0.000000  -0.000000  -0.000000   0.000066
    24  H    0.000443  -0.000561  -0.000001   0.000000   0.000000  -0.000378
    25  H   -0.000307  -0.000378   0.000001  -0.000000   0.000000  -0.000513
    26  H   -0.177226  -0.064407   0.000926  -0.006498   0.003444  -0.000038
    27  H    0.317439  -0.073769  -0.011611   0.008542  -0.000002   0.000752
    28  H   -0.062666   0.023025   0.210776  -0.001404  -0.000000  -0.000000
    29  H    0.079453  -0.070199  -0.001941   0.203872  -0.000000   0.000000
              19         20         21         22         23         24
     1  C    0.167927   0.087021  -0.045848  -0.049919   0.049345  -0.029119
     2  C    0.276236   0.112813  -0.153623  -0.151222   0.006378  -0.003666
     3  C    0.018692  -0.175904   0.148117   0.159291  -0.004230   0.009515
     4  C    0.001590  -0.025910   0.050741   0.031916  -0.024777   0.042112
     5  C   -0.040014  -0.000350   0.001517   0.001550  -0.092486   0.071749
     6  C   -0.434570   0.013714  -0.011194  -0.009498   0.077198  -0.097569
     7  O    0.171363  -0.000789   0.000049   0.000062   0.000079  -0.000278
     8  O   -0.002512  -0.070949  -0.035658  -0.035654  -0.000001  -0.000002
     9  C   -0.000198   0.430685   0.394286   0.398199   0.000002   0.000001
    10  O    0.047864  -0.000003   0.000002   0.000001  -0.062641  -0.041468
    11  C    0.003776   0.000006  -0.000015  -0.000010   0.419215   0.407233
    12  C    0.001686  -0.004040   0.006300   0.009943   0.000009  -0.001407
    13  C    0.000640  -0.000173   0.000819   0.000774   0.000024   0.000443
    14  C    0.000031  -0.000003  -0.000057   0.000017   0.000061  -0.000561
    15  O    0.000000   0.000000  -0.000000  -0.000000   0.000000  -0.000001
    16  O   -0.000000  -0.000000  -0.000001   0.000001  -0.000000   0.000000
    17  H    0.000004   0.000059  -0.000497  -0.000515  -0.000000   0.000000
    18  H   -0.000034  -0.000000   0.000000   0.000000   0.000066  -0.000378
    19  H    0.360343  -0.000001   0.000000   0.000000  -0.000090   0.000048
    20  H   -0.000001   0.505490  -0.025001  -0.025039  -0.000000   0.000000
    21  H    0.000000  -0.025001   0.558485  -0.042891   0.000000  -0.000000
    22  H    0.000000  -0.025039  -0.042891   0.558242   0.000000  -0.000000
    23  H   -0.000090  -0.000000   0.000000   0.000000   0.503483  -0.024744
    24  H    0.000048   0.000000  -0.000000  -0.000000  -0.024744   0.547136
    25  H    0.000049   0.000000  -0.000000  -0.000000  -0.024709  -0.040233
    26  H   -0.000000   0.000000  -0.000002  -0.000003   0.000000   0.000000
    27  H   -0.000000   0.000000   0.000000  -0.000000  -0.000000  -0.000004
    28  H    0.000000   0.000000   0.000000  -0.000000  -0.000000  -0.000000
    29  H   -0.000000  -0.000000  -0.000000   0.000000   0.000000   0.000000
              25         26         27         28         29
     1  C   -0.017299   0.015129   0.000268   0.000066  -0.000079
     2  C   -0.005272   0.016710   0.000164  -0.000046   0.000353
     3  C    0.006254   0.172772   0.037172   0.000192   0.007266
     4  C    0.037980   0.028075   0.114463  -0.003627   0.012927
     5  C    0.047344   0.022399  -0.024754   0.003942  -0.003700
     6  C   -0.073005   0.003647  -0.012205   0.000492  -0.000441
     7  O   -0.000310  -0.000016  -0.000006  -0.000000  -0.000000
     8  O   -0.000001   0.000106   0.000003   0.000000  -0.000000
     9  C   -0.000008   0.000621   0.000038  -0.000000   0.000012
    10  O   -0.041368   0.000040   0.000118  -0.000000   0.000000
    11  C    0.405066   0.000130   0.000709  -0.000004   0.000003
    12  C   -0.001667   0.271337  -0.047460   0.056520  -0.003847
    13  C   -0.000307  -0.177226   0.317439  -0.062666   0.079453
    14  C   -0.000378  -0.064407  -0.073769   0.023025  -0.070199
    15  O    0.000001   0.000926  -0.011611   0.210776  -0.001941
    16  O   -0.000000  -0.006498   0.008542  -0.001404   0.203872
    17  H    0.000000   0.003444  -0.000002  -0.000000  -0.000000
    18  H   -0.000513  -0.000038   0.000752  -0.000000   0.000000
    19  H    0.000049  -0.000000  -0.000000   0.000000  -0.000000
    20  H    0.000000   0.000000   0.000000   0.000000  -0.000000
    21  H   -0.000000  -0.000002   0.000000   0.000000  -0.000000
    22  H   -0.000000  -0.000003  -0.000000  -0.000000   0.000000
    23  H   -0.024709   0.000000  -0.000000  -0.000000   0.000000
    24  H   -0.040233   0.000000  -0.000004  -0.000000   0.000000
    25  H    0.547125   0.000000   0.000000   0.000000  -0.000000
    26  H    0.000000   0.543411   0.003651   0.000012  -0.000073
    27  H    0.000000   0.003651   0.530272   0.000081  -0.000192
    28  H    0.000000   0.000012   0.000081   0.384098   0.002157
    29  H   -0.000000  -0.000073  -0.000192   0.002157   0.385517
 Mulliken charges:
               1
     1  C   -0.134780
     2  C    0.633302
     3  C   -0.080883
     4  C   -0.400796
     5  C   -0.213510
     6  C    0.347227
     7  O   -0.460239
     8  O   -0.354236
     9  C   -0.097802
    10  O   -0.448347
    11  C   -0.102717
    12  C    0.153270
    13  C   -0.684747
    14  C    0.935983
    15  O   -0.413614
    16  O   -0.459322
    17  H    0.141583
    18  H    0.127114
    19  H    0.427170
    20  H    0.178373
    21  H    0.154471
    22  H    0.154754
    23  H    0.177819
    24  H    0.161194
    25  H    0.161252
    26  H    0.165853
    27  H    0.156331
    28  H    0.386386
    29  H    0.388912
 Sum of Mulliken charges =   1.00000
 Mulliken charges with hydrogens summed into heavy atoms:
               1
     1  C   -0.134780
     2  C    0.633302
     3  C    0.060700
     4  C   -0.400796
     5  C   -0.086396
     6  C    0.347227
     7  O   -0.033069
     8  O   -0.354236
     9  C    0.389796
    10  O   -0.448347
    11  C    0.397547
    12  C    0.319123
    13  C   -0.528416
    14  C    0.935983
    15  O   -0.027228
    16  O   -0.070411
 Electronic spatial extent (au):  <R**2>=           5077.2957
 Charge=              1.0000 electrons
 Dipole moment (field-independent basis, Debye):
    X=              9.7195    Y=             -0.0239    Z=             -0.0399  Tot=              9.7196
 Quadrupole moment (field-independent basis, Debye-Ang):
   XX=            -11.4481   YY=            -56.7115   ZZ=            -94.3097
   XY=            -11.2517   XZ=              0.1435   YZ=              1.3794
 Traceless Quadrupole moment (field-independent basis, Debye-Ang):
   XX=             42.7084   YY=             -2.5551   ZZ=            -40.1533
   XY=            -11.2517   XZ=              0.1435   YZ=              1.3794
 Octapole moment (field-independent basis, Debye-Ang**2):
  XXX=            441.0324  YYY=              8.8341  ZZZ=              0.2674  XYY=            -43.3569
  XXY=            -38.5071  XXZ=              3.1376  XZZ=              1.3717  YZZ=              0.4995
  YYZ=             -1.2632  XYZ=              6.0861
 Hexadecapole moment (field-independent basis, Debye-Ang**3):
 XXXX=          -1433.4572 YYYY=          -1437.6893 ZZZZ=           -112.0089 XXXY=           -382.5338
 XXXZ=             27.6049 YYYX=             -9.7344 YYYZ=              4.4944 ZZZX=              0.5844
 ZZZY=              0.2217 XXYY=           -805.5339 XXZZ=           -738.3956 YYZZ=           -338.7832
 XXYZ=             34.7844 YYXZ=             -6.5707 ZZXY=             -5.5393
 N-N= 1.072853230982D+03 E-N=-4.002651776058D+03  KE= 7.957265616075D+02
 Calling FoFJK, ICntrl=      2127 FMM=F ISym2X=0 I1Cent= 0 IOpClX= 0 NMat=1 NMatS=1 NMatT=0.
 ***** Axes restored to original set *****
 -------------------------------------------------------------------
 Center     Atomic                   Forces (Hartrees/Bohr)
 Number     Number              X              Y              Z
 -------------------------------------------------------------------
      1        6          -0.003010882   -0.001068895    0.000029496
      2        6          -0.001507470    0.002693702   -0.000027063
      3        6          -0.000744752   -0.002842096   -0.000001322
      4        6          -0.001146489   -0.000356819    0.000028411
      5        6          -0.001694286    0.002382384   -0.000034801
      6        6          -0.000965905   -0.002686303    0.000016977
      7        8           0.004638252    0.000013153   -0.000008696
      8        8           0.003478634    0.000552017   -0.000008133
      9        6           0.000431935   -0.004511630    0.000024144
     10        8           0.002975697    0.000915853   -0.000018945
     11        6          -0.001036117    0.004360857   -0.000017587
     12        6           0.000137066   -0.001747938    0.000049560
     13        6          -0.000155190    0.001830049    0.000048618
     14        6           0.004048490    0.001811645   -0.000040349
     15        8          -0.002200585    0.003257485    0.000773140
     16        8          -0.000219353   -0.004240175   -0.000889913
     17        1           0.000263077    0.000751249   -0.000001331
     18        1           0.000467205   -0.000676533    0.000007259
     19        1           0.001456290    0.001033432   -0.000010231
     20        1          -0.000027580   -0.000243810    0.000001313
     21        1          -0.000348429   -0.000245789    0.000195746
     22        1          -0.000351299   -0.000246498   -0.000189460
     23        1          -0.000076154    0.000201435   -0.000000666
     24        1          -0.000423824    0.000072059   -0.000150724
     25        1          -0.000425230    0.000072928    0.000149113
     26        1          -0.000002244    0.000394680    0.000008371
     27        1           0.000036491   -0.000351157    0.000003434
     28        1          -0.002027663    0.000063331   -0.000471499
     29        1          -0.001569683   -0.001188614    0.000535140
 -------------------------------------------------------------------
 Cartesian Forces:  Max     0.004638252 RMS     0.001538753

 GradGradGradGradGradGradGradGradGradGradGradGradGradGradGradGradGradGrad
 Berny optimization.
 FormGI is forming the generalized inverse of G from B-inverse, IUseBI=4.
 Internal  Forces:  Max     0.006184224 RMS     0.001573246
 Search for a local minimum.
 Step number   1 out of a maximum of  135
 All quantities printed in internal units (Hartrees-Bohrs-Radians)
 Mixed Optimization -- RFO/linear search
 Second derivative matrix not updated -- first step.
 ITU=  0
     Eigenvalues ---    0.01334   0.01373   0.01804   0.01834   0.01923
     Eigenvalues ---    0.01939   0.02002   0.02040   0.02072   0.02115
     Eigenvalues ---    0.02139   0.02169   0.02203   0.02225   0.02239
     Eigenvalues ---    0.02281   0.02335   0.02490   0.02496   0.02693
     Eigenvalues ---    0.02724   0.02727   0.10091   0.10146   0.10706
     Eigenvalues ---    0.10718   0.16000   0.16000   0.16000   0.16000
     Eigenvalues ---    0.16000   0.16000   0.16000   0.16000   0.16000
     Eigenvalues ---    0.16000   0.16000   0.16000   0.16000   0.22000
     Eigenvalues ---    0.22000   0.23473   0.23483   0.24999   0.25000
     Eigenvalues ---    0.25000   0.25000   0.25000   0.25000   0.25000
     Eigenvalues ---    0.25000   0.25000   0.34115   0.34116   0.34214
     Eigenvalues ---    0.34215   0.34915   0.34927   0.34976   0.35506
     Eigenvalues ---    0.35643   0.35687   0.39077   0.40643   0.41414
     Eigenvalues ---    0.41853   0.42076   0.42513   0.43794   0.46487
     Eigenvalues ---    0.47084   0.48123   0.49165   0.52701   0.53655
     Eigenvalues ---    0.53706   0.54724   0.57277   0.60864   0.61440
     Eigenvalues ---    0.61507
 RFO step:  Lambda=-6.92045537D-04 EMin= 1.33374290D-02
 Linear search not attempted -- first point.
 Iteration  1 RMS(Cart)=  0.01709309 RMS(Int)=  0.00004357
 Iteration  2 RMS(Cart)=  0.00009539 RMS(Int)=  0.00000052
 Iteration  3 RMS(Cart)=  0.00000001 RMS(Int)=  0.00000052
 Variable       Old X    -DE/DX   Delta X   Delta X   Delta X     New X
                                 (Linear)    (Quad)   (Total)
    R1        2.67923   0.00265   0.00000   0.00626   0.00626   2.68549
    R2        2.68810   0.00339   0.00000   0.00810   0.00810   2.69619
    R3        2.49767   0.00618   0.00000   0.01004   0.01004   2.50771
    R4        2.61639   0.00255   0.00000   0.00529   0.00529   2.62168
    R5        2.53163   0.00556   0.00000   0.00970   0.00970   2.54132
    R6        2.68843   0.00252   0.00000   0.00592   0.00592   2.69435
    R7        2.04861  -0.00079   0.00000  -0.00223  -0.00223   2.04638
    R8        2.68728   0.00233   0.00000   0.00545   0.00545   2.69273
    R9        2.66702   0.00194   0.00000   0.00442   0.00442   2.67144
   R10        2.60161   0.00234   0.00000   0.00469   0.00469   2.60630
   R11        2.04574  -0.00082   0.00000  -0.00229  -0.00229   2.04344
   R12        2.55378   0.00544   0.00000   0.00993   0.00993   2.56371
   R13        1.83934   0.00126   0.00000   0.00238   0.00238   1.84172
   R14        2.69110   0.00514   0.00000   0.01226   0.01226   2.70336
   R15        2.05813   0.00010   0.00000   0.00029   0.00029   2.05842
   R16        2.07136   0.00040   0.00000   0.00117   0.00117   2.07253
   R17        2.07135   0.00040   0.00000   0.00117   0.00117   2.07252
   R18        2.69676   0.00500   0.00000   0.01206   0.01206   2.70883
   R19        2.05793   0.00010   0.00000   0.00029   0.00029   2.05822
   R20        2.06969   0.00037   0.00000   0.00107   0.00107   2.07076
   R21        2.06970   0.00037   0.00000   0.00107   0.00107   2.07076
   R22        2.62928   0.00238   0.00000   0.00505   0.00505   2.63433
   R23        2.05715  -0.00039   0.00000  -0.00110  -0.00110   2.05605
   R24        2.61808   0.00196   0.00000   0.00406   0.00406   2.62214
   R25        2.04643  -0.00034   0.00000  -0.00095  -0.00095   2.04548
   R26        2.49819   0.00537   0.00000   0.00873   0.00873   2.50692
   R27        2.50263   0.00569   0.00000   0.00933   0.00933   2.51196
   R28        1.83047   0.00194   0.00000   0.00361   0.00361   1.83408
   R29        1.83001   0.00190   0.00000   0.00353   0.00353   1.83353
    A1        2.10674  -0.00041   0.00000  -0.00143  -0.00143   2.10530
    A2        2.07664  -0.00092   0.00000  -0.00378  -0.00378   2.07286
    A3        2.09981   0.00133   0.00000   0.00522   0.00522   2.10502
    A4        2.06604   0.00028   0.00000   0.00120   0.00120   2.06724
    A5        2.00684  -0.00013   0.00000  -0.00058  -0.00058   2.00626
    A6        2.21031  -0.00014   0.00000  -0.00063  -0.00063   2.20968
    A7        2.11585   0.00012   0.00000   0.00038   0.00038   2.11623
    A8        2.09473  -0.00003   0.00000  -0.00000  -0.00000   2.09473
    A9        2.07261  -0.00009   0.00000  -0.00038  -0.00038   2.07223
   A10        2.09125  -0.00034   0.00000  -0.00167  -0.00167   2.08958
   A11        2.05086   0.00084   0.00000   0.00351   0.00351   2.05438
   A12        2.14106  -0.00050   0.00000  -0.00184  -0.00184   2.13922
   A13        2.08113   0.00059   0.00000   0.00243   0.00243   2.08356
   A14        2.10430  -0.00036   0.00000  -0.00163  -0.00163   2.10268
   A15        2.09776  -0.00023   0.00000  -0.00080  -0.00080   2.09695
   A16        2.10536  -0.00023   0.00000  -0.00091  -0.00090   2.10446
   A17        1.95767   0.00125   0.00000   0.00497   0.00497   1.96264
   A18        2.22015  -0.00101   0.00000  -0.00406  -0.00406   2.21609
   A19        1.90157   0.00233   0.00000   0.01450   0.01450   1.91607
   A20        2.06855   0.00286   0.00000   0.01140   0.01140   2.07995
   A21        1.84167   0.00033   0.00000   0.00234   0.00234   1.84401
   A22        1.93668   0.00017   0.00000   0.00090   0.00090   1.93758
   A23        1.93673   0.00017   0.00000   0.00089   0.00089   1.93762
   A24        1.91083  -0.00014   0.00000  -0.00059  -0.00059   1.91024
   A25        1.91082  -0.00014   0.00000  -0.00058  -0.00059   1.91023
   A26        1.92520  -0.00037   0.00000  -0.00276  -0.00276   1.92243
   A27        2.07733   0.00217   0.00000   0.00865   0.00865   2.08598
   A28        1.84588   0.00031   0.00000   0.00231   0.00231   1.84819
   A29        1.92998   0.00012   0.00000   0.00053   0.00053   1.93051
   A30        1.92992   0.00012   0.00000   0.00054   0.00054   1.93045
   A31        1.91326  -0.00007   0.00000  -0.00006  -0.00006   1.91319
   A32        1.91331  -0.00007   0.00000  -0.00006  -0.00006   1.91325
   A33        1.92969  -0.00038   0.00000  -0.00302  -0.00302   1.92667
   A34        2.22700  -0.00031   0.00000  -0.00140  -0.00140   2.22560
   A35        2.02372   0.00025   0.00000   0.00131   0.00131   2.02504
   A36        2.03247   0.00006   0.00000   0.00008   0.00008   2.03255
   A37        2.12400   0.00090   0.00000   0.00408   0.00408   2.12808
   A38        2.14505  -0.00053   0.00000  -0.00255  -0.00255   2.14250
   A39        2.01414  -0.00037   0.00000  -0.00153  -0.00153   2.01261
   A40        2.06810  -0.00019   0.00000  -0.00075  -0.00075   2.06735
   A41        2.11346   0.00014   0.00000   0.00057   0.00057   2.11403
   A42        2.10158   0.00005   0.00000   0.00019   0.00019   2.10177
   A43        2.00040   0.00137   0.00000   0.00853   0.00853   2.00893
   A44        1.99397   0.00133   0.00000   0.00825   0.00825   2.00222
    D1       -0.00079  -0.00000   0.00000  -0.00024  -0.00024  -0.00104
    D2        3.14061  -0.00000   0.00000  -0.00005  -0.00005   3.14056
    D3        3.14155  -0.00000   0.00000  -0.00014  -0.00014   3.14140
    D4       -0.00023   0.00000   0.00000   0.00005   0.00005  -0.00018
    D5       -0.00034   0.00000   0.00000   0.00016   0.00016  -0.00018
    D6       -3.14047   0.00000   0.00000   0.00003   0.00003  -3.14044
    D7        3.14049   0.00000   0.00000   0.00005   0.00005   3.14055
    D8        0.00036  -0.00000   0.00000  -0.00007  -0.00007   0.00029
    D9        3.14083  -0.00000   0.00000  -0.00008  -0.00008   3.14075
   D10       -0.00002   0.00000   0.00000   0.00002   0.00002   0.00000
   D11       -0.00040   0.00000   0.00000   0.00003   0.00003  -0.00037
   D12        3.14154   0.00000   0.00000   0.00016   0.00016  -3.14148
   D13        3.14141  -0.00000   0.00000  -0.00019  -0.00019   3.14122
   D14        0.00016  -0.00000   0.00000  -0.00005  -0.00005   0.00011
   D15        3.14108  -0.00000   0.00000  -0.00020  -0.00020   3.14088
   D16       -0.00072  -0.00000   0.00000   0.00001   0.00001  -0.00071
   D17        0.00268   0.00000   0.00000   0.00027   0.00027   0.00295
   D18        3.14109  -0.00000   0.00000  -0.00011  -0.00011   3.14098
   D19       -3.13925   0.00000   0.00000   0.00014   0.00014  -3.13912
   D20       -0.00084  -0.00001   0.00000  -0.00024  -0.00024  -0.00109
   D21       -0.00377  -0.00001   0.00000  -0.00036  -0.00036  -0.00413
   D22        3.13800  -0.00000   0.00000  -0.00010  -0.00010   3.13790
   D23        3.14118  -0.00000   0.00000   0.00003   0.00003   3.14121
   D24       -0.00024   0.00000   0.00000   0.00029   0.00029   0.00005
   D25        3.13514   0.00001   0.00000   0.00067   0.00067   3.13581
   D26       -0.00745   0.00000   0.00000   0.00020   0.00020  -0.00725
   D27       -0.00973   0.00001   0.00000   0.00028   0.00028  -0.00945
   D28        3.13086  -0.00000   0.00000  -0.00019  -0.00019   3.13067
   D29        0.00261   0.00000   0.00000   0.00015   0.00015   0.00276
   D30       -3.14068   0.00001   0.00000   0.00031   0.00030  -3.14037
   D31       -3.13915  -0.00000   0.00000  -0.00011  -0.00011  -3.13926
   D32        0.00074   0.00000   0.00000   0.00005   0.00005   0.00079
   D33       -3.14137   0.00001   0.00000   0.00022   0.00022  -3.14115
   D34        0.00180   0.00000   0.00000   0.00008   0.00008   0.00188
   D35       -3.14104  -0.00000   0.00000  -0.00014  -0.00014  -3.14119
   D36       -1.07293   0.00011   0.00000   0.00100   0.00100  -1.07193
   D37        1.07401  -0.00012   0.00000  -0.00128  -0.00129   1.07273
   D38        3.14099  -0.00000   0.00000  -0.00017  -0.00017   3.14082
   D39       -1.07225   0.00016   0.00000   0.00138   0.00138  -1.07086
   D40        1.07101  -0.00016   0.00000  -0.00172  -0.00172   1.06929
   D41        3.12329  -0.00001   0.00000  -0.00050  -0.00050   3.12280
   D42       -0.02023  -0.00002   0.00000  -0.00099  -0.00099  -0.02122
   D43       -0.01729  -0.00000   0.00000  -0.00002  -0.00002  -0.01732
   D44        3.12237  -0.00001   0.00000  -0.00052  -0.00052   3.12185
   D45        3.05335  -0.00005   0.00000  -0.00187  -0.00187   3.05148
   D46       -0.09861   0.00000   0.00000   0.00008   0.00008  -0.09852
   D47       -0.08645  -0.00004   0.00000  -0.00140  -0.00140  -0.08785
   D48        3.04478   0.00001   0.00000   0.00055   0.00055   3.04532
   D49        2.87487  -0.00009   0.00000  -0.00314  -0.00315   2.87173
   D50       -0.25643  -0.00014   0.00000  -0.00508  -0.00508  -0.26151
   D51        2.82368  -0.00018   0.00000  -0.00664  -0.00664   2.81703
   D52       -0.32848  -0.00013   0.00000  -0.00466  -0.00466  -0.33314
         Item               Value     Threshold  Converged?
 Maximum Force            0.006184     0.000450     NO 
 RMS     Force            0.001573     0.000300     NO 
 Maximum Displacement     0.062046     0.001800     NO 
 RMS     Displacement     0.017152     0.001200     NO 
 Predicted change in Energy=-3.466934D-04
 GradGradGradGradGradGradGradGradGradGradGradGradGradGradGradGradGradGrad

                          Input orientation:                          
 ---------------------------------------------------------------------
 Center     Atomic      Atomic             Coordinates (Angstroms)
 Number     Number       Type             X           Y           Z
 ---------------------------------------------------------------------
      1          6           0        2.403225    0.196397   -0.000925
      2          6           0        1.927467   -1.142679    0.006666
      3          6           0        0.556784   -1.356934    0.010845
      4          6           0       -0.362276   -0.266891    0.008107
      5          6           0        0.128342    1.070872   -0.002705
      6          6           0        1.489640    1.292298   -0.005429
      7          8           0        3.713152    0.408698   -0.004736
      8          8           0        2.886491   -2.085432    0.009052
      9          6           0        2.508102   -3.465013    0.017507
     10          8           0        2.120971    2.493074   -0.013951
     11          6           0        1.345546    3.698675   -0.018856
     12          6           0       -1.742810   -0.571125    0.011949
     13          6           0       -2.809831    0.325957    0.016669
     14          6           0       -4.129313   -0.102986   -0.002005
     15          8           0       -5.090528    0.804576    0.108809
     16          8           0       -4.431460   -1.390387   -0.137179
     17          1           0        0.166344   -2.366979    0.016748
     18          1           0       -0.557814    1.906611   -0.008329
     19          1           0        3.892031    1.366722   -0.010602
     20          1           0        3.441870   -4.025891    0.018341
     21          1           0        1.934209   -3.709914    0.919446
     22          1           0        1.929891   -3.719795   -0.878919
     23          1           0        2.065227    4.516173   -0.024603
     24          1           0        0.721034    3.751970   -0.917700
     25          1           0        0.724524    3.761467    0.881792
     26          1           0       -1.998623   -1.628634    0.009672
     27          1           0       -2.672384    1.399419    0.037214
     28          1           0       -5.976885    0.498214   -0.141159
     29          1           0       -5.330923   -1.627211    0.139029
 ---------------------------------------------------------------------
                    Distance matrix (angstroms):
                    1          2          3          4          5
     1  C    0.000000
     2  C    1.421101   0.000000
     3  C    2.412949   1.387334   0.000000
     4  C    2.804053   2.451516   1.425788   0.000000
     5  C    2.437171   2.852499   2.465358   1.424932   0.000000
     6  C    1.426764   2.474056   2.808722   2.420918   1.379192
     7  O    1.327025   2.365497   3.616679   4.131065   3.645455
     8  O    2.332464   1.344810   2.440952   3.723114   4.191632
     9  C    3.662958   2.393843   2.872574   4.297341   5.122296
    10  O    2.313993   3.640958   4.155702   3.712735   2.448134
    11  C    3.658545   4.876268   5.116855   4.317764   2.896066
    12  C    4.216499   3.714517   2.430150   1.413665   2.489493
    13  C    5.214696   4.959737   3.763808   2.518347   3.031193
    14  C    6.539395   6.145375   4.850985   3.770615   4.416511
    15  O    7.519192   7.283851   6.047632   4.849180   5.226849
    16  O    7.017789   6.365375   4.990551   4.223933   5.183403
    17  H    3.402183   2.144893   1.082898   2.165614   3.438116
    18  H    3.419450   3.933830   3.448684   2.182342   1.081342
    19  H    1.893752   3.186990   4.306116   4.557210   3.775308
    20  H    4.348203   3.256756   3.930281   5.348057   6.079219
    21  H    4.040585   2.724685   2.873912   4.237782   5.193018
    22  H    4.041222   2.725030   2.874059   4.238324   5.192669
    23  H    4.333044   5.660616   6.063831   5.363911   3.952481
    24  H    4.038854   5.125186   5.195198   4.264026   2.894269
    25  H    4.038187   5.124800   5.194682   4.262878   2.894318
    26  H    4.765199   3.956052   2.569811   2.128845   3.436781
    27  H    5.216371   5.255648   4.245669   2.848515   2.820213
    28  H    8.386716   8.074228   6.793637   5.668465   6.133587
    29  H    7.947463   7.275748   5.895300   5.153161   6.091248
                    6          7          8          9         10
     6  C    0.000000
     7  O    2.392646   0.000000
     8  O    3.655197   2.627593   0.000000
     9  C    4.865161   4.056880   1.430556   0.000000
    10  O    1.356656   2.622927   4.642119   5.970733   0.000000
    11  C    2.410724   4.053357   5.985915   7.257498   1.433451
    12  C    3.731137   5.543271   4.870684   5.142458   4.931408
    13  C    4.406785   6.523543   6.185704   6.530839   5.386106
    14  C    5.789600   7.859141   7.290523   7.440355   6.767992
    15  O    6.599207   8.813308   8.484982   8.716472   7.407551
    16  O    6.501814   8.341999   7.352338   7.244689   7.617795
    17  H    3.891261   4.503853   2.734689   2.586408   5.238476
    18  H    2.137629   4.526025   5.272565   6.185050   2.742236
    19  H    2.403549   0.974598   3.595673   5.026103   2.098889
    20  H    5.665236   4.442939   2.018393   1.089270   6.651520
    21  H    5.106385   4.580581   2.091554   1.096733   6.275602
    22  H    5.106650   4.581339   2.091582   1.096732   6.275701
    23  H    3.274911   4.425766   6.652579   7.993575   2.023895
    24  H    2.733675   4.578618   6.294707   7.493535   2.088398
    25  H    2.733014   4.578088   6.294602   7.493341   2.088359
    26  H    4.549731   6.064265   4.906424   4.866509   5.827529
    27  H    4.163621   6.462071   6.560951   7.106372   4.916803
    28  H    7.509859   9.691410   9.233483   9.366287   8.340918
    29  H    7.420544   9.271509   8.231205   8.052489   8.516505
                   11         12         13         14         15
    11  C    0.000000
    12  C    5.269732   0.000000
    13  C    5.351975   1.394027   0.000000
    14  C    6.665357   2.432025   1.387578   0.000000
    15  O    7.057985   3.620656   2.332197   1.326605   0.000000
    16  O    7.699762   2.814652   2.366260   1.329273   2.304939
    17  H    6.179316   2.621066   4.013668   4.855790   6.140191
    18  H    2.614265   2.746598   2.751486   4.098064   4.666230
    19  H    3.452920   5.958791   6.782248   8.154881   9.000924
    20  H    8.004053   6.230278   7.617240   8.527158   9.805274
    21  H    7.490936   4.918945   6.293583   7.115147   8.389558
    22  H    7.490985   4.918994   6.295646   7.110854   8.410221
    23  H    1.089164   6.354768   6.428515   7.727190   8.062170
    24  H    1.095799   5.062008   5.007756   6.262991   6.596598
    25  H    1.095801   5.061197   5.004281   6.266963   6.569287
    26  H    6.290032   1.088013   2.116255   2.620607   3.935761
    27  H    4.629631   2.178942   1.082421   2.093180   2.491261
    28  H    7.992239   4.369704   3.175659   1.947903   0.970551
    29  H    8.541968   3.742462   3.191511   1.946026   2.443827
                   16         17         18         19         20
    16  O    0.000000
    17  H    4.702896   0.000000
    18  H    5.088411   4.334583   0.000000
    19  H    8.769160   5.274658   4.482477   0.000000
    20  H    8.304179   3.671656   7.154911   5.411446   0.000000
    21  H    6.856997   2.396599   6.214202   5.519990   1.784621
    22  H    6.814918   2.396336   6.213135   5.520563   1.784615
    23  H    8.781063   7.140396   3.700057   3.640941   8.652390
    24  H    7.321287   6.214694   2.422346   4.070314   8.293023
    25  H    7.359624   6.214316   2.424293   4.069923   8.292916
    26  H    2.448882   2.287419   3.817619   6.608508   5.945240
    27  H    3.302693   4.716414   2.175023   6.564671   8.174255
    28  H    2.440321   6.780378   5.600674   9.907918  10.450163
    29  H    0.970263   5.548167   5.940722   9.697881   9.095610
                   21         22         23         24         25
    21  H    0.000000
    22  H    1.798398   0.000000
    23  H    8.281118   8.281264   0.000000
    24  H    7.779886   7.569023   1.785632   0.000000
    25  H    7.568772   7.779608   1.785671   1.799521   0.000000
    26  H    4.541650   4.538257   7.367137   6.099792   6.101583
    27  H    6.935728   6.944537   5.671237   4.238118   4.222744
    28  H    9.023228   8.991829   8.990725   7.486793   7.523571
    29  H    7.597950   7.624601   9.616183   8.165687   8.139900
                   26         27         28         29
    26  H    0.000000
    27  H    3.102229   0.000000
    28  H    4.513624   3.429827   0.000000
    29  H    3.334810   4.029725   2.239019   0.000000
 Stoichiometry    C11H13O5(1+)
 Framework group  C1[X(C11H13O5)]
 Deg. of freedom    81
 Full point group                 C1      NOp   1
 Largest Abelian subgroup         C1      NOp   1
 Largest concise Abelian subgroup C1      NOp   1
                         Standard orientation:                         
 ---------------------------------------------------------------------
 Center     Atomic      Atomic             Coordinates (Angstroms)
 Number     Number       Type             X           Y           Z
 ---------------------------------------------------------------------
      1          6           0       -2.403781    0.207790    0.000823
      2          6           0       -1.934551   -1.133588   -0.006768
      3          6           0       -0.564928   -1.354517   -0.010947
      4          6           0        0.359430   -0.268962   -0.008209
      5          6           0       -0.124665    1.071174    0.002603
      6          6           0       -1.484869    1.299228    0.005327
      7          8           0       -3.712659    0.426469    0.004633
      8          8           0       -2.898155   -2.071658   -0.009155
      9          6           0       -2.526490   -3.453065   -0.017609
     10          8           0       -2.110344    2.503065    0.013848
     11          6           0       -1.329056    3.704874    0.018754
     12          6           0        1.738466   -0.579917   -0.012052
     13          6           0        2.809844    0.311957   -0.016771
     14          6           0        4.127221   -0.123408    0.001903
     15          8           0        5.092845    0.779461   -0.108911
     16          8           0        4.423094   -1.412265    0.137077
     17          1           0       -0.179413   -2.366451   -0.016850
     18          1           0        0.565552    1.903561    0.008227
     19          1           0       -3.886869    1.385353    0.010499
     20          1           0       -3.462980   -4.009389   -0.018443
     21          1           0       -1.953798   -3.700760   -0.919548
     22          1           0       -1.949528   -3.710661    0.878817
     23          1           0       -2.044747    4.525869    0.024501
     24          1           0       -0.704292    3.755127    0.917598
     25          1           0       -0.707735    3.764641   -0.881895
     26          1           0        1.989125   -1.638660   -0.009775
     27          1           0        2.677627    1.386076   -0.037316
     28          1           0        5.977699    0.468786    0.141057
     29          1           0        5.321392   -1.653467   -0.139132
 ---------------------------------------------------------------------
 Rotational constants (GHZ):      0.7067362      0.2726671      0.1973426
 Standard basis: 6-31+G(d,p) (6D, 7F)
 There are   369 symmetry adapted cartesian basis functions of A   symmetry.
 There are   369 symmetry adapted basis functions of A   symmetry.
   369 basis functions,   603 primitive gaussians,   369 cartesian basis functions
    59 alpha electrons       59 beta electrons
       nuclear repulsion energy      1069.5344378311 Hartrees.
 NAtoms=   29 NActive=   29 NUniq=   29 SFac= 1.00D+00 NAtFMM=   60 NAOKFM=F Big=F
 Integral buffers will be    131072 words long.
 Raffenetti 2 integral format.
 Two-electron integral symmetry is turned on.
 Nuclear repulsion after empirical dispersion term =     1069.5106235138 Hartrees.
 One-electron integrals computed using PRISM.
 NBasis=   369 RedAO= T EigKep=  1.48D-06  NBF=   369
 NBsUse=   367 1.00D-06 EigRej=  7.99D-07 NBFU=   367
 Initial guess from the checkpoint file:  "b3lypD3SAYang.chk"
 B after Tr=     0.000000   -0.000000    0.000000
         Rot=    0.999998    0.000009    0.000015    0.002230 Ang=   0.26 deg.
 ExpMin= 4.38D-02 ExpMax= 5.48D+03 ExpMxC= 8.25D+02 IAcc=2 IRadAn=         4 AccDes= 0.00D+00
 Harris functional with IExCor=  402 and IRadAn=       4 diagonalized for initial guess.
 HarFok:  IExCor=  402 AccDes= 0.00D+00 IRadAn=         4 IDoV= 1 UseB2=F ITyADJ=14
 ICtDFT=  3500011 ScaDFX=  1.000000  1.000000  1.000000  1.000000
 FoFCou: FMM=F IPFlag=           0 FMFlag=      100000 FMFlg1=           0
         NFxFlg=           0 DoJE=T BraDBF=F KetDBF=T FulRan=T
         wScrn=  0.000000 ICntrl=     500 IOpCl=  0 I1Cent=   200000004 NGrid=           0
         NMat0=    1 NMatS0=      1 NMatT0=    0 NMatD0=    1 NMtDS0=    0 NMtDT0=    0
 Petite list used in FoFCou.
 Requested convergence on RMS density matrix=1.00D-08 within 128 cycles.
 Requested convergence on MAX density matrix=1.00D-06.
[...]
 0000898,0.00002648,0.00000275,0.00007102,-0.00000219,0.00000233,-0.000
 02660,0.00000399,0.00000110,-0.00003462,-0.00002950,-0.00000578,0.0000
 2949,-0.00002292,0.00000008,0.00051525,-0.00035887,0.00000290,-0.00003
 585,0.00017625,-0.00000048,0.00000567,0.00001059,-0.00000002,-0.000003
 07,0.00000209,-0.00000123,-0.00000310,0.00000208,0.00000119,0.19035000
 ,-0.00127863,-0.00129615,0.00001187,0.00036052,0.00008034,0.00000140,0
 .00002773,-0.00000675,-0.00000184,-0.00050047,-0.00000601,0.00000375,0
 .00080914,0.00012458,0.00000231,0.00429463,-0.00146520,-0.00001387,0.0
 0021484,0.00021875,-0.00000309,0.00001681,-0.00029435,0.00000127,0.000
 04940,0.00006225,-0.00000071,-0.01412006,-0.03457743,0.00021595,-0.136
 81111,-0.19475143,0.00099422,0.00032713,-0.00015357,-0.00000214,-0.000
 27040,0.00001182,-0.00000326,0.00031037,0.00009160,-0.00000152,-0.0001
 7237,0.00008927,0.00002419,-0.00006649,-0.00011329,-0.00002041,-0.0000
 2274,0.00001169,-0.00000014,-0.00021173,0.00022404,-0.00000409,-0.0001
 0181,-0.00022333,0.00000250,-0.00000308,-0.00001929,0.00000005,-0.0000
 0909,-0.00000751,-0.00000014,-0.00000914,-0.00000757,0.00000022,0.1458
 5249,0.22462452,0.00000546,0.00000485,0.00029207,-0.00000023,0.0000003
 5,-0.00004402,-0.00000202,0.00000081,0.00000019,0.00000331,-0.00000134
 ,0.00013599,-0.00000277,0.00000130,0.00023761,-0.00001662,0.00000619,0
 .00050657,-0.00000192,-0.00000118,-0.00011962,-0.00000018,0.00000108,-
 0.00002463,-0.00000008,-0.00000019,-0.00000357,0.00004004,0.00011267,0
 .00015236,0.00096654,0.00103062,-0.05143315,-0.00000166,0.00000172,0.0
 0003503,0.00000062,-0.00000116,0.00001190,-0.00000080,-0.00000072,0.00
 000178,0.00000072,-0.00000077,0.00000188,-0.00000015,0.00000043,-0.000
 00211,0.00000007,-0.00000022,-0.00002088,0.00000102,-0.00000121,-0.000
 47140,0.00000092,0.00000209,0.00018768,0.00000005,0.00000011,0.0000031
 2,0.00000237,0.00000081,-0.00000049,-0.00000227,-0.00000077,-0.0000005
 1,-0.00102628,-0.00118739,0.04689229,-0.00020680,0.00067579,0.00004909
 ,0.00003786,-0.00025099,0.00005070,0.00006866,0.00026283,-0.00000467,0
 .00022893,-0.00015044,-0.00030408,0.00016978,0.00053268,0.00031595,-0.
 00062914,-0.00351524,0.00036340,0.00005258,0.00028621,0.00012719,-0.00
 005824,0.00021264,-0.00000317,-0.00002280,-0.00009238,-0.00001518,-0.0
 1537947,0.01385513,-0.01325334,-0.12953706,-0.00027574,-0.11790758,-0.
 00032743,0.00020738,0.00003446,0.00035729,-0.00003329,-0.00001076,-0.0
 0047330,-0.00013058,-0.00001404,0.00025477,-0.00011930,-0.00003420,0.0
 0012736,0.00019303,0.00003979,0.00001421,-0.00000063,0.00001706,-0.000
 02894,-0.00070175,0.00052922,0.00054403,-0.00041767,-0.00026512,-0.000
 00537,0.00000933,-0.00000224,0.00001172,0.00001221,0.00000595,0.000012
 97,0.00000881,-0.00000463,-0.00940268,0.00055141,-0.01799115,0.1421859
 1,0.00116488,-0.00109385,-0.00064372,0.00040971,0.00036921,-0.00012414
 ,-0.00028830,0.00019652,-0.00005187,-0.00044715,-0.00034870,-0.0003644
 6,-0.00096597,0.00032802,-0.00011001,0.00348928,0.00542534,0.00205414,
 -0.00065412,-0.00062181,-0.00003456,0.00001673,-0.00013204,0.00003158,
 0.00000164,0.00003157,0.00003893,0.02529658,-0.01621010,0.02517807,-0.
 00407120,-0.05010654,-0.00238272,0.00033875,-0.00018400,0.00000811,-0.
 00020727,0.00002100,-0.00002256,0.00022060,0.00010576,0.00000182,-0.00
 013127,0.00006744,0.00002557,-0.00004092,-0.00010262,-0.00002008,-0.00
 002205,0.00000734,0.00003272,-0.00065718,-0.00134322,0.00132940,-0.000
 60105,0.00048096,0.00023649,-0.00000124,-0.00000380,0.00000058,-0.0000
 0244,-0.00002075,-0.00000075,-0.00000208,-0.00000480,-0.00000473,-0.01
 162925,0.00358677,-0.02006457,-0.00942554,0.05782425,-0.00010678,0.000
 51614,-0.00024654,-0.00022960,-0.00007663,-0.00002705,0.00009756,-0.00
 004699,-0.00003618,0.00049528,-0.00016449,-0.00010064,-0.00101489,0.00
 051302,-0.00011370,-0.00046561,-0.00111849,0.00057313,0.00026298,-0.00
 006517,0.00003678,0.00011517,-0.00007797,0.00001405,0.00000970,0.00003
 335,0.00000125,0.00098541,0.00448855,0.00711370,-0.12071679,0.00261112
 ,-0.23490268,-0.00013531,0.00012848,0.00002086,0.00006506,0.00004785,-
 0.00000207,-0.00001602,0.00001101,0.00000694,0.00003038,-0.00004529,0.
 00000395,-0.00003031,-0.00003312,-0.00000108,0.00003801,-0.00003892,0.
 00000014,0.00072894,0.00022635,-0.00010726,0.00004545,-0.00009794,-0.0
 0000783,0.00000195,-0.00000043,-0.00000037,-0.00000676,-0.00000359,-0.
 00000122,-0.00000740,0.00000176,0.00000158,0.00193714,-0.00041696,0.00
 198400,0.13311792,-0.00567706,0.24472444,-0.00020471,0.00067094,-0.000
 06169,0.00003816,-0.00025242,-0.00004557,0.00007063,0.00026375,-0.0000
 0263,0.00022316,-0.00014401,0.00031155,0.00016870,0.00052877,-0.000324
 33,-0.00061677,-0.00351427,-0.00031972,0.00004930,0.00028371,-0.000131
 36,-0.00005821,0.00021249,0.00000209,-0.00002287,-0.00009200,0.0000162
 4,-0.01533303,0.01395575,0.01322831,-0.12846848,0.00084598,0.11742802,
 -0.00032494,0.00020528,-0.00004017,0.00035537,-0.00003534,0.00001539,-
 0.00047025,-0.00012783,0.00000900,0.00025533,-0.00012038,-0.00003343,0
 .00012511,0.00019033,0.00003051,0.00001409,-0.00000037,-0.00001714,-0.
 00003131,-0.00070419,-0.00052379,0.00054450,-0.00041375,0.00026848,-0.
 00000533,0.00000931,0.00000216,0.00001300,0.00000875,0.00000452,0.0000
 1173,0.00001211,-0.00000615,-0.00932201,0.00073090,0.01802534,0.012096
 61,-0.00181496,-0.01525226,0.14098460,0.00117334,-0.00108891,0.0006521
 6,0.00041222,0.00037419,0.00011495,-0.00029077,0.00019924,0.00004745,-
 0.00045182,-0.00034978,0.00037310,-0.00095639,0.00032824,0.00009989,0.
 00347655,0.00543027,-0.00212479,-0.00065805,-0.00062083,0.00004380,0.0
 0001708,-0.00013220,-0.00003044,0.00000138,0.00003117,-0.00003904,0.02
 517359,-0.01650436,-0.02505136,-0.00291007,-0.05014663,0.00061653,0.00
 034406,-0.00018735,-0.00000560,-0.00020680,0.00002310,0.00001193,0.000
 22043,0.00010351,-0.00000573,-0.00012937,0.00006701,0.00001881,-0.0000
 4217,-0.00010118,-0.00001124,-0.00002244,0.00000756,-0.00003244,-0.000
 65653,-0.00135986,-0.00131384,-0.00060164,0.00047859,-0.00023946,-0.00
 000125,-0.00000382,-0.00000046,-0.00000193,-0.00000494,0.00000494,-0.0
 0000242,-0.00002071,0.00000093,-0.01154975,0.00378527,0.02009568,-0.00
 167431,0.00169777,-0.00073062,-0.01068038,0.05796380,0.00009579,-0.000
 51409,-0.00024957,0.00022622,0.00007502,-0.00003049,-0.00009737,0.0000
 4247,-0.00003827,-0.00048793,0.00016773,-0.00010211,0.00101895,-0.0005
 2332,-0.00011897,0.00042909,0.00108519,0.00059171,-0.00025641,0.000070
 72,0.00003725,-0.00011524,0.00007847,0.00001430,-0.00000965,-0.0000332
 3,0.00000212,-0.00112416,-0.00430917,0.00733706,0.12027762,-0.00440354
 ,-0.23597320,0.00013228,-0.00012595,0.00002360,-0.00006607,-0.00005027
 ,-0.00000989,0.00001743,-0.00001633,-0.00001086,-0.00003442,0.00004200
 ,0.00001623,0.00003402,0.00003491,0.00000377,-0.00003763,0.00003843,0.
 00000023,-0.00071781,-0.00020871,-0.00009477,-0.00004178,0.00009520,-0
 .00000739,-0.00000194,0.00000047,-0.00000040,0.00000742,-0.00000179,0.
 00000150,0.00000673,0.00000361,-0.00000133,-0.00178019,0.00039554,0.00
 172080,0.01513057,0.00054053,-0.01888344,-0.13255311,0.00752806,0.2458
 1296,-0.00003924,-0.00028075,-0.00000527,0.00024303,0.00056428,-0.0000
 1925,-0.00018264,-0.00219788,0.00005864,-0.00533592,-0.03013219,-0.000
 09404,-0.00525682,0.00093780,-0.00005156,0.00037436,-0.00159361,0.0000
 0923,0.00012927,0.00021644,0.00000524,0.00004998,0.00004549,-0.0000031
 8,-0.00004941,-0.00008948,0.00000259,-0.00058065,-0.00000900,0.0000130
 1,-0.00004414,0.00010783,0.00000006,-0.07350781,-0.06272231,-0.0000121
 6,0.00815511,0.02536229,0.00018697,0.00062968,0.00369869,0.00009984,0.
 00030255,-0.00066434,-0.00005551,-0.00329840,-0.00126114,-0.00061943,-
 0.00118080,0.00107783,-0.00000453,0.00012733,0.00003617,-0.00000259,0.
 00005464,-0.00007343,0.00000153,0.00003003,0.00002359,-0.00000004,-0.0
 0000605,0.00000354,-0.00005108,-0.00000592,0.00000711,0.00005093,0.000
 00364,-0.00000698,0.00000020,0.00000670,0.00000499,-0.00000408,0.00000
 697,0.00000452,0.00000332,0.08287862,-0.00026321,-0.00006385,-0.000012
 34,0.00021076,0.00057025,0.00000214,0.00215555,0.00139971,0.00006768,-
 0.00051241,-0.00483476,-0.00009557,-0.00061023,0.00105177,-0.00010845,
 0.00045207,-0.00052948,0.00002356,0.00018243,0.00011220,0.00000079,0.0
 0001557,-0.00014548,-0.00000626,-0.00000405,0.00004726,0.00000148,-0.0
 0012701,0.00014346,0.00001236,0.00002905,-0.00002985,-0.00000147,-0.06
 291800,-0.32199899,-0.00036423,-0.00458808,-0.01800768,-0.00023138,-0.
 00075725,-0.00217318,-0.00021498,0.00018744,0.00024715,0.00002791,-0.0
 0111142,0.00144989,0.00015862,-0.00000336,0.00058863,-0.00000641,0.000
 10631,0.00008764,-0.00000359,0.00001419,-0.00004747,0.00000006,-0.0000
 0268,-0.00000624,-0.00000030,0.00000085,-0.00000725,0.00001361,0.00000
 187,-0.00000800,-0.00001372,-0.00000917,0.00000516,0.00000024,0.000003
 49,0.00001097,-0.00001772,0.00000413,0.00001215,0.00001754,0.06519087,
 0.34163638,-0.00003288,0.00001423,0.00050463,0.00000177,0.00001862,0.0
 0039672,-0.00003306,0.00000666,-0.00385894,0.00022344,0.00017557,0.006
 85135,0.00001366,0.00000193,0.00572455,0.00004461,-0.00002105,0.000081
 75,0.00003366,0.00000800,-0.00015823,0.00000655,-0.00001201,0.00020734
 ,0.00000277,0.00000706,0.00002644,0.00000121,0.00001311,-0.00095323,0.
 00000504,-0.00000542,0.00010033,-0.00035582,-0.00045913,-0.04585996,0.
 00056170,-0.00012290,0.00705572,-0.00018179,-0.00038953,-0.00420908,0.
 00035694,0.00011606,0.00000473,-0.00086674,0.00050854,0.00041697,-0.00
 000933,0.00000227,0.00032614,-0.00000217,-0.00000686,-0.00001601,-0.00
 000225,-0.00000512,-0.00003622,0.00000064,-0.00000031,-0.00000992,0.00
 000570,0.00002105,-0.00002314,-0.00000835,-0.00002155,-0.00002209,0.00
 000009,0.00000068,-0.00001339,0.00001182,0.00001320,0.00000292,-0.0000
 1311,-0.00001271,0.00000253,0.00019644,0.00070010,0.02683366,0.0002660
 5,0.00030735,0.00001295,-0.00049751,-0.00048149,-0.00000201,0.00059337
 ,-0.00030756,-0.00001776,-0.00041807,-0.00085128,0.00008111,-0.0011606
 5,0.00108613,-0.00002356,-0.00015800,-0.00037078,0.00002020,-0.0001572
 5,-0.00016341,-0.00000988,0.00014189,-0.00013852,0.00000106,0.00003632
 ,0.00009422,-0.00000055,0.00012048,0.00005509,-0.00000114,-0.00003329,
 0.00006123,0.00000109,0.01069176,0.02498212,0.00044897,-0.06311484,-0.
 03513773,-0.00108641,-0.00059316,-0.03159371,-0.00105211,-0.00053253,-
 0.00003859,0.00008627,-0.00639883,-0.00140019,0.00103786,0.00012354,-0
 .00015111,-0.00000157,-0.00223698,-0.00097285,0.00007978,-0.00005843,0
 .00006138,0.00000096,-0.00000090,-0.00000602,0.00000021,-0.00000965,0.
 00000039,0.00000962,-0.00000979,-0.00000002,-0.00000955,0.00003735,-0.
 00001272,-0.00000091,-0.00001245,-0.00002054,0.00005070,-0.00001432,-0
 .00002493,-0.00005216,-0.00359992,0.00247991,-0.00009117,0.06688901,-0
 .00009723,-0.00017961,0.00000543,0.00013890,0.00007532,0.00000621,-0.0
 0001371,-0.00004365,0.00000653,-0.00108558,-0.00022790,0.00008666,-0.0
 0054497,-0.00006565,0.00000925,0.00013070,0.00054294,0.00000788,-0.000
 06450,0.00004503,-0.00000699,-0.00001516,0.00005565,-0.00000107,-0.000
 01754,-0.00003811,-0.00000061,0.00002724,-0.00019826,0.00000080,-0.000
 05796,0.00011100,0.00000180,-0.00209590,-0.01484186,-0.00026874,-0.042
 33882,-0.34359154,-0.00631368,0.00056714,-0.00858956,-0.00043637,0.001
 41379,0.00050330,0.00019643,-0.00071402,0.00144828,0.00052887,-0.00002
 971,0.00010165,-0.00000261,-0.00100680,0.00094265,-0.00000678,0.000016
 75,0.00000930,0.00000104,0.00000182,0.00000372,0.,0.00000222,-0.000000
 13,-0.00000706,0.00000208,0.00000025,0.00000723,0.00000229,-0.00000742
 ,-0.00000062,-0.00000288,0.00000298,0.00002411,-0.00000329,0.00000220,
 -0.00002603,0.00215025,0.00001438,-0.00014231,0.04353912,0.36372584,-0
 .00006683,-0.00002912,-0.00030293,0.00004828,0.00006145,-0.00008056,-0
 .00010300,0.00005195,-0.00005241,0.00022528,0.00007229,-0.00323908,-0.
 00002438,-0.00009432,-0.00030022,0.00002949,-0.00001356,-0.00039452,0.
 00004108,0.00001903,0.00022765,0.00000088,-0.00001632,0.00003583,0.000
 00108,0.00000627,0.00002463,-0.00000324,0.00002261,0.00004928,0.000008
 34,-0.00001022,0.00019037,-0.00047961,0.00007156,0.00237009,-0.0003338
 6,-0.00617043,-0.03223160,-0.00071761,-0.00101331,0.00003589,0.0006292
 0,-0.00002448,-0.00244390,-0.00029840,0.00099870,0.00492938,-0.0000011
 6,0.00000035,0.00011760,0.00007326,0.00003178,0.00118059,-0.00000025,-
 0.00000843,0.00001216,-0.00000023,-0.00000079,-0.00000088,0.00000163,-
 0.00000181,-0.00000425,-0.00000200,-0.00000090,-0.00000506,-0.00000138
 ,0.00000116,-0.00002949,0.00001876,0.00001357,-0.00004211,-0.00001727,
 -0.00001082,-0.00003516,0.00009639,0.00011427,0.00653582,0.00129737,0.
 00675943,0.02275667,-0.00160761,-0.00025425,0.00001140,0.00018392,0.00
 143562,-0.00001818,-0.00096173,0.00046493,-0.00010003,0.00210283,0.000
 78818,0.00002254,-0.00056363,-0.00078810,0.00003843,0.00064593,-0.0012
 4540,0.00001857,0.00141174,0.00043006,-0.00000948,0.00035821,-0.000752
 79,0.00002210,0.00006665,0.00035087,-0.00000642,0.00010207,0.00086447,
 -0.00000432,0.00019340,-0.00034905,-0.00000440,-0.00411824,0.00046718,
 0.00069257,0.00465337,0.00392002,-0.00077710,-0.03712446,-0.01329494,-
 0.00701604,-0.40552026,-0.11581251,-0.11690623,0.00509179,-0.00334875,
 0.00067217,-0.00004074,-0.00001405,-0.00000638,-0.00004828,-0.00000860
 ,-0.00001227,-0.00010383,-0.00025319,0.00000064,0.00001495,-0.00002598
 ,0.00000056,-0.00003370,-0.00003941,-0.00000145,-0.00003473,-0.0000379
 5,0.00000258,0.00000919,0.00002813,0.00000029,-0.00004712,0.00002124,0
 .00000334,-0.00004785,0.00002036,-0.00000139,-0.00010890,0.00006436,-0
 .00007788,0.00039582,0.00003222,-0.00024914,0.43363137,-0.00017899,-0.
 00003618,0.00001569,0.00004269,0.00019040,-0.00001851,-0.00011702,0.00
 011016,0.00006787,0.00039676,-0.00013208,0.00031288,-0.00016035,-0.000
 17184,-0.00001401,0.00015053,-0.00009470,-0.00001410,0.00014643,0.0000
 3883,-0.00000012,0.00004013,-0.00012507,-0.00001611,0.00002620,0.00007
 427,0.00000176,-0.00001068,0.00000172,-0.00000413,-0.00000393,0.000002
 29,-0.00000978,0.00021218,0.00103713,-0.00077619,0.00230077,-0.0032409
 4,-0.00122061,0.03556740,0.00891915,0.01043845,-0.16330613,-0.09097460
 ,-0.05881260,-0.00145442,-0.00002085,-0.00102015,0.00001290,-0.0000170
 0,0.00000840,0.00001024,0.00002397,-0.00000290,-0.00000594,-0.00002225
 ,-0.00000286,-0.00000042,-0.00000568,-0.00000064,-0.00000358,-0.000005
 38,0.00000793,-0.00000262,-0.00000721,-0.00000718,-0.00000406,0.000001
 89,0.00000048,0.,0.00000580,0.00000197,0.00000074,0.00000569,0.0000019
 3,0.00003180,-0.00000684,-0.00010541,0.00015110,0.00024878,0.00006074,
 0.12499599,0.08768777,0.00059515,0.00009656,-0.00000332,-0.00012502,-0
 .00054690,0.00007063,0.00042437,-0.00019548,-0.00035350,-0.00084239,-0
 .00028335,-0.00057548,0.00030013,0.00035258,0.00011379,-0.00029414,0.0
 0043074,0.00001108,-0.00049794,-0.00015184,-0.00001872,-0.00010677,0.0
 0027373,0.00004572,-0.00002870,-0.00013025,0.00001443,-0.00001122,-0.0
 0026200,-0.00000409,-0.00005990,0.00010753,0.00003138,0.00221156,-0.00
 058955,0.00246183,-0.00073145,-0.00104867,0.00283146,0.01013050,0.0009
 6357,-0.00322181,-0.13506570,-0.04918796,-0.04442874,0.00027455,-0.000
 89719,-0.00307528,0.00000300,0.00001470,-0.00001998,0.00000540,-0.0000
 1997,-0.00001207,0.00002988,0.00009173,0.00001233,-0.00000319,0.000010
 49,0.00000204,0.00001284,0.00001539,-0.00000781,0.00000711,0.00001450,
 0.00000023,-0.00000013,-0.00000955,0.00000065,0.00001219,-0.00000957,-
 0.00000249,0.00001322,-0.00000904,-0.00000771,-0.00006600,0.00000942,0
 .00010565,-0.00002948,-0.00007708,-0.00090106,0.12425211,0.04937689,0.
 04501121,-0.00134378,-0.00025452,0.00001941,0.00016539,0.00120225,-0.0
 0002320,-0.00073616,0.00044496,0.00001437,0.00181242,0.00025349,-0.000
 08400,-0.00055004,-0.00068258,-0.00011409,0.00053673,-0.00101306,0.000
 02522,0.00118042,0.00036414,-0.00000918,0.00031427,-0.00064521,-0.0000
 0553,0.00005767,0.00030598,0.00001020,0.00007123,0.00069269,0.00000330
 ,0.00015653,-0.00028107,0.00000230,-0.00279942,0.00145047,0.00020756,0
 .00686323,-0.00102048,0.00147418,-0.01313833,-0.00332939,-0.00010674,0
 .00125571,0.00434376,0.00003333,-0.42885261,-0.11549755,0.14157419,-0.
 00003262,-0.00001490,0.00001180,-0.00003973,0.00001521,-0.00000363,-0.
 00008441,-0.00021158,0.00000390,0.00001327,-0.00002246,-0.00000080,-0.
 00003007,-0.00003244,-0.00000250,-0.00002998,-0.00003345,-0.00000068,0
 .00000572,0.00002332,0.00000008,-0.00003857,0.00001813,0.00000083,-0.0
 0003717,0.00001749,-0.00000220,0.00020471,-0.00019199,0.00020850,-0.00
 028903,0.00006355,-0.00017266,0.00149987,0.00116229,-0.00040994,0.4338
 6476,-0.00075315,-0.00009967,0.00006217,-0.00000627,0.00067180,-0.0000
 2370,-0.00032620,0.00026765,-0.00004263,0.00078481,0.00042042,0.000331
 03,-0.00015934,-0.00037363,-0.00005852,0.00031897,-0.00048218,-0.00001
 296,0.00065023,0.00018457,-0.00002477,0.00022295,-0.00048171,0.0000037
 6,0.00006544,0.00025299,-0.00000520,0.00007793,0.00033397,-0.00000347,
 0.00005379,-0.00012298,-0.00000052,-0.00042693,0.00039504,0.00023533,0
 .00361492,-0.00537612,-0.00069609,-0.04967984,-0.01641520,0.01351022,0
 .00244644,0.00359716,-0.00122698,-0.07034032,-0.05886422,0.01858580,-0
 .00002793,0.00001357,-0.00001401,-0.00002600,0.00001802,-0.00003264,-0
 .00005621,-0.00010286,0.00000135,0.00000965,-0.00001573,0.00000067,-0.
 00002058,-0.00001862,0.00001157,-0.00002057,-0.00001857,-0.00000766,0.
 00000286,0.00001135,0.00000071,-0.00002023,0.00001054,0.00000767,-0.00
 001972,0.00001080,-0.00000540,-0.00043237,0.00048208,-0.00030277,-0.00
 114660,-0.00004958,-0.00089065,0.00234135,-0.00348723,0.00166057,0.112
 87295,0.07923834,-0.00054627,-0.00014171,-0.00000281,0.00010835,0.0005
 4076,-0.00002184,-0.00036506,0.00019396,-0.00009920,0.00082583,0.00009
 506,0.00011772,-0.00028427,-0.00035228,0.00012839,0.00022503,-0.000413
 31,-0.00009677,0.00048330,0.00015783,0.00002142,0.00011077,-0.00025777
 ,-0.00001525,0.00002507,0.00011982,0.00004119,0.00000454,0.00027485,-0
 .00003447,0.00007386,-0.00012052,0.00003867,-0.00157305,0.00088583,-0.
 00059042,0.00223037,-0.00280874,0.00195689,-0.01019056,-0.00598464,-0.
 00259711,0.00009685,-0.00088696,-0.00289046,0.15254132,0.03853581,-0.0
 5296459,-0.00000606,-0.00001072,0.00004074,-0.00000321,0.00003280,0.00
 009781,-0.00002676,-0.00009084,0.00000627,0.00000408,-0.00000911,-0.00
 000050,-0.00000852,-0.00001458,-0.00000563,-0.00001285,-0.00001333,-0.
 00000901,0.00000038,0.00000999,-0.00000065,-0.00001390,0.00000607,-0.0
 0000910,-0.00001310,0.00000935,-0.00000048,0.00026433,-0.00007334,-0.0
 0001700,-0.00074988,-0.00035171,0.00159728,-0.00054658,0.00173031,0.00
 191964,-0.14265401,-0.03106288,0.05338926\\0.00003596,-0.00001375,0.00
 000034,0.00000426,-0.00005764,0.00000005,0.00002609,0.00000697,-0.0000
 0088,-0.00000873,0.00000714,-0.00000138,0.00001021,-0.00000758,0.00000
 005,-0.00000135,0.00004061,0.00000087,-0.00003862,-0.00000894,0.000000
 15,-0.00000712,0.00006657,-0.00000051,-0.00003493,-0.00006422,0.000000
 34,0.00000731,-0.00005995,-0.00000104,-0.00003250,0.00005520,0.0000012
 4,0.00002047,0.00000752,0.00000182,-0.00000392,0.00000042,0.00000705,-
 0.00000961,0.00001132,-0.00001661,0.00000358,-0.00002065,-0.00000622,-
 0.00001628,0.00001983,0.00000499,-0.00001001,-0.00000219,-0.00000007,-
 0.00000482,-0.00000209,0.00000030,0.00000457,0.00000053,0.00000023,-0.
 00000336,-0.00000434,-0.00000036,0.00000591,0.00000866,-0.00000361,0.0
 0000594,0.00000891,0.00000269,0.00000044,0.00000363,0.00000055,0.00001
 648,-0.00000636,0.00000345,0.00001619,-0.00000682,-0.00000297,-0.00000
 213,0.00000124,0.00000068,0.00000502,0.00000318,0.00000134,0.00000487,
 0.00001073,0.00000623,0.00000610,0.00000209,0.00000129\\\@


 QUANTUM MECHANICS IS BOHRING -- M.S. GORDON
 Job cpu time:       0 days  0 hours 56 minutes  6.5 seconds.
 File lengths (MBytes):  RWF=    392 Int=      0 D2E=      0 Chk=     11 Scr=      1
 Normal termination of Gaussian 09 at Tue Dec 17 14:25:25 2024.
