 Entering Gaussian System, Link 0=g09
 Input=b3lypD3SA.gjf
 Output=b3lypD3SA.log
 Initial command:
 /home/c612/g09E/g09/l1.exe "/mnt/ja_sm883/scratch/Gau-1363770.inp" -scrdir="/mnt/ja_sm883/scratch/"
 Default is to use a total of  18 processors:
                               18 via shared-memory
                                1 via Linda
 Entering Link 1 = /home/c612/g09E/g09/l1.exe PID=   1363772.
  
 Copyright (c) 1988,1990,1992,1993,1995,1998,2003,2009,2015,
            Gaussian, Inc.  All Rights Reserved.
  
 This is part of the Gaussian(R) 09 program.  It is based on
 the Gaussian(R) 03 system (copyright 2003, Gaussian, Inc.),
 the Gaussian(R) 98 system (copyright 1998, Gaussian, Inc.),
 the Gaussian(R) 94 system (copyright 1995, Gaussian, Inc.),
 the Gaussian 92(TM) system (copyright 1992, Gaussian, Inc.),
 the Gaussian 90(TM) system (copyright 1990, Gaussian, Inc.),
 the Gaussian 88(TM) system (copyright 1988, Gaussian, Inc.),
 the Gaussian 86(TM) system (copyright 1986, Carnegie Mellon
 University), and the Gaussian 82(TM) system (copyright 1983,
 Carnegie Mellon University). Gaussian is a federally registered
 trademark of Gaussian, Inc.
  
 This software contains proprietary and confidential information,
 including trade secrets, belonging to Gaussian, Inc.
  
 This software is provided under written license and may be
 used, copied, transmitted, or stored only in accord with that
 written license.
  
 The following legend is applicable only to US Government
 contracts under FAR:
  
                    RESTRICTED RIGHTS LEGEND
  
 Use, reproduction and disclosure by the US Government is
 subject to restrictions as set forth in subparagraphs (a)
 and (c) of the Commercial Computer Software - Restricted
 Rights clause in FAR 52.227-19.
  
 Gaussian, Inc.
 340 Quinnipiac St., Bldg. 40, Wallingford CT 06492
  
  
 ---------------------------------------------------------------
 Warning -- This program may not be used in any manner that
 competes with the business of Gaussian, Inc. or will provide
 assistance to any competitor of Gaussian, Inc.  The licensee
 of this program is prohibited from giving any competitor of
 Gaussian, Inc. access to this program.  By using this program,
 the user acknowledges that Gaussian, Inc. is engaged in the
 business of creating and licensing software in the field of
 computational chemistry and represents and warrants to the
 licensee that it is not a competitor of Gaussian, Inc. and that
 it will not use this program in any manner prohibited above.
 ---------------------------------------------------------------
  

 Cite this work as:
 Gaussian 09, Revision E.01,
 M. J. Frisch, G. W. Trucks, H. B. Schlegel, G. E. Scuseria, 
 M. A. Robb, J. R. Cheeseman, G. Scalmani, V. Barone, B. Mennucci, 
 G. A. Petersson, H. Nakatsuji, M. Caricato, X. Li, H. P. Hratchian, 
 A. F. Izmaylov, J. Bloino, G. Zheng, J. L. Sonnenberg, M. Hada, 
 M. Ehara, K. Toyota, R. Fukuda, J. Hasegawa, M. Ishida, T. Nakajima, 
 Y. Honda, O. Kitao, H. Nakai, T. Vreven, J. A. Montgomery, Jr., 
 J. E. Peralta, F. Ogliaro, M. Bearpark, J. J. Heyd, E. Brothers, 
 K. N. Kudin, V. N. Staroverov, T. Keith, R. Kobayashi, J. Normand, 
 K. Raghavachari, A. Rendell, J. C. Burant, S. S. Iyengar, J. Tomasi, 
 M. Cossi, N. Rega, J. M. Millam, M. Klene, J. E. Knox, J. B. Cross, 
 V. Bakken, C. Adamo, J. Jaramillo, R. Gomperts, R. E. Stratmann, 
 O. Yazyev, A. J. Austin, R. Cammi, C. Pomelli, J. W. Ochterski, 
 R. L. Martin, K. Morokuma, V. G. Zakrzewski, G. A. Voth, 
 P. Salvador, J. J. Dannenberg, S. Dapprich, A. D. Daniels, 
 O. Farkas, J. B. Foresman, J. V. Ortiz, J. Cioslowski, 
 and D. J. Fox, Gaussian, Inc., Wallingford CT, 2013.
 
 ******************************************
 Gaussian 09:  ES64L-G09RevE.01 30-Nov-2015
                17-Dec-2024 
 ******************************************
 %chk=b3lypD3SA.chk
 ----------------------------------------------------
 # opt freq b3lyp/6-31+g(d,p) EmpiricalDispersion=GD3
 ----------------------------------------------------
 1/14=-1,18=20,19=15,26=3,38=1/1,3;
 2/9=110,12=2,17=6,18=5,40=1/2;
 3/5=1,6=6,7=111,11=2,16=1,25=1,30=1,71=1,74=-5,124=31/1,2,3;
 4//1;
 5/5=2,38=5/2;
 6/7=2,8=2,9=2,10=2,28=1/1;
 7//1,2,3,16;
 1/14=-1,18=20,19=15,26=3/3(2);
 2/9=110/2;
 99//99;
 2/9=110/2;
 3/5=1,6=6,7=111,11=2,16=1,25=1,30=1,71=1,74=-5,124=31/1,2,3;
 4/5=5,16=3,69=1/1;
 5/5=2,38=5/2;
 7//1,2,3,16;
 1/14=-1,18=20,19=15,26=3/3(-5);
 2/9=110/2;
 6/7=2,8=2,9=2,10=2,19=2,28=1/1;
 99/9=1/99;
 ----------
 [No Title]
 ----------
 Symbolic Z-matrix:
 Charge =  0 Multiplicity = 1
 C                    -2.38817  -0.2068    0.00004 
 C                    -1.9102    1.11233   0.00001 
 C                    -0.53303   1.33741  0. 
 C                     0.3807    0.26902  -0.00002 
 C                    -0.10406  -1.05127  -0.00003 
 C                    -1.47319  -1.27464   0.00001 
 O                    -3.71822  -0.43932   0.00008 
 O                    -2.86106   2.07846   0.00002 
 C                    -2.43659   3.42879  -0.00004 
 O                    -2.08454  -2.49822  -0.00001 
 C                    -1.26955  -3.65833  -0.00006 
 C                     1.80028   0.58453  -0.00002 
 C                     2.84409  -0.27058   0.00002 
 C                     4.21548   0.24749   0.00001 
 O                     5.12985  -0.75782   0.00006 
 O                     4.55218   1.41826  -0.00004 
 H                    -0.14816   2.35102   0.00003 
 H                     0.58695  -1.88514  -0.0001 
 H                    -3.84306  -1.40037   0.00001 
 H                    -3.3493    4.02576  -0.0001 
 H                    -1.84907   3.66499   0.89628 
 H                    -1.84902   3.66489  -0.89635 
 H                    -0.63975  -3.69766  -0.89687 
 H                    -0.63968  -3.69769   0.89671 
 H                    -1.95453  -4.50679  -0.00005 
 H                     2.05293   1.64471  -0.00005 
 H                     2.73125  -1.34984   0.00008 
 H                     6.00131  -0.33253   0.00004 
 

 GradGradGradGradGradGradGradGradGradGradGradGradGradGradGradGradGradGrad
 Berny optimization.
 Initialization pass.
                           ----------------------------
                           !    Initial Parameters    !
                           ! (Angstroms and Degrees)  !
 --------------------------                            --------------------------
 ! Name  Definition              Value          Derivative Info.                !
 --------------------------------------------------------------------------------
 ! R1    R(1,2)                  1.4031         estimate D2E/DX2                !
 ! R2    R(1,6)                  1.4062         estimate D2E/DX2                !
 ! R3    R(1,7)                  1.3502         estimate D2E/DX2                !
 ! R4    R(2,3)                  1.3954         estimate D2E/DX2                !
 ! R5    R(2,8)                  1.3556         estimate D2E/DX2                !
 ! R6    R(3,4)                  1.4058         estimate D2E/DX2                !
 ! R7    R(3,17)                 1.0842         estimate D2E/DX2                !
 ! R8    R(4,5)                  1.4065         estimate D2E/DX2                !
 ! R9    R(4,12)                 1.4542         estimate D2E/DX2                !
 ! R10   R(5,6)                  1.3872         estimate D2E/DX2                !
 ! R11   R(5,18)                 1.083          estimate D2E/DX2                !
 ! R12   R(6,10)                 1.3678         estimate D2E/DX2                !
 ! R13   R(7,19)                 0.9691         estimate D2E/DX2                !
 ! R14   R(8,9)                  1.4155         estimate D2E/DX2                !
 ! R15   R(9,20)                 1.0906         estimate D2E/DX2                !
 ! R16   R(9,21)                 1.0974         estimate D2E/DX2                !
 ! R17   R(9,22)                 1.0974         estimate D2E/DX2                !
 ! R18   R(10,11)                1.4178         estimate D2E/DX2                !
 ! R19   R(11,23)                1.0966         estimate D2E/DX2                !
 ! R20   R(11,24)                1.0966         estimate D2E/DX2                !
 ! R21   R(11,25)                1.0905         estimate D2E/DX2                !
 ! R22   R(12,13)                1.3494         estimate D2E/DX2                !
 ! R23   R(12,26)                1.0899         estimate D2E/DX2                !
 ! R24   R(13,14)                1.466          estimate D2E/DX2                !
 ! R25   R(13,27)                1.0851         estimate D2E/DX2                !
 ! R26   R(14,15)                1.3589         estimate D2E/DX2                !
 ! R27   R(14,16)                1.2182         estimate D2E/DX2                !
 ! R28   R(15,28)                0.9697         estimate D2E/DX2                !
 ! A1    A(2,1,6)              119.4911         estimate D2E/DX2                !
 ! A2    A(2,1,7)              119.8339         estimate D2E/DX2                !
 ! A3    A(6,1,7)              120.6751         estimate D2E/DX2                !
 ! A4    A(1,2,3)              119.1997         estimate D2E/DX2                !
 ! A5    A(1,2,8)              115.5386         estimate D2E/DX2                !
 ! A6    A(3,2,8)              125.2617         estimate D2E/DX2                !
 ! A7    A(2,3,4)              121.2562         estimate D2E/DX2                !
 ! A8    A(2,3,17)             120.0743         estimate D2E/DX2                !
 ! A9    A(4,3,17)             118.6695         estimate D2E/DX2                !
 ! A10   A(3,4,5)              119.3003         estimate D2E/DX2                !
 ! A11   A(3,4,12)             118.0075         estimate D2E/DX2                !
 ! A12   A(5,4,12)             122.6922         estimate D2E/DX2                !
 ! A13   A(4,5,6)              119.4276         estimate D2E/DX2                !
 ! A14   A(4,5,18)             120.1914         estimate D2E/DX2                !
 ! A15   A(6,5,18)             120.3811         estimate D2E/DX2                !
 ! A16   A(1,6,5)              121.3251         estimate D2E/DX2                !
 ! A17   A(1,6,10)             112.8603         estimate D2E/DX2                !
 ! A18   A(5,6,10)             125.8146         estimate D2E/DX2                !
 ! A19   A(1,7,19)             107.3173         estimate D2E/DX2                !
 ! A20   A(2,8,9)              118.0057         estimate D2E/DX2                !
 ! A21   A(8,9,20)             105.737          estimate D2E/DX2                !
 ! A22   A(8,9,21)             111.459          estimate D2E/DX2                !
 ! A23   A(8,9,22)             111.4588         estimate D2E/DX2                !
 ! A24   A(20,9,21)            109.2845         estimate D2E/DX2                !
 ! A25   A(20,9,22)            109.2846         estimate D2E/DX2                !
 ! A26   A(21,9,22)            109.5195         estimate D2E/DX2                !
 ! A27   A(6,10,11)            118.3631         estimate D2E/DX2                !
 ! A28   A(10,11,23)           111.0712         estimate D2E/DX2                !
 ! A29   A(10,11,24)           111.0712         estimate D2E/DX2                !
 ! A30   A(10,11,25)           105.9966         estimate D2E/DX2                !
 ! A31   A(23,11,24)           109.7327         estimate D2E/DX2                !
 ! A32   A(23,11,25)           109.4433         estimate D2E/DX2                !
 ! A33   A(24,11,25)           109.4441         estimate D2E/DX2                !
 ! A34   A(4,12,13)            128.144          estimate D2E/DX2                !
 ! A35   A(4,12,26)            115.9351         estimate D2E/DX2                !
 ! A36   A(13,12,26)           115.9208         estimate D2E/DX2                !
 ! A37   A(12,13,14)           119.9796         estimate D2E/DX2                !
 ! A38   A(12,13,27)           123.3565         estimate D2E/DX2                !
 ! A39   A(14,13,27)           116.6639         estimate D2E/DX2                !
 ! A40   A(13,14,15)           111.5923         estimate D2E/DX2                !
 ! A41   A(13,14,16)           126.7397         estimate D2E/DX2                !
 ! A42   A(15,14,16)           121.668          estimate D2E/DX2                !
 ! A43   A(14,15,28)           106.2744         estimate D2E/DX2                !
 ! D1    D(6,1,2,3)             -0.0016         estimate D2E/DX2                !
 ! D2    D(6,1,2,8)            179.9993         estimate D2E/DX2                !
 ! D3    D(7,1,2,3)            179.9986         estimate D2E/DX2                !
 ! D4    D(7,1,2,8)             -0.0006         estimate D2E/DX2                !
 ! D5    D(2,1,6,5)              0.0003         estimate D2E/DX2                !
 ! D6    D(2,1,6,10)          -179.9978         estimate D2E/DX2                !
 ! D7    D(7,1,6,5)           -179.9998         estimate D2E/DX2                !
 ! D8    D(7,1,6,10)             0.0021         estimate D2E/DX2                !
 ! D9    D(2,1,7,19)           179.9951         estimate D2E/DX2                !
 ! D10   D(6,1,7,19)            -0.0048         estimate D2E/DX2                !
 ! D11   D(1,2,3,4)              0.0014         estimate D2E/DX2                !
 ! D12   D(1,2,3,17)          -179.997          estimate D2E/DX2                !
 ! D13   D(8,2,3,4)           -179.9996         estimate D2E/DX2                !
 ! D14   D(8,2,3,17)             0.0021         estimate D2E/DX2                !
 ! D15   D(1,2,8,9)           -179.9984         estimate D2E/DX2                !
 ! D16   D(3,2,8,9)              0.0025         estimate D2E/DX2                !
 ! D17   D(2,3,4,5)              0.0001         estimate D2E/DX2                !
 ! D18   D(2,3,4,12)          -179.9994         estimate D2E/DX2                !
 ! D19   D(17,3,4,5)           179.9985         estimate D2E/DX2                !
 ! D20   D(17,3,4,12)           -0.001          estimate D2E/DX2                !
 ! D21   D(3,4,5,6)             -0.0013         estimate D2E/DX2                !
 ! D22   D(3,4,5,18)           179.9962         estimate D2E/DX2                !
 ! D23   D(12,4,5,6)           179.9981         estimate D2E/DX2                !
 ! D24   D(12,4,5,18)           -0.0044         estimate D2E/DX2                !
 ! D25   D(3,4,12,13)          179.9968         estimate D2E/DX2                !
 ! D26   D(3,4,12,26)           -0.0027         estimate D2E/DX2                !
 ! D27   D(5,4,12,13)           -0.0027         estimate D2E/DX2                !
 ! D28   D(5,4,12,26)          179.9978         estimate D2E/DX2                !
 ! D29   D(4,5,6,1)              0.0011         estimate D2E/DX2                !
 ! D30   D(4,5,6,10)           179.999          estimate D2E/DX2                !
 ! D31   D(18,5,6,1)          -179.9964         estimate D2E/DX2                !
 ! D32   D(18,5,6,10)            0.0015         estimate D2E/DX2                !
 ! D33   D(1,6,10,11)          179.999          estimate D2E/DX2                !
 ! D34   D(5,6,10,11)            0.0009         estimate D2E/DX2                !
 ! D35   D(2,8,9,20)           179.9959         estimate D2E/DX2                !
 ! D36   D(2,8,9,21)           -61.355          estimate D2E/DX2                !
 ! D37   D(2,8,9,22)            61.3469         estimate D2E/DX2                !
 ! D38   D(6,10,11,23)         -61.2141         estimate D2E/DX2                !
 ! D39   D(6,10,11,24)          61.2114         estimate D2E/DX2                !
 ! D40   D(6,10,11,25)         179.9992         estimate D2E/DX2                !
 ! D41   D(4,12,13,14)        -180.0            estimate D2E/DX2                !
 ! D42   D(4,12,13,27)          -0.0008         estimate D2E/DX2                !
 ! D43   D(26,12,13,14)         -0.0005         estimate D2E/DX2                !
 ! D44   D(26,12,13,27)        179.9987         estimate D2E/DX2                !
 ! D45   D(12,13,14,15)       -179.9997         estimate D2E/DX2                !
 ! D46   D(12,13,14,16)         -0.0005         estimate D2E/DX2                !
 ! D47   D(27,13,14,15)          0.0011         estimate D2E/DX2                !
 ! D48   D(27,13,14,16)       -179.9998         estimate D2E/DX2                !
 ! D49   D(13,14,15,28)        179.9996         estimate D2E/DX2                !
 ! D50   D(16,14,15,28)          0.0004         estimate D2E/DX2                !
 --------------------------------------------------------------------------------
 Trust Radius=3.00D-01 FncErr=1.00D-07 GrdErr=1.00D-06
 Number of steps in this run=    131 maximum allowed number of steps=    168.
 GradGradGradGradGradGradGradGradGradGradGradGradGradGradGradGradGradGrad

                          Input orientation:                          
 ---------------------------------------------------------------------
 Center     Atomic      Atomic             Coordinates (Angstroms)
 Number     Number       Type             X           Y           Z
 ---------------------------------------------------------------------
      1          6           0       -2.388170   -0.206797    0.000035
      2          6           0       -1.910195    1.112333    0.000010
      3          6           0       -0.533033    1.337412   -0.000004
      4          6           0        0.380699    0.269019   -0.000022
      5          6           0       -0.104059   -1.051265   -0.000028
      6          6           0       -1.473194   -1.274642    0.000012
      7          8           0       -3.718223   -0.439319    0.000078
      8          8           0       -2.861061    2.078459    0.000019
      9          6           0       -2.436589    3.428789   -0.000041
     10          8           0       -2.084538   -2.498224   -0.000008
     11          6           0       -1.269547   -3.658330   -0.000055
     12          6           0        1.800277    0.584534   -0.000022
     13          6           0        2.844090   -0.270582    0.000022
     14          6           0        4.215479    0.247493    0.000014
     15          8           0        5.129845   -0.757822    0.000056
     16          8           0        4.552176    1.418264   -0.000039
     17          1           0       -0.148160    2.351016    0.000026
     18          1           0        0.586946   -1.885143   -0.000104
     19          1           0       -3.843058   -1.400372    0.000010
     20          1           0       -3.349295    4.025761   -0.000097
     21          1           0       -1.849071    3.664993    0.896278
     22          1           0       -1.849024    3.664894   -0.896354
     23          1           0       -0.639749   -3.697661   -0.896868
     24          1           0       -0.639680   -3.697685    0.896706
     25          1           0       -1.954532   -4.506792   -0.000049
     26          1           0        2.052931    1.644712   -0.000054
     27          1           0        2.731252   -1.349843    0.000077
     28          1           0        6.001311   -0.332533    0.000041
 ---------------------------------------------------------------------
                    Distance matrix (angstroms):
                    1          2          3          4          5
     1  C    0.000000
     2  C    1.403055   0.000000
     3  C    2.413735   1.395434   0.000000
     4  C    2.809455   2.441183   1.405834   0.000000
     5  C    2.435219   2.818383   2.426890   1.406464   0.000000
     6  C    1.406227   2.426648   2.776100   2.412428   1.387238
     7  O    1.350225   2.382559   3.647219   4.159676   3.665605
     8  O    2.333671   1.355561   2.443126   3.712557   4.170879
     9  C    3.635908   2.375512   2.827964   4.233351   5.050899
    10  O    2.311456   3.614764   4.137544   3.706080   2.452751
    11  C    3.628277   4.813487   5.049742   4.259974   2.855722
    12  C    4.262545   3.747823   2.451767   1.454218   2.510445
    13  C    5.232649   4.951331   3.740402   2.521798   3.049762
    14  C    6.619257   6.186423   4.871990   3.834840   4.510563
    15  O    7.538181   7.284205   6.038062   4.858888   5.242124
    16  O    7.128059   6.469608   5.085852   4.326891   5.270588
    17  H    3.400008   2.153858   1.084214   2.148116   3.402567
    18  H    3.415869   3.901356   3.411629   2.164013   1.082978
    19  H    1.881840   3.170118   4.295547   4.541695   3.755262
    20  H    4.340312   3.249473   3.893399   5.293956   6.025591
    21  H    4.010566   2.706124   2.820091   4.160273   5.107986
    22  H    4.010509   2.706063   2.820009   4.160173   5.107882
    23  H    4.005938   5.055142   5.115439   4.192875   2.845118
    24  H    4.005937   5.055150   5.115434   4.192855   2.845094
    25  H    4.321805   5.619300   6.014597   5.316171   3.919811
    26  H    4.811597   3.998724   2.604159   2.165385   3.452665
    27  H    5.245478   5.254079   4.228108   2.854087   2.850989
    28  H    8.390423   8.042361   6.744358   5.652711   6.147529
                    6          7          8          9         10
     6  C    0.000000
     7  O    2.395396   0.000000
     8  O    3.628975   2.659687   0.000000
     9  C    4.801082   4.074904   1.415474   0.000000
    10  O    1.367806   2.628311   4.642092   5.937459   0.000000
    11  C    2.392371   4.044508   5.953458   7.182565   1.417765
    12  C    3.764591   5.612675   4.894883   5.103021   4.959353
    13  C    4.432502   6.564482   6.169825   6.447551   5.408675
    14  C    5.888794   7.963375   7.309573   7.373646   6.872349
    15  O    6.623234   8.853799   8.479332   8.647464   7.421342
    16  O    6.599760   8.476445   7.442576   7.272211   7.706157
    17  H    3.860196   4.531150   2.726558   2.529526   5.221560
    18  H    2.148695   4.541463   5.253465   6.113889   2.740930
    19  H    2.373197   0.969127   3.614773   5.029806   2.073083
    20  H    5.622635   4.480295   2.007575   1.090600   6.645449
    21  H    5.034339   4.598074   2.084345   1.097432   6.232497
    22  H    5.034256   4.598050   2.084341   1.097431   6.232409
    23  H    2.714783   4.571467   6.253175   7.404000   2.080967
    24  H    2.714764   4.571468   6.253193   7.404031   2.080965
    25  H    3.267794   4.433390   6.647355   7.950209   2.012771
    26  H    4.577793   6.135911   4.933098   4.831017   5.855132
    27  H    4.205118   6.513431   6.559514   7.038601   4.950819
    28  H    7.533644   9.720121   9.184472   9.238274   8.370852
                   11         12         13         14         15
    11  C    0.000000
    12  C    5.236957   0.000000
    13  C    5.329057   1.349359   0.000000
    14  C    6.733570   2.438606   1.465984   0.000000
    15  O    7.026035   3.589978   2.337109   1.358942   0.000000
    16  O    7.724265   2.875422   2.402032   1.218224   2.251455
    17  H    6.113080   2.629993   3.978233   4.844188   6.125538
    18  H    2.567247   2.751632   2.775159   4.208846   4.680682
    19  H    3.423643   5.982230   6.781915   8.225295   8.995880
    20  H    7.960566   6.193556   7.537677   8.455833   9.735424
    21  H    7.400697   4.859045   6.190136   7.018644   8.310823
    22  H    7.400592   4.858953   6.190055   7.018568   8.310751
    23  H    1.096570   5.009516   4.968543   6.319959   6.537227
    24  H    1.096568   5.009482   4.968474   6.319894   6.537140
    25  H    1.090455   6.326151   6.400957   7.789240   8.015184
    26  H    6.257884   1.089868   2.072265   2.574652   3.903789
    27  H    4.619037   2.146748   1.085144   2.180461   2.470574
    28  H    7.995393   4.299965   3.157829   1.877665   0.969703
                   16         17         18         19         20
    16  O    0.000000
    17  H    4.791992   0.000000
    18  H    5.160964   4.299468   0.000000
    19  H    8.855770   5.265471   4.456449   0.000000
    20  H    8.320594   3.612760   7.101604   5.448552   0.000000
    21  H    6.843036   2.328712   6.127127   5.516992   1.784465
    22  H    6.842959   2.328671   6.127000   5.516934   1.784465
    23  H    7.343914   6.134539   2.365204   4.042662   8.233899
    24  H    7.343872   6.134526   2.365204   4.042690   8.233947
    25  H    8.800201   7.091721   3.651322   3.635433   8.645798
    26  H    2.509483   2.311637   3.822171   6.635904   5.903680
    27  H    3.313334   4.689069   2.210112   6.574504   8.116044
    28  H    2.272726   6.709503   5.632579   9.902115  10.316422
                   21         22         23         24         25
    21  H    0.000000
    22  H    1.792632   0.000000
    23  H    7.673754   7.461204   0.000000
    24  H    7.461344   7.673666   1.793574   0.000000
    25  H    8.221472   8.221371   1.785394   1.785402   0.000000
    26  H    4.484481   4.484389   6.049442   6.049425   7.341714
    27  H    6.850629   6.850555   4.204808   4.204698   5.650035
    28  H    8.855052   8.854982   7.498814   7.498734   8.984424
                   26         27         28
    26  H    0.000000
    27  H    3.070420   0.000000
    28  H    4.415790   3.424647   0.000000
 Stoichiometry    C11H12O5
 Framework group  C1[X(C11H12O5)]
 Deg. of freedom    78
 Full point group                 C1      NOp   1
 Largest Abelian subgroup         C1      NOp   1
 Largest concise Abelian subgroup C1      NOp   1
                         Standard orientation:                         
 ---------------------------------------------------------------------
 Center     Atomic      Atomic             Coordinates (Angstroms)
 Number     Number       Type             X           Y           Z
 ---------------------------------------------------------------------
      1          6           0       -2.388170    0.206797   -0.000035
      2          6           0       -1.910195   -1.112333   -0.000010
      3          6           0       -0.533033   -1.337412    0.000004
      4          6           0        0.380699   -0.269019    0.000022
      5          6           0       -0.104059    1.051265    0.000028
      6          6           0       -1.473194    1.274642   -0.000012
      7          8           0       -3.718223    0.439319   -0.000078
      8          8           0       -2.861061   -2.078459   -0.000019
      9          6           0       -2.436589   -3.428789    0.000041
     10          8           0       -2.084538    2.498224    0.000008
     11          6           0       -1.269547    3.658330    0.000055
     12          6           0        1.800277   -0.584534    0.000022
     13          6           0        2.844090    0.270582   -0.000022
     14          6           0        4.215479   -0.247493   -0.000014
     15          8           0        5.129845    0.757822   -0.000056
     16          8           0        4.552176   -1.418264    0.000039
     17          1           0       -0.148160   -2.351016   -0.000026
     18          1           0        0.586946    1.885143    0.000104
     19          1           0       -3.843058    1.400372   -0.000010
     20          1           0       -3.349295   -4.025761    0.000097
     21          1           0       -1.849071   -3.664993   -0.896278
     22          1           0       -1.849024   -3.664894    0.896354
     23          1           0       -0.639749    3.697661    0.896868
     24          1           0       -0.639680    3.697685   -0.896706
     25          1           0       -1.954532    4.506792    0.000049
     26          1           0        2.052931   -1.644712    0.000054
     27          1           0        2.731252    1.349843   -0.000077
     28          1           0        6.001311    0.332533   -0.000041
 ---------------------------------------------------------------------
 Rotational constants (GHZ):      0.7203599      0.2736549      0.1988226
 Standard basis: 6-31+G(d,p) (6D, 7F)
 There are   364 symmetry adapted cartesian basis functions of A   symmetry.
 There are   364 symmetry adapted basis functions of A   symmetry.
   364 basis functions,   596 primitive gaussians,   364 cartesian basis functions
    59 alpha electrons       59 beta electrons
       nuclear repulsion energy      1054.9051199974 Hartrees.
 NAtoms=   28 NActive=   28 NUniq=   28 SFac= 1.00D+00 NAtFMM=   60 NAOKFM=F Big=F
 Integral buffers will be    131072 words long.
 Raffenetti 2 integral format.
 Two-electron integral symmetry is turned on.
 Nuclear repulsion after empirical dispersion term =     1054.8821356883 Hartrees.
 One-electron integrals computed using PRISM.
 NBasis=   364 RedAO= T EigKep=  1.45D-06  NBF=   364
 NBsUse=   362 1.00D-06 EigRej=  8.61D-07 NBFU=   362
 ExpMin= 4.38D-02 ExpMax= 5.48D+03 ExpMxC= 8.25D+02 IAcc=2 IRadAn=         4 AccDes= 0.00D+00
 Harris functional with IExCor=  402 and IRadAn=       4 diagonalized for initial guess.
 HarFok:  IExCor=  402 AccDes= 0.00D+00 IRadAn=         4 IDoV= 1 UseB2=F ITyADJ=14
 ICtDFT=  3500011 ScaDFX=  1.000000  1.000000  1.000000  1.000000
 FoFCou: FMM=F IPFlag=           0 FMFlag=      100000 FMFlg1=           0
         NFxFlg=           0 DoJE=T BraDBF=F KetDBF=T FulRan=T
         wScrn=  0.000000 ICntrl=     500 IOpCl=  0 I1Cent=   200000004 NGrid=           0
         NMat0=    1 NMatS0=      1 NMatT0=    0 NMatD0=    1 NMtDS0=    0 NMtDT0=    0
 Petite list used in FoFCou.
 Requested convergence on RMS density matrix=1.00D-08 within 128 cycles.
 Requested convergence on MAX density matrix=1.00D-06.
 Requested convergence on             energy=1.00D-06.
 No special actions if energy rises.
 SCF Done:  E(RB3LYP) =  -802.568303010     A.U. after   16 cycles
            NFock= 16  Conv=0.31D-08     -V/T= 2.0091

 **********************************************************************

            Population analysis using the SCF density.

 **********************************************************************

 Orbital symmetries:
       Occupied  (A) (A) (A) (A) (A) (A) (A) (A) (A) (A) (A) (A)
                 (A) (A) (A) (A) (A) (A) (A) (A) (A) (A) (A) (A)
                 (A) (A) (A) (A) (A) (A) (A) (A) (A) (A) (A) (A)
                 (A) (A) (A) (A) (A) (A) (A) (A) (A) (A) (A) (A)
                 (A) (A) (A) (A) (A) (A) (A) (A) (A) (A) (A)
       Virtual   (A) (A) (A) (A) (A) (A) (A) (A) (A) (A) (A) (A)
                 (A) (A) (A) (A) (A) (A) (A) (A) (A) (A) (A) (A)
                 (A) (A) (A) (A) (A) (A) (A) (A) (A) (A) (A) (A)
                 (A) (A) (A) (A) (A) (A) (A) (A) (A) (A) (A) (A)
                 (A) (A) (A) (A) (A) (A) (A) (A) (A) (A) (A) (A)
                 (A) (A) (A) (A) (A) (A) (A) (A) (A) (A) (A) (A)
                 (A) (A) (A) (A) (A) (A) (A) (A) (A) (A) (A) (A)
                 (A) (A) (A) (A) (A) (A) (A) (A) (A) (A) (A) (A)
                 (A) (A) (A) (A) (A) (A) (A) (A) (A) (A) (A) (A)
                 (A) (A) (A) (A) (A) (A) (A) (A) (A) (A) (A) (A)
                 (A) (A) (A) (A) (A) (A) (A) (A) (A) (A) (A) (A)
                 (A) (A) (A) (A) (A) (A) (A) (A) (A) (A) (A) (A)
                 (A) (A) (A) (A) (A) (A) (A) (A) (A) (A) (A) (A)
                 (A) (A) (A) (A) (A) (A) (A) (A) (A) (A) (A) (A)
                 (A) (A) (A) (A) (A) (A) (A) (A) (A) (A) (A) (A)
                 (A) (A) (A) (A) (A) (A) (A) (A) (A) (A) (A) (A)
                 (A) (A) (A) (A) (A) (A) (A) (A) (A) (A) (A) (A)
                 (A) (A) (A) (A) (A) (A) (A) (A) (A) (A) (A) (A)
                 (A) (A) (A) (A) (A) (A) (A) (A) (A) (A) (A) (A)
                 (A) (A) (A) (A) (A) (A) (A) (A) (A) (A) (A) (A)
                 (A) (A) (A) (A) (A) (A) (A) (A) (A) (A) (A) (A)
                 (A) (A) (A) (A) (A) (A) (A) (A) (A) (A) (A) (A)
                 (A) (A) (A) (A) (A) (A) (A) (A) (A) (A) (A) (A)
                 (A) (A) (A) (A) (A) (A) (A) (A) (A) (A) (A) (A)
                 (A) (A) (A) (A) (A) (A) (A) (A) (A) (A) (A) (A)
                 (A) (A) (A)
 The electronic state is 1-A.
 Alpha  occ. eigenvalues --  -19.21375 -19.20236 -19.19802 -19.19566 -19.14088
 Alpha  occ. eigenvalues --  -10.32226 -10.26944 -10.26564 -10.26472 -10.26393
 Alpha  occ. eigenvalues --  -10.25029 -10.22032 -10.21688 -10.20750 -10.20597
 Alpha  occ. eigenvalues --  -10.20346  -1.10817  -1.10653  -1.08712  -1.06858
 Alpha  occ. eigenvalues --   -1.01516  -0.87614  -0.81567  -0.77963  -0.76608
 Alpha  occ. eigenvalues --   -0.72916  -0.71032  -0.67797  -0.62499  -0.61772
 Alpha  occ. eigenvalues --   -0.58001  -0.55967  -0.54937  -0.52012  -0.51580
 Alpha  occ. eigenvalues --   -0.50031  -0.49668  -0.48164  -0.48136  -0.47421
 Alpha  occ. eigenvalues --   -0.46122  -0.44837  -0.43887  -0.43075  -0.42141
 Alpha  occ. eigenvalues --   -0.41865  -0.40072  -0.38544  -0.37217  -0.37212
 Alpha  occ. eigenvalues --   -0.36478  -0.36464  -0.34618  -0.34086  -0.32340
 Alpha  occ. eigenvalues --   -0.28214  -0.28125  -0.24220  -0.21510
 Alpha virt. eigenvalues --   -0.07393  -0.00706  -0.00456  -0.00300   0.00373
 Alpha virt. eigenvalues --    0.00863   0.01214   0.02416   0.03064   0.03812
 Alpha virt. eigenvalues --    0.03975   0.04880   0.05079   0.05994   0.06345
 Alpha virt. eigenvalues --    0.06376   0.07053   0.07485   0.08123   0.08848
 Alpha virt. eigenvalues --    0.09466   0.09602   0.10294   0.11318   0.11391
 Alpha virt. eigenvalues --    0.11740   0.12338   0.13448   0.14163   0.14175
 Alpha virt. eigenvalues --    0.14408   0.14518   0.14754   0.15003   0.15828
 Alpha virt. eigenvalues --    0.16110   0.17764   0.17925   0.18321   0.18626
 Alpha virt. eigenvalues --    0.19120   0.19224   0.20034   0.20331   0.21101
 Alpha virt. eigenvalues --    0.21409   0.21665   0.22025   0.22904   0.23282
 Alpha virt. eigenvalues --    0.23981   0.24436   0.24939   0.25029   0.25627
 Alpha virt. eigenvalues --    0.25738   0.25846   0.26353   0.26532   0.27062
 Alpha virt. eigenvalues --    0.27733   0.29032   0.29497   0.29794   0.30019
 Alpha virt. eigenvalues --    0.30536   0.31151   0.31442   0.31516   0.31963
 Alpha virt. eigenvalues --    0.33298   0.33827   0.34383   0.34814   0.35017
 Alpha virt. eigenvalues --    0.35492   0.35786   0.36117   0.36767   0.37771
 Alpha virt. eigenvalues --    0.38690   0.39197   0.41499   0.41853   0.43490
 Alpha virt. eigenvalues --    0.44277   0.44745   0.46101   0.46282   0.48685
 Alpha virt. eigenvalues --    0.50889   0.54217   0.55731   0.58292   0.61502
 Alpha virt. eigenvalues --    0.65164   0.65336   0.67061   0.67270   0.67813
 Alpha virt. eigenvalues --    0.68559   0.68752   0.69483   0.71446   0.71711
 Alpha virt. eigenvalues --    0.71828   0.73280   0.74872   0.75162   0.75432
 Alpha virt. eigenvalues --    0.77654   0.79753   0.80502   0.81073   0.84293
 Alpha virt. eigenvalues --    0.84490   0.86583   0.88368   0.88892   0.90125
 Alpha virt. eigenvalues --    0.90634   0.92252   0.93487   0.95528   0.97909
 Alpha virt. eigenvalues --    0.99023   1.00542   1.02875   1.04317   1.06521
 Alpha virt. eigenvalues --    1.08648   1.09361   1.10893   1.11041   1.12820
 Alpha virt. eigenvalues --    1.13735   1.15509   1.15609   1.16793   1.17899
 Alpha virt. eigenvalues --    1.18356   1.18949   1.20704   1.20831   1.21398
 Alpha virt. eigenvalues --    1.22024   1.22955   1.24237   1.24766   1.25566
 Alpha virt. eigenvalues --    1.25932   1.26622   1.27039   1.29442   1.30114
 Alpha virt. eigenvalues --    1.30870   1.30965   1.33081   1.33644   1.34111
 Alpha virt. eigenvalues --    1.36335   1.36975   1.37864   1.37890   1.38159
 Alpha virt. eigenvalues --    1.40030   1.42243   1.44267   1.44384   1.45349
 Alpha virt. eigenvalues --    1.46753   1.50721   1.51919   1.54470   1.56953
 Alpha virt. eigenvalues --    1.58252   1.58921   1.60007   1.63393   1.67478
 Alpha virt. eigenvalues --    1.68640   1.72425   1.75648   1.76223   1.77319
 Alpha virt. eigenvalues --    1.77377   1.79191   1.82308   1.82385   1.83236
 Alpha virt. eigenvalues --    1.84506   1.85223   1.86195   1.87503   1.90032
 Alpha virt. eigenvalues --    1.90568   1.92253   1.93151   1.94106   1.94494
 Alpha virt. eigenvalues --    1.96208   1.97016   1.97954   2.00089   2.00906
 Alpha virt. eigenvalues --    2.01374   2.04099   2.04650   2.05339   2.05820
 Alpha virt. eigenvalues --    2.07591   2.09204   2.10112   2.10933   2.12823
 Alpha virt. eigenvalues --    2.14393   2.15714   2.18488   2.20656   2.21064
 Alpha virt. eigenvalues --    2.23313   2.25523   2.27469   2.31096   2.31343
 Alpha virt. eigenvalues --    2.33940   2.39507   2.39709   2.41883   2.45667
 Alpha virt. eigenvalues --    2.46764   2.47228   2.48620   2.49459   2.51418
 Alpha virt. eigenvalues --    2.51464   2.53281   2.53761   2.54366   2.57217
 Alpha virt. eigenvalues --    2.58551   2.58870   2.62785   2.63033   2.63236
 Alpha virt. eigenvalues --    2.63781   2.66715   2.68113   2.70675   2.70794
 Alpha virt. eigenvalues --    2.72304   2.72673   2.75043   2.76581   2.78677
 Alpha virt. eigenvalues --    2.81655   2.82318   2.83268   2.83604   2.84433
 Alpha virt. eigenvalues --    2.85277   2.88670   2.90523   2.94731   2.96279
 Alpha virt. eigenvalues --    2.99008   3.03953   3.08058   3.14153   3.16597
 Alpha virt. eigenvalues --    3.17624   3.19107   3.22559   3.23521   3.24611
 Alpha virt. eigenvalues --    3.28478   3.36691   3.39598   3.40917   3.44203
 Alpha virt. eigenvalues --    3.45017   3.46215   3.48023   3.53977   3.56742
 Alpha virt. eigenvalues --    3.61797   3.75930   4.17231   4.22650   4.29162
 Alpha virt. eigenvalues --    4.32612   4.37306   4.40971   4.42412   4.45524
 Alpha virt. eigenvalues --    4.48948   4.55372   4.60448   4.61520   4.67043
 Alpha virt. eigenvalues --    4.78301   4.82587   5.28246
          Condensed to atoms (all electrons):
               1          2          3          4          5          6
     1  C   22.546696  -0.060636  -8.005123  -0.473169  -6.104660   0.306275
     2  C   -0.060636  21.021506  -2.152069  -2.437840  -0.599982  -7.874226
     3  C   -8.005123  -2.152069  24.390459   1.009991  -1.931167  -4.260563
     4  C   -0.473169  -2.437840   1.009991  14.351956  -2.628925  -2.489225
     5  C   -6.104660  -0.599982  -1.931167  -2.628925  14.255177   1.307467
     6  C    0.306275  -7.874226  -4.260563  -2.489225   1.307467  18.727594
     7  O    0.151438  -0.994140  -0.028669  -0.064332   0.159520   0.688990
     8  O   -0.723957   0.234209   0.451569  -0.018284   0.005064   0.046885
     9  C    0.213647  -0.132888  -0.169221  -0.119069   0.001945   0.077489
    10  O   -0.685055   0.112183  -0.012910  -0.030532   0.341204   0.187116
    11  C   -0.001464   0.036865   0.039367  -0.064116  -0.038568  -0.109161
    12  C   -1.104446  -0.736605  -1.339170  -0.564536   1.043237  -0.308119
    13  C   -0.023012  -1.037128  -2.303003  -0.195804   0.043097   0.101831
    14  C   -0.037200   0.047210  -0.267371  -0.568716   0.194822   0.030356
    15  O   -0.000222   0.002266   0.019162   0.091993  -0.026248  -0.003470
    16  O   -0.000581  -0.003300   0.059629   0.137922  -0.045266  -0.003758
    17  H   -0.004008  -0.182185   0.193511   0.150041   0.038593   0.003200
    18  H   -0.021727  -0.004546   0.121150   0.289910   0.175162  -0.184229
    19  H    0.174380   0.318234   0.023651  -0.001672  -0.036601  -0.485438
    20  H    0.101207   0.119817  -0.192405  -0.028376  -0.000241   0.016444
    21  H   -0.049553  -0.143288   0.143788   0.037911   0.001541  -0.011143
    22  H   -0.049548  -0.143215   0.143689   0.037937   0.001543  -0.011147
    23  H   -0.025318  -0.005226   0.008356   0.036277   0.055753  -0.081629
    24  H   -0.025304  -0.005229   0.008364   0.036274   0.055745  -0.081641
    25  H    0.061958   0.008180  -0.005072  -0.027756  -0.106004   0.084455
    26  H    0.011889   0.026139   0.076881  -0.033655   0.068044   0.008082
    27  H    0.000835  -0.001151   0.025482   0.077236  -0.005528  -0.002371
    28  H    0.000036   0.000011  -0.000276  -0.007341   0.002978   0.000273
               7          8          9         10         11         12
     1  C    0.151438  -0.723957   0.213647  -0.685055  -0.001464  -1.104446
     2  C   -0.994140   0.234209  -0.132888   0.112183   0.036865  -0.736605
     3  C   -0.028669   0.451569  -0.169221  -0.012910   0.039367  -1.339170
     4  C   -0.064332  -0.018284  -0.119069  -0.030532  -0.064116  -0.564536
     5  C    0.159520   0.005064   0.001945   0.341204  -0.038568   1.043237
     6  C    0.688990   0.046885   0.077489   0.187116  -0.109161  -0.308119
     7  O    8.430660   0.038882  -0.000170  -0.021289  -0.001538   0.010404
     8  O    0.038882   8.515379   0.022751  -0.002173   0.000155  -0.028684
     9  C   -0.000170   0.022751   5.019554  -0.000069   0.000485  -0.038383
    10  O   -0.021289  -0.002173  -0.000069   8.653153   0.038226   0.013267
    11  C   -0.001538   0.000155   0.000485   0.038226   4.980650  -0.004772
    12  C    0.010404  -0.028684  -0.038383   0.013267  -0.004772  10.422440
    13  C    0.000721  -0.004642  -0.006594  -0.006067  -0.016932  -2.560502
    14  C    0.000428  -0.000233  -0.000390   0.000130  -0.001535   0.730725
    15  O    0.000000   0.000000   0.000004   0.000001   0.000063  -0.052829
    16  O    0.000000   0.000002   0.000126  -0.000002   0.000004   0.026488
    17  H   -0.000678  -0.014913  -0.003695   0.000124   0.000150   0.091108
    18  H   -0.000455   0.000157   0.000299  -0.016187  -0.000088  -0.071855
    19  H    0.167029  -0.002179   0.000051   0.043243   0.003657   0.001815
    20  H   -0.000736  -0.077446   0.427321  -0.000003   0.000010  -0.004475
    21  H   -0.000001  -0.038973   0.405628   0.000002  -0.000019   0.007620
    22  H   -0.000001  -0.038975   0.405624   0.000002  -0.000019   0.007623
    23  H   -0.000295  -0.000001  -0.000009  -0.045023   0.414840  -0.001642
    24  H   -0.000296  -0.000001  -0.000009  -0.045019   0.414853  -0.001649
    25  H    0.000052  -0.000001   0.000004  -0.068978   0.416086   0.000031
    26  H   -0.000012   0.000073   0.000329   0.000036   0.000173   0.328336
    27  H   -0.000005   0.000004   0.000046   0.000111   0.000918  -0.099416
    28  H    0.000000   0.000000  -0.000000  -0.000000  -0.000003   0.024766
              13         14         15         16         17         18
     1  C   -0.023012  -0.037200  -0.000222  -0.000581  -0.004008  -0.021727
     2  C   -1.037128   0.047210   0.002266  -0.003300  -0.182185  -0.004546
     3  C   -2.303003  -0.267371   0.019162   0.059629   0.193511   0.121150
     4  C   -0.195804  -0.568716   0.091993   0.137922   0.150041   0.289910
     5  C    0.043097   0.194822  -0.026248  -0.045266   0.038593   0.175162
     6  C    0.101831   0.030356  -0.003470  -0.003758   0.003200  -0.184229
     7  O    0.000721   0.000428   0.000000   0.000000  -0.000678  -0.000455
     8  O   -0.004642  -0.000233   0.000000   0.000002  -0.014913   0.000157
     9  C   -0.006594  -0.000390   0.000004   0.000126  -0.003695   0.000299
    10  O   -0.006067   0.000130   0.000001  -0.000002   0.000124  -0.016187
    11  C   -0.016932  -0.001535   0.000063   0.000004   0.000150  -0.000088
    12  C   -2.560502   0.730725  -0.052829   0.026488   0.091108  -0.071855
    13  C   14.230464  -1.687071   0.103350  -0.175145   0.021926  -0.001180
    14  C   -1.687071   6.562794  -0.135944   0.305529   0.000432   0.005821
    15  O    0.103350  -0.135944   8.428414  -0.146151   0.000002   0.000069
    16  O   -0.175145   0.305529  -0.146151   8.358289  -0.000076   0.000053
    17  H    0.021926   0.000432   0.000002  -0.000076   0.582833  -0.000154
    18  H   -0.001180   0.005821   0.000069   0.000053  -0.000154   0.598496
    19  H    0.000614   0.000024   0.000000   0.000000   0.000004  -0.000037
    20  H   -0.000200  -0.000002   0.000000  -0.000000   0.000135  -0.000000
    21  H    0.000787  -0.000029  -0.000000   0.000000  -0.000941   0.000000
    22  H    0.000787  -0.000029  -0.000000   0.000000  -0.000941   0.000000
    23  H    0.000200  -0.000284  -0.000000  -0.000000   0.000000  -0.000819
    24  H    0.000196  -0.000285  -0.000000  -0.000000   0.000000  -0.000820
    25  H   -0.000049   0.000040   0.000000  -0.000000  -0.000000   0.000137
    26  H   -0.169911  -0.025643   0.001207  -0.004517   0.003345  -0.000038
    27  H    0.329119  -0.024347  -0.006763   0.005752  -0.000001   0.000794
    28  H   -0.010896   0.026111   0.190937   0.007547  -0.000000  -0.000000
              19         20         21         22         23         24
     1  C    0.174380   0.101207  -0.049553  -0.049548  -0.025318  -0.025304
     2  C    0.318234   0.119817  -0.143288  -0.143215  -0.005226  -0.005229
     3  C    0.023651  -0.192405   0.143788   0.143689   0.008356   0.008364
     4  C   -0.001672  -0.028376   0.037911   0.037937   0.036277   0.036274
     5  C   -0.036601  -0.000241   0.001541   0.001543   0.055753   0.055745
     6  C   -0.485438   0.016444  -0.011143  -0.011147  -0.081629  -0.081641
     7  O    0.167029  -0.000736  -0.000001  -0.000001  -0.000295  -0.000296
     8  O   -0.002179  -0.077446  -0.038973  -0.038975  -0.000001  -0.000001
     9  C    0.000051   0.427321   0.405628   0.405624  -0.000009  -0.000009
    10  O    0.043243  -0.000003   0.000002   0.000002  -0.045023  -0.045019
    11  C    0.003657   0.000010  -0.000019  -0.000019   0.414840   0.414853
    12  C    0.001815  -0.004475   0.007620   0.007623  -0.001642  -0.001649
    13  C    0.000614  -0.000200   0.000787   0.000787   0.000200   0.000196
    14  C    0.000024  -0.000002  -0.000029  -0.000029  -0.000284  -0.000285
    15  O    0.000000   0.000000  -0.000000  -0.000000  -0.000000  -0.000000
    16  O    0.000000  -0.000000   0.000000   0.000000  -0.000000  -0.000000
    17  H    0.000004   0.000135  -0.000941  -0.000941   0.000000   0.000000
    18  H   -0.000037  -0.000000   0.000000   0.000000  -0.000819  -0.000820
    19  H    0.387087  -0.000001   0.000000   0.000000   0.000037   0.000037
    20  H   -0.000001   0.543513  -0.028297  -0.028296   0.000000   0.000000
    21  H    0.000000  -0.028297   0.575092  -0.045430  -0.000000  -0.000000
    22  H    0.000000  -0.028296  -0.045430   0.575092  -0.000000  -0.000000
    23  H    0.000037   0.000000  -0.000000  -0.000000   0.563857  -0.042750
    24  H    0.000037   0.000000  -0.000000  -0.000000  -0.042750   0.563853
    25  H   -0.000079  -0.000000   0.000000   0.000000  -0.027980  -0.027979
    26  H   -0.000000   0.000000  -0.000002  -0.000002   0.000000   0.000000
    27  H   -0.000000  -0.000000   0.000000   0.000000  -0.000002  -0.000002
    28  H    0.000000   0.000000   0.000000   0.000000   0.000000   0.000000
              25         26         27         28
     1  C    0.061958   0.011889   0.000835   0.000036
     2  C    0.008180   0.026139  -0.001151   0.000011
     3  C   -0.005072   0.076881   0.025482  -0.000276
     4  C   -0.027756  -0.033655   0.077236  -0.007341
     5  C   -0.106004   0.068044  -0.005528   0.002978
     6  C    0.084455   0.008082  -0.002371   0.000273
     7  O    0.000052  -0.000012  -0.000005   0.000000
     8  O   -0.000001   0.000073   0.000004   0.000000
     9  C    0.000004   0.000329   0.000046  -0.000000
    10  O   -0.068978   0.000036   0.000111  -0.000000
    11  C    0.416086   0.000173   0.000918  -0.000003
    12  C    0.000031   0.328336  -0.099416   0.024766
    13  C   -0.000049  -0.169911   0.329119  -0.010896
    14  C    0.000040  -0.025643  -0.024347   0.026111
    15  O    0.000000   0.001207  -0.006763   0.190937
    16  O   -0.000000  -0.004517   0.005752   0.007547
    17  H   -0.000000   0.003345  -0.000001  -0.000000
    18  H    0.000137  -0.000038   0.000794  -0.000000
    19  H   -0.000079  -0.000000  -0.000000   0.000000
    20  H   -0.000000   0.000000  -0.000000   0.000000
    21  H    0.000000  -0.000002   0.000000   0.000000
    22  H    0.000000  -0.000002   0.000000   0.000000
    23  H   -0.027980   0.000000  -0.000002   0.000000
    24  H   -0.027979   0.000000  -0.000002   0.000000
    25  H    0.541765  -0.000000  -0.000000  -0.000000
    26  H   -0.000000   0.551823   0.004562  -0.000005
    27  H   -0.000000   0.004562   0.570491   0.000032
    28  H   -0.000000  -0.000005   0.000032   0.393732
 Mulliken charges:
               1
     1  C   -0.173377
     2  C    0.587034
     3  C   -0.048030
     4  C   -0.504100
     5  C   -0.227702
     6  C    0.319663
     7  O   -0.535509
     8  O   -0.364670
     9  C   -0.104806
    10  O   -0.455491
    11  C   -0.108287
    12  C    0.209223
    13  C   -0.634955
    14  C    0.844656
    15  O   -0.465844
    16  O   -0.522544
    17  H    0.122185
    18  H    0.110085
    19  H    0.406143
    20  H    0.152032
    21  H    0.145307
    22  H    0.145306
    23  H    0.151660
    24  H    0.151661
    25  H    0.151192
    26  H    0.152866
    27  H    0.124204
    28  H    0.372100
 Sum of Mulliken charges =  -0.00000
 Mulliken charges with hydrogens summed into heavy atoms:
               1
     1  C   -0.173377
     2  C    0.587034
     3  C    0.074155
     4  C   -0.504100
     5  C   -0.117617
     6  C    0.319663
     7  O   -0.129366
     8  O   -0.364670
     9  C    0.337838
    10  O   -0.455491
    11  C    0.346225
    12  C    0.362089
    13  C   -0.510752
    14  C    0.844656
    15  O   -0.093744
    16  O   -0.522544
 Electronic spatial extent (au):  <R**2>=           5096.7432
 Charge=             -0.0000 electrons
 Dipole moment (field-independent basis, Debye):
    X=             -1.2538    Y=              2.5497    Z=              0.0002  Tot=              2.8413
 Quadrupole moment (field-independent basis, Debye-Ang):
   XX=           -104.9139   YY=            -75.3216   ZZ=            -96.5847
   XY=              4.8486   XZ=             -0.0011   YZ=              0.0004
 Traceless Quadrupole moment (field-independent basis, Debye-Ang):
   XX=            -12.6405   YY=             16.9518   ZZ=             -4.3113
   XY=              4.8486   XZ=             -0.0011   YZ=              0.0004
 Octapole moment (field-independent basis, Debye-Ang**2):
  XXX=             52.2679  YYY=             16.2382  ZZZ=             -0.0002  XYY=            -64.3304
  XXY=             47.9891  XXZ=              0.0010  XZZ=             -0.3542  YZZ=              0.8520
  YYZ=              0.0014  XYZ=              0.0010
 Hexadecapole moment (field-independent basis, Debye-Ang**3):
 XXXX=          -4007.1985 YYYY=          -1622.9198 ZZZZ=           -118.1576 XXXY=             84.8382
 XXXZ=             -0.0199 YYYX=             47.7971 YYYZ=              0.0022 ZZZX=              0.0002
 ZZZY=              0.0005 XXYY=          -1095.1491 XXZZ=           -764.7177 YYZZ=           -347.7032
 XXYZ=              0.0038 YYXZ=             -0.0042 ZZXY=             -3.6590
 N-N= 1.054882135688D+03 E-N=-3.982632383402D+03  KE= 7.953588120751D+02
 Calling FoFJK, ICntrl=      2127 FMM=F ISym2X=0 I1Cent= 0 IOpClX= 0 NMat=1 NMatS=1 NMatT=0.
 ***** Axes restored to original set *****
 -------------------------------------------------------------------
 Center     Atomic                   Forces (Hartrees/Bohr)
 Number     Number              X              Y              Z
 -------------------------------------------------------------------
      1        6           0.003426560    0.001285291    0.000000597
      2        6           0.001075519   -0.002725734    0.000002037
      3        6           0.001260960    0.002610919    0.000001143
      4        6           0.000603248    0.000210522    0.000000529
      5        6           0.001962925   -0.002143418   -0.000001876
      6        6           0.000703064    0.002630320   -0.000002702
      7        8          -0.004740246    0.000001496   -0.000001539
      8        8          -0.003488205   -0.000647349    0.000000075
      9        6          -0.000334950    0.004621476   -0.000000066
     10        8          -0.003022635   -0.000922755    0.000001054
     11        6           0.001205861   -0.004382649   -0.000001966
     12        6           0.000610745    0.001504564   -0.000000118
     13        6          -0.000799163   -0.001577868    0.000001164
     14        6          -0.003120578   -0.000721006   -0.000002127
     15        8           0.002038661   -0.003467556    0.000000758
     16        8           0.001251749    0.004599390    0.000000600
     17        1          -0.000192694   -0.000830485   -0.000001062
     18        1          -0.000461341    0.000758888    0.000001780
     19        1          -0.001491192   -0.001141362    0.000000911
     20        1           0.000018674    0.000261973    0.000000132
     21        1           0.000282329    0.000265588    0.000203225
     22        1           0.000282198    0.000266352   -0.000203693
     23        1           0.000373295   -0.000110567   -0.000165839
     24        1           0.000373272   -0.000111328    0.000166885
     25        1           0.000077097   -0.000222406    0.000000746
     26        1          -0.000137103   -0.000321705   -0.000000307
     27        1          -0.000011125    0.000391645   -0.000000377
     28        1           0.002253075   -0.000082236    0.000000038
 -------------------------------------------------------------------
 Cartesian Forces:  Max     0.004740246 RMS     0.001543123

 GradGradGradGradGradGradGradGradGradGradGradGradGradGradGradGradGradGrad
 Berny optimization.
 FormGI is forming the generalized inverse of G from B-inverse, IUseBI=4.
 GSVD:  received Info=                   1 from GESDD.
 Internal  Forces:  Max     0.006335088 RMS     0.001602112
 Search for a local minimum.
 Step number   1 out of a maximum of  131
 All quantities printed in internal units (Hartrees-Bohrs-Radians)
 Mixed Optimization -- RFO/linear search
 Second derivative matrix not updated -- first step.
 ITU=  0
     Eigenvalues ---    0.01216   0.01372   0.01457   0.01487   0.01529
     Eigenvalues ---    0.01817   0.02015   0.02039   0.02053   0.02065
     Eigenvalues ---    0.02074   0.02101   0.02118   0.02119   0.02130
     Eigenvalues ---    0.02137   0.02175   0.02235   0.02280   0.02350
     Eigenvalues ---    0.02759   0.10060   0.10120   0.10683   0.10694
     Eigenvalues ---    0.16000   0.16000   0.16000   0.16000   0.16000
     Eigenvalues ---    0.16000   0.16000   0.16000   0.16000   0.16000
     Eigenvalues ---    0.16000   0.16000   0.22000   0.22000   0.23477
     Eigenvalues ---    0.23487   0.25000   0.25000   0.25000   0.25000
     Eigenvalues ---    0.25000   0.25000   0.25000   0.25000   0.25000
     Eigenvalues ---    0.33968   0.33968   0.34064   0.34065   0.34743
     Eigenvalues ---    0.34760   0.34828   0.35380   0.35490   0.35637
     Eigenvalues ---    0.36225   0.37698   0.41167   0.41975   0.42799
     Eigenvalues ---    0.43149   0.44636   0.44839   0.45647   0.47317
     Eigenvalues ---    0.51400   0.53162   0.53438   0.53556   0.53855
     Eigenvalues ---    0.54974   0.55158   0.96175
 RFO step:  Lambda=-7.14724998D-04 EMin= 1.21591207D-02
 Linear search not attempted -- first point.
 Iteration  1 RMS(Cart)=  0.01901958 RMS(Int)=  0.00006192
 Iteration  2 RMS(Cart)=  0.00013821 RMS(Int)=  0.00000042
 Iteration  3 RMS(Cart)=  0.00000001 RMS(Int)=  0.00000042
 Variable       Old X    -DE/DX   Delta X   Delta X   Delta X     New X
                                 (Linear)    (Quad)   (Total)
    R1        2.65139   0.00245   0.00000   0.00550   0.00550   2.65689
    R2        2.65738   0.00332   0.00000   0.00750   0.00750   2.66489
    R3        2.55156   0.00634   0.00000   0.01151   0.01151   2.56306
    R4        2.63699   0.00281   0.00000   0.00606   0.00606   2.64305
    R5        2.56164   0.00567   0.00000   0.01051   0.01051   2.57215
    R6        2.65664   0.00224   0.00000   0.00493   0.00493   2.66157
    R7        2.04887  -0.00084   0.00000  -0.00237  -0.00237   2.04649
    R8        2.65783   0.00218   0.00000   0.00481   0.00481   2.66264
    R9        2.74807   0.00210   0.00000   0.00557   0.00557   2.75364
   R10        2.62150   0.00252   0.00000   0.00527   0.00527   2.62677
   R11        2.04653  -0.00088   0.00000  -0.00246  -0.00246   2.04407
   R12        2.58478   0.00559   0.00000   0.01086   0.01086   2.59564
   R13        1.83138   0.00132   0.00000   0.00246   0.00246   1.83385
   R14        2.67486   0.00525   0.00000   0.01216   0.01216   2.68701
   R15        2.06093   0.00013   0.00000   0.00036   0.00036   2.06130
   R16        2.07385   0.00038   0.00000   0.00111   0.00111   2.07495
   R17        2.07384   0.00038   0.00000   0.00111   0.00111   2.07495
   R18        2.67919   0.00510   0.00000   0.01191   0.01191   2.69109
   R19        2.07222   0.00035   0.00000   0.00103   0.00103   2.07325
   R20        2.07221   0.00035   0.00000   0.00103   0.00103   2.07325
   R21        2.06066   0.00013   0.00000   0.00036   0.00036   2.06102
   R22        2.54992   0.00181   0.00000   0.00327   0.00327   2.55319
   R23        2.05955  -0.00035   0.00000  -0.00099  -0.00099   2.05856
   R24        2.77031   0.00238   0.00000   0.00655   0.00655   2.77686
   R25        2.05062  -0.00039   0.00000  -0.00109  -0.00109   2.04954
   R26        2.56803   0.00552   0.00000   0.01037   0.01037   2.57840
   R27        2.30211   0.00476   0.00000   0.00495   0.00495   2.30706
   R28        1.83247   0.00199   0.00000   0.00371   0.00371   1.83618
    A1        2.08551  -0.00011   0.00000  -0.00019  -0.00019   2.08532
    A2        2.09150  -0.00111   0.00000  -0.00456  -0.00456   2.08694
    A3        2.10618   0.00122   0.00000   0.00475   0.00475   2.11093
    A4        2.08043   0.00005   0.00000   0.00031   0.00031   2.08074
    A5        2.01653  -0.00044   0.00000  -0.00182  -0.00182   2.01471
    A6        2.18623   0.00039   0.00000   0.00150   0.00150   2.18773
    A7        2.11632   0.00010   0.00000   0.00027   0.00027   2.11659
    A8        2.09569   0.00007   0.00000   0.00061   0.00061   2.09630
    A9        2.07117  -0.00017   0.00000  -0.00088  -0.00088   2.07029
   A10        2.08218  -0.00014   0.00000  -0.00087  -0.00087   2.08132
   A11        2.05962   0.00055   0.00000   0.00235   0.00235   2.06197
   A12        2.14138  -0.00041   0.00000  -0.00148  -0.00148   2.13990
   A13        2.08440   0.00049   0.00000   0.00202   0.00202   2.08642
   A14        2.09773  -0.00038   0.00000  -0.00182  -0.00182   2.09592
   A15        2.10105  -0.00012   0.00000  -0.00020  -0.00020   2.10085
   A16        2.11752  -0.00041   0.00000  -0.00154  -0.00154   2.11598
   A17        1.96978   0.00094   0.00000   0.00372   0.00372   1.97351
   A18        2.19588  -0.00054   0.00000  -0.00218  -0.00219   2.19369
   A19        1.87304   0.00244   0.00000   0.01520   0.01520   1.88824
   A20        2.05959   0.00354   0.00000   0.01411   0.01411   2.07369
   A21        1.84546   0.00029   0.00000   0.00197   0.00196   1.84742
   A22        1.94533   0.00020   0.00000   0.00115   0.00115   1.94648
   A23        1.94532   0.00020   0.00000   0.00116   0.00116   1.94648
   A24        1.90737  -0.00019   0.00000  -0.00104  -0.00104   1.90634
   A25        1.90738  -0.00019   0.00000  -0.00104  -0.00104   1.90634
   A26        1.91148  -0.00031   0.00000  -0.00215  -0.00215   1.90932
   A27        2.06583   0.00282   0.00000   0.01124   0.01124   2.07706
   A28        1.93856   0.00016   0.00000   0.00085   0.00085   1.93941
   A29        1.93856   0.00016   0.00000   0.00085   0.00085   1.93940
   A30        1.84999   0.00028   0.00000   0.00196   0.00196   1.85195
   A31        1.91520  -0.00033   0.00000  -0.00245  -0.00245   1.91274
   A32        1.91015  -0.00012   0.00000  -0.00054  -0.00054   1.90961
   A33        1.91016  -0.00013   0.00000  -0.00055  -0.00055   1.90961
   A34        2.23653  -0.00038   0.00000  -0.00171  -0.00171   2.23482
   A35        2.02345   0.00013   0.00000   0.00049   0.00049   2.02394
   A36        2.02320   0.00025   0.00000   0.00122   0.00122   2.02442
   A37        2.09404   0.00096   0.00000   0.00433   0.00433   2.09837
   A38        2.15298  -0.00053   0.00000  -0.00250  -0.00250   2.15048
   A39        2.03617  -0.00042   0.00000  -0.00183  -0.00183   2.03434
   A40        1.94765   0.00008   0.00000   0.00031   0.00031   1.94797
   A41        2.21203  -0.00011   0.00000  -0.00046  -0.00046   2.21157
   A42        2.12351   0.00004   0.00000   0.00014   0.00014   2.12365
   A43        1.85484   0.00196   0.00000   0.01217   0.01217   1.86701
    D1       -0.00003   0.00000   0.00000   0.00002   0.00002  -0.00001
    D2        3.14158   0.00000   0.00000   0.00000   0.00000   3.14158
    D3        3.14157   0.00000   0.00000   0.00002   0.00002   3.14159
    D4       -0.00001   0.00000   0.00000   0.00000   0.00000  -0.00001
    D5        0.00001   0.00000   0.00000   0.00000   0.00000   0.00001
    D6       -3.14155  -0.00000   0.00000  -0.00003  -0.00003  -3.14159
    D7       -3.14159   0.00000   0.00000  -0.00000  -0.00000  -3.14159
    D8        0.00004  -0.00000   0.00000  -0.00003  -0.00003   0.00000
    D9        3.14151   0.00000   0.00000   0.00003   0.00003   3.14154
   D10       -0.00008   0.00000   0.00000   0.00003   0.00003  -0.00005
   D11        0.00002  -0.00000   0.00000  -0.00002  -0.00002   0.00001
   D12       -3.14154  -0.00000   0.00000  -0.00003  -0.00003  -3.14157
   D13       -3.14158  -0.00000   0.00000  -0.00000  -0.00000  -3.14159
   D14        0.00004  -0.00000   0.00000  -0.00002  -0.00002   0.00002
   D15       -3.14156   0.00000   0.00000   0.00001   0.00001  -3.14155
   D16        0.00004  -0.00000   0.00000  -0.00000  -0.00000   0.00004
   D17        0.00000   0.00000   0.00000   0.00000   0.00000   0.00000
   D18       -3.14158   0.00000   0.00000  -0.00000  -0.00000  -3.14158
   D19        3.14157   0.00000   0.00000   0.00002   0.00002   3.14158
   D20       -0.00002   0.00000   0.00000   0.00001   0.00001  -0.00000
   D21       -0.00002   0.00000   0.00000   0.00002   0.00002  -0.00001
   D22        3.14153   0.00000   0.00000   0.00004   0.00004   3.14157
   D23        3.14156   0.00000   0.00000   0.00002   0.00002   3.14158
   D24       -0.00008   0.00000   0.00000   0.00005   0.00005  -0.00003
   D25        3.14154   0.00000   0.00000   0.00001   0.00001   3.14154
   D26       -0.00005  -0.00000   0.00000  -0.00000  -0.00000  -0.00005
   D27       -0.00005   0.00000   0.00000   0.00000   0.00000  -0.00004
   D28        3.14155  -0.00000   0.00000  -0.00001  -0.00001   3.14155
   D29        0.00002  -0.00000   0.00000  -0.00002  -0.00002   0.00000
   D30        3.14157   0.00000   0.00000   0.00002   0.00002  -3.14159
   D31       -3.14153  -0.00000   0.00000  -0.00004  -0.00004  -3.14157
   D32        0.00003  -0.00000   0.00000  -0.00001  -0.00001   0.00002
   D33        3.14157   0.00000   0.00000   0.00003   0.00003  -3.14159
   D34        0.00002  -0.00000   0.00000  -0.00001  -0.00001   0.00001
   D35        3.14152   0.00000   0.00000   0.00003   0.00003   3.14155
   D36       -1.07085   0.00006   0.00000   0.00059   0.00059  -1.07026
   D37        1.07070  -0.00006   0.00000  -0.00053  -0.00053   1.07017
   D38       -1.06839   0.00010   0.00000   0.00099   0.00099  -1.06740
   D39        1.06834  -0.00010   0.00000  -0.00097  -0.00097   1.06737
   D40        3.14158  -0.00000   0.00000   0.00000   0.00000   3.14158
   D41       -3.14159  -0.00000   0.00000  -0.00001  -0.00001   3.14159
   D42       -0.00001   0.00000   0.00000   0.00000   0.00000  -0.00001
   D43       -0.00001   0.00000   0.00000   0.00000   0.00000  -0.00001
   D44        3.14157   0.00000   0.00000   0.00001   0.00001   3.14158
   D45       -3.14159  -0.00000   0.00000  -0.00003  -0.00003   3.14157
   D46       -0.00001   0.00000   0.00000   0.00004   0.00004   0.00003
   D47        0.00002  -0.00000   0.00000  -0.00004  -0.00004  -0.00002
   D48       -3.14159   0.00000   0.00000   0.00003   0.00003  -3.14156
   D49        3.14159   0.00000   0.00000   0.00003   0.00003  -3.14157
   D50        0.00001  -0.00000   0.00000  -0.00003  -0.00003  -0.00002
         Item               Value     Threshold  Converged?
 Maximum Force            0.006335     0.000450     NO 
 RMS     Force            0.001602     0.000300     NO 
 Maximum Displacement     0.067272     0.001800     NO 
 RMS     Displacement     0.019109     0.001200     NO 
 Predicted change in Energy=-3.580632D-04
 GradGradGradGradGradGradGradGradGradGradGradGradGradGradGradGradGradGrad

                          Input orientation:                          
 ---------------------------------------------------------------------
 Center     Atomic      Atomic             Coordinates (Angstroms)
 Number     Number       Type             X           Y           Z
 ---------------------------------------------------------------------
      1          6           0       -2.387595   -0.205112    0.000011
      2          6           0       -1.909680    1.117136    0.000011
      3          6           0       -0.529604    1.344265   -0.000005
      4          6           0        0.387299    0.275155   -0.000026
      5          6           0       -0.097659   -1.047768   -0.000037
      6          6           0       -1.468976   -1.275063   -0.000017
      7          8           0       -3.724516   -0.433655    0.000034
      8          8           0       -2.866980    2.084727    0.000026
      9          6           0       -2.463317    3.448132   -0.000026
     10          8           0       -2.077089   -2.506666   -0.000020
     11          6           0       -1.266094   -3.677243   -0.000038
     12          6           0        1.810057    0.589934   -0.000028
     13          6           0        2.852913   -0.269074    0.000006
     14          6           0        4.231148    0.240582   -0.000011
     15          8           0        5.142432   -0.774914    0.000058
     16          8           0        4.576243    1.411635   -0.000027
     17          1           0       -0.145684    2.356887    0.000013
     18          1           0        0.594454   -1.879032   -0.000076
     19          1           0       -3.867740   -1.393458   -0.000018
     20          1           0       -3.384894    4.031675   -0.000046
     21          1           0       -1.878891    3.695294    0.896077
     22          1           0       -1.878892    3.695229   -0.896147
     23          1           0       -0.635156   -3.721020   -0.896511
     24          1           0       -0.635116   -3.721018    0.896406
     25          1           0       -1.955064   -4.522719   -0.000024
     26          1           0        2.064135    1.649231   -0.000061
     27          1           0        2.734551   -1.347165    0.000049
     28          1           0        6.023545   -0.365308    0.000066
 ---------------------------------------------------------------------
                    Distance matrix (angstroms):
                    1          2          3          4          5
     1  C    0.000000
     2  C    1.405967   0.000000
     3  C    2.419235   1.398641   0.000000
     4  C    2.816149   2.446435   1.408442   0.000000
     5  C    2.440056   2.823160   2.430720   1.409010   0.000000
     6  C    1.410197   2.432455   2.782678   2.418456   1.390026
     7  O    1.356315   2.387171   3.656291   4.172462   3.678482
     8  O    2.339481   1.361122   2.451858   3.723558   4.181108
     9  C    3.654029   2.395842   2.857534   4.265419   5.080301
    10  O    2.322405   3.627667   4.150226   3.716415   2.458969
    11  C    3.648761   4.837383   5.075230   4.284292   2.877391
    12  C    4.272281   3.756912   2.458258   1.457164   2.514249
    13  C    5.240898   4.960230   3.747571   2.524963   3.051596
    14  C    6.633732   6.203073   4.887011   3.844004   4.516460
    15  O    7.551555   7.301516   6.054991   4.869695   5.247190
    16  O    7.149050   6.492606   5.106292   4.340373   5.281479
    17  H    3.404410   2.156076   1.082958   2.148879   3.404994
    18  H    3.419740   3.904832   3.413671   2.164124   1.081674
    19  H    1.898155   3.183878   4.317207   4.570517   3.785896
    20  H    4.352583   3.266618   3.921078   5.323616   6.050344
    21  H    4.034214   2.729612   2.854973   4.199520   5.145138
    22  H    4.034172   2.729580   2.854940   4.199472   5.145078
    23  H    4.029441   5.082904   5.145092   4.221198   2.870338
    24  H    4.029430   5.082891   5.145073   4.221176   2.870320
    25  H    4.339218   5.640038   6.037668   5.339125   3.940208
    26  H    4.822498   4.009281   2.611607   2.167917   3.456466
    27  H    5.247920   5.257534   4.230662   2.853334   2.847991
    28  H    8.412665   8.070545   6.772474   5.672518   6.159130
                    6          7          8          9         10
     6  C    0.000000
     7  O    2.407370   0.000000
     8  O    3.639039   2.660379   0.000000
     9  C    4.826726   4.081531   1.421906   0.000000
    10  O    1.373553   2.647903   4.658843   5.967311   0.000000
    11  C    2.410732   4.069975   5.980228   7.225255   1.424065
    12  C    3.772303   5.628431   4.910100   5.141112   4.969792
    13  C    4.437425   6.579488   6.185269   6.486905   5.414032
    14  C    5.898185   7.984183   7.333777   7.423223   6.880496
    15  O    6.630299   8.873513   8.504600   8.699514   7.424315
    16  O    6.615362   8.503394   7.473595   7.328215   7.721393
    17  H    3.865509   4.538190   2.734871   2.561687   5.233018
    18  H    2.150005   4.554406   5.262405   6.142365   2.744278
    19  H    2.401684   0.970430   3.619294   5.041170   2.108474
    20  H    5.642004   4.478227   2.014657   1.090792   6.667853
    21  H    5.067096   4.610580   2.091209   1.098018   6.269496
    22  H    5.067039   4.610548   2.091211   1.098017   6.269436
    23  H    2.735262   4.599424   6.284227   7.452691   2.087468
    24  H    2.735250   4.599417   6.284218   7.452693   2.087467
    25  H    3.283832   4.455492   6.670077   7.987039   2.019742
    26  H    4.586324   6.151984   4.950308   4.871742   5.866960
    27  H    4.204145   6.523347   6.569249   7.071966   4.949376
    28  H    7.547550   9.748301   9.221936   9.304255   8.378883
                   11         12         13         14         15
    11  C    0.000000
    12  C    5.260371   0.000000
    13  C    5.346198   1.351090   0.000000
    14  C    6.750483   2.446165   1.469449   0.000000
    15  O    7.035106   3.601046   2.344732   1.364431   0.000000
    16  O    7.747876   2.885650   2.407208   1.220842   2.258664
    17  H    6.137267   2.635726   3.985883   4.861626   6.145921
    18  H    2.587508   2.751996   2.773554   4.209312   4.680084
    19  H    3.461825   6.014252   6.814060   8.262086   9.031378
    20  H    7.994794   6.231621   7.576720   8.507437   9.788697
    21  H    7.452036   4.904549   6.237718   7.076056   8.371653
    22  H    7.451971   4.904512   6.237690   7.076032   8.371640
    23  H    1.097116   5.036573   4.988617   6.338684   6.547053
    24  H    1.097115   5.036543   4.988567   6.338640   6.546986
    25  H    1.090646   6.349437   6.419512   7.807576   8.026238
    26  H    6.281859   1.089342   2.074142   2.584615   3.918213
    27  H    4.629733   2.146401   1.084568   2.181912   2.474947
    28  H    8.006731   4.320412   3.172091   1.892033   0.971667
                   16         17         18         19         20
    16  O    0.000000
    17  H    4.815610   0.000000
    18  H    5.165572   4.300095   0.000000
    19  H    8.897718   5.283823   4.488536   0.000000
    20  H    8.381188   3.646559   7.125424   5.446578   0.000000
    21  H    6.905567   2.366066   6.163897   5.536597   1.784442
    22  H    6.905549   2.366067   6.163828   5.536542   1.784442
    23  H    7.369295   6.163140   2.389237   4.082994   8.274599
    24  H    7.369259   6.163116   2.389233   4.083010   8.274610
    25  H    8.824655   7.113567   3.672754   3.667507   8.673066
    26  H    2.523319   2.320362   3.822120   6.666716   5.947097
    27  H    3.317048   4.692095   2.205198   6.602453   8.147363
    28  H    2.291770   6.743125   5.636168   9.944576  10.385190
                   21         22         23         24         25
    21  H    0.000000
    22  H    1.792223   0.000000
    23  H    7.730586   7.519816   0.000000
    24  H    7.519885   7.730521   1.792917   0.000000
    25  H    8.267076   8.267014   1.785656   1.785658   0.000000
    26  H    4.531764   4.531726   6.076956   6.076939   7.365252
    27  H    6.892975   6.892950   4.218286   4.218209   5.663624
    28  H    8.929715   8.929707   7.510190   7.510125   8.996792
                   26         27         28
    26  H    0.000000
    27  H    3.070480   0.000000
    28  H    4.442442   3.432422   0.000000
 Stoichiometry    C11H12O5
 Framework group  C1[X(C11H12O5)]
 Deg. of freedom    78
 Full point group                 C1      NOp   1
 Largest Abelian subgroup         C1      NOp   1
 Largest concise Abelian subgroup C1      NOp   1
                         Standard orientation:                         
 ---------------------------------------------------------------------
 Center     Atomic      Atomic             Coordinates (Angstroms)
 Number     Number       Type             X           Y           Z
 ---------------------------------------------------------------------
      1          6           0       -2.389861    0.216382   -0.000016
      2          6           0       -1.918311   -1.108150   -0.000016
      3          6           0       -0.539343   -1.341913   -0.000001
      4          6           0        0.382691   -0.277225    0.000021
      5          6           0       -0.095899    1.048015    0.000032
      6          6           0       -1.466107    1.281902    0.000012
      7          8           0       -3.725668    0.451351   -0.000040
      8          8           0       -2.880253   -2.071126   -0.000032
      9          6           0       -2.483151   -3.436457    0.000020
     10          8           0       -2.068290    2.516415    0.000014
     11          6           0       -1.251675    3.683078    0.000032
     12          6           0        1.803919   -0.598842    0.000022
     13          6           0        2.850894    0.255140   -0.000011
     14          6           0        4.226662   -0.261138    0.000006
     15          8           0        5.142819    0.749963   -0.000064
     16          8           0        4.566121   -1.433837    0.000021
     17          1           0       -0.160297   -2.356370   -0.000018
     18          1           0        0.600203    1.875941    0.000070
     19          1           0       -3.864274    1.411831    0.000013
     20          1           0       -3.407524   -4.015561    0.000040
     21          1           0       -1.899920   -3.686426   -0.896082
     22          1           0       -1.899921   -3.686361    0.896141
     23          1           0       -0.620534    3.723821    0.896505
     24          1           0       -0.620493    3.723819   -0.896411
     25          1           0       -1.936571    4.531858    0.000018
     26          1           0        2.052900   -1.659350    0.000056
     27          1           0        2.737718    1.333787   -0.000054
     28          1           0        6.021952    0.336125   -0.000071
 ---------------------------------------------------------------------
 Rotational constants (GHZ):      0.7144425      0.2720140      0.1975052
 Standard basis: 6-31+G(d,p) (6D, 7F)
 There are   364 symmetry adapted cartesian basis functions of A   symmetry.
 There are   364 symmetry adapted basis functions of A   symmetry.
   364 basis functions,   596 primitive gaussians,   364 cartesian basis functions
    59 alpha electrons       59 beta electrons
       nuclear repulsion energy      1051.4447912968 Hartrees.
 NAtoms=   28 NActive=   28 NUniq=   28 SFac= 1.00D+00 NAtFMM=   60 NAOKFM=F Big=F
 Integral buffers will be    131072 words long.
 Raffenetti 2 integral format.
 Two-electron integral symmetry is turned on.
 Nuclear repulsion after empirical dispersion term =     1051.4217667549 Hartrees.
 One-electron integrals computed using PRISM.
 NBasis=   364 RedAO= T EigKep=  1.49D-06  NBF=   364
 NBsUse=   362 1.00D-06 EigRej=  8.74D-07 NBFU=   362
 Initial guess from the checkpoint file:  "b3lypD3SA.chk"
 B after Tr=    -0.000000    0.000000   -0.000000
         Rot=    0.999998   -0.000001   -0.000001    0.002149 Ang=  -0.25 deg.
 ExpMin= 4.38D-02 ExpMax= 5.48D+03 ExpMxC= 8.25D+02 IAcc=2 IRadAn=         4 AccDes= 0.00D+00
 Harris functional with IExCor=  402 and IRadAn=       4 diagonalized for initial guess.
 HarFok:  IExCor=  402 AccDes= 0.00D+00 IRadAn=         4 IDoV= 1 UseB2=F ITyADJ=14
 ICtDFT=  3500011 ScaDFX=  1.000000  1.000000  1.000000  1.000000
 FoFCou: FMM=F IPFlag=           0 FMFlag=      100000 FMFlg1=           0
         NFxFlg=           0 DoJE=T BraDBF=F KetDBF=T FulRan=T
         wScrn=  0.000000 ICntrl=     500 IOpCl=  0 I1Cent=   200000004 NGrid=           0
         NMat0=    1 NMatS0=      1 NMatT0=    0 NMatD0=    1 NMtDS0=    0 NMtDT0=    0
 Petite list used in FoFCou.
 Requested convergence on RMS density matrix=1.00D-08 within 128 cycles.
 Requested convergence on MAX density matrix=1.00D-06.
 Requested convergence on             energy=1.00D-06.
 No special actions if energy rises.
 SCF Done:  E(RB3LYP) =  -802.568581731     A.U. after   12 cycles
            NFock= 12  Conv=0.93D-08     -V/T= 2.0093
 Calling FoFJK, ICntrl=      2127 FMM=F ISym2X=0 I1Cent= 0 IOpClX= 0 NMat=1 NMatS=1 NMatT=0.
 ***** Axes restored to original set *****
 -------------------------------------------------------------------
 Center     Atomic                   Forces (Hartrees/Bohr)
 Number     Number              X              Y              Z
 -------------------------------------------------------------------
      1        6           0.001025038   -0.000878205   -0.000000167
      2        6           0.000557276   -0.000448282    0.000000067
      3        6          -0.000298106    0.000094644    0.000000444
      4        6          -0.000368202   -0.000104986    0.000000579
      5        6          -0.000323320   -0.000037245   -0.000000689
      6        6           0.000119565    0.000660085    0.000000571
      7        8          -0.000884125    0.000093611   -0.000000818
      8        8          -0.000968665   -0.000555247   -0.000000306
      9        6           0.001239489    0.000890124    0.000000538
     10        8          -0.001260396    0.000358791   -0.000000280
     11        6           0.001345830   -0.000493389   -0.000000612
     12        6           0.000558703    0.000140645   -0.000000768
     13        6           0.000120753   -0.000147496   -0.000001935
     14        6          -0.000341310    0.001369999    0.000007086
     15        8           0.000178590   -0.000951148   -0.000002038
     16        8          -0.000223251   -0.000442515   -0.000002731
     17        1          -0.000210496    0.000399062   -0.000000395
     18        1          -0.000095195   -0.000300371    0.000000524
     19        1           0.000735824    0.000358377    0.000000687
     20        1          -0.000155659   -0.000526474    0.000000122
     21        1           0.000059262   -0.000353068   -0.000028181
     22        1           0.000059199   -0.000353323    0.000027957
     23        1          -0.000045419    0.000280004    0.000025707
     24        1          -0.000045405    0.000279807   -0.000025353
     25        1          -0.000306205    0.000438004    0.000000166
     26        1          -0.000081787    0.000018114    0.000000063
     27        1           0.000054256   -0.000008897   -0.000000181
     28        1          -0.000446241    0.000219380   -0.000000054
 -------------------------------------------------------------------
 Cartesian Forces:  Max     0.001369999 RMS     0.000450565

[...]
 644800,-0.03236442,0.00007142,-0.00026295,-0.00003610,-0.00003834,0.00
 007262,-0.00004629,-0.00021520,-0.00007598,-0.00006352,0.00021974,-0.0
 0001423,0.00005766,-0.00019127,-0.00009568,-0.00001460,0.00006603,-0.0
 0002223,0.00000068,0.00006375,0.00009237,0.00000964,0.00109208,-0.0007
 3572,-0.00112417,0.00002304,0.00001748,-0.00005306,0.00010600,0.000005
 25,-0.00001348,0.00736320,0.00537363,0.01408284,0.03181143,0.07048254,
 0.00034610,-0.00045214,-0.00025977,-0.00132123,0.00120590,0.00055468,-
 0.00083094,-0.00094058,-0.00006087,0.00041550,0.00027106,-0.00005545,0
 .00016128,0.00001388,-0.00003780,-0.00027479,0.00012810,-0.00004851,0.
 00000084,0.00008646,0.00008693,0.00146183,-0.00593269,0.00730476,-0.11
 034592,-0.03667836,-0.22769512,0.00011167,0.00005120,0.00001676,0.0000
 0353,0.00000036,0.00000070,-0.00006879,-0.00009947,0.00005538,0.000061
 35,0.00001726,-0.00000233,-0.00001295,-0.00009752,-0.00000944,-0.00002
 393,0.00003769,0.00000383,0.00000386,0.00007779,0.00001652,0.00075350,
 0.00022861,-0.00018068,0.00002258,0.00006016,0.00001215,0.00002400,0.0
 0003149,-0.00002320,0.00147326,0.00101917,0.00169900,0.12273437,0.0446
 2075,0.23887766,0.00050561,-0.00010285,0.00005717,-0.00072365,0.001956
 36,-0.00085287,0.00013893,-0.00041538,-0.00047048,-0.00002940,0.000315
 10,0.00035058,0.00011482,-0.00041567,0.00005381,0.00010775,0.00022457,
 -0.00000553,-0.00038359,-0.00010215,-0.00007316,-0.00458259,-0.0116671
 2,0.00613874,-0.12162465,-0.02200329,0.11031912,0.00003576,-0.00019307
 ,-0.00000890,-0.00005705,0.00008046,0.00000561,-0.00014124,-0.00001445
 ,-0.00002815,0.00020358,-0.00002369,0.00000100,-0.00028496,-0.00009585
 ,0.00000255,0.00011452,-0.00003954,-0.00000299,0.00011423,0.00010499,-
 0.00000113,-0.00064838,0.00112671,-0.00091936,0.00000509,-0.00000504,-
 0.00005384,0.00004512,0.00005712,0.00003784,-0.01189946,-0.00476730,0.
 02291510,0.00988490,0.00417629,-0.01473217,0.12910812,0.00004495,-0.00
 174755,-0.00058142,-0.00562565,0.00536396,0.00184680,0.00087316,0.0004
 0638,-0.00012214,0.00045195,-0.00058620,-0.00037961,0.00066192,0.00037
 015,0.00005130,-0.00095837,0.00057921,-0.00030244,0.00019695,0.0000716
 4,0.00009317,-0.02143284,-0.02631211,0.02809367,-0.01878204,-0.0564465
 3,0.03236048,0.00007131,-0.00026310,0.00003612,-0.00003834,0.00007256,
 0.00004630,-0.00021502,-0.00007592,0.00006341,0.00021950,-0.00001423,-
 0.00005767,-0.00019114,-0.00009566,0.00001463,0.00006600,-0.00002220,-
 0.00000070,0.00006376,0.00009240,-0.00000964,0.00109202,-0.00073570,0.
 00112418,0.00002296,0.00001757,0.00005305,0.00010606,0.00000550,0.0000
 1348,0.00736318,0.00537329,-0.01408295,0.00417664,0.00349564,-0.003656
 42,0.03180856,0.07048058,-0.00034588,0.00045218,-0.00025974,0.00132119
 ,-0.00120598,0.00055484,0.00083085,0.00094040,-0.00006090,-0.00041552,
 -0.00027090,-0.00005487,-0.00016125,-0.00001397,-0.00003813,0.00027471
 ,-0.00012808,-0.00004855,-0.00000085,-0.00008648,0.00008696,-0.0014612
 8,0.00593336,0.00730389,0.11034633,0.03667456,-0.22769710,-0.00011169,
 -0.00005120,0.00001687,-0.00000351,-0.00000036,0.00000072,0.00006879,0
 .00009957,0.00005490,-0.00006134,-0.00001733,-0.00000233,0.00001295,0.
 00009752,-0.00000938,0.00002393,-0.00003770,0.00000378,-0.00000386,-0.
 00007779,0.00001657,-0.00075351,-0.00022860,-0.00018074,-0.00002259,-0
 .00006016,0.00001212,-0.00002400,-0.00003148,-0.00002322,-0.00147344,-
 0.00101927,0.00169936,0.01473210,0.00365584,-0.02022315,-0.12273508,-0
 .04461688,0.23888009,-0.00002725,0.00062253,-0.00010743,-0.00000220,-0
 .00037093,-0.00005572,0.00017594,0.00029591,0.00001113,0.00016202,-0.0
 0000976,0.00028169,0.00018427,0.00031144,-0.00042697,-0.00082971,-0.00
 348957,-0.00032315,-0.00008310,0.00025003,-0.00011863,-0.00005666,0.00
 025197,0.00000664,-0.00003184,-0.00011196,0.00001899,-0.01723391,0.014
 37445,0.01455391,-0.12828119,-0.00192187,0.11601681,-0.00024852,0.0001
 1061,-0.00004114,0.00027232,-0.00004237,0.00000240,-0.00035834,-0.0000
 6363,0.00001605,0.00015297,-0.00007496,-0.00000213,0.00012936,0.000097
 78,-0.00000643,0.00001769,0.00000607,-0.00003253,-0.00002293,-0.000780
 77,-0.00050619,0.00056985,-0.00037988,0.00027347,-0.00001245,0.0000162
 2,0.00000238,0.00001592,0.00001538,-0.00000356,0.00001643,0.00001118,0
 .00000138,0.14290921,0.00096521,-0.00132311,0.00054514,0.00061713,0.00
 064278,0.00014093,-0.00059474,0.00024460,0.00007480,-0.00028490,-0.000
 73976,0.00033286,-0.00085529,0.00030544,0.00005695,0.00311552,0.005390
 06,-0.00186317,-0.00052366,-0.00050697,0.00003152,-0.00001109,-0.00014
 401,-0.00003060,0.00000107,0.00003781,-0.00004227,0.02574856,-0.014415
 80,-0.02462103,-0.00569107,-0.05041411,0.00477790,0.00024827,-0.000063
 12,0.00001036,-0.00011189,0.00003518,0.00001566,0.00006344,0.00004711,
 -0.00000487,-0.00002094,0.00001249,-0.00000047,-0.00000763,-0.00002564
 ,0.00000187,-0.00002864,0.00001262,-0.00004882,-0.00070169,-0.00143156
 ,-0.00134738,-0.00060113,0.00043217,-0.00024784,-0.00000078,-0.0000057
 7,-0.00000080,-0.00000116,-0.00002687,0.00000044,-0.00000070,-0.000009
 07,0.00000688,-0.00771135,0.05732152,-0.00011513,-0.00040214,-0.000239
 00,0.00019253,0.00013450,-0.00004305,-0.00013695,-0.00001421,-0.000050
 72,-0.00050185,0.00007034,-0.00002885,0.00108279,-0.00049352,0.0000180
 6,0.00072620,0.00123701,0.00042502,-0.00016472,0.00005365,0.00006398,-
 0.00011768,0.00004716,0.00001694,-0.00000517,-0.00001448,0.00000134,0.
 00025743,-0.00558797,0.00741728,0.11786560,0.00031514,-0.23022984,0.00
 014425,-0.00006501,0.00000842,-0.00007740,-0.00006507,0.00001061,0.000
 02861,-0.00003248,-0.00000816,-0.00002597,0.00004797,0.00001678,0.0000
 2691,0.00005227,0.00000614,-0.00004131,0.00004449,0.00000985,-0.000770
 61,-0.00008424,-0.00016344,-0.00010171,0.00009991,-0.00002339,-0.00000
 085,-0.00000191,-0.00000039,0.00000458,0.00000269,-0.00000009,0.000005
 35,-0.00000443,0.00000121,-0.13151025,0.00289415,0.24091723,-0.0000276
 2,0.00062250,0.00010748,-0.00000188,-0.00037095,0.00005554,0.00017592,
 0.00029592,-0.00001104,0.00016205,-0.00000993,-0.00028195,0.00018428,0
 .00031156,0.00042707,-0.00082956,-0.00348953,0.00032320,-0.00008304,0.
 00024999,0.00011860,-0.00005674,0.00025198,-0.00000662,-0.00003188,-0.
 00011198,-0.00001896,-0.01723389,0.01437441,-0.01455401,-0.12828041,-0
 .00192138,-0.11601648,-0.00024848,0.00011060,0.00004131,0.00027223,-0.
 00004234,-0.00000237,-0.00035831,-0.00006364,-0.00001607,0.00015296,-0
 .00007496,0.00000217,0.00012937,0.00009781,0.00000641,0.00001768,0.000
 00608,0.00003253,-0.00002295,-0.00078074,0.00050620,0.00056987,-0.0003
 7980,-0.00027346,-0.00001244,0.00001623,-0.00000238,0.00001643,0.00001
 120,-0.00000139,0.00001595,0.00001536,0.00000358,0.01191789,-0.0012914
 0,0.01515772,0.14290828,0.00096549,-0.00132319,-0.00054494,0.00061682,
 0.00064279,-0.00014131,-0.00059470,0.00024466,-0.00007453,-0.00028493,
 -0.00073972,-0.00033263,-0.00085530,0.00030538,-0.00005730,0.00311544,
 0.00539015,0.00186345,-0.00052372,-0.00050695,-0.00003161,-0.00001098,
 -0.00014403,0.00003065,0.00000111,0.00003785,0.00004229,0.02574846,-0.
 01441592,0.02462110,-0.00569055,-0.05041412,-0.00477725,0.00024825,-0.
 00006308,-0.00001078,-0.00011180,0.00003511,-0.00001557,0.00006345,0.0
 0004713,0.00000490,-0.00002094,0.00001250,0.00000054,-0.00000765,-0.00
 002566,-0.00000183,-0.00002863,0.00001262,0.00004879,-0.00070167,-0.00
 143158,0.00134736,-0.00060112,0.00043214,0.00024784,-0.00000078,-0.000
 00578,0.00000079,-0.00000072,-0.00000909,-0.00000686,-0.00000118,-0.00
 002686,-0.00000045,-0.00129133,0.00172468,0.00128211,-0.00771188,0.057
 32157,0.00011496,0.00040202,-0.00023909,-0.00019243,-0.00013451,-0.000
 04311,0.00013697,0.00001424,-0.00005076,0.00050184,-0.00007045,-0.0000
 2967,-0.00108277,0.00049356,0.00001862,-0.00072613,-0.00123685,0.00042
 499,0.00016474,-0.00005368,0.00006398,0.00011768,-0.00004716,0.0000169
 5,0.00000516,0.00001448,0.00000139,-0.00025745,0.00558788,0.00741714,-
 0.11786527,-0.00031446,-0.23023069,-0.00014421,0.00006504,0.00000919,0
 .00007736,0.00006504,0.00001057,-0.00002858,0.00003249,-0.00000824,0.0
 0002596,-0.00004796,0.00001681,-0.00002691,-0.00005227,0.00000607,0.00
 004131,-0.00004448,0.00000988,0.00077058,0.00008425,-0.00016340,0.0001
 0173,-0.00009984,-0.00002335,0.00000086,0.00000191,-0.00000038,-0.0000
 0538,0.00000449,0.00000121,-0.00000455,-0.00000275,-0.00000007,-0.0151
 5761,-0.00128202,-0.01997205,0.13150986,-0.00289488,0.24091809,0.00089
 082,0.00100511,-0.00000007,-0.00054377,-0.00004240,0.00000024,0.000135
 92,-0.00016791,-0.00000013,0.00049980,0.00009673,0.00000022,-0.0010703
 7,0.00018538,-0.00000004,-0.00227015,0.00337576,-0.00000011,0.00001797
 ,-0.00022580,0.00000004,0.00013914,0.00001590,-0.00000003,-0.00001075,
 0.00005775,-0.00000003,0.01363142,0.02596332,0.00000011,-0.16966553,-0
 .14684081,-0.00000048,-0.00001133,0.00006338,-0.00000010,-0.00005790,0
 .00004134,-0.00000003,0.00015902,0.00001818,0.00000001,-0.00006701,0.0
 0002132,-0.00000005,-0.00007464,-0.00005548,0.00000001,0.00003441,-0.0
 0003572,0.,0.00060379,-0.00051800,-0.00000002,-0.00008726,0.00013981,-
 0.00000002,0.00000850,0.00000737,0.,-0.00000767,-0.00000015,0.00000040
 ,-0.00000770,-0.00000011,-0.00000042,-0.00931256,-0.01231435,-0.001884
 91,-0.00931247,-0.01231431,0.00188484,0.17632931,-0.00151697,-0.001439
 71,-0.00000014,0.00040848,0.00026070,0.00000034,-0.00008275,-0.0000431
 4,-0.00000020,-0.00038056,-0.00008843,0.00000009,0.00080789,0.00011731
 ,0.00000008,0.00471318,-0.00058798,-0.00000013,0.00035719,0.00022641,0
 .00000007,0.00006496,-0.00042433,-0.00000005,0.00006954,0.00011202,-0.
 00000004,-0.01232231,-0.03572759,-0.00000015,-0.13313679,-0.20184167,-
 0.00000048,0.00028075,-0.00008051,0.00000007,-0.00024913,0.00002475,-0
 .00000006,0.00030536,0.00006340,0.,-0.00012979,0.00006681,-0.00000007,
 -0.00010090,-0.00007767,0.,-0.00002382,0.00000153,0.00000001,-0.000157
 17,0.00028357,0.,-0.00015945,-0.00017861,-0.00000002,0.00000465,-0.000
 03014,0.,-0.00001681,-0.00001338,-0.00000287,-0.00001684,-0.00001336,0
 .00000286,-0.00014211,0.00287896,0.00046139,-0.00014200,0.00287901,-0.
 00046139,0.14155931,0.23364561,-0.00000018,-0.00000003,0.00028011,0.00
 000020,0.,-0.00003373,-0.00000002,-0.00000007,-0.00001216,0.,0.,0.0001
 3882,0.00000003,-0.00000001,0.00027898,0.00000002,0.00000005,0.0005849
 3,0.00000004,-0.00000001,-0.00011397,-0.00000005,0.,-0.00002806,-0.000
 00002,-0.00000003,-0.00000476,-0.00000001,-0.00000007,0.00034775,-0.00
 000049,-0.00000053,-0.05161992,0.00000003,0.,0.00004805,-0.00000006,0.
 00000003,0.00001526,0.00000001,0.,-0.00000102,0.,0.,0.00000348,0.00000
 001,0.00000001,-0.00000156,0.,0.,-0.00002651,-0.00000002,0.00000002,-0
 .00048636,0.,0.00000003,0.00015836,0.,0.,0.00000319,-0.00000248,-0.000
 00114,-0.00000043,0.00000251,0.00000115,-0.00000041,0.01712241,0.02061
 460,0.00189423,-0.01712245,-0.02061465,0.00189409,0.00000051,0.0000006
 4,0.04671528,0.00003536,0.00021185,0.00000001,-0.00002824,0.00006671,-
 0.00000007,0.00049754,-0.00202349,0.,-0.00575137,-0.02890549,0.0000001
 2,-0.00527723,0.00084796,0.00000010,0.00061446,-0.00157456,0.,-0.00004
 110,0.00012040,-0.00000001,0.00002810,0.00017412,0.00000001,-0.0000755
 5,-0.00012560,0.00000002,-0.00054421,-0.00002337,-0.00000003,-0.000052
 16,0.00010881,-0.00000001,-0.07088805,-0.06135306,0.00000100,0.0088809
 8,0.02576173,-0.00000041,-0.00074527,0.00474265,-0.00000003,0.00101292
 ,-0.00168398,0.00000002,-0.00085642,-0.00202972,0.00000003,-0.00099891
 ,0.00117364,0.00000003,0.00013971,-0.00000500,0.00000001,0.00004700,-0
 .00002929,0.,0.00003658,0.00002170,0.,-0.00000253,0.00001436,0.0000504
 0,-0.00000251,0.00001433,-0.00005040,0.00000606,0.00000659,0.00000219,
 0.00000606,0.00000660,-0.00000219,0.00000209,-0.00001038,0.,0.07780073
 ,0.00019149,0.00008910,-0.00000007,-0.00006784,0.00013339,0.00000001,0
 .00205336,0.00116535,-0.00000009,-0.00008860,-0.00476195,-0.00000029,-
 0.00040993,0.00108881,0.00000035,0.00026764,-0.00017378,-0.00000006,-0
 .00016960,0.00001313,0.00000001,-0.00008122,0.00010801,0.,-0.00004307,
 -0.00007774,0.00000002,-0.00011448,0.00000317,-0.00000010,0.00000551,0
 .00002460,0.,-0.06016606,-0.31666546,0.00000426,-0.00381490,-0.0206055
 8,0.00000040,-0.00122144,-0.00264322,-0.00000009,0.00004326,0.00051370
 ,0.,-0.00108829,0.00214665,-0.00000010,-0.00014932,0.00065055,0.000000
 04,0.00013337,0.00009159,0.00000002,0.00003094,0.00001864,0.00000002,0
 .00000258,0.00000802,0.,0.00000319,0.00001114,0.00000532,0.00000322,0.
 00001109,-0.00000532,0.00000994,0.00000481,0.00001738,0.00000992,0.000
 00481,-0.00001740,-0.00001259,-0.00000374,0.,0.06206033,0.33933967,0.0
 0000002,-0.00000006,0.00016381,0.00000006,-0.00000002,0.00009783,0.,-0
 .00000010,-0.00167879,-0.00000031,-0.00000013,0.00451718,0.00000007,0.
 ,0.00287103,-0.00000011,0.00000009,0.00024785,-0.00000001,-0.00000002,
 -0.00004712,-0.00000002,0.,0.00000632,-0.00000002,-0.00000001,0.000070
 43,-0.00000001,-0.00000004,-0.00049270,0.,0.00000001,0.00006041,0.0000
 0103,0.00000395,-0.04464670,0.,0.00000069,0.00754185,0.00000004,-0.000
 00006,-0.00736704,0.,0.,0.00038341,0.00000002,-0.00000005,0.00009967,0
 .00000001,-0.00000001,0.00031836,-0.00000002,0.00000002,-0.00000984,0.
 ,0.00000003,-0.00000412,0.,0.,-0.00001330,0.00000308,-0.00001687,-0.00
 002179,-0.00000306,0.00001688,-0.00002178,-0.00000140,-0.00000365,-0.0
 0000179,0.00000139,0.00000365,-0.00000180,0.,0.,-0.00000613,-0.0000006
 3,-0.00000449,0.02785850,0.00004440,0.00003086,0.,-0.00021809,-0.00014
 660,-0.00000002,0.00030380,-0.00015045,0.,-0.00001179,-0.00073791,-0.0
 0000002,-0.00128384,0.00080457,0.00000004,-0.00008327,-0.00031413,0.00
 000001,0.00000516,-0.00007065,-0.00000001,0.00015693,-0.00021645,0.,0.
 00004341,0.00011418,0.,0.00007151,0.00008370,-0.00000002,-0.00001241,0
 .00002393,0.,0.00948315,0.02562322,-0.00000037,-0.06100171,-0.03020951
 ,0.00000026,0.00354848,-0.02943089,0.00000045,-0.00166527,0.00107612,0
 .00000003,-0.00733522,-0.00319560,0.00000009,0.00011316,-0.00015705,0.
 ,-0.00189688,-0.00084329,-0.00000009,-0.00004332,0.00001616,0.,-0.0000
 0147,-0.00001050,0.,-0.00001028,-0.00000824,-0.00001369,-0.00001027,-0
 .00000826,0.00001370,-0.00000914,-0.00001537,-0.00003607,-0.00000915,-
 0.00001537,0.00003607,0.00003473,0.00000023,0.,-0.00370890,0.00252591,
 -0.00000016,0.06283322,-0.00009070,-0.00008339,0.00000001,0.00011615,-
 0.00008123,-0.00000012,0.00008053,0.00002360,0.00000004,-0.00111941,-0
 .00034304,-0.00000034,-0.00048953,-0.00015219,0.00000009,0.00018358,0.
 00060374,0.00000002,-0.00007360,0.00006837,-0.00000001,-0.00006793,0.0
 0019990,0.00000001,-0.00004623,-0.00010429,0.00000002,0.00001108,-0.00
 006465,-0.00000005,0.00002225,0.00003149,-0.00000002,-0.00359419,-0.01
 567951,0.00000052,-0.03395925,-0.33740953,0.00000544,0.00428754,-0.009
 59899,0.00000016,0.00051089,0.00169530,0.,-0.00239905,0.00065457,0.000
 00002,-0.00005702,0.00014099,0.,-0.00078729,0.00087275,0.00000003,0.00
 003596,0.00000046,0.00000002,0.00000282,0.00000976,0.,0.00000808,0.000
 00795,0.00001697,0.00000810,0.00000791,-0.00001696,0.00000825,0.000014
 02,0.00000559,0.00000823,0.00001404,-0.00000560,-0.00001666,-0.0000040
 1,0.,0.00240457,-0.00048961,0.00000019,0.03510465,0.35957256,0.0000000
 5,0.00000001,-0.00038133,-0.00000007,-0.00000004,-0.00005187,0.0000000
 8,-0.00000005,-0.00001231,-0.00000006,-0.00000008,-0.00538157,-0.00000
 006,0.00000002,-0.00014604,0.00000002,0.00000001,-0.00049846,-0.000000
 01,-0.00000001,0.00030037,0.00000002,0.,0.00002809,0.,0.,0.00003085,0.
 ,0.,0.00004382,0.,0.,0.00018714,0.00000025,0.00000050,0.00436568,0.000
 00034,0.00000559,-0.03410976,-0.00000009,-0.00000012,0.00031531,-0.000
 00002,0.,-0.00078872,0.,0.00000005,0.00291201,0.00000001,0.,0.00013011
 ,-0.00000009,-0.00000003,0.00115099,0.,0.,0.00000707,0.,0.,-0.00000179
 ,-0.00000020,-0.00000103,-0.00000606,0.00000019,0.00000104,-0.00000606
 ,-0.00001596,-0.00001211,-0.00003962,0.00001596,0.00001212,-0.00003961
 ,0.,0.,-0.00002784,-0.00000015,0.00000018,0.00988412,-0.00000020,-0.00
 000602,0.02243397,-0.00041112,-0.00005750,-0.00000013,-0.00003396,0.00
 040607,0.00000031,-0.00025973,0.00006781,-0.00000019,0.00039959,0.0005
 6497,0.,-0.00002601,-0.00015744,0.00000013,0.00012331,-0.00036500,-0.0
 0000016,0.00044783,0.00012914,0.00000006,0.00011339,-0.00021851,-0.000
 00004,0.00001492,0.00009742,-0.00000004,0.00005100,0.00028265,-0.00000
 003,0.00006010,-0.00010917,0.00000003,-0.00196843,-0.00067106,0.000000
 14,0.00009550,0.00542508,-0.00000002,-0.04389209,-0.01257582,0.0000004
 4,-0.40190468,-0.15403735,0.00000548,0.00706748,-0.00534872,0.,-0.0000
 2629,0.00000894,0.00000001,-0.00002098,-0.00001534,0.,-0.00003334,-0.0
 0006260,0.,0.00001551,-0.00001107,0.,-0.00001533,-0.00000801,0.0000049
 0,-0.00001536,-0.00000800,-0.00000489,-0.00002013,0.00000198,-0.000003
 59,-0.00002012,0.00000195,0.00000358,0.00001219,0.00001623,0.00000001,
 -0.00013515,0.00008668,0.00000001,0.00066304,-0.00009182,0.,0.43971888
 ,0.00009307,0.00000377,0.,0.00001487,-0.00007769,0.00000001,0.00005913
 ,0.00002946,-0.00000002,0.00014695,-0.00026727,-0.00000004,-0.00004555
 ,-0.00002350,0.00000003,0.00000850,0.00011876,0.,-0.00011122,-0.000035
 41,0.,-0.00001682,0.00001736,0.,0.00001060,0.00000255,0.,-0.00001544,-
 0.00011825,0.,-0.00003245,0.00005004,0.,0.00116618,0.00076430,0.000000
 07,0.00249456,-0.00393235,0.00000010,0.03773332,0.02102375,-0.00000064
 ,-0.20271738,-0.13641765,0.00000316,-0.00563781,-0.00329897,0.00000006
 ,0.00001215,-0.00001409,0.,0.00001431,0.00001621,0.,0.00000815,0.00001
 854,0.,-0.00000431,0.00000120,0.,0.00000263,0.00000062,-0.00000570,0.0
 0000263,0.00000061,0.00000571,0.00000874,0.00000154,-0.00000031,0.0000
 0874,0.00000154,0.00000031,-0.00000638,-0.00000583,0.,0.00002761,-0.00
 000512,0.,0.00012673,0.00009302,-0.00000001,0.16664848,0.12205290,-0.0
 0000021,0.00000014,-0.00003810,0.00000032,-0.00000002,0.00010090,-0.00
 000005,-0.00000011,-0.00019356,0.,0.,-0.00058816,0.00000004,0.00000003
 ,0.00000818,0.00000002,-0.00000011,0.00003738,0.00000005,0.,-0.0000064
 2,-0.00000012,0.00000003,0.00000463,-0.00000004,-0.00000005,0.00002499
 ,0.00000004,-0.00000003,-0.00001280,-0.00000005,0.00000006,0.00003542,
 0.00000004,-0.00000005,0.00079964,-0.00000021,0.00000014,0.00484753,0.
 00000019,-0.00000006,0.00382312,0.00000600,0.00000275,-0.01549072,-0.0
 0000001,-0.00000003,-0.00560678,-0.00000002,0.,-0.00001613,0.,0.000000
 01,-0.00000262,0.,0.,0.00000981,-0.00000001,0.00000003,0.00000102,-0.0
 0000166,-0.00000139,-0.00000488,0.00000172,0.00000140,-0.00000487,0.00
 000182,0.00000095,-0.00000673,-0.00000184,-0.00000100,-0.00000674,0.00
 000003,0.00000004,0.00000035,-0.00000001,0.,0.00019214,0.,-0.00000001,
 -0.00029850,-0.00000600,-0.00000271,0.01239190\\0.00001109,0.00001000,
 -0.00000003,0.00001201,-0.00001203,-0.00000012,0.00000252,-0.00000072,
 0.00000009,-0.00000984,-0.00000652,0.00000013,-0.00000192,0.00000071,-
 0.00000005,0.00000557,0.00001688,0.00000006,-0.00001028,0.00000593,0.0
 0000002,-0.00001089,0.00000640,0.00000018,0.00000458,0.00000920,-0.000
 00010,-0.00000950,-0.00000644,-0.00000004,0.00000414,-0.00000477,0.,0.
 00000818,0.00000035,-0.00000019,0.00000232,-0.00000028,-0.00000118,0.0
 0000189,-0.00000024,0.00000425,0.00000023,-0.00000229,-0.00000126,-0.0
 0000190,-0.00001253,-0.00000163,0.00000194,-0.00000057,0.,-0.00000125,
 -0.00000410,-0.00000002,-0.00000100,-0.00000187,-0.00000002,0.00000469
 ,0.00000260,-0.00000001,0.00000157,0.00000163,-0.00000150,0.00000161,0
 .00000161,0.00000152,-0.00000426,0.00000127,0.00000136,-0.00000426,0.0
 0000128,-0.00000136,-0.00000301,0.00000328,0.,-0.00000014,-0.00000259,
 -0.00000007,-0.00000048,-0.00000149,-0.00000002,-0.00000362,-0.0000047
 1,-0.00000002\\\@


 Cherishing children is the mark of a civilized society.
 -- Joan Ganz Cooney
 Job cpu time:       0 days  0 hours 59 minutes  6.5 seconds.
 File lengths (MBytes):  RWF=    374 Int=      0 D2E=      0 Chk=     11 Scr=      1
 Normal termination of Gaussian 09 at Tue Dec 17 14:02:47 2024.
