 Entering Gaussian System, Link 0=g09
 Input=B3PW91D3SAYang.gjf
 Output=B3PW91D3SAYang.log
 Initial command:
 /home/phzd/g09E/g09/l1.exe "/home/phzd/g09E/scratch/Gau-1450892.inp" -scrdir="/home/phzd/g09E/scratch/"
 Default is to use a total of  18 processors:
                               18 via shared-memory
                                1 via Linda
 Entering Link 1 = /home/phzd/g09E/g09/l1.exe PID=   1450894.
  
 Copyright (c) 1988,1990,1992,1993,1995,1998,2003,2009,2015,
            Gaussian, Inc.  All Rights Reserved.
  
 This is part of the Gaussian(R) 09 program.  It is based on
 the Gaussian(R) 03 system (copyright 2003, Gaussian, Inc.),
 the Gaussian(R) 98 system (copyright 1998, Gaussian, Inc.),
 the Gaussian(R) 94 system (copyright 1995, Gaussian, Inc.),
 the Gaussian 92(TM) system (copyright 1992, Gaussian, Inc.),
 the Gaussian 90(TM) system (copyright 1990, Gaussian, Inc.),
 the Gaussian 88(TM) system (copyright 1988, Gaussian, Inc.),
 the Gaussian 86(TM) system (copyright 1986, Carnegie Mellon
 University), and the Gaussian 82(TM) system (copyright 1983,
 Carnegie Mellon University). Gaussian is a federally registered
 trademark of Gaussian, Inc.
  
 This software contains proprietary and confidential information,
 including trade secrets, belonging to Gaussian, Inc.
  
 This software is provided under written license and may be
 used, copied, transmitted, or stored only in accord with that
 written license.
  
 The following legend is applicable only to US Government
 contracts under FAR:
  
                    RESTRICTED RIGHTS LEGEND
  
 Use, reproduction and disclosure by the US Government is
 subject to restrictions as set forth in subparagraphs (a)
 and (c) of the Commercial Computer Software - Restricted
 Rights clause in FAR 52.227-19.
  
 Gaussian, Inc.
 340 Quinnipiac St., Bldg. 40, Wallingford CT 06492
  
  
 ---------------------------------------------------------------
 Warning -- This program may not be used in any manner that
 competes with the business of Gaussian, Inc. or will provide
 assistance to any competitor of Gaussian, Inc.  The licensee
 of this program is prohibited from giving any competitor of
 Gaussian, Inc. access to this program.  By using this program,
 the user acknowledges that Gaussian, Inc. is engaged in the
 business of creating and licensing software in the field of
 computational chemistry and represents and warrants to the
 licensee that it is not a competitor of Gaussian, Inc. and that
 it will not use this program in any manner prohibited above.
 ---------------------------------------------------------------
  

 Cite this work as:
 Gaussian 09, Revision E.01,
 M. J. Frisch, G. W. Trucks, H. B. Schlegel, G. E. Scuseria, 
 M. A. Robb, J. R. Cheeseman, G. Scalmani, V. Barone, B. Mennucci, 
 G. A. Petersson, H. Nakatsuji, M. Caricato, X. Li, H. P. Hratchian, 
 A. F. Izmaylov, J. Bloino, G. Zheng, J. L. Sonnenberg, M. Hada, 
 M. Ehara, K. Toyota, R. Fukuda, J. Hasegawa, M. Ishida, T. Nakajima, 
 Y. Honda, O. Kitao, H. Nakai, T. Vreven, J. A. Montgomery, Jr., 
 J. E. Peralta, F. Ogliaro, M. Bearpark, J. J. Heyd, E. Brothers, 
 K. N. Kudin, V. N. Staroverov, T. Keith, R. Kobayashi, J. Normand, 
 K. Raghavachari, A. Rendell, J. C. Burant, S. S. Iyengar, J. Tomasi, 
 M. Cossi, N. Rega, J. M. Millam, M. Klene, J. E. Knox, J. B. Cross, 
 V. Bakken, C. Adamo, J. Jaramillo, R. Gomperts, R. E. Stratmann, 
 O. Yazyev, A. J. Austin, R. Cammi, C. Pomelli, J. W. Ochterski, 
 R. L. Martin, K. Morokuma, V. G. Zakrzewski, G. A. Voth, 
 P. Salvador, J. J. Dannenberg, S. Dapprich, A. D. Daniels, 
 O. Farkas, J. B. Foresman, J. V. Ortiz, J. Cioslowski, 
 and D. J. Fox, Gaussian, Inc., Wallingford CT, 2013.
 
 ******************************************
 Gaussian 09:  ES64L-G09RevE.01 30-Nov-2015
                17-Dec-2024 
 ******************************************
 %chk=B3PW91D3SAYang.chk
 -----------------------------------------------------
 # opt freq b3pw91/6-31+g(d,p) EmpiricalDispersion=GD3
 -----------------------------------------------------
 1/14=-1,18=20,19=15,26=3,38=1/1,3;
 2/9=110,12=2,17=6,18=5,40=1/2;
 3/5=1,6=6,7=111,11=2,16=1,25=1,30=1,71=1,74=-6,124=31/1,2,3;
 4//1;
 5/5=2,38=5/2;
 6/7=2,8=2,9=2,10=2,28=1/1;
 7//1,2,3,16;
 1/14=-1,18=20,19=15,26=3/3(2);
 2/9=110/2;
 99//99;
 2/9=110/2;
 3/5=1,6=6,7=111,11=2,16=1,25=1,30=1,71=1,74=-6,124=31/1,2,3;
 4/5=5,16=3,69=1/1;
 5/5=2,38=5/2;
 7//1,2,3,16;
 1/14=-1,18=20,19=15,26=3/3(-5);
 2/9=110/2;
 6/7=2,8=2,9=2,10=2,19=2,28=1/1;
 99/9=1/99;
 ----------
 [No Title]
 ----------
 Symbolic Z-matrix:
 Charge =  1 Multiplicity = 1
 C                     2.39977   0.19741  -0.00093 
 C                     1.92442  -1.13829   0.00673 
 C                     0.55613  -1.34974   0.01083 
 C                    -0.35861  -0.26016   0.00797 
 C                     0.1316    1.07468  -0.00253 
 C                     1.49108   1.29181  -0.00528 
 O                     3.70376   0.4131   -0.00486 
 O                     2.87874  -2.07851   0.00902 
 C                     2.48492  -3.44701   0.01728 
 O                     2.12824   2.48355  -0.01383 
 C                     1.3542    3.68245  -0.01884 
 C                    -1.73644  -0.56583   0.01189 
 C                    -2.80391   0.32655   0.01727 
 C                    -4.11838  -0.11078  -0.00086 
 O                    -5.08312   0.78649   0.10787 
 O                    -4.4099   -1.39558  -0.13569 
 H                     0.16351  -2.36021   0.01665 
 H                    -0.5536    1.91277  -0.00816 
 H                     3.8654    1.37291  -0.01067 
 H                     3.41281  -4.01727   0.01828 
 H                     1.90922  -3.68398   0.91944 
 H                     1.90517  -3.69374  -0.87965 
 H                     2.07426   4.4994   -0.02479 
 H                     0.73121   3.73473  -0.91811 
 H                     0.73488   3.74454   0.88235 
 H                    -1.98951  -1.62459   0.00955 
 H                    -2.67214   1.40124   0.03745 
 H                    -5.96261   0.46538  -0.14042 
 H                    -5.3091   -1.63006   0.13677 
 

 GradGradGradGradGradGradGradGradGradGradGradGradGradGradGradGradGradGrad
 Berny optimization.
 Initialization pass.
                           ----------------------------
                           !    Initial Parameters    !
                           ! (Angstroms and Degrees)  !
 --------------------------                            --------------------------
 ! Name  Definition              Value          Derivative Info.                !
 --------------------------------------------------------------------------------
 ! R1    R(1,2)                  1.4178         estimate D2E/DX2                !
 ! R2    R(1,6)                  1.4225         estimate D2E/DX2                !
 ! R3    R(1,7)                  1.3217         estimate D2E/DX2                !
 ! R4    R(2,3)                  1.3845         estimate D2E/DX2                !
 ! R5    R(2,8)                  1.3397         estimate D2E/DX2                !
 ! R6    R(3,4)                  1.4227         estimate D2E/DX2                !
 ! R7    R(3,17)                 1.0841         estimate D2E/DX2                !
 ! R8    R(4,5)                  1.422          estimate D2E/DX2                !
 ! R9    R(4,12)                 1.4113         estimate D2E/DX2                !
 ! R10   R(5,6)                  1.3767         estimate D2E/DX2                !
 ! R11   R(5,18)                 1.0826         estimate D2E/DX2                !
 ! R12   R(6,10)                 1.3514         estimate D2E/DX2                !
 ! R13   R(7,19)                 0.9733         estimate D2E/DX2                !
 ! R14   R(8,9)                  1.4241         estimate D2E/DX2                !
 ! R15   R(9,20)                 1.0891         estimate D2E/DX2                !
 ! R16   R(9,21)                 1.0961         estimate D2E/DX2                !
 ! R17   R(9,22)                 1.0961         estimate D2E/DX2                !
 ! R18   R(10,11)                1.4271         estimate D2E/DX2                !
 ! R19   R(11,23)                1.089          estimate D2E/DX2                !
 ! R20   R(11,24)                1.0952         estimate D2E/DX2                !
 ! R21   R(11,25)                1.0952         estimate D2E/DX2                !
 ! R22   R(12,13)                1.3914         estimate D2E/DX2                !
 ! R23   R(12,26)                1.0886         estimate D2E/DX2                !
 ! R24   R(13,14)                1.3854         estimate D2E/DX2                !
 ! R25   R(13,27)                1.0829         estimate D2E/DX2                !
 ! R26   R(14,15)                1.322          estimate D2E/DX2                !
 ! R27   R(14,16)                1.3243         estimate D2E/DX2                !
 ! R28   R(15,28)                0.9686         estimate D2E/DX2                !
 ! R29   R(16,29)                0.9684         estimate D2E/DX2                !
 ! A1    A(2,1,6)              120.7072         estimate D2E/DX2                !
 ! A2    A(2,1,7)              118.9827         estimate D2E/DX2                !
 ! A3    A(6,1,7)              120.3101         estimate D2E/DX2                !
 ! A4    A(1,2,3)              118.3752         estimate D2E/DX2                !
 ! A5    A(1,2,8)              114.9834         estimate D2E/DX2                !
 ! A6    A(3,2,8)              126.6414         estimate D2E/DX2                !
 ! A7    A(2,3,4)              121.2292         estimate D2E/DX2                !
 ! A8    A(2,3,17)             120.0191         estimate D2E/DX2                !
 ! A9    A(4,3,17)             118.7517         estimate D2E/DX2                !
 ! A10   A(3,4,5)              119.82           estimate D2E/DX2                !
 ! A11   A(3,4,12)             117.5058         estimate D2E/DX2                !
 ! A12   A(5,4,12)             122.6739         estimate D2E/DX2                !
 ! A13   A(4,5,6)              119.2398         estimate D2E/DX2                !
 ! A14   A(4,5,18)             120.5675         estimate D2E/DX2                !
 ! A15   A(6,5,18)             120.1927         estimate D2E/DX2                !
 ! A16   A(1,6,5)              120.6284         estimate D2E/DX2                !
 ! A17   A(1,6,10)             112.1663         estimate D2E/DX2                !
 ! A18   A(5,6,10)             127.2053         estimate D2E/DX2                !
 ! A19   A(1,7,19)             108.9521         estimate D2E/DX2                !
 ! A20   A(2,8,9)              118.519          estimate D2E/DX2                !
 ! A21   A(8,9,20)             105.5198         estimate D2E/DX2                !
 ! A22   A(8,9,21)             110.9636         estimate D2E/DX2                !
 ! A23   A(8,9,22)             110.9666         estimate D2E/DX2                !
 ! A24   A(20,9,21)            109.4826         estimate D2E/DX2                !
 ! A25   A(20,9,22)            109.4818         estimate D2E/DX2                !
 ! A26   A(21,9,22)            110.3057         estimate D2E/DX2                !
 ! A27   A(6,10,11)            119.0223         estimate D2E/DX2                !
 ! A28   A(10,11,23)           105.761          estimate D2E/DX2                !
 ! A29   A(10,11,24)           110.5798         estimate D2E/DX2                !
 ! A30   A(10,11,25)           110.5762         estimate D2E/DX2                !
 ! A31   A(23,11,24)           109.6216         estimate D2E/DX2                !
 ! A32   A(23,11,25)           109.6247         estimate D2E/DX2                !
 ! A33   A(24,11,25)           110.5632         estimate D2E/DX2                !
 ! A34   A(4,12,13)            127.5975         estimate D2E/DX2                !
 ! A35   A(4,12,26)            115.9507         estimate D2E/DX2                !
 ! A36   A(13,12,26)           116.4517         estimate D2E/DX2                !
 ! A37   A(12,13,14)           121.6961         estimate D2E/DX2                !
 ! A38   A(12,13,27)           122.9022         estimate D2E/DX2                !
 ! A39   A(14,13,27)           115.4016         estimate D2E/DX2                !
 ! A40   A(13,14,15)           118.4934         estimate D2E/DX2                !
 ! A41   A(13,14,16)           121.0925         estimate D2E/DX2                !
 ! A42   A(15,14,16)           120.4115         estimate D2E/DX2                !
 ! A43   A(14,15,28)           114.6145         estimate D2E/DX2                !
 ! A44   A(14,16,29)           114.246          estimate D2E/DX2                !
 ! D1    D(6,1,2,3)             -0.0455         estimate D2E/DX2                !
 ! D2    D(6,1,2,8)            179.9438         estimate D2E/DX2                !
 ! D3    D(7,1,2,3)            179.9975         estimate D2E/DX2                !
 ! D4    D(7,1,2,8)             -0.0132         estimate D2E/DX2                !
 ! D5    D(2,1,6,5)             -0.0195         estimate D2E/DX2                !
 ! D6    D(2,1,6,10)          -179.9358         estimate D2E/DX2                !
 ! D7    D(7,1,6,5)            179.937          estimate D2E/DX2                !
 ! D8    D(7,1,6,10)             0.0207         estimate D2E/DX2                !
 ! D9    D(2,1,7,19)           179.9564         estimate D2E/DX2                !
 ! D10   D(6,1,7,19)            -0.0009         estimate D2E/DX2                !
 ! D11   D(1,2,3,4)             -0.0227         estimate D2E/DX2                !
 ! D12   D(1,2,3,17)           179.997          estimate D2E/DX2                !
 ! D13   D(8,2,3,4)            179.9894         estimate D2E/DX2                !
 ! D14   D(8,2,3,17)             0.0091         estimate D2E/DX2                !
 ! D15   D(1,2,8,9)            179.9705         estimate D2E/DX2                !
 ! D16   D(3,2,8,9)             -0.0412         estimate D2E/DX2                !
 ! D17   D(2,3,4,5)              0.1536         estimate D2E/DX2                !
 ! D18   D(2,3,4,12)           179.9711         estimate D2E/DX2                !
 ! D19   D(17,3,4,5)          -179.8659         estimate D2E/DX2                !
 ! D20   D(17,3,4,12)           -0.0483         estimate D2E/DX2                !
 ! D21   D(3,4,5,6)             -0.2158         estimate D2E/DX2                !
 ! D22   D(3,4,5,18)           179.7942         estimate D2E/DX2                !
 ! D23   D(12,4,5,6)           179.9765         estimate D2E/DX2                !
 ! D24   D(12,4,5,18)           -0.0135         estimate D2E/DX2                !
 ! D25   D(3,4,12,13)          179.6304         estimate D2E/DX2                !
 ! D26   D(3,4,12,26)           -0.4271         estimate D2E/DX2                !
 ! D27   D(5,4,12,13)           -0.5576         estimate D2E/DX2                !
 ! D28   D(5,4,12,26)          179.3848         estimate D2E/DX2                !
 ! D29   D(4,5,6,1)              0.1498         estimate D2E/DX2                !
 ! D30   D(4,5,6,10)          -179.9476         estimate D2E/DX2                !
 ! D31   D(18,5,6,1)          -179.8602         estimate D2E/DX2                !
 ! D32   D(18,5,6,10)            0.0425         estimate D2E/DX2                !
 ! D33   D(1,6,10,11)         -179.9872         estimate D2E/DX2                !
 ! D34   D(5,6,10,11)            0.1032         estimate D2E/DX2                !
 ! D35   D(2,8,9,20)          -179.9686         estimate D2E/DX2                !
 ! D36   D(2,8,9,21)           -61.4742         estimate D2E/DX2                !
 ! D37   D(2,8,9,22)            61.5364         estimate D2E/DX2                !
 ! D38   D(6,10,11,23)         179.9655         estimate D2E/DX2                !
 ! D39   D(6,10,11,24)         -61.4352         estimate D2E/DX2                !
 ! D40   D(6,10,11,25)          61.3643         estimate D2E/DX2                !
 ! D41   D(4,12,13,14)         178.9515         estimate D2E/DX2                !
 ! D42   D(4,12,13,27)          -1.159          estimate D2E/DX2                !
 ! D43   D(26,12,13,14)         -0.9908         estimate D2E/DX2                !
 ! D44   D(26,12,13,27)        178.8988         estimate D2E/DX2                !
 ! D45   D(12,13,14,15)        174.9439         estimate D2E/DX2                !
 ! D46   D(12,13,14,16)         -5.6498         estimate D2E/DX2                !
 ! D47   D(27,13,14,15)         -4.9534         estimate D2E/DX2                !
 ! D48   D(27,13,14,16)        174.4528         estimate D2E/DX2                !
 ! D49   D(13,14,15,28)        164.7182         estimate D2E/DX2                !
 ! D50   D(16,14,15,28)        -14.6922         estimate D2E/DX2                !
 ! D51   D(13,14,16,29)        161.7848         estimate D2E/DX2                !
 ! D52   D(15,14,16,29)        -18.8203         estimate D2E/DX2                !
 --------------------------------------------------------------------------------
 Trust Radius=3.00D-01 FncErr=1.00D-07 GrdErr=1.00D-06
 Number of steps in this run=    135 maximum allowed number of steps=    174.
 GradGradGradGradGradGradGradGradGradGradGradGradGradGradGradGradGradGrad

                          Input orientation:                          
 ---------------------------------------------------------------------
 Center     Atomic      Atomic             Coordinates (Angstroms)
 Number     Number       Type             X           Y           Z
 ---------------------------------------------------------------------
      1          6           0        2.399773    0.197409   -0.000930
      2          6           0        1.924415   -1.138293    0.006730
      3          6           0        0.556127   -1.349743    0.010830
      4          6           0       -0.358612   -0.260162    0.007972
      5          6           0        0.131600    1.074679   -0.002531
      6          6           0        1.491080    1.291807   -0.005278
      7          8           0        3.703759    0.413102   -0.004856
      8          8           0        2.878740   -2.078506    0.009017
      9          6           0        2.484923   -3.447013    0.017284
     10          8           0        2.128240    2.483546   -0.013832
     11          6           0        1.354202    3.682445   -0.018837
     12          6           0       -1.736436   -0.565825    0.011892
     13          6           0       -2.803912    0.326551    0.017270
     14          6           0       -4.118381   -0.110782   -0.000863
     15          8           0       -5.083118    0.786492    0.107872
     16          8           0       -4.409895   -1.395578   -0.135692
     17          1           0        0.163505   -2.360210    0.016650
     18          1           0       -0.553596    1.912774   -0.008157
     19          1           0        3.865395    1.372907   -0.010667
     20          1           0        3.412809   -4.017274    0.018279
     21          1           0        1.909223   -3.683977    0.919440
     22          1           0        1.905173   -3.693735   -0.879646
     23          1           0        2.074260    4.499404   -0.024791
     24          1           0        0.731210    3.734728   -0.918107
     25          1           0        0.734880    3.744538    0.882345
     26          1           0       -1.989511   -1.624591    0.009551
     27          1           0       -2.672137    1.401240    0.037453
     28          1           0       -5.962609    0.465381   -0.140424
     29          1           0       -5.309102   -1.630060    0.136774
 ---------------------------------------------------------------------
                    Distance matrix (angstroms):
                    1          2          3          4          5
     1  C    0.000000
     2  C    1.417788   0.000000
     3  C    2.406834   1.384536   0.000000
     4  C    2.796093   2.446084   1.422653   0.000000
     5  C    2.431916   2.848072   2.461346   1.422047   0.000000
     6  C    1.422480   2.468463   2.802175   2.414569   1.376713
     7  O    1.321710   2.360726   3.607694   4.117804   3.632906
     8  O    2.325790   1.339680   2.434262   3.713061   4.182043
     9  C    3.645462   2.375809   2.849357   4.271042   5.097472
    10  O    2.302242   3.627628   4.143218   3.703085   2.443687
    11  C    3.638546   4.854412   5.095166   4.298674   2.880185
    12  C    4.206057   3.705344   2.422885   1.411327   2.486166
    13  C    5.205319   4.950046   3.754979   2.514719   3.029409
    14  C    6.525436   6.129537   4.835927   3.762746   4.412217
    15  O    7.506831   7.267774   6.031086   4.840085   5.223842
    16  O    6.994809   6.341133   4.968395   4.209834   5.171564
    17  H    3.397443   2.143358   1.084080   2.163997   3.435091
    18  H    3.415394   3.930620   3.446137   2.181726   1.082556
    19  H    1.878813   3.173930   4.285387   4.528741   3.745695
    20  H    4.334762   3.240985   3.908505   5.323496   6.057619
    21  H    4.019064   2.704400   2.846944   4.206704   5.162827
    22  H    4.019673   2.704869   2.847309   4.207376   5.162622
    23  H    4.314358   5.639776   6.043055   5.345410   3.937406
    24  H    4.017206   5.101509   5.171598   4.243169   2.876399
    25  H    4.016736   5.101346   5.171382   4.242390   2.876647
    26  H    4.752432   3.944022   2.560433   2.126382   3.432975
    27  H    5.212960   5.251520   4.241498   2.848425   2.822974
    28  H    8.367837   8.049756   6.768417   5.652718   6.126144
    29  H    7.923721   7.251380   5.873274   5.138148   6.077521
                    6          7          8          9         10
     6  C    0.000000
     7  O    2.380771   0.000000
     8  O    3.644834   2.624683   0.000000
     9  C    4.841967   4.048029   1.424069   0.000000
    10  O    1.351402   2.601745   4.623428   5.941357   0.000000
    11  C    2.394592   4.026067   5.959324   7.218657   1.427066
    12  C    3.723970   5.527594   4.856754   5.110885   4.922910
    13  C    4.402179   6.508284   6.170648   6.497042   5.383281
    14  C    5.782156   7.839665   7.268544   7.398269   6.763947
    15  O    6.594560   8.795529   8.462220   8.672140   7.409351
    16  O    6.485411   8.313833   7.321990   7.195158   7.603267
    17  H    3.885893   4.497235   2.729820   2.563225   5.227149
    18  H    2.136892   4.513768   5.264175   6.161214   2.741908
    19  H    2.375706   0.973337   3.589725   5.013792   2.061853
    20  H    5.646232   4.439980   2.011004   1.089115   6.626599
    21  H    5.078225   4.567356   2.084795   1.096115   6.241579
    22  H    5.078545   4.567962   2.084831   1.096114   6.241650
    23  H    3.260239   4.399265   6.627008   7.957132   2.016610
    24  H    2.716344   4.550085   6.266190   7.451702   2.082033
    25  H    2.715806   4.549707   6.266313   7.451804   2.081991
    26  H    4.540937   6.046960   4.889367   4.831340   5.816632
    27  H    4.164874   6.452151   6.551464   7.078222   4.921142
    28  H    7.500582   9.667460   9.201258   9.310880   8.339715
    29  H    7.402700   9.242631   8.201109   8.003900   8.500500
                   11         12         13         14         15
    11  C    0.000000
    12  C    5.253645   0.000000
    13  C    5.343523   1.391355   0.000000
    14  C    6.658683   2.425054   1.385431   0.000000
    15  O    7.059865   3.610852   2.326915   1.321984   0.000000
    16  O    7.682759   2.803151   2.359726   1.324334   2.296515
    17  H    6.158953   2.613353   4.003030   4.836815   6.118587
    18  H    2.602219   2.746446   2.753302   4.099088   4.668891
    19  H    3.411762   5.927875   6.750948   8.120475   8.968490
    20  H    7.970252   6.198973   7.583959   8.484095   9.760378
    21  H    7.446649   4.882350   6.253950   7.067297   8.338859
    22  H    7.446650   4.882620   6.256408   7.063499   8.359655
    23  H    1.089009   6.338714   6.419582   7.720310   8.064203
    24  H    1.095235   5.044693   4.998769   6.256822   6.599329
    25  H    1.095237   5.044236   4.995402   6.260806   6.572590
    26  H    6.272627   1.088594   2.114300   2.612243   3.923441
    27  H    4.628009   2.178425   1.082926   2.092678   2.489117
    28  H    7.993748   4.352829   3.165677   1.937168   0.968642
    29  H    8.523294   3.729897   3.180972   1.935191   2.427268
                   16         17         18         19         20
    16  O    0.000000
    17  H    4.676506   0.000000
    18  H    5.082568   4.332810   0.000000
    19  H    8.727002   5.257461   4.451847   0.000000
    20  H    8.251769   3.647443   7.134321   5.409226   0.000000
    21  H    6.803038   2.369582   6.184621   5.501253   1.784362
    22  H    6.761293   2.369608   6.183687   5.501678   1.784352
    23  H    8.763982   7.120885   3.687351   3.603241   8.621332
    24  H    7.305010   6.192280   2.407956   4.027997   8.255987
    25  H    7.343426   6.192241   2.410088   4.027683   8.256127
    26  H    2.435529   2.275228   3.817737   6.577638   5.908474
    27  H    3.297268   4.710606   2.179900   6.537770   8.147836
    28  H    2.423657   6.748178   5.600881   9.870669  10.393163
    29  H    0.968397   5.522407   5.931907   9.654582   9.043482
                   21         22         23         24         25
    21  H    0.000000
    22  H    1.799117   0.000000
    23  H    8.239328   8.239350   0.000000
    24  H    7.733142   7.520753   1.785084   0.000000
    25  H    7.520857   7.733182   1.785121   1.800482   0.000000
    26  H    4.502121   4.498955   7.349743   6.081544   6.083718
    27  H    6.901173   6.910254   5.668402   4.235686   4.220504
    28  H    8.961374   8.930100   8.993218   7.490036   7.526971
    29  H    7.545552   7.572161   9.597420   8.147337   8.122309
                   26         27         28         29
    26  H    0.000000
    27  H    3.102001   0.000000
    28  H    4.491768   3.425592   0.000000
    29  H    3.322033   4.018984   2.212416   0.000000
 Stoichiometry    C11H13O5(1+)
 Framework group  C1[X(C11H13O5)]
 Deg. of freedom    81
 Full point group                 C1      NOp   1
 Largest Abelian subgroup         C1      NOp   1
 Largest concise Abelian subgroup C1      NOp   1
                         Standard orientation:                         
 ---------------------------------------------------------------------
 Center     Atomic      Atomic             Coordinates (Angstroms)
 Number     Number       Type             X           Y           Z
 ---------------------------------------------------------------------
      1          6           0       -2.399773    0.197409    0.000930
      2          6           0       -1.924415   -1.138293   -0.006730
      3          6           0       -0.556127   -1.349743   -0.010830
      4          6           0        0.358612   -0.260162   -0.007972
      5          6           0       -0.131600    1.074679    0.002531
      6          6           0       -1.491080    1.291807    0.005278
      7          8           0       -3.703759    0.413102    0.004856
      8          8           0       -2.878740   -2.078506   -0.009017
      9          6           0       -2.484923   -3.447013   -0.017284
     10          8           0       -2.128240    2.483546    0.013832
     11          6           0       -1.354202    3.682445    0.018837
     12          6           0        1.736436   -0.565825   -0.011892
     13          6           0        2.803912    0.326551   -0.017270
     14          6           0        4.118381   -0.110782    0.000863
     15          8           0        5.083118    0.786492   -0.107872
     16          8           0        4.409895   -1.395578    0.135692
     17          1           0       -0.163505   -2.360210   -0.016650
     18          1           0        0.553596    1.912774    0.008157
     19          1           0       -3.865395    1.372907    0.010667
     20          1           0       -3.412809   -4.017274   -0.018279
     21          1           0       -1.909223   -3.683977   -0.919440
     22          1           0       -1.905173   -3.693735    0.879646
     23          1           0       -2.074260    4.499404    0.024791
     24          1           0       -0.731210    3.734728    0.918107
     25          1           0       -0.734880    3.744538   -0.882345
     26          1           0        1.989511   -1.624591   -0.009551
     27          1           0        2.672137    1.401240   -0.037453
     28          1           0        5.962609    0.465381    0.140424
     29          1           0        5.309102   -1.630060   -0.136774
 ---------------------------------------------------------------------
 Rotational constants (GHZ):      0.7123006      0.2741089      0.1985303
 Standard basis: 6-31+G(d,p) (6D, 7F)
 There are   369 symmetry adapted cartesian basis functions of A   symmetry.
 There are   369 symmetry adapted basis functions of A   symmetry.
   369 basis functions,   603 primitive gaussians,   369 cartesian basis functions
    59 alpha electrons       59 beta electrons
       nuclear repulsion energy      1072.8770088524 Hartrees.
 NAtoms=   29 NActive=   29 NUniq=   29 SFac= 1.00D+00 NAtFMM=   60 NAOKFM=F Big=F
 Integral buffers will be    131072 words long.
 Raffenetti 2 integral format.
 Two-electron integral symmetry is turned on.
 Nuclear repulsion after empirical dispersion term =     1072.8504386788 Hartrees.
 One-electron integrals computed using PRISM.
 NBasis=   369 RedAO= T EigKep=  1.45D-06  NBF=   369
 NBsUse=   367 1.00D-06 EigRej=  7.85D-07 NBFU=   367
 ExpMin= 4.38D-02 ExpMax= 5.48D+03 ExpMxC= 8.25D+02 IAcc=2 IRadAn=         4 AccDes= 0.00D+00
 Harris functional with IExCor=  408 and IRadAn=       4 diagonalized for initial guess.
 HarFok:  IExCor=  408 AccDes= 0.00D+00 IRadAn=         4 IDoV= 1 UseB2=F ITyADJ=14
 ICtDFT=  3500011 ScaDFX=  1.000000  1.000000  1.000000  1.000000
 FoFCou: FMM=F IPFlag=           0 FMFlag=      100000 FMFlg1=           0
         NFxFlg=           0 DoJE=T BraDBF=F KetDBF=T FulRan=T
         wScrn=  0.000000 ICntrl=     500 IOpCl=  0 I1Cent=   200000004 NGrid=           0
         NMat0=    1 NMatS0=      1 NMatT0=    0 NMatD0=    1 NMtDS0=    0 NMtDT0=    0
 Petite list used in FoFCou.
 Requested convergence on RMS density matrix=1.00D-08 within 128 cycles.
 Requested convergence on MAX density matrix=1.00D-06.
 Requested convergence on             energy=1.00D-06.
 No special actions if energy rises.
 SCF Done:  E(RB3PW91) =  -802.607348434     A.U. after   16 cycles
            NFock= 16  Conv=0.44D-08     -V/T= 2.0090

 **********************************************************************

            Population analysis using the SCF density.

 **********************************************************************

 Orbital symmetries:
       Occupied  (A) (A) (A) (A) (A) (A) (A) (A) (A) (A) (A) (A)
                 (A) (A) (A) (A) (A) (A) (A) (A) (A) (A) (A) (A)
                 (A) (A) (A) (A) (A) (A) (A) (A) (A) (A) (A) (A)
                 (A) (A) (A) (A) (A) (A) (A) (A) (A) (A) (A) (A)
                 (A) (A) (A) (A) (A) (A) (A) (A) (A) (A) (A)
       Virtual   (A) (A) (A) (A) (A) (A) (A) (A) (A) (A) (A) (A)
                 (A) (A) (A) (A) (A) (A) (A) (A) (A) (A) (A) (A)
                 (A) (A) (A) (A) (A) (A) (A) (A) (A) (A) (A) (A)
                 (A) (A) (A) (A) (A) (A) (A) (A) (A) (A) (A) (A)
                 (A) (A) (A) (A) (A) (A) (A) (A) (A) (A) (A) (A)
                 (A) (A) (A) (A) (A) (A) (A) (A) (A) (A) (A) (A)
                 (A) (A) (A) (A) (A) (A) (A) (A) (A) (A) (A) (A)
                 (A) (A) (A) (A) (A) (A) (A) (A) (A) (A) (A) (A)
                 (A) (A) (A) (A) (A) (A) (A) (A) (A) (A) (A) (A)
                 (A) (A) (A) (A) (A) (A) (A) (A) (A) (A) (A) (A)
                 (A) (A) (A) (A) (A) (A) (A) (A) (A) (A) (A) (A)
                 (A) (A) (A) (A) (A) (A) (A) (A) (A) (A) (A) (A)
                 (A) (A) (A) (A) (A) (A) (A) (A) (A) (A) (A) (A)
                 (A) (A) (A) (A) (A) (A) (A) (A) (A) (A) (A) (A)
                 (A) (A) (A) (A) (A) (A) (A) (A) (A) (A) (A) (A)
                 (A) (A) (A) (A) (A) (A) (A) (A) (A) (A) (A) (A)
                 (A) (A) (A) (A) (A) (A) (A) (A) (A) (A) (A) (A)
                 (A) (A) (A) (A) (A) (A) (A) (A) (A) (A) (A) (A)
                 (A) (A) (A) (A) (A) (A) (A) (A) (A) (A) (A) (A)
                 (A) (A) (A) (A) (A) (A) (A) (A) (A) (A) (A) (A)
                 (A) (A) (A) (A) (A) (A) (A) (A) (A) (A) (A) (A)
                 (A) (A) (A) (A) (A) (A) (A) (A) (A) (A) (A) (A)
                 (A) (A) (A) (A) (A) (A) (A) (A) (A) (A) (A) (A)
                 (A) (A) (A) (A) (A) (A) (A) (A) (A) (A) (A) (A)
                 (A) (A) (A) (A) (A) (A) (A) (A) (A) (A) (A) (A)
                 (A) (A) (A) (A) (A) (A) (A) (A)
 The electronic state is 1-A.
 Alpha  occ. eigenvalues --  -19.37684 -19.37557 -19.32130 -19.31942 -19.29903
 Alpha  occ. eigenvalues --  -10.49632 -10.39561 -10.38368 -10.37699 -10.36452
 Alpha  occ. eigenvalues --  -10.34867 -10.33965 -10.33738 -10.33342 -10.32691
 Alpha  occ. eigenvalues --  -10.32467  -1.31535  -1.23846  -1.23830  -1.20953
 Alpha  occ. eigenvalues --   -1.19597  -1.01221  -0.97297  -0.91811  -0.90362
 Alpha  occ. eigenvalues --   -0.85615  -0.84829  -0.81607  -0.79836  -0.78249
 Alpha  occ. eigenvalues --   -0.74063  -0.71539  -0.70469  -0.67925  -0.65913
 Alpha  occ. eigenvalues --   -0.64458  -0.63937  -0.63188  -0.61245  -0.60940
 Alpha  occ. eigenvalues --   -0.60147  -0.58924  -0.57964  -0.55715  -0.55225
 Alpha  occ. eigenvalues --   -0.55184  -0.54767  -0.53328  -0.52946  -0.52122
 Alpha  occ. eigenvalues --   -0.50783  -0.49460  -0.47966  -0.47876  -0.46467
 Alpha  occ. eigenvalues --   -0.45658  -0.42075  -0.36611  -0.34627
 Alpha virt. eigenvalues --   -0.24504  -0.14709  -0.13932  -0.12380  -0.09250
 Alpha virt. eigenvalues --   -0.09139  -0.08905  -0.08082  -0.07274  -0.06103
 Alpha virt. eigenvalues --   -0.05560  -0.05254  -0.04634  -0.03854  -0.03722
 Alpha virt. eigenvalues --   -0.03202  -0.02546  -0.01539  -0.01439  -0.00903
 Alpha virt. eigenvalues --   -0.00729   0.00541   0.01081   0.01455   0.01623
 Alpha virt. eigenvalues --    0.01761   0.03092   0.03655   0.03710   0.03872
 Alpha virt. eigenvalues --    0.04326   0.04345   0.04769   0.05366   0.05551
 Alpha virt. eigenvalues --    0.05903   0.06115   0.06960   0.07435   0.07483
 Alpha virt. eigenvalues --    0.07854   0.08128   0.08456   0.09686   0.10202
 Alpha virt. eigenvalues --    0.10627   0.11244   0.11484   0.11807   0.12262
 Alpha virt. eigenvalues --    0.12904   0.13156   0.13877   0.14508   0.15059
 Alpha virt. eigenvalues --    0.15572   0.15718   0.15848   0.15878   0.16408
 Alpha virt. eigenvalues --    0.16484   0.17394   0.17963   0.18232   0.18909
 Alpha virt. eigenvalues --    0.19212   0.20057   0.20735   0.21218   0.21629
 Alpha virt. eigenvalues --    0.22569   0.22722   0.23104   0.23473   0.23779
 Alpha virt. eigenvalues --    0.24884   0.25316   0.25653   0.26058   0.27020
 Alpha virt. eigenvalues --    0.27137   0.28141   0.28764   0.29638   0.30596
 Alpha virt. eigenvalues --    0.31662   0.32401   0.34669   0.35474   0.36095
 Alpha virt. eigenvalues --    0.36486   0.38596   0.40904   0.44883   0.46402
 Alpha virt. eigenvalues --    0.49763   0.53392   0.54136   0.54278   0.54918
 Alpha virt. eigenvalues --    0.57186   0.57857   0.57904   0.58952   0.59532
 Alpha virt. eigenvalues --    0.59760   0.60499   0.61564   0.62246   0.62886
 Alpha virt. eigenvalues --    0.63613   0.64114   0.65979   0.66660   0.68554
 Alpha virt. eigenvalues --    0.73065   0.74011   0.74992   0.77078   0.79028
 Alpha virt. eigenvalues --    0.79904   0.80389   0.81243   0.81731   0.81856
 Alpha virt. eigenvalues --    0.83091   0.85023   0.89474   0.89811   0.91737
 Alpha virt. eigenvalues --    0.93226   0.93859   0.95002   0.96438   0.97415
 Alpha virt. eigenvalues --    0.98893   0.99692   1.01277   1.01975   1.02689
 Alpha virt. eigenvalues --    1.04670   1.04828   1.05692   1.06441   1.07037
 Alpha virt. eigenvalues --    1.07347   1.08272   1.08972   1.10024   1.10243
 Alpha virt. eigenvalues --    1.11355   1.11867   1.12790   1.13836   1.14322
 Alpha virt. eigenvalues --    1.14963   1.15994   1.16858   1.17758   1.18714
 Alpha virt. eigenvalues --    1.19063   1.20014   1.20843   1.22625   1.23715
 Alpha virt. eigenvalues --    1.25040   1.25894   1.26946   1.28490   1.30038
 Alpha virt. eigenvalues --    1.33639   1.33690   1.35533   1.38570   1.40459
 Alpha virt. eigenvalues --    1.41672   1.42830   1.44292   1.45463   1.46713
 Alpha virt. eigenvalues --    1.48010   1.49802   1.53818   1.55612   1.58232
 Alpha virt. eigenvalues --    1.60727   1.62117   1.65397   1.66960   1.67515
 Alpha virt. eigenvalues --    1.69933   1.70090   1.70942   1.73528   1.74090
 Alpha virt. eigenvalues --    1.74558   1.76172   1.77132   1.79122   1.79424
 Alpha virt. eigenvalues --    1.80256   1.81812   1.83099   1.84411   1.85128
 Alpha virt. eigenvalues --    1.86410   1.89538   1.89770   1.91107   1.92401
 Alpha virt. eigenvalues --    1.94212   1.95529   1.95570   1.96341   1.97804
 Alpha virt. eigenvalues --    2.00691   2.01563   2.03304   2.04467   2.05548
 Alpha virt. eigenvalues --    2.06747   2.08920   2.10228   2.12792   2.13065
 Alpha virt. eigenvalues --    2.15805   2.18694   2.19195   2.22497   2.24447
 Alpha virt. eigenvalues --    2.25100   2.27999   2.30195   2.33023   2.34252
 Alpha virt. eigenvalues --    2.35400   2.36480   2.38065   2.39623   2.39756
 Alpha virt. eigenvalues --    2.41534   2.42446   2.43738   2.44660   2.46721
 Alpha virt. eigenvalues --    2.47726   2.48837   2.50040   2.52029   2.52216
 Alpha virt. eigenvalues --    2.54835   2.55221   2.56389   2.58172   2.58665
 Alpha virt. eigenvalues --    2.59573   2.61354   2.63496   2.65730   2.67562
 Alpha virt. eigenvalues --    2.70413   2.71530   2.71885   2.73103   2.74406
 Alpha virt. eigenvalues --    2.75763   2.77591   2.80572   2.84178   2.85170
 Alpha virt. eigenvalues --    2.86961   2.94893   2.95992   3.03312   3.06266
 Alpha virt. eigenvalues --    3.08145   3.08526   3.12813   3.14393   3.16690
 Alpha virt. eigenvalues --    3.24673   3.29089   3.29811   3.31266   3.31646
 Alpha virt. eigenvalues --    3.32263   3.36547   3.38056   3.42994   3.44390
 Alpha virt. eigenvalues --    3.48385   3.62347   4.06350   4.11854   4.16531
 Alpha virt. eigenvalues --    4.22228   4.23782   4.28140   4.29270   4.34126
 Alpha virt. eigenvalues --    4.37212   4.41075   4.46430   4.50862   4.55544
 Alpha virt. eigenvalues --    4.67920   4.72087   5.21179
          Condensed to atoms (all electrons):
               1          2          3          4          5          6
     1  C   25.561530  -1.023432  -7.901255   0.812299  -8.094041  -0.467274
     2  C   -1.023432  19.297056  -0.394165  -2.389684  -0.817248  -7.832741
     3  C   -7.901255  -0.394165  23.852194  -0.648323  -0.702615  -4.469294
     4  C    0.812299  -2.389684  -0.648323  15.254616  -2.591916  -2.081812
     5  C   -8.094041  -0.817248  -0.702615  -2.591916  14.634280   1.080781
     6  C   -0.467274  -7.832741  -4.469294  -2.081812   1.080781  19.368949
     7  O    0.132768  -0.926404  -0.000595  -0.090489   0.175024   0.690593
     8  O   -0.744666   0.301813   0.449198  -0.043874   0.013541   0.037220
     9  C    0.174384  -0.088280  -0.126436  -0.218018   0.029008   0.107025
    10  O   -0.706107   0.112087   0.021238  -0.033640   0.319398   0.212578
    11  C   -0.072575   0.071479   0.031279  -0.085724   0.083241  -0.161101
    12  C   -1.490294  -0.245120  -2.306730  -1.163745   1.584890  -0.064070
    13  C   -0.065899  -0.585972  -1.681008   0.062565   0.081562  -0.144154
    14  C   -0.037734   0.013850  -0.781444  -1.116418   0.256486   0.158395
    15  O    0.000809   0.000813   0.005267   0.030218  -0.009849   0.001791
    16  O   -0.003143   0.001664  -0.007657  -0.002341  -0.013532  -0.006143
    17  H    0.024409  -0.096256   0.055162   0.159916   0.019075  -0.005096
    18  H    0.007827  -0.008800   0.061287   0.257418   0.125789  -0.121897
    19  H    0.200354   0.301623   0.022356   0.000456  -0.051638  -0.482357
    20  H    0.066696   0.058376  -0.099571  -0.012199  -0.001701   0.010680
    21  H   -0.038857  -0.090667   0.096303   0.035731   0.002621  -0.010387
    22  H   -0.042321  -0.089307   0.106908   0.019404   0.002636  -0.009000
    23  H    0.031361   0.006307  -0.002948  -0.009861  -0.049817   0.047061
    24  H   -0.025431  -0.004842   0.005280   0.022687   0.052716  -0.057170
    25  H   -0.016517  -0.006054   0.002930   0.020462   0.034546  -0.039805
    26  H    0.017519   0.029652   0.273357   0.047413  -0.052038  -0.004622
    27  H   -0.000761   0.002810   0.029910   0.099640  -0.009130  -0.015638
    28  H    0.000062  -0.000038   0.000293  -0.003791   0.003541   0.000476
    29  H   -0.000086   0.000383   0.007736   0.013188  -0.004077  -0.000449
               7          8          9         10         11         12
     1  C    0.132768  -0.744666   0.174384  -0.706107  -0.072575  -1.490294
     2  C   -0.926404   0.301813  -0.088280   0.112087   0.071479  -0.245120
     3  C   -0.000595   0.449198  -0.126436   0.021238   0.031279  -2.306730
     4  C   -0.090489  -0.043874  -0.218018  -0.033640  -0.085724  -1.163745
     5  C    0.175024   0.013541   0.029008   0.319398   0.083241   1.584890
     6  C    0.690593   0.037220   0.107025   0.212578  -0.161101  -0.064070
     7  O    8.243607   0.051316   0.001786  -0.021036   0.000619   0.011471
     8  O    0.051316   8.413780   0.027696  -0.002287   0.000025  -0.033543
     9  C    0.001786   0.027696   5.057315  -0.000022   0.000993  -0.028359
    10  O   -0.021036  -0.002287  -0.000022   8.570204   0.041182   0.006100
    11  C    0.000619   0.000025   0.000993   0.041182   5.010130   0.011240
    12  C    0.011471  -0.033543  -0.028359   0.006100   0.011240  10.250574
    13  C    0.000181  -0.004529  -0.008461  -0.005010  -0.009572  -1.565041
    14  C    0.000530  -0.000296  -0.000980  -0.000191  -0.004144   0.571096
    15  O    0.000000   0.000001  -0.000005  -0.000000  -0.000036  -0.144548
    16  O    0.000000  -0.000006   0.000070  -0.000001   0.000048   0.117374
    17  H   -0.000664  -0.013493  -0.001159   0.000141  -0.000060   0.135143
    18  H   -0.000445   0.000154   0.000035  -0.014935   0.003311  -0.040948
    19  H    0.170949  -0.003200  -0.000424   0.050512   0.004873   0.001315
    20  H   -0.000889  -0.076005   0.423018  -0.000003   0.000007  -0.001341
    21  H    0.000100  -0.034412   0.394730   0.000002  -0.000015   0.001316
    22  H    0.000109  -0.034405   0.398128   0.000002  -0.000010   0.004338
    23  H    0.000046  -0.000001   0.000007  -0.067837   0.414221   0.000178
    24  H   -0.000212  -0.000001  -0.000004  -0.040515   0.406281  -0.000092
    25  H   -0.000234   0.000000  -0.000011  -0.040418   0.404519  -0.000364
    26  H   -0.000017   0.000094   0.000745   0.000040   0.000065   0.237940
    27  H   -0.000006   0.000003   0.000022   0.000136   0.000459   0.028171
    28  H   -0.000000   0.000000  -0.000000  -0.000000  -0.000004   0.058284
    29  H   -0.000000  -0.000000   0.000012   0.000000   0.000003  -0.002623
              13         14         15         16         17         18
     1  C   -0.065899  -0.037734   0.000809  -0.003143   0.024409   0.007827
     2  C   -0.585972   0.013850   0.000813   0.001664  -0.096256  -0.008800
     3  C   -1.681008  -0.781444   0.005267  -0.007657   0.055162   0.061287
     4  C    0.062565  -1.116418   0.030218  -0.002341   0.159916   0.257418
     5  C    0.081562   0.256486  -0.009849  -0.013532   0.019075   0.125789
     6  C   -0.144154   0.158395   0.001791  -0.006143  -0.005096  -0.121897
     7  O    0.000181   0.000530   0.000000   0.000000  -0.000664  -0.000445
     8  O   -0.004529  -0.000296   0.000001  -0.000006  -0.013493   0.000154
     9  C   -0.008461  -0.000980  -0.000005   0.000070  -0.001159   0.000035
    10  O   -0.005010  -0.000191  -0.000000  -0.000001   0.000141  -0.014935
    11  C   -0.009572  -0.004144  -0.000036   0.000048  -0.000060   0.003311
    12  C   -1.565041   0.571096  -0.144548   0.117374   0.135143  -0.040948
    13  C   12.070523  -1.711892   0.291564  -0.193936   0.030542   0.019108
    14  C   -1.711892   7.732300  -0.037810   0.241390  -0.000237   0.017564
    15  O    0.291564  -0.037810   8.155336  -0.096955   0.000001   0.000072
    16  O   -0.193936   0.241390  -0.096955   8.199310  -0.000145   0.000053
    17  H    0.030542  -0.000237   0.000001  -0.000145   0.523661  -0.000114
    18  H    0.019108   0.017564   0.000072   0.000053  -0.000114   0.542653
    19  H    0.000671   0.000033   0.000000  -0.000000   0.000004  -0.000031
    20  H    0.000011  -0.000003   0.000000  -0.000000   0.000082   0.000000
    21  H    0.000032  -0.000024   0.000000  -0.000001  -0.000713   0.000000
    22  H   -0.000048   0.000034  -0.000000   0.000001  -0.000729   0.000000
    23  H    0.000192   0.000050   0.000000  -0.000000  -0.000000   0.000083
    24  H   -0.000268  -0.000468  -0.000001   0.000000   0.000000  -0.000553
    25  H   -0.000765  -0.000267   0.000001  -0.000000   0.000000  -0.000655
    26  H   -0.203856  -0.048452   0.000824  -0.006422   0.003118  -0.000031
    27  H    0.269127  -0.085105  -0.011425   0.007459  -0.000002   0.000899
    28  H   -0.083349   0.041833   0.214393  -0.001361   0.000000  -0.000000
    29  H    0.066408  -0.059195  -0.001816   0.207543  -0.000000   0.000000
              19         20         21         22         23         24
     1  C    0.200354   0.066696  -0.038857  -0.042321   0.031361  -0.025431
     2  C    0.301623   0.058376  -0.090667  -0.089307   0.006307  -0.004842
     3  C    0.022356  -0.099571   0.096303   0.106908  -0.002948   0.005280
     4  C    0.000456  -0.012199   0.035731   0.019404  -0.009861   0.022687
     5  C   -0.051638  -0.001701   0.002621   0.002636  -0.049817   0.052716
     6  C   -0.482357   0.010680  -0.010387  -0.009000   0.047061  -0.057170
     7  O    0.170949  -0.000889   0.000100   0.000109   0.000046  -0.000212
     8  O   -0.003200  -0.076005  -0.034412  -0.034405  -0.000001  -0.000001
     9  C   -0.000424   0.423018   0.394730   0.398128   0.000007  -0.000004
    10  O    0.050512  -0.000003   0.000002   0.000002  -0.067837  -0.040515
    11  C    0.004873   0.000007  -0.000015  -0.000010   0.414221   0.406281
    12  C    0.001315  -0.001341   0.001316   0.004338   0.000178  -0.000092
    13  C    0.000671   0.000011   0.000032  -0.000048   0.000192  -0.000268
    14  C    0.000033  -0.000003  -0.000024   0.000034   0.000050  -0.000468
    15  O    0.000000   0.000000   0.000000  -0.000000   0.000000  -0.000001
    16  O   -0.000000  -0.000000  -0.000001   0.000001  -0.000000   0.000000
    17  H    0.000004   0.000082  -0.000713  -0.000729  -0.000000   0.000000
    18  H   -0.000031   0.000000   0.000000   0.000000   0.000083  -0.000553
    19  H    0.355906  -0.000002   0.000000   0.000000  -0.000097   0.000044
    20  H   -0.000002   0.485597  -0.023665  -0.023696  -0.000000   0.000000
    21  H    0.000000  -0.023665   0.541156  -0.041221   0.000000  -0.000000
    22  H    0.000000  -0.023696  -0.041221   0.540894   0.000000  -0.000000
    23  H   -0.000097  -0.000000   0.000000   0.000000   0.483551  -0.023277
    24  H    0.000044   0.000000  -0.000000  -0.000000  -0.023277   0.529905
    25  H    0.000045   0.000000  -0.000000  -0.000000  -0.023242  -0.038581
    26  H   -0.000000   0.000000  -0.000001  -0.000002  -0.000000  -0.000000
    27  H   -0.000000  -0.000000   0.000000  -0.000000  -0.000000  -0.000006
    28  H    0.000000   0.000000   0.000000  -0.000000  -0.000000  -0.000000
    29  H   -0.000000  -0.000000  -0.000000   0.000000   0.000000   0.000000
              25         26         27         28         29
     1  C   -0.016517   0.017519  -0.000761   0.000062  -0.000086
     2  C   -0.006054   0.029652   0.002810  -0.000038   0.000383
     3  C    0.002930   0.273357   0.029910   0.000293   0.007736
     4  C    0.020462   0.047413   0.099640  -0.003791   0.013188
     5  C    0.034546  -0.052038  -0.009130   0.003541  -0.004077
     6  C   -0.039805  -0.004622  -0.015638   0.000476  -0.000449
     7  O   -0.000234  -0.000017  -0.000006  -0.000000  -0.000000
     8  O    0.000000   0.000094   0.000003   0.000000  -0.000000
     9  C   -0.000011   0.000745   0.000022  -0.000000   0.000012
    10  O   -0.040418   0.000040   0.000136  -0.000000   0.000000
    11  C    0.404519   0.000065   0.000459  -0.000004   0.000003
    12  C   -0.000364   0.237940   0.028171   0.058284  -0.002623
    13  C   -0.000765  -0.203856   0.269127  -0.083349   0.066408
    14  C   -0.000267  -0.048452  -0.085105   0.041833  -0.059195
    15  O    0.000001   0.000824  -0.011425   0.214393  -0.001816
    16  O   -0.000000  -0.006422   0.007459  -0.001361   0.207543
    17  H    0.000000   0.003118  -0.000002   0.000000  -0.000000
    18  H   -0.000655  -0.000031   0.000899  -0.000000   0.000000
    19  H    0.000045  -0.000000  -0.000000   0.000000  -0.000000
    20  H    0.000000   0.000000  -0.000000   0.000000  -0.000000
    21  H   -0.000000  -0.000001   0.000000   0.000000  -0.000000
    22  H   -0.000000  -0.000002  -0.000000  -0.000000   0.000000
    23  H   -0.023242  -0.000000  -0.000000  -0.000000   0.000000
    24  H   -0.038581  -0.000000  -0.000006  -0.000000   0.000000
    25  H    0.529802   0.000000  -0.000002   0.000000  -0.000000
    26  H    0.000000   0.514407   0.003228   0.000010  -0.000069
    27  H   -0.000002   0.003228   0.498317   0.000028  -0.000176
    28  H    0.000000   0.000010   0.000028   0.376810   0.002260
    29  H   -0.000000  -0.000069  -0.000176   0.002260   0.377833
 Mulliken charges:
               1
     1  C   -0.299626
     2  C    0.401096
     3  C    0.101342
     4  C   -0.344179
     5  C   -0.101535
     6  C    0.257459
     7  O   -0.438110
     8  O   -0.304121
     9  C   -0.142817
    10  O   -0.401619
    11  C   -0.150735
    12  C    0.067388
    13  C   -0.628727
    14  C    0.851100
    15  O   -0.398645
    16  O   -0.443271
    17  H    0.167412
    18  H    0.152157
    19  H    0.428606
    20  H    0.194609
    21  H    0.167972
    22  H    0.168284
    23  H    0.194021
    24  H    0.174508
    25  H    0.174611
    26  H    0.187098
    27  H    0.182040
    28  H    0.390553
    29  H    0.393127
 Sum of Mulliken charges =   1.00000
 Mulliken charges with hydrogens summed into heavy atoms:
               1
     1  C   -0.299626
     2  C    0.401096
     3  C    0.268754
     4  C   -0.344179
     5  C    0.050622
     6  C    0.257459
     7  O   -0.009504
     8  O   -0.304121
     9  C    0.388049
    10  O   -0.401619
    11  C    0.392406
    12  C    0.254486
    13  C   -0.446687
    14  C    0.851100
    15  O   -0.008092
    16  O   -0.050144
 Electronic spatial extent (au):  <R**2>=           5074.4086
 Charge=              1.0000 electrons
 Dipole moment (field-independent basis, Debye):
    X=              9.7547    Y=             -0.0260    Z=             -0.0395  Tot=              9.7548
 Quadrupole moment (field-independent basis, Debye-Ang):
   XX=             -9.4960   YY=            -55.3095   ZZ=            -93.7804
   XY=            -11.2677   XZ=              0.1410   YZ=              1.3692
 Traceless Quadrupole moment (field-independent basis, Debye-Ang):
   XX=             43.3659   YY=             -2.4475   ZZ=            -40.9184
   XY=            -11.2677   XZ=              0.1410   YZ=              1.3692
 Octapole moment (field-independent basis, Debye-Ang**2):
  XXX=            442.9710  YYY=              8.7400  ZZZ=              0.2631  XYY=            -43.4596
  XXY=            -38.6621  XXZ=              3.1250  XZZ=              1.4261  YZZ=              0.4811
  YYZ=             -1.2583  XYZ=              6.0208
 Hexadecapole moment (field-independent basis, Debye-Ang**3):
 XXXX=          -1358.7952 YYYY=          -1408.6602 ZZZZ=           -108.2387 XXXY=           -382.4982
 XXXZ=             27.4630 YYYX=             -9.7163 YYYZ=              4.5073 ZZZX=              0.5765
 ZZZY=              0.2306 XXYY=           -789.7367 XXZZ=           -733.0523 YYZZ=           -334.0566
 XXYZ=             34.5456 YYXZ=             -6.5576 ZZXY=             -5.2075
 N-N= 1.072850438679D+03 E-N=-4.002524274869D+03  KE= 7.954259666103D+02
 Calling FoFJK, ICntrl=      2127 FMM=F ISym2X=0 I1Cent= 0 IOpClX= 0 NMat=1 NMatS=1 NMatT=0.
 ***** Axes restored to original set *****
 -------------------------------------------------------------------
 Center     Atomic                   Forces (Hartrees/Bohr)
 Number     Number              X              Y              Z
 -------------------------------------------------------------------
      1        6           0.000012733    0.000103900    0.000000480
      2        6          -0.000052775    0.000087793   -0.000002615
      3        6          -0.000201406   -0.000093412   -0.000006077
      4        6           0.000076645    0.000084185   -0.000000704
      5        6          -0.000324925    0.000040334   -0.000007476
      6        6          -0.000295446   -0.000000913    0.000003830
      7        8           0.000301418    0.000020015   -0.000000502
      8        8           0.000162813    0.000520382   -0.000000402
      9        6           0.000274911    0.000141019   -0.000002164
     10        8          -0.000098481   -0.000237053   -0.000005499
     11        6           0.000338681   -0.000099561    0.000002998
     12        6          -0.000010179    0.000095014    0.000041395
     13        6           0.000413226    0.000123335    0.000040948
     14        6          -0.000261989    0.000125688   -0.000117902
     15        8           0.000086824    0.000176723    0.000038759
     16        8          -0.000068896   -0.000408713   -0.000040336
     17        1           0.000164585    0.000090501    0.000003032
     18        1           0.000207176   -0.000110577   -0.000000576
     19        1           0.000207173   -0.000265751    0.000000575
     20        1           0.000053203   -0.000091076    0.000000265
     21        1          -0.000242051   -0.000244211    0.000296774
     22        1          -0.000244583   -0.000246994   -0.000290845
     23        1           0.000037675    0.000080753   -0.000000258
     24        1          -0.000319018    0.000091491   -0.000264106
     25        1          -0.000320203    0.000093176    0.000261579
     26        1          -0.000119422   -0.000101030    0.000007950
     27        1          -0.000106801   -0.000044539    0.000000795
     28        1           0.000048071    0.000263797   -0.000000206
     29        1           0.000281041   -0.000194277    0.000040286
 -------------------------------------------------------------------
 Cartesian Forces:  Max     0.000520382 RMS     0.000175705

 GradGradGradGradGradGradGradGradGradGradGradGradGradGradGradGradGradGrad
 Berny optimization.
 FormGI is forming the generalized inverse of G from B-inverse, IUseBI=4.
 Internal  Forces:  Max     0.000907703 RMS     0.000232495
 Search for a local minimum.
 Step number   1 out of a maximum of  135
 All quantities printed in internal units (Hartrees-Bohrs-Radians)
 Mixed Optimization -- En-DIIS/RFO-DIIS
 Second derivative matrix not updated -- first step.
 ITU=  0
     Eigenvalues ---    0.01334   0.01373   0.01804   0.01834   0.01923
     Eigenvalues ---    0.01939   0.02002   0.02040   0.02072   0.02115
     Eigenvalues ---    0.02139   0.02169   0.02203   0.02225   0.02239
     Eigenvalues ---    0.02281   0.02335   0.02490   0.02496   0.02693
     Eigenvalues ---    0.02724   0.02727   0.10091   0.10146   0.10706
     Eigenvalues ---    0.10718   0.16000   0.16000   0.16000   0.16000
     Eigenvalues ---    0.16000   0.16000   0.16000   0.16000   0.16000
     Eigenvalues ---    0.16000   0.16000   0.16000   0.16000   0.22000
     Eigenvalues ---    0.22000   0.23473   0.23483   0.24999   0.25000
     Eigenvalues ---    0.25000   0.25000   0.25000   0.25000   0.25000
     Eigenvalues ---    0.25000   0.25000   0.34115   0.34116   0.34214
     Eigenvalues ---    0.34215   0.34915   0.34927   0.34976   0.35506
     Eigenvalues ---    0.35643   0.35687   0.39077   0.40643   0.41414
     Eigenvalues ---    0.41853   0.42076   0.42513   0.43794   0.46487
     Eigenvalues ---    0.47084   0.48123   0.49165   0.52701   0.53655
     Eigenvalues ---    0.53706   0.54724   0.57277   0.60864   0.61440
     Eigenvalues ---    0.61507
 RFO step:  Lambda=-2.72931522D-05 EMin= 1.33374290D-02
 Linear search not attempted -- first point.
 Iteration  1 RMS(Cart)=  0.00671615 RMS(Int)=  0.00000868
 Iteration  2 RMS(Cart)=  0.00001571 RMS(Int)=  0.00000046
 Iteration  3 RMS(Cart)=  0.00000000 RMS(Int)=  0.00000046
 Variable       Old X    -DE/DX   Delta X   Delta X   Delta X     New X
                                 (Linear)    (Quad)   (Total)
    R1        2.67923  -0.00004   0.00000  -0.00004  -0.00004   2.67919
    R2        2.68810   0.00036   0.00000   0.00088   0.00088   2.68897
    R3        2.49767   0.00046   0.00000   0.00075   0.00075   2.49842
    R4        2.61639   0.00002   0.00000   0.00005   0.00005   2.61644
    R5        2.53163  -0.00006   0.00000  -0.00010  -0.00010   2.53153
    R6        2.68843  -0.00009   0.00000  -0.00024  -0.00024   2.68819
    R7        2.04861  -0.00014   0.00000  -0.00040  -0.00040   2.04821
    R8        2.68728  -0.00033   0.00000  -0.00082  -0.00082   2.68646
    R9        2.66702  -0.00027   0.00000  -0.00061  -0.00061   2.66641
   R10        2.60161  -0.00021   0.00000  -0.00043  -0.00043   2.60118
   R11        2.04574  -0.00022   0.00000  -0.00061  -0.00061   2.04513
   R12        2.55378  -0.00023   0.00000  -0.00042  -0.00042   2.55336
   R13        1.83934  -0.00023   0.00000  -0.00044  -0.00044   1.83890
   R14        2.69110   0.00048   0.00000   0.00115   0.00115   2.69225
   R15        2.05813   0.00009   0.00000   0.00026   0.00026   2.05839
   R16        2.07136   0.00043   0.00000   0.00125   0.00125   2.07261
   R17        2.07135   0.00043   0.00000   0.00125   0.00125   2.07260
   R18        2.69676   0.00027   0.00000   0.00065   0.00065   2.69742
   R19        2.05793   0.00009   0.00000   0.00025   0.00025   2.05818
   R20        2.06969   0.00040   0.00000   0.00117   0.00117   2.07086
   R21        2.06970   0.00040   0.00000   0.00117   0.00117   2.07087
   R22        2.62928  -0.00026   0.00000  -0.00054  -0.00054   2.62874
   R23        2.05715   0.00012   0.00000   0.00036   0.00036   2.05750
   R24        2.61808  -0.00007   0.00000  -0.00015  -0.00015   2.61793
   R25        2.04643  -0.00005   0.00000  -0.00015  -0.00015   2.04628
   R26        2.49819   0.00021   0.00000   0.00034   0.00034   2.49853
   R27        2.50263   0.00053   0.00000   0.00087   0.00087   2.50350
   R28        1.83047  -0.00013   0.00000  -0.00025  -0.00025   1.83022
   R29        1.83001  -0.00020   0.00000  -0.00038  -0.00038   1.82963
    A1        2.10674  -0.00032   0.00000  -0.00117  -0.00117   2.10557
    A2        2.07664  -0.00049   0.00000  -0.00200  -0.00200   2.07464
    A3        2.09981   0.00081   0.00000   0.00317   0.00317   2.10297
    A4        2.06604   0.00020   0.00000   0.00090   0.00090   2.06694
    A5        2.00684  -0.00020   0.00000  -0.00084  -0.00084   2.00600
    A6        2.21031  -0.00000   0.00000  -0.00006  -0.00006   2.21025
    A7        2.11585  -0.00010   0.00000  -0.00047  -0.00047   2.11538
    A8        2.09473  -0.00007   0.00000  -0.00052  -0.00052   2.09420
    A9        2.07261   0.00017   0.00000   0.00099   0.00099   2.07360
   A10        2.09125   0.00007   0.00000   0.00017   0.00017   2.09142
   A11        2.05086   0.00042   0.00000   0.00172   0.00172   2.05258
   A12        2.14106  -0.00049   0.00000  -0.00189  -0.00189   2.13917
   A13        2.08113   0.00008   0.00000   0.00024   0.00024   2.08137
   A14        2.10430   0.00005   0.00000   0.00047   0.00047   2.10477
   A15        2.09776  -0.00013   0.00000  -0.00071  -0.00071   2.09705
   A16        2.10536   0.00008   0.00000   0.00032   0.00032   2.10568
   A17        1.95767   0.00041   0.00000   0.00165   0.00165   1.95932
   A18        2.22015  -0.00049   0.00000  -0.00197  -0.00197   2.21818
   A19        1.90157   0.00046   0.00000   0.00288   0.00288   1.90445
   A20        2.06855   0.00009   0.00000   0.00037   0.00037   2.06892
   A21        1.84167   0.00000   0.00000  -0.00005  -0.00005   1.84162
   A22        1.93668   0.00020   0.00000   0.00126   0.00126   1.93794
   A23        1.93673   0.00020   0.00000   0.00126   0.00126   1.93799
   A24        1.91083  -0.00011   0.00000  -0.00076  -0.00076   1.91007
   A25        1.91082  -0.00011   0.00000  -0.00076  -0.00076   1.91006
   A26        1.92520  -0.00017   0.00000  -0.00097  -0.00097   1.92423
   A27        2.07733  -0.00022   0.00000  -0.00089  -0.00089   2.07644
   A28        1.84588   0.00000   0.00000   0.00007   0.00007   1.84595
   A29        1.92998   0.00013   0.00000   0.00077   0.00077   1.93075
   A30        1.92992   0.00013   0.00000   0.00077   0.00077   1.93069
   A31        1.91326  -0.00004   0.00000  -0.00020  -0.00020   1.91306
   A32        1.91331  -0.00004   0.00000  -0.00019  -0.00020   1.91312
   A33        1.92969  -0.00017   0.00000  -0.00117  -0.00117   1.92852
   A34        2.22700  -0.00052   0.00000  -0.00236  -0.00236   2.22463
   A35        2.02372   0.00036   0.00000   0.00179   0.00179   2.02551
   A36        2.03247   0.00016   0.00000   0.00057   0.00057   2.03304
   A37        2.12400  -0.00001   0.00000  -0.00004  -0.00004   2.12395
   A38        2.14505   0.00011   0.00000   0.00066   0.00066   2.14571
   A39        2.01414  -0.00010   0.00000  -0.00061  -0.00061   2.01352
   A40        2.06810  -0.00056   0.00000  -0.00223  -0.00223   2.06586
   A41        2.11346  -0.00035   0.00000  -0.00138  -0.00138   2.11208
   A42        2.10158   0.00091   0.00000   0.00364   0.00364   2.10521
   A43        2.00040   0.00041   0.00000   0.00255   0.00255   2.00295
   A44        1.99397   0.00040   0.00000   0.00252   0.00252   1.99649
    D1       -0.00079  -0.00000   0.00000  -0.00003  -0.00003  -0.00083
    D2        3.14061  -0.00000   0.00000  -0.00002  -0.00002   3.14059
    D3        3.14155  -0.00000   0.00000  -0.00003  -0.00003   3.14152
    D4       -0.00023  -0.00000   0.00000  -0.00002  -0.00002  -0.00025
    D5       -0.00034   0.00000   0.00000   0.00001   0.00001  -0.00033
    D6       -3.14047   0.00000   0.00000   0.00000   0.00000  -3.14047
    D7        3.14049  -0.00000   0.00000   0.00001   0.00001   3.14050
    D8        0.00036  -0.00000   0.00000  -0.00000  -0.00000   0.00036
    D9        3.14083  -0.00000   0.00000  -0.00001  -0.00001   3.14082
   D10       -0.00002  -0.00000   0.00000  -0.00000  -0.00000  -0.00002
   D11       -0.00040  -0.00000   0.00000  -0.00002  -0.00002  -0.00042
   D12        3.14154   0.00000   0.00000   0.00007   0.00007  -3.14157
   D13        3.14141  -0.00000   0.00000  -0.00004  -0.00004   3.14137
   D14        0.00016   0.00000   0.00000   0.00006   0.00006   0.00022
   D15        3.14108  -0.00000   0.00000  -0.00001  -0.00001   3.14107
   D16       -0.00072   0.00000   0.00000   0.00001   0.00001  -0.00071
   D17        0.00268   0.00000   0.00000   0.00010   0.00010   0.00278
   D18        3.14109  -0.00000   0.00000  -0.00009  -0.00009   3.14100
   D19       -3.13925   0.00000   0.00000   0.00000   0.00000  -3.13925
   D20       -0.00084  -0.00000   0.00000  -0.00018  -0.00018  -0.00103
   D21       -0.00377  -0.00000   0.00000  -0.00012  -0.00012  -0.00388
   D22        3.13800  -0.00000   0.00000  -0.00009  -0.00009   3.13792
   D23        3.14118   0.00000   0.00000   0.00007   0.00007   3.14125
   D24       -0.00024   0.00000   0.00000   0.00010   0.00010  -0.00013
   D25        3.13514   0.00000   0.00000   0.00010   0.00010   3.13525
   D26       -0.00745  -0.00000   0.00000  -0.00017  -0.00017  -0.00762
   D27       -0.00973  -0.00000   0.00000  -0.00008  -0.00008  -0.00982
   D28        3.13086  -0.00001   0.00000  -0.00036  -0.00036   3.13050
   D29        0.00261   0.00000   0.00000   0.00006   0.00006   0.00268
   D30       -3.14068   0.00000   0.00000   0.00008   0.00008  -3.14060
   D31       -3.13915   0.00000   0.00000   0.00003   0.00003  -3.13912
   D32        0.00074   0.00000   0.00000   0.00005   0.00005   0.00079
   D33       -3.14137   0.00000   0.00000   0.00008   0.00008  -3.14129
   D34        0.00180   0.00000   0.00000   0.00006   0.00006   0.00186
   D35       -3.14104  -0.00000   0.00000  -0.00011  -0.00011  -3.14115
   D36       -1.07293  -0.00003   0.00000  -0.00038  -0.00038  -1.07331
   D37        1.07401   0.00003   0.00000   0.00016   0.00016   1.07417
   D38        3.14099  -0.00000   0.00000  -0.00020  -0.00020   3.14079
   D39       -1.07225   0.00002   0.00000   0.00001   0.00001  -1.07224
   D40        1.07101  -0.00002   0.00000  -0.00042  -0.00042   1.07059
   D41        3.12329  -0.00001   0.00000  -0.00057  -0.00057   3.12273
   D42       -0.02023  -0.00002   0.00000  -0.00106  -0.00106  -0.02129
   D43       -0.01729  -0.00001   0.00000  -0.00029  -0.00029  -0.01759
   D44        3.12237  -0.00002   0.00000  -0.00079  -0.00079   3.12158
   D45        3.05335  -0.00006   0.00000  -0.00238  -0.00238   3.05097
   D46       -0.09861  -0.00000   0.00000  -0.00025  -0.00025  -0.09886
   D47       -0.08645  -0.00005   0.00000  -0.00192  -0.00192  -0.08837
   D48        3.04478   0.00001   0.00000   0.00021   0.00021   3.04499
   D49        2.87487  -0.00005   0.00000  -0.00157  -0.00157   2.87330
   D50       -0.25643  -0.00010   0.00000  -0.00366  -0.00366  -0.26009
   D51        2.82368  -0.00016   0.00000  -0.00605  -0.00605   2.81763
   D52       -0.32848  -0.00011   0.00000  -0.00391  -0.00390  -0.33238
         Item               Value     Threshold  Converged?
 Maximum Force            0.000908     0.000450     NO 
 RMS     Force            0.000232     0.000300     YES
 Maximum Displacement     0.034677     0.001800     NO 
 RMS     Displacement     0.006722     0.001200     NO 
 Predicted change in Energy=-1.364654D-05
 GradGradGradGradGradGradGradGradGradGradGradGradGradGradGradGradGradGrad

                          Input orientation:                          
 ---------------------------------------------------------------------
 Center     Atomic      Atomic             Coordinates (Angstroms)
 Number     Number       Type             X           Y           Z
 ---------------------------------------------------------------------
      1          6           0        2.400241    0.196928   -0.000880
      2          6           0        1.925475   -1.138960    0.006803
      3          6           0        0.557445   -1.352242    0.010852
      4          6           0       -0.358156   -0.263551    0.007941
      5          6           0        0.130524    1.071391   -0.002674
      6          6           0        1.489499    1.290223   -0.005344
      7          8           0        3.704955    0.410647   -0.004706
      8          8           0        2.880960   -2.077921    0.009180
      9          6           0        2.489225   -3.447657    0.017491
     10          8           0        2.122677    2.483830   -0.013908
     11          6           0        1.343491    3.679802   -0.018909
     12          6           0       -1.735925   -0.567967    0.011686
     13          6           0       -2.800305    0.327655    0.016857
     14          6           0       -4.116070   -0.105470   -0.002091
     15          8           0       -5.076058    0.796807    0.109435
     16          8           0       -4.409917   -1.390102   -0.137947
     17          1           0        0.166781   -2.363238    0.016756
     18          1           0       -0.554945    1.908845   -0.008422
     19          1           0        3.870811    1.369497   -0.010559
     20          1           0        3.418191   -4.016422    0.018441
     21          1           0        1.913724   -3.687074    0.919929
     22          1           0        1.909587   -3.696863   -0.879631
     23          1           0        2.060186    4.499889   -0.024662
     24          1           0        0.719610    3.730265   -0.918420
     25          1           0        0.722949    3.739897    0.882321
     26          1           0       -1.991843   -1.626243    0.009114
     27          1           0       -2.665803    1.401907    0.037942
     28          1           0       -5.957971    0.483731   -0.140014
     29          1           0       -5.307333   -1.626350    0.138165
 ---------------------------------------------------------------------
                    Distance matrix (angstroms):
                    1          2          3          4          5
     1  C    0.000000
     2  C    1.417765   0.000000
     3  C    2.407480   1.384562   0.000000
     4  C    2.796583   2.445673   1.422527   0.000000
     5  C    2.432346   2.847383   2.460984   1.421615   0.000000
     6  C    1.422943   2.468026   2.802072   2.414171   1.376484
     7  O    1.322108   2.359653   3.607609   4.118687   3.634989
     8  O    2.325108   1.339629   2.434201   3.712656   4.181292
     9  C    3.645717   2.376554   2.850014   4.271557   5.097614
    10  O    2.303722   3.628212   4.143188   3.701771   2.442085
    11  C    3.639706   4.853847   5.093154   4.294922   2.876692
    12  C    4.206316   3.705659   2.423765   1.411003   2.484217
    13  C    5.202219   4.948137   3.754541   2.512706   3.023786
    14  C    6.523324   6.129311   4.836977   3.761250   4.406650
    15  O    7.501138   7.264929   6.030297   4.836657   5.215022
    16  O    6.993976   6.342020   4.969735   4.207988   5.166512
    17  H    3.397515   2.142887   1.083867   2.164330   3.434876
    18  H    3.415237   3.929610   3.445646   2.181352   1.082234
    19  H    1.880848   3.174427   4.287973   4.533360   3.752156
    20  H    4.334618   3.241624   3.909192   5.323998   6.057644
    21  H    4.021201   2.706811   2.849097   4.208762   5.164687
    22  H    4.021760   2.707192   2.849298   4.209285   5.164336
    23  H    4.316443   5.640545   6.042096   5.342265   3.934295
    24  H    4.018815   5.100931   5.169305   4.239137   2.873190
    25  H    4.018207   5.100573   5.168823   4.238033   2.873170
    26  H    4.755466   3.947509   2.563971   2.127408   3.432464
    27  H    5.207522   5.247552   4.239740   2.846029   2.816085
    28  H    8.364289   8.050057   6.770835   5.651393   6.118332
    29  H    7.921513   7.250401   5.872560   5.135030   6.071897
                    6          7          8          9         10
     6  C    0.000000
     7  O    2.383674   0.000000
     8  O    3.644279   2.621475   0.000000
     9  C    4.842260   4.045368   1.424676   0.000000
    10  O    1.351179   2.608021   4.624402   5.942884   0.000000
    11  C    2.394074   4.032875   5.959528   7.219051   1.427412
    12  C    3.722435   5.528213   4.857530   5.113173   4.919647
    13  C    4.396527   6.505825   6.169573   6.498623   5.374550
    14  C    5.776710   7.838037   7.269740   7.402737   6.754745
    15  O    6.585071   8.790241   8.460984   8.675104   7.394798
    16  O    6.481114   8.313339   7.324728   7.201101   7.595888
    17  H    3.885596   4.495952   2.729145   2.563144   5.226905
    18  H    2.135990   4.515679   5.263085   6.161149   2.738667
    19  H    2.382637   0.973105   3.586765   5.011440   2.073095
    20  H    5.646318   4.436408   2.011589   1.089253   6.628173
    21  H    5.080314   4.566704   2.086717   1.096776   6.244659
    22  H    5.080540   4.567328   2.086750   1.096774   6.244666
    23  H    3.260063   4.407671   6.628906   7.959229   2.017056
    24  H    2.716659   4.557084   6.266330   7.451847   2.083348
    25  H    2.715962   4.556653   6.266290   7.451751   2.083307
    26  H    4.541555   6.050010   4.893692   4.837105   5.815711
    27  H    4.157027   6.447555   6.548023   7.077640   4.909458
    28  H    7.492221   9.664150   9.203860   9.318570   8.325453
    29  H    7.397561   9.240731   8.201750   8.007374   8.492452
                   11         12         13         14         15
    11  C    0.000000
    12  C    5.246645   0.000000
    13  C    5.330030   1.391068   0.000000
    14  C    6.643446   2.424703   1.385350   0.000000
    15  O    7.038376   3.609522   2.325451   1.322165   0.000000
    16  O    7.669407   2.801523   2.359132   1.324795   2.299459
    17  H    6.156643   2.615973   4.005559   4.841558   6.122241
    18  H    2.596239   2.744033   2.746351   4.091347   4.657357
    19  H    3.424168   5.932095   6.752035   8.121937   8.965982
    20  H    7.971050   6.201355   7.585558   8.488878   9.763591
    21  H    7.448318   4.886069   6.257448   7.073643   8.343809
    22  H    7.448254   4.886123   6.259674   7.069422   8.364841
    23  H    1.089141   6.332057   6.405750   7.704283   8.040943
    24  H    1.095854   5.036819   4.984205   6.239898   6.576581
    25  H    1.095856   5.036046   4.980536   6.243808   6.548863
    26  H    6.267324   1.088783   2.114565   2.612512   3.923470
    27  H    4.611559   2.178477   1.082845   2.092143   2.486078
    28  H    7.971254   4.353706   3.165411   1.938758   0.968511
    29  H    8.509605   3.727080   3.180886   1.936970   2.434338
                   16         17         18         19         20
    16  O    0.000000
    17  H    4.681569   0.000000
    18  H    5.075494   4.332692   0.000000
    19  H    8.729380   5.258697   4.458500   0.000000
    20  H    8.258407   3.647559   7.134096   5.404982   0.000000
    21  H    6.810552   2.370669   6.186314   5.501355   1.784537
    22  H    6.768115   2.370535   6.185216   5.501789   1.784527
    23  H    8.750261   7.119636   3.681397   3.616340   8.624013
    24  H    7.289673   6.189584   2.402115   4.040731   8.256586
    25  H    7.328311   6.189248   2.403993   4.040430   8.256580
    26  H    2.434024   2.280982   3.815997   6.583734   5.914517
    27  H    3.296693   4.711719   2.171372   6.536874   8.147002
    28  H    2.430582   6.755916   5.589361   9.869463  10.401390
    29  H    0.968198   5.524823   5.924887   9.655855   9.047737
                   21         22         23         24         25
    21  H    0.000000
    22  H    1.799592   0.000000
    23  H    8.242577   8.242597   0.000000
    24  H    7.734491   7.521953   1.785573   0.000000
    25  H    7.521919   7.734209   1.785612   1.800770   0.000000
    26  H    4.508887   4.505385   7.345037   6.074905   6.076845
    27  H    6.902731   6.911844   5.651228   4.218637   4.202715
    28  H    8.971214   8.939959   8.968482   7.465654   7.502165
    29  H    7.549927   7.576732   9.583196   8.132265   8.106458
                   26         27         28         29
    26  H    0.000000
    27  H    3.102377   0.000000
    28  H    4.494931   3.422439   0.000000
    29  H    3.318001   4.019709   2.225568   0.000000
 Stoichiometry    C11H13O5(1+)
 Framework group  C1[X(C11H13O5)]
 Deg. of freedom    81
 Full point group                 C1      NOp   1
 Largest Abelian subgroup         C1      NOp   1
 Largest concise Abelian subgroup C1      NOp   1
                         Standard orientation:                         
 ---------------------------------------------------------------------
 Center     Atomic      Atomic             Coordinates (Angstroms)
 Number     Number       Type             X           Y           Z
 ---------------------------------------------------------------------
      1          6           0       -2.399340    0.203581    0.000778
      2          6           0       -1.928489   -1.133692   -0.006906
      3          6           0       -0.561090   -1.350981   -0.010955
      4          6           0        0.357697   -0.264976   -0.008044
      5          6           0       -0.127070    1.071391    0.002572
      6          6           0       -1.485398    1.294204    0.005242
      7          8           0       -3.703422    0.421122    0.004604
      8          8           0       -2.886721   -2.069850   -0.009283
      9          6           0       -2.499000   -3.440727   -0.017594
     10          8           0       -2.115077    2.489660    0.013805
     11          6           0       -1.332391    3.683344    0.018806
     12          6           0        1.734568   -0.573428   -0.011788
     13          6           0        2.801567    0.319072   -0.016960
     14          6           0        4.116058   -0.117906    0.001989
     15          8           0        5.078685    0.781555   -0.109537
     16          8           0        4.406140   -1.403393    0.137844
     17          1           0       -0.173389   -2.363118   -0.016859
     18          1           0        0.560849    1.906834    0.008319
     19          1           0       -3.866468    1.380453    0.010457
     20          1           0       -3.429628   -4.006769   -0.018544
     21          1           0       -1.924203   -3.681830   -0.920032
     22          1           0       -1.920095   -3.691631    0.879529
     23          1           0       -2.046680    4.505527    0.024559
     24          1           0       -0.708364    3.731979    0.918317
     25          1           0       -0.711675    3.741621   -0.882424
     26          1           0        1.987384   -1.632449   -0.009217
     27          1           0        2.670213    1.393713   -0.038045
     28          1           0        5.959677    0.465897    0.139911
     29          1           0        5.302860   -1.642269   -0.138268
 ---------------------------------------------------------------------
 Rotational constants (GHZ):      0.7124982      0.2743769      0.1986888
 Standard basis: 6-31+G(d,p) (6D, 7F)
 There are   369 symmetry adapted cartesian basis functions of A   symmetry.
 There are   369 symmetry adapted basis functions of A   symmetry.
   369 basis functions,   603 primitive gaussians,   369 cartesian basis functions
    59 alpha electrons       59 beta electrons
       nuclear repulsion energy      1072.9683633321 Hartrees.
 NAtoms=   29 NActive=   29 NUniq=   29 SFac= 1.00D+00 NAtFMM=   60 NAOKFM=F Big=F
 Integral buffers will be    131072 words long.
 Raffenetti 2 integral format.
 Two-electron integral symmetry is turned on.
 Nuclear repulsion after empirical dispersion term =     1072.9417670350 Hartrees.
 One-electron integrals computed using PRISM.
 NBasis=   369 RedAO= T EigKep=  1.44D-06  NBF=   369
 NBsUse=   367 1.00D-06 EigRej=  7.82D-07 NBFU=   367
 Initial guess from the checkpoint file:  "B3PW91D3SAYang.chk"
 B after Tr=     0.000000    0.000000    0.000000
         Rot=    0.999999    0.000023    0.000024    0.001336 Ang=   0.15 deg.
 ExpMin= 4.38D-02 ExpMax= 5.48D+03 ExpMxC= 8.25D+02 IAcc=2 IRadAn=         4 AccDes= 0.00D+00
 Harris functional with IExCor=  408 and IRadAn=       4 diagonalized for initial guess.
 HarFok:  IExCor=  408 AccDes= 0.00D+00 IRadAn=         4 IDoV= 1 UseB2=F ITyADJ=14
 ICtDFT=  3500011 ScaDFX=  1.000000  1.000000  1.000000  1.000000
 FoFCou: FMM=F IPFlag=           0 FMFlag=      100000 FMFlg1=           0
         NFxFlg=           0 DoJE=T BraDBF=F KetDBF=T FulRan=T
         wScrn=  0.000000 ICntrl=     500 IOpCl=  0 I1Cent=   200000004 NGrid=           0
         NMat0=    1 NMatS0=      1 NMatT0=    0 NMatD0=    1 NMtDS0=    0 NMtDT0=    0
 Petite list used in FoFCou.
 Requested convergence on RMS density matrix=1.00D-08 within 128 cycles.
 Requested convergence on MAX density matrix=1.00D-06.
[...]
 000254,-0.00003622,0.00000870,0.00000270,-0.00003882,-0.00003437,-0.00
 000692,0.00003017,-0.00002371,0.00000015,0.00053570,-0.00033215,0.0000
 0345,-0.00003027,0.00018639,-0.00000068,0.00000623,0.00001083,-0.00000
 002,-0.00000352,0.00000213,-0.00000122,-0.00000349,0.00000210,0.000001
 24,0.19050760,-0.00128879,-0.00128688,0.00001175,0.00036541,0.00007698
 ,0.00000090,0.00002578,-0.00000733,-0.00000234,-0.00049885,-0.00001175
 ,0.00000575,0.00082474,0.00016173,0.00000030,0.00422866,-0.00166780,-0
 .00000867,0.00022260,0.00022864,-0.00000332,0.00001467,-0.00029633,0.0
 0000127,0.00005145,0.00005878,-0.00000055,-0.01446476,-0.03432192,0.00
 022141,-0.13814030,-0.19696569,0.00100494,0.00032194,-0.00015247,-0.00
 000266,-0.00026690,0.00001263,-0.00000395,0.00030343,0.00009067,-0.000
 00059,-0.00017014,0.00008782,0.00002352,-0.00006436,-0.00011128,-0.000
 02022,-0.00002296,0.00001197,-0.00000008,-0.00020139,0.00018993,-0.000
 00435,-0.00011039,-0.00022406,0.00000264,-0.00000317,-0.00001959,0.000
 00006,-0.00000905,-0.00000724,-0.00000012,-0.00000905,-0.00000730,0.00
 000025,0.14699181,0.22700179,0.00000606,0.00000609,0.00030988,-0.00000
 053,0.00000005,-0.00004066,-0.00000167,0.00000094,-0.00000172,0.000003
 43,-0.00000101,0.00012952,-0.00000367,0.00000120,0.00024333,-0.0000188
 3,0.00000923,0.00048772,-0.00000201,-0.00000156,-0.00012699,-0.0000001
 4,0.00000125,-0.00002740,-0.00000013,-0.00000019,-0.00000465,0.0000522
 8,0.00013344,0.00002637,0.00096918,0.00103512,-0.05063653,-0.00000177,
 0.00000173,0.00003832,0.00000076,-0.00000131,0.00001193,-0.00000078,-0
 .00000067,0.00000162,0.00000085,-0.00000076,0.00000174,-0.00000025,0.0
 0000051,-0.00000248,0.00000009,-0.00000022,-0.00002006,0.00000153,-0.0
 0000133,-0.00048446,0.00000095,0.00000235,0.00019796,0.00000003,0.0000
 0014,0.00000307,0.00000242,0.00000101,-0.00000054,-0.00000232,-0.00000
 098,-0.00000059,-0.00102539,-0.00120528,0.04651475,-0.00020781,0.00066
 914,0.00004560,0.00005276,-0.00025798,0.00005430,0.00007019,0.00027419
 ,-0.00000730,0.00020544,-0.00015846,-0.00031047,0.00025492,0.00052096,
 0.00025542,-0.00063058,-0.00355081,0.00040417,0.00004388,0.00030170,0.
 00013300,-0.00006378,0.00021741,-0.00000408,-0.00002446,-0.00009293,-0
 .00001468,-0.01545985,0.01374107,-0.01337407,-0.12974504,0.00022911,-0
 .11920841,-0.00032704,0.00020723,0.00003225,0.00035963,-0.00003327,-0.
 00001625,-0.00047633,-0.00013408,-0.00001298,0.00025681,-0.00011901,-0
 .00003306,0.00012842,0.00019614,0.00003940,0.00001352,0.00000022,0.000
 01932,-0.00006190,-0.00062566,0.00058313,0.00056797,-0.00044871,-0.000
 27479,-0.00000584,0.00000927,-0.00000235,0.00001257,0.00001181,0.00000
 599,0.00001386,0.00000830,-0.00000493,-0.00925242,0.00083949,-0.017852
 79,0.14258264,0.00119334,-0.00109182,-0.00065201,0.00043094,0.00037715
 ,-0.00013816,-0.00030416,0.00021473,-0.00005182,-0.00044639,-0.0003586
 0,-0.00037864,-0.00096542,0.00030697,-0.00014951,0.00360288,0.00549697
 ,0.00209641,-0.00067195,-0.00064777,-0.00003117,0.00001190,-0.00012404
 ,0.00003282,0.00000063,0.00002662,0.00004125,0.02521685,-0.01628460,0.
 02539205,-0.00337064,-0.04966464,-0.00185533,0.00032790,-0.00017857,0.
 00000490,-0.00019450,0.00002162,-0.00001936,0.00020288,0.00010358,0.00
 000129,-0.00012128,0.00006274,0.00002374,-0.00003610,-0.00009883,-0.00
 001931,-0.00002375,0.00000809,0.00003481,-0.00073792,-0.00130006,0.001
 39376,-0.00062256,0.00051765,0.00024368,-0.00000160,-0.00000350,0.0000
 0073,-0.00000156,-0.00002133,-0.00000085,-0.00000146,-0.00000468,-0.00
 000492,-0.01157058,0.00346910,-0.02004671,-0.01007143,0.05769798,-0.00
 010052,0.00053152,-0.00022792,-0.00022891,-0.00008197,-0.00003117,0.00
 010203,-0.00004630,-0.00003305,0.00049070,-0.00017104,-0.00013725,-0.0
 0094815,0.00053646,-0.00015735,-0.00051476,-0.00118027,0.00060169,0.00
 026447,-0.00007366,0.00003536,0.00011442,-0.00007780,0.00001274,0.0000
 1035,0.00003347,0.00000211,0.00119524,0.00444244,0.00705325,-0.1222502
 8,0.00296770,-0.23652447,-0.00014132,0.00012925,0.00002588,0.00006561,
 0.00004681,0.00000279,-0.00001590,0.00001015,0.00000691,0.00003201,-0.
 00004572,0.00000264,-0.00003139,-0.00003378,-0.00000211,0.00003815,-0.
 00003973,0.00000296,0.00074644,0.00041237,-0.00011738,0.00004392,-0.00
 009354,-0.00000765,0.00000210,-0.00000046,-0.00000039,-0.00000687,-0.0
 0000351,-0.00000115,-0.00000758,0.00000175,0.00000148,0.00231242,-0.00
 011052,0.00184131,0.13418780,-0.00645768,0.24610048,-0.00020597,0.0006
 6445,-0.00005873,0.00005271,-0.00025931,-0.00004893,0.00007200,0.00027
 507,0.00000075,0.00019894,-0.00015289,0.00031498,0.00025331,0.00051946
 ,-0.00026249,-0.00061780,-0.00355068,-0.00035778,0.00004103,0.00029937
 ,-0.00013698,-0.00006359,0.00021728,0.00000291,-0.00002455,-0.00009258
 ,0.00001566,-0.01542519,0.01385678,0.01332135,-0.12885819,0.00144837,0
 .11880015,-0.00032411,0.00020501,-0.00003528,0.00035785,-0.00003541,0.
 00002104,-0.00047307,-0.00013136,0.00000503,0.00025735,-0.00011999,-0.
 00003256,0.00012611,0.00019359,0.00003131,0.00001347,0.00000045,-0.000
 01950,-0.00006424,-0.00062979,-0.00057868,0.00056854,-0.00044477,0.000
 27886,-0.00000584,0.00000925,0.00000227,0.00001392,0.00000823,0.000004
 72,0.00001255,0.00001173,-0.00000612,-0.00918700,0.00102906,0.01787309
 ,0.01178610,-0.00186755,-0.01541291,0.14159055,0.00120179,-0.00108628,
 0.00066105,0.00043363,0.00038150,0.00012921,-0.00030665,0.00021810,0.0
 0004692,-0.00045339,-0.00035976,0.00038477,-0.00095537,0.00031024,0.00
 014035,0.00359236,0.00550174,-0.00216700,-0.00067638,-0.00064740,0.000
 04085,0.00001205,-0.00012396,-0.00003176,0.00000045,0.00002614,-0.0000
 4124,0.02511005,-0.01660127,-0.02522603,-0.00211143,-0.04971886,-0.000
 06948,0.00033402,-0.00018292,-0.00000184,-0.00019345,0.00002395,0.0000
 0948,0.00020236,0.00010131,-0.00000373,-0.00011930,0.00006235,0.000017
 09,-0.00003734,-0.00009711,-0.00001052,-0.00002414,0.00000834,-0.00003
 460,-0.00073533,-0.00132486,-0.00138083,-0.00062322,0.00051539,-0.0002
 4752,-0.00000164,-0.00000351,-0.00000062,-0.00000131,-0.00000479,0.000
 00504,-0.00000160,-0.00002130,0.00000101,-0.01151323,0.00367895,0.0200
 6625,-0.00171329,0.00144386,-0.00071350,-0.01143457,0.05786835,0.00008
 781,-0.00052834,-0.00023106,0.00022525,0.00007951,-0.00003386,-0.00010
 123,0.00004180,-0.00003749,-0.00048215,0.00017480,-0.00013536,0.000953
 54,-0.00054836,-0.00016102,0.00047390,0.00114025,0.00061909,-0.0002572
 2,0.00008009,0.00003522,-0.00011450,0.00007834,0.00001291,-0.00001029,
 -0.00003330,0.00000312,-0.00137066,-0.00423436,0.00731020,0.12188279,-
 0.00491385,-0.23738369,0.00013784,-0.00012639,0.00002609,-0.00006660,-
 0.00004990,-0.00000727,0.00001715,-0.00001487,-0.00001017,-0.00003577,
 0.00004313,0.00001580,0.00003503,0.00003547,0.00000298,-0.00003773,0.0
 0003924,0.00000312,-0.00073314,-0.00039457,-0.00010258,-0.00003934,0.0
 0008993,-0.00000694,-0.00000205,0.00000049,-0.00000043,0.00000755,-0.0
 0000177,0.00000151,0.00000686,0.00000356,-0.00000128,-0.00215802,0.000
 08703,0.00158209,0.01532294,0.00051499,-0.01839914,-0.13368731,0.00845
 114,0.24693747,-0.00003317,-0.00028775,-0.00000623,0.00024660,0.000603
 07,-0.00002087,-0.00009678,-0.00231299,0.00006369,-0.00514577,-0.02980
 726,-0.00012966,-0.00530551,0.00087460,-0.00005551,0.00038771,-0.00162
 115,0.00000951,0.00013400,0.00023019,0.00000600,0.00005046,0.00004612,
 -0.00000363,-0.00004902,-0.00009670,0.00000271,-0.00060185,-0.00000384
 ,0.00001396,-0.00004197,0.00010875,-0.00000013,-0.07269795,-0.06319339
 ,-0.00009595,0.00795412,0.02515581,0.00022592,0.00071586,0.00384512,0.
 00013575,0.00033744,-0.00072395,-0.00006950,-0.00330479,-0.00128528,-0
 .00068817,-0.00116348,0.00115931,-0.00000775,0.00012109,0.00004379,-0.
 00000325,0.00005772,-0.00007885,0.00000175,0.00003230,0.00002553,-0.00
 000004,-0.00000679,0.00000367,-0.00005478,-0.00000682,0.00000742,0.000
 05466,0.00000285,-0.00000690,0.00000023,0.00000658,0.00000599,-0.00000
 473,0.00000681,0.00000553,0.00000390,0.08189544,-0.00027117,-0.0000801
 8,-0.00001180,0.00026363,0.00054621,0.00000376,0.00205273,0.00157677,0
 .00007109,-0.00004703,-0.00477201,-0.00010166,-0.00067238,0.00100186,-
 0.00011688,0.00045515,-0.00051928,0.00002346,0.00018119,0.00011055,0.0
 0000037,0.00001674,-0.00014190,-0.00000675,-0.00000662,0.00004374,0.00
 000156,-0.00013828,0.00012259,0.00001398,0.00002407,-0.00002246,-0.000
 00148,-0.06340711,-0.32390706,-0.00073253,-0.00491378,-0.01762377,-0.0
 0026209,-0.00069064,-0.00222224,-0.00019332,0.00016922,0.00023475,0.00
 002308,-0.00093841,0.00148027,0.00012151,-0.00018423,0.00046964,-0.000
 00684,0.00010899,0.00009545,-0.00000417,0.00001539,-0.00004919,-0.0000
 0017,-0.00000367,-0.00000637,-0.00000030,0.00000242,-0.00000715,0.0000
 1526,0.00000370,-0.00000801,-0.00001536,-0.00000927,0.00000468,0.00000
 030,0.00000483,0.00001065,-0.00001801,0.00000560,0.00001197,0.00001783
 ,0.06561471,0.34319554,-0.00004366,0.00001539,0.00050831,0.00000592,0.
 00002810,0.00038693,-0.00003864,0.00000882,-0.00387486,0.00025659,0.00
 016705,0.00675977,0.00000007,-0.00000266,0.00567854,0.00005638,-0.0000
 3157,0.00008941,0.00004249,0.00001106,-0.00016348,0.00000619,-0.000014
 45,0.00022335,0.00000307,0.00000804,0.00002257,0.00000096,0.00001726,-
 0.00097109,0.00000605,-0.00000701,0.00010318,-0.00048769,-0.00079533,-
 0.04543545,0.00058843,-0.00017276,0.00696486,-0.00018876,-0.00039475,-
 0.00433094,0.00036567,0.00010219,0.00001978,-0.00088396,0.00052068,0.0
 0047175,-0.00001088,0.00000304,0.00037668,-0.00000222,-0.00000701,-0.0
 0000999,-0.00000251,-0.00000702,-0.00003456,0.00000077,-0.00000042,-0.
 00001029,0.00000421,0.00002156,-0.00002300,-0.00000693,-0.00002239,-0.
 00002199,0.00000007,0.00000089,-0.00001385,0.00001324,0.00001409,0.000
 00317,-0.00001483,-0.00001314,0.00000310,0.00028941,0.00111062,0.02658
 647,0.00029452,0.00033095,0.00001542,-0.00052749,-0.00050709,-0.000001
 74,0.00062335,-0.00034657,-0.00001898,-0.00046934,-0.00083435,0.000072
 15,-0.00110772,0.00128669,-0.00002307,-0.00015671,-0.00041175,0.000015
 68,-0.00016959,-0.00017969,-0.00001043,0.00014616,-0.00014125,0.000001
 41,0.00003834,0.00009678,-0.00000066,0.00012524,0.00005527,-0.00000034
 ,-0.00003253,0.00006555,0.00000073,0.01072206,0.02477932,0.00049978,-0
 .06245773,-0.03458544,-0.00112734,-0.00006938,-0.03132809,-0.00108026,
 -0.00062957,0.00003220,0.00011470,-0.00650182,-0.00146486,0.00100735,0
 .00013787,-0.00015284,-0.00000137,-0.00215058,-0.00112156,0.00009278,-
 0.00006318,0.00006742,0.00000105,-0.00000058,-0.00000606,0.00000021,-0
 .00001055,0.00000127,0.00001005,-0.00001065,0.00000078,-0.00000998,0.0
 0003985,-0.00001322,-0.00000102,-0.00001244,-0.00002090,0.00005381,-0.
 00001461,-0.00002565,-0.00005533,-0.00361774,0.00248096,-0.00008783,0.
 06573885,-0.00007247,-0.00014857,0.00000695,0.00011381,0.00004237,0.00
 000701,0.00002260,-0.00006042,0.00000789,-0.00116887,-0.00024585,0.000
 09168,-0.00048905,0.00018704,0.00000359,0.00013457,0.00050705,0.000009
 04,-0.00008126,0.00003379,-0.00000810,-0.00001282,0.00005657,-0.000001
 46,-0.00001719,-0.00003869,-0.00000074,0.00003042,-0.00020183,0.000000
 79,-0.00005812,0.00011151,0.00000167,-0.00228638,-0.01445600,-0.000289
 00,-0.04234396,-0.34667334,-0.00696619,0.00124127,-0.00843288,-0.00041
 033,0.00130027,0.00044848,0.00016956,-0.00073553,0.00143688,0.00050650
 ,-0.00003508,0.00010055,-0.00000307,-0.00074657,0.00086051,-0.00000654
 ,0.00001482,0.00001383,0.00000108,0.00000170,0.00000399,-0.00000004,0.
 00000199,0.,-0.00000718,0.00000184,0.00000032,0.00000738,0.00000176,-0
 .00000709,-0.00000065,-0.00000413,0.00000416,0.00002620,-0.00000500,0.
 00000325,-0.00002814,0.00214313,-0.00000254,-0.00015567,0.04292288,0.3
 6627620,-0.00007425,-0.00003306,-0.00031262,0.00005399,0.00006761,-0.0
 0008583,-0.00011009,0.00005628,-0.00006244,0.00023671,0.00008054,-0.00
 329119,-0.00002543,-0.00009779,-0.00033842,0.00003161,-0.00001371,-0.0
 0040129,0.00004504,0.00002147,0.00023772,0.00000115,-0.00001801,0.0000
 3939,0.00000085,0.00000637,0.00002610,-0.00000399,0.00002436,0.0000565
 9,0.00000899,-0.00001124,0.00019088,-0.00050899,0.00005765,0.00237774,
 -0.00038569,-0.00685636,-0.03183070,-0.00070958,-0.00100123,-0.0001248
 2,0.00060820,-0.00001051,-0.00234851,-0.00028542,0.00094850,0.00481715
 ,-0.00000183,0.00000087,0.00011611,0.00009097,0.00003221,0.00124392,-0
 .00000009,-0.00000952,0.00001181,-0.00000013,-0.00000086,-0.00000079,0
 .00000163,-0.00000167,-0.00000433,-0.00000202,-0.00000123,-0.00000527,
 -0.00000149,0.00000143,-0.00003010,0.00002109,0.00001444,-0.00004290,-
 0.00001949,-0.00001186,-0.00003467,0.00009734,0.00010497,0.00659338,0.
 00132316,0.00744563,0.02248299,-0.00163492,-0.00025623,0.00001340,0.00
 018399,0.00146536,-0.00001384,-0.00097404,0.00047370,-0.00010590,0.002
 11762,0.00080089,0.00001784,-0.00056825,-0.00079882,0.00003902,0.00065
 220,-0.00127449,0.00001381,0.00143657,0.00044376,-0.00001020,0.0003648
 4,-0.00076618,0.00002133,0.00006971,0.00035054,-0.00000625,0.00010965,
 0.00087893,-0.00000412,0.00019467,-0.00034848,-0.00000379,-0.00416599,
 0.00047285,0.00067676,0.00454785,0.00396557,-0.00067810,-0.03746550,-0
 .01365686,-0.00679727,-0.41511751,-0.12095015,-0.11320566,0.00521267,-
 0.00343554,0.00059845,-0.00004256,-0.00001275,-0.00000619,-0.00005024,
 -0.00001149,-0.00001229,-0.00010507,-0.00026193,0.00000088,0.00001657,
 -0.00002538,0.00000053,-0.00003508,-0.00003844,-0.00000098,-0.00003575
 ,-0.00003730,0.00000224,0.00001107,0.00002798,0.00000026,-0.00004852,0
 .00001954,0.00000310,-0.00004910,0.00001875,-0.00000131,-0.00012007,0.
 00006282,-0.00007876,0.00041204,0.00005577,-0.00023046,0.44359142,-0.0
 0017115,-0.00003577,0.00001310,0.00003992,0.00018217,-0.00001768,-0.00
 011164,0.00011042,0.00006523,0.00038427,-0.00013647,0.00030879,-0.0001
 5801,-0.00016750,-0.00001064,0.00014478,-0.00008897,-0.00001289,0.0001
 3969,0.00003753,0.00000046,0.00003924,-0.00012158,-0.00001643,0.000025
 35,0.00007202,0.00000253,-0.00001084,-0.00000192,-0.00000479,-0.000004
 63,0.00000319,-0.00000864,0.00022749,0.00103359,-0.00075474,0.00226560
 ,-0.00324836,-0.00121576,0.03596616,0.00896228,0.00988788,-0.16911582,
 -0.09357508,-0.05724112,-0.00137378,-0.00007019,-0.00103079,0.00001383
 ,-0.00001676,0.00000876,0.00001212,0.00002350,-0.00000270,-0.00000528,
 -0.00002126,-0.00000281,-0.00000018,-0.00000541,-0.00000058,-0.0000034
 1,-0.00000504,0.00000784,-0.00000250,-0.00000654,-0.00000724,-0.000004
 36,0.00000163,0.00000042,0.00000011,0.00000597,0.00000166,0.00000102,0
 .00000587,0.00000161,0.00003805,-0.00000483,-0.00010289,0.00017842,0.0
 0022840,0.00006377,0.13037987,0.09033688,0.00057322,0.00009361,-0.0000
 0305,-0.00012230,-0.00052689,0.00007674,0.00040986,-0.00018809,-0.0003
 7339,-0.00080843,-0.00027953,-0.00059901,0.00028760,0.00034056,0.00011
 376,-0.00028436,0.00041375,0.00001314,-0.00047832,-0.00014818,-0.00002
 140,-0.00010113,0.00026136,0.00004994,-0.00002718,-0.00012171,0.000013
 11,-0.00001075,-0.00025001,-0.00000202,-0.00005651,0.00010148,0.000029
 49,0.00214303,-0.00055979,0.00250227,-0.00072905,-0.00106686,0.0029924
 1,0.01002101,0.00098073,-0.00340984,-0.13083281,-0.04815340,-0.0410081
 1,0.00023226,-0.00091634,-0.00324009,0.00000244,0.00001383,-0.00002169
 ,0.00000295,-0.00001901,-0.00001255,0.00002792,0.00008943,0.00001265,-
 0.00000334,0.00000966,0.00000225,0.00001226,0.00001441,-0.00000762,0.0
 0000652,0.00001346,0.00000058,-0.00000065,-0.00000919,0.00000097,0.000
 01196,-0.00000885,-0.00000175,0.00001241,-0.00000833,-0.00000744,-0.00
 006468,0.00000780,0.00011845,-0.00004588,-0.00005194,-0.00091698,0.120
 26062,0.04835510,0.04166420,-0.00136660,-0.00025483,0.00001418,0.00016
 362,0.00122276,-0.00001470,-0.00074258,0.00045394,0.00000836,0.0018168
 5,0.00025935,-0.00009985,-0.00055339,-0.00069069,-0.00010727,0.0005434
 2,-0.00103696,0.00002734,0.00119990,0.00037489,-0.00000821,0.00031998,
 -0.00065445,-0.00000522,0.00005937,0.00030481,0.00000875,0.00007610,0.
 00070484,0.00000301,0.00015739,-0.00028080,0.00000162,-0.00277715,0.00
 144821,0.00019574,0.00677431,-0.00108576,0.00143687,-0.01309216,-0.003
 14649,-0.00007015,0.00127609,0.00449895,0.00008651,-0.43986019,-0.1192
 7904,0.13887787,-0.00003449,-0.00001399,0.00001205,-0.00004030,0.00001
 364,-0.00000376,-0.00008504,-0.00021833,0.00000387,0.00001437,-0.00002
 192,-0.00000085,-0.00003131,-0.00003145,-0.00000213,-0.00003084,-0.000
 03269,-0.00000061,0.00000696,0.00002319,0.00000015,-0.00003928,0.00001
 691,0.00000078,-0.00003799,0.00001632,-0.00000191,0.00024273,-0.000179
 55,0.00020715,-0.00027608,0.00006961,-0.00016177,0.00149174,0.00110569
 ,-0.00043867,0.44482456,-0.00078243,-0.00010417,0.00006447,-0.00000657
 ,0.00069874,-0.00002861,-0.00033364,0.00028109,-0.00002783,0.00081191,
 0.00042742,0.00030704,-0.00016494,-0.00038574,-0.00005303,0.00032912,-
 0.00050629,-0.00000941,0.00067623,0.00019493,-0.00002565,0.00023162,-0
 .00049789,0.00000398,0.00006792,0.00025615,-0.00000571,0.00008258,0.00
 035059,-0.00000436,0.00005757,-0.00012756,-0.00000122,-0.00045374,0.00
 043252,0.00023203,0.00367279,-0.00546364,-0.00073624,-0.05017470,-0.01
 686430,0.01300860,0.00241803,0.00363089,-0.00119803,-0.07346735,-0.059
 63009,0.01884100,-0.00003016,0.00001495,-0.00001394,-0.00002454,0.0000
 1703,-0.00003181,-0.00005793,-0.00010883,0.00000161,0.00001077,-0.0000
 1560,0.00000052,-0.00002164,-0.00001786,0.00001146,-0.00002172,-0.0000
 1765,-0.00000785,0.00000322,0.00001144,0.00000065,-0.00002126,0.000010
 59,0.00000770,-0.00002080,0.00001069,-0.00000536,-0.00049270,0.0004623
 0,-0.00030176,-0.00115918,-0.00004770,-0.00085904,0.00245771,-0.003497
 76,0.00161295,0.11641384,0.08048576,-0.00054396,-0.00013736,-0.0000077
 9,0.00011089,0.00053401,-0.00002054,-0.00036444,0.00019312,-0.00009893
 ,0.00081605,0.00009505,0.00012683,-0.00028100,-0.00034559,0.00013111,0
 .00022457,-0.00041052,-0.00009838,0.00047841,0.00015809,0.00002418,0.0
 0010734,-0.00025360,-0.00001560,0.00002488,0.00011594,0.00004053,0.000
 00575,0.00027081,-0.00003551,0.00007205,-0.00011670,0.00003897,-0.0015
 3014,0.00086684,-0.00065323,0.00224137,-0.00279234,0.00207655,-0.01020
 082,-0.00606915,-0.00285111,0.00014858,-0.00090512,-0.00303352,0.14966
 833,0.03834827,-0.04975216,-0.00000549,-0.00001051,0.00004209,0.000001
 72,0.00003146,0.00010117,-0.00002573,-0.00009128,0.00000596,0.00000471
 ,-0.00000892,-0.00000023,-0.00000861,-0.00001401,-0.00000504,-0.000012
 51,-0.00001262,-0.00000885,0.00000074,0.00000969,-0.00000054,-0.000013
 48,0.00000536,-0.00000911,-0.00001293,0.00000885,-0.00000029,0.0003000
 6,-0.00004426,-0.00002021,-0.00074405,-0.00035591,0.00163706,-0.000493
 12,0.00171255,0.00203498,-0.13996914,-0.03078214,0.05035161\\-0.000014
 15,0.00002352,0.,-0.00001197,0.00000400,0.00000027,-0.00000511,-0.0000
 0651,0.00000022,0.00002653,0.00001571,0.00000081,-0.00002532,-0.000023
 99,-0.00000032,0.00004398,-0.00000342,0.00000138,0.00000848,-0.0000079
 9,0.00000032,-0.00000011,-0.00001955,0.00000041,0.00000526,0.00000844,
 -0.00000063,-0.00002382,0.00001363,-0.00000164,0.00002088,-0.00002585,
 0.00000133,-0.00002923,0.00001123,-0.00000088,0.00003205,-0.00000122,0
 .00000463,-0.00003722,-0.00000602,0.00001049,0.00001981,-0.00000725,-0
 .00001610,0.00000198,0.00002527,-0.00001267,-0.00000106,0.00000166,-0.
 00000012,0.00000591,0.00000804,-0.00000109,-0.00000537,-0.00000980,0.0
 0000019,-0.00000479,-0.00000526,-0.00000053,-0.00000341,-0.00000325,-0
 .00000107,-0.00000343,-0.00000311,0.00000025,0.00000337,-0.00000016,0.
 00000078,0.00000137,0.00000054,0.00000127,0.00000101,0.00000009,-0.000
 00038,0.00000043,0.00000130,-0.00000129,-0.00000301,0.00000356,0.00000
 065,-0.00000160,0.00000337,0.00000752,-0.00000146,0.00000303,0.0000062
 2\\\@


 IF YOU GIVE EVERYONE A PIECE OF YOUR MIND,
 PRETTY SOON IT WILL BE ALL GONE.
 Job cpu time:       0 days  2 hours 14 minutes 41.2 seconds.
 File lengths (MBytes):  RWF=    392 Int=      0 D2E=      0 Chk=     11 Scr=      1
 Normal termination of Gaussian 09 at Tue Dec 17 23:37:01 2024.
