 Entering Gaussian System, Link 0=g09
 Input=ccpvTZSAYang.gjf
 Output=ccpvTZSAYang.log
 Initial command:
 /home/phzd/g09E/g09/l1.exe "/home/phzd/g09E/scratch/Gau-1527446.inp" -scrdir="/home/phzd/g09E/scratch/"
 Default is to use a total of  18 processors:
                               18 via shared-memory
                                1 via Linda
 Entering Link 1 = /home/phzd/g09E/g09/l1.exe PID=   1527448.
  
 Copyright (c) 1988,1990,1992,1993,1995,1998,2003,2009,2015,
            Gaussian, Inc.  All Rights Reserved.
  
 This is part of the Gaussian(R) 09 program.  It is based on
 the Gaussian(R) 03 system (copyright 2003, Gaussian, Inc.),
 the Gaussian(R) 98 system (copyright 1998, Gaussian, Inc.),
 the Gaussian(R) 94 system (copyright 1995, Gaussian, Inc.),
 the Gaussian 92(TM) system (copyright 1992, Gaussian, Inc.),
 the Gaussian 90(TM) system (copyright 1990, Gaussian, Inc.),
 the Gaussian 88(TM) system (copyright 1988, Gaussian, Inc.),
 the Gaussian 86(TM) system (copyright 1986, Carnegie Mellon
 University), and the Gaussian 82(TM) system (copyright 1983,
 Carnegie Mellon University). Gaussian is a federally registered
 trademark of Gaussian, Inc.
  
 This software contains proprietary and confidential information,
 including trade secrets, belonging to Gaussian, Inc.
  
 This software is provided under written license and may be
 used, copied, transmitted, or stored only in accord with that
 written license.
  
 The following legend is applicable only to US Government
 contracts under FAR:
  
                    RESTRICTED RIGHTS LEGEND
  
 Use, reproduction and disclosure by the US Government is
 subject to restrictions as set forth in subparagraphs (a)
 and (c) of the Commercial Computer Software - Restricted
 Rights clause in FAR 52.227-19.
  
 Gaussian, Inc.
 340 Quinnipiac St., Bldg. 40, Wallingford CT 06492
  
  
 ---------------------------------------------------------------
 Warning -- This program may not be used in any manner that
 competes with the business of Gaussian, Inc. or will provide
 assistance to any competitor of Gaussian, Inc.  The licensee
 of this program is prohibited from giving any competitor of
 Gaussian, Inc. access to this program.  By using this program,
 the user acknowledges that Gaussian, Inc. is engaged in the
 business of creating and licensing software in the field of
 computational chemistry and represents and warrants to the
 licensee that it is not a competitor of Gaussian, Inc. and that
 it will not use this program in any manner prohibited above.
 ---------------------------------------------------------------
  

 Cite this work as:
 Gaussian 09, Revision E.01,
 M. J. Frisch, G. W. Trucks, H. B. Schlegel, G. E. Scuseria, 
 M. A. Robb, J. R. Cheeseman, G. Scalmani, V. Barone, B. Mennucci, 
 G. A. Petersson, H. Nakatsuji, M. Caricato, X. Li, H. P. Hratchian, 
 A. F. Izmaylov, J. Bloino, G. Zheng, J. L. Sonnenberg, M. Hada, 
 M. Ehara, K. Toyota, R. Fukuda, J. Hasegawa, M. Ishida, T. Nakajima, 
 Y. Honda, O. Kitao, H. Nakai, T. Vreven, J. A. Montgomery, Jr., 
 J. E. Peralta, F. Ogliaro, M. Bearpark, J. J. Heyd, E. Brothers, 
 K. N. Kudin, V. N. Staroverov, T. Keith, R. Kobayashi, J. Normand, 
 K. Raghavachari, A. Rendell, J. C. Burant, S. S. Iyengar, J. Tomasi, 
 M. Cossi, N. Rega, J. M. Millam, M. Klene, J. E. Knox, J. B. Cross, 
 V. Bakken, C. Adamo, J. Jaramillo, R. Gomperts, R. E. Stratmann, 
 O. Yazyev, A. J. Austin, R. Cammi, C. Pomelli, J. W. Ochterski, 
 R. L. Martin, K. Morokuma, V. G. Zakrzewski, G. A. Voth, 
 P. Salvador, J. J. Dannenberg, S. Dapprich, A. D. Daniels, 
 O. Farkas, J. B. Foresman, J. V. Ortiz, J. Cioslowski, 
 and D. J. Fox, Gaussian, Inc., Wallingford CT, 2013.
 
 ******************************************
 Gaussian 09:  ES64L-G09RevE.01 30-Nov-2015
                19-Dec-2024 
 ******************************************
 %chk=ccpvTZSAYang.chk
 ------------------------
 # opt freq m062x/cc-pvtz
 ------------------------
 1/14=-1,18=20,19=15,26=3,38=1/1,3;
 2/9=110,12=2,17=6,18=5,40=1/2;
 3/5=16,6=1,11=2,16=1,25=1,30=1,71=1,74=-55/1,2,3;
 4//1;
 5/5=2,38=5/2;
 6/7=2,8=2,9=2,10=2,28=1/1;
 7//1,2,3,16;
 1/14=-1,18=20,19=15,26=3/3(2);
 2/9=110/2;
 99//99;
 2/9=110/2;
 3/5=16,6=1,11=2,16=1,25=1,30=1,71=1,74=-55/1,2,3;
 4/5=5,16=3,69=1/1;
 5/5=2,38=5/2;
 7//1,2,3,16;
 1/14=-1,18=20,19=15,26=3/3(-5);
 2/9=110/2;
 6/7=2,8=2,9=2,10=2,19=2,28=1/1;
 99/9=1/99;
 ----------
 [No Title]
 ----------
 Symbolic Z-matrix:
 Charge =  1 Multiplicity = 1
 C                     2.39747   0.20295   0.00018 
 C                     1.9272   -1.1312    0.00011 
 C                     0.56018  -1.35005  -0.00005 
 C                    -0.34928  -0.26071  -0.00008 
 C                     0.13127   1.07457  -0.00001 
 C                     1.4907    1.29546   0.00011 
 O                     3.70271   0.41266   0.0003 
 O                     2.88537  -2.06963   0.00019 
 C                     2.46518  -3.42805  -0.00034 
 O                     2.11733   2.49311   0.0002 
 C                     1.30283   3.66177  -0.0005 
 C                    -1.72953  -0.56393  -0.00011 
 C                    -2.78673   0.33468   0.00007 
 C                    -4.10077  -0.11745   0.0001 
 O                    -5.06732   0.77455   0.00021 
 O                    -4.37477  -1.4063    0. 
 H                     0.16697  -2.36348  -0.00013 
 H                    -0.55815   1.913    -0.00007 
 H                     3.87466   1.36809   0.00028 
 H                     3.38067  -4.02102  -0.00044 
 H                     1.8783   -3.65132   0.90134 
 H                     1.87852  -3.65066  -0.90233 
 H                     1.99183   4.50746  -0.00076 
 H                     0.67831   3.68858  -0.90308 
 H                     0.67798   3.68942   0.90182 
 H                    -1.98513  -1.62584  -0.00021 
 H                    -2.66021   1.41247   0.00031 
 H                    -5.96252   0.40666  -0.00014 
 H                    -5.31901  -1.61667  -0.00063 
 

 GradGradGradGradGradGradGradGradGradGradGradGradGradGradGradGradGradGrad
 Berny optimization.
 Initialization pass.
                           ----------------------------
                           !    Initial Parameters    !
                           ! (Angstroms and Degrees)  !
 --------------------------                            --------------------------
 ! Name  Definition              Value          Derivative Info.                !
 --------------------------------------------------------------------------------
 ! R1    R(1,2)                  1.4146         estimate D2E/DX2                !
 ! R2    R(1,6)                  1.4198         estimate D2E/DX2                !
 ! R3    R(1,7)                  1.322          estimate D2E/DX2                !
 ! R4    R(2,3)                  1.3844         estimate D2E/DX2                !
 ! R5    R(2,8)                  1.3412         estimate D2E/DX2                !
 ! R6    R(3,4)                  1.4191         estimate D2E/DX2                !
 ! R7    R(3,17)                 1.087          estimate D2E/DX2                !
 ! R8    R(4,5)                  1.4191         estimate D2E/DX2                !
 ! R9    R(4,12)                 1.4132         estimate D2E/DX2                !
 ! R10   R(5,6)                  1.3773         estimate D2E/DX2                !
 ! R11   R(5,18)                 1.0855         estimate D2E/DX2                !
 ! R12   R(6,10)                 1.3517         estimate D2E/DX2                !
 ! R13   R(7,19)                 0.9708         estimate D2E/DX2                !
 ! R14   R(8,9)                  1.4219         estimate D2E/DX2                !
 ! R15   R(9,20)                 1.0907         estimate D2E/DX2                !
 ! R16   R(9,21)                 1.0988         estimate D2E/DX2                !
 ! R17   R(9,22)                 1.0988         estimate D2E/DX2                !
 ! R18   R(10,11)                1.4245         estimate D2E/DX2                !
 ! R19   R(11,23)                1.0908         estimate D2E/DX2                !
 ! R20   R(11,24)                1.0979         estimate D2E/DX2                !
 ! R21   R(11,25)                1.0979         estimate D2E/DX2                !
 ! R22   R(12,13)                1.3875         estimate D2E/DX2                !
 ! R23   R(12,26)                1.0922         estimate D2E/DX2                !
 ! R24   R(13,14)                1.3896         estimate D2E/DX2                !
 ! R25   R(13,27)                1.0852         estimate D2E/DX2                !
 ! R26   R(14,15)                1.3153         estimate D2E/DX2                !
 ! R27   R(14,16)                1.3177         estimate D2E/DX2                !
 ! R28   R(15,28)                0.9678         estimate D2E/DX2                !
 ! R29   R(16,29)                0.9674         estimate D2E/DX2                !
 ! A1    A(2,1,6)              120.8909         estimate D2E/DX2                !
 ! A2    A(2,1,7)              118.5441         estimate D2E/DX2                !
 ! A3    A(6,1,7)              120.565          estimate D2E/DX2                !
 ! A4    A(1,2,3)              118.5124         estimate D2E/DX2                !
 ! A5    A(1,2,8)              114.987          estimate D2E/DX2                !
 ! A6    A(3,2,8)              126.5006         estimate D2E/DX2                !
 ! A7    A(2,3,4)              120.7619         estimate D2E/DX2                !
 ! A8    A(2,3,17)             120.3019         estimate D2E/DX2                !
 ! A9    A(4,3,17)             118.9362         estimate D2E/DX2                !
 ! A10   A(3,4,5)              120.3494         estimate D2E/DX2                !
 ! A11   A(3,4,12)             117.4671         estimate D2E/DX2                !
 ! A12   A(5,4,12)             122.1836         estimate D2E/DX2                !
 ! A13   A(4,5,6)              119.0224         estimate D2E/DX2                !
 ! A14   A(4,5,18)             120.777          estimate D2E/DX2                !
 ! A15   A(6,5,18)             120.2006         estimate D2E/DX2                !
 ! A16   A(1,6,5)              120.4631         estimate D2E/DX2                !
 ! A17   A(1,6,10)             112.6882         estimate D2E/DX2                !
 ! A18   A(5,6,10)             126.8487         estimate D2E/DX2                !
 ! A19   A(1,7,19)             109.3294         estimate D2E/DX2                !
 ! A20   A(2,8,9)              117.216          estimate D2E/DX2                !
 ! A21   A(8,9,20)             105.7439         estimate D2E/DX2                !
 ! A22   A(8,9,21)             110.5884         estimate D2E/DX2                !
 ! A23   A(8,9,22)             110.5872         estimate D2E/DX2                !
 ! A24   A(20,9,21)            109.7492         estimate D2E/DX2                !
 ! A25   A(20,9,22)            109.7501         estimate D2E/DX2                !
 ! A26   A(21,9,22)            110.3227         estimate D2E/DX2                !
 ! A27   A(6,10,11)            117.5058         estimate D2E/DX2                !
 ! A28   A(10,11,23)           105.9547         estimate D2E/DX2                !
 ! A29   A(10,11,24)           110.2237         estimate D2E/DX2                !
 ! A30   A(10,11,25)           110.2231         estimate D2E/DX2                !
 ! A31   A(23,11,24)           109.8873         estimate D2E/DX2                !
 ! A32   A(23,11,25)           109.8859         estimate D2E/DX2                !
 ! A33   A(24,11,25)           110.5662         estimate D2E/DX2                !
 ! A34   A(4,12,13)            127.2456         estimate D2E/DX2                !
 ! A35   A(4,12,26)            115.924          estimate D2E/DX2                !
 ! A36   A(13,12,26)           116.8305         estimate D2E/DX2                !
 ! A37   A(12,13,14)           120.6487         estimate D2E/DX2                !
 ! A38   A(12,13,27)           123.6689         estimate D2E/DX2                !
 ! A39   A(14,13,27)           115.6824         estimate D2E/DX2                !
 ! A40   A(13,14,15)           118.3099         estimate D2E/DX2                !
 ! A41   A(13,14,16)           120.9891         estimate D2E/DX2                !
 ! A42   A(15,14,16)           120.701          estimate D2E/DX2                !
 ! A43   A(14,15,28)           114.9565         estimate D2E/DX2                !
 ! A44   A(14,16,29)           114.5616         estimate D2E/DX2                !
 ! D1    D(6,1,2,3)              0.0006         estimate D2E/DX2                !
 ! D2    D(6,1,2,8)           -179.9995         estimate D2E/DX2                !
 ! D3    D(7,1,2,3)           -179.9986         estimate D2E/DX2                !
 ! D4    D(7,1,2,8)              0.0013         estimate D2E/DX2                !
 ! D5    D(2,1,6,5)              0.0009         estimate D2E/DX2                !
 ! D6    D(2,1,6,10)           179.9999         estimate D2E/DX2                !
 ! D7    D(7,1,6,5)           -179.9999         estimate D2E/DX2                !
 ! D8    D(7,1,6,10)            -0.0009         estimate D2E/DX2                !
 ! D9    D(2,1,7,19)           179.9964         estimate D2E/DX2                !
 ! D10   D(6,1,7,19)            -0.0028         estimate D2E/DX2                !
 ! D11   D(1,2,3,4)             -0.0022         estimate D2E/DX2                !
 ! D12   D(1,2,3,17)           179.9986         estimate D2E/DX2                !
 ! D13   D(8,2,3,4)            179.9979         estimate D2E/DX2                !
 ! D14   D(8,2,3,17)            -0.0013         estimate D2E/DX2                !
 ! D15   D(1,2,8,9)           -179.979          estimate D2E/DX2                !
 ! D16   D(3,2,8,9)              0.0209         estimate D2E/DX2                !
 ! D17   D(2,3,4,5)              0.0024         estimate D2E/DX2                !
 ! D18   D(2,3,4,12)          -179.9943         estimate D2E/DX2                !
 ! D19   D(17,3,4,5)          -179.9984         estimate D2E/DX2                !
 ! D20   D(17,3,4,12)            0.0049         estimate D2E/DX2                !
 ! D21   D(3,4,5,6)             -0.0008         estimate D2E/DX2                !
 ! D22   D(3,4,5,18)           179.9981         estimate D2E/DX2                !
 ! D23   D(12,4,5,6)           179.9957         estimate D2E/DX2                !
 ! D24   D(12,4,5,18)           -0.0053         estimate D2E/DX2                !
 ! D25   D(3,4,12,13)          179.9888         estimate D2E/DX2                !
 ! D26   D(3,4,12,26)           -0.0058         estimate D2E/DX2                !
 ! D27   D(5,4,12,13)           -0.0079         estimate D2E/DX2                !
 ! D28   D(5,4,12,26)          179.9975         estimate D2E/DX2                !
 ! D29   D(4,5,6,1)             -0.0008         estimate D2E/DX2                !
 ! D30   D(4,5,6,10)          -179.9996         estimate D2E/DX2                !
 ! D31   D(18,5,6,1)          -179.9997         estimate D2E/DX2                !
 ! D32   D(18,5,6,10)            0.0014         estimate D2E/DX2                !
 ! D33   D(1,6,10,11)          179.9708         estimate D2E/DX2                !
 ! D34   D(5,6,10,11)           -0.0302         estimate D2E/DX2                !
 ! D35   D(2,8,9,20)           179.9856         estimate D2E/DX2                !
 ! D36   D(2,8,9,21)           -61.2684         estimate D2E/DX2                !
 ! D37   D(2,8,9,22)            61.2392         estimate D2E/DX2                !
 ! D38   D(6,10,11,23)        -179.9755         estimate D2E/DX2                !
 ! D39   D(6,10,11,24)         -61.1355         estimate D2E/DX2                !
 ! D40   D(6,10,11,25)          61.1865         estimate D2E/DX2                !
 ! D41   D(4,12,13,14)        -179.9954         estimate D2E/DX2                !
 ! D42   D(4,12,13,27)          -0.0028         estimate D2E/DX2                !
 ! D43   D(26,12,13,14)         -0.0008         estimate D2E/DX2                !
 ! D44   D(26,12,13,27)        179.9917         estimate D2E/DX2                !
 ! D45   D(12,13,14,15)       -179.997          estimate D2E/DX2                !
 ! D46   D(12,13,14,16)          0.002          estimate D2E/DX2                !
 ! D47   D(27,13,14,15)          0.0099         estimate D2E/DX2                !
 ! D48   D(27,13,14,16)       -179.9911         estimate D2E/DX2                !
 ! D49   D(13,14,15,28)        179.976          estimate D2E/DX2                !
 ! D50   D(16,14,15,28)         -0.0229         estimate D2E/DX2                !
 ! D51   D(13,14,16,29)       -179.9567         estimate D2E/DX2                !
 ! D52   D(15,14,16,29)          0.0422         estimate D2E/DX2                !
 --------------------------------------------------------------------------------
 Trust Radius=3.00D-01 FncErr=1.00D-07 GrdErr=1.00D-06
 Number of steps in this run=    135 maximum allowed number of steps=    174.
 GradGradGradGradGradGradGradGradGradGradGradGradGradGradGradGradGradGrad

                          Input orientation:                          
 ---------------------------------------------------------------------
 Center     Atomic      Atomic             Coordinates (Angstroms)
 Number     Number       Type             X           Y           Z
 ---------------------------------------------------------------------
      1          6           0        2.397471    0.202951    0.000179
      2          6           0        1.927203   -1.131198    0.000106
      3          6           0        0.560179   -1.350051   -0.000046
      4          6           0       -0.349278   -0.260709   -0.000080
      5          6           0        0.131273    1.074570   -0.000009
      6          6           0        1.490699    1.295461    0.000111
      7          8           0        3.702714    0.412655    0.000296
      8          8           0        2.885369   -2.069629    0.000192
      9          6           0        2.465184   -3.428048   -0.000340
     10          8           0        2.117333    2.493108    0.000198
     11          6           0        1.302828    3.661772   -0.000503
     12          6           0       -1.729528   -0.563933   -0.000114
     13          6           0       -2.786733    0.334677    0.000066
     14          6           0       -4.100767   -0.117452    0.000100
     15          8           0       -5.067322    0.774551    0.000212
     16          8           0       -4.374766   -1.406303    0.000002
     17          1           0        0.166968   -2.363477   -0.000129
     18          1           0       -0.558153    1.913000   -0.000065
     19          1           0        3.874660    1.368094    0.000277
     20          1           0        3.380665   -4.021019   -0.000436
     21          1           0        1.878303   -3.651318    0.901344
     22          1           0        1.878521   -3.650657   -0.902333
     23          1           0        1.991832    4.507460   -0.000755
     24          1           0        0.678308    3.688581   -0.903078
     25          1           0        0.677975    3.689421    0.901820
     26          1           0       -1.985128   -1.625837   -0.000211
     27          1           0       -2.660212    1.412472    0.000305
     28          1           0       -5.962523    0.406661   -0.000136
     29          1           0       -5.319013   -1.616669   -0.000628
 ---------------------------------------------------------------------
                    Distance matrix (angstroms):
                    1          2          3          4          5
     1  C    0.000000
     2  C    1.414604   0.000000
     3  C    2.405713   1.384432   0.000000
     4  C    2.785608   2.437235   1.419076   0.000000
     5  C    2.428039   2.844429   2.462265   1.419119   0.000000
     6  C    1.419793   2.465605   2.804390   2.409809   1.377255
     7  O    1.321981   2.352854   3.603146   4.107561   3.632261
     8  O    2.324363   1.341169   2.433989   3.706094   4.179836
     9  C    3.631630   2.359013   2.819063   4.237126   5.071559
    10  O    2.307227   3.629290   4.146637   3.696982   2.440632
    11  C    3.627904   4.833467   5.066547   4.256209   2.840098
    12  C    4.197646   3.700469   2.420896   1.413165   2.479369
    13  C    5.185877   4.936596   3.747016   2.509118   3.010349
    14  C    6.506132   6.112618   4.821174   3.754223   4.396712
    15  O    7.486646   7.249501   6.015206   4.830290   5.207245
    16  O    6.960811   6.307971   4.935266   4.185324   5.143843
    17  H    3.400249   2.148706   1.087036   2.165212   3.438232
    18  H    3.414671   3.929903   3.449372   2.183721   1.085483
    19  H    1.881395   3.168446   4.286502   4.527102   3.754877
    20  H    4.336888   3.234752   3.884483   5.296452   6.043474
    21  H    3.992120   2.676869   2.801033   4.155829   5.118454
    22  H    3.991758   2.676647   2.800881   4.155586   5.118089
    23  H    4.323580   5.639028   6.029931   5.311895   3.904666
    24  H    3.990114   5.060212   5.120277   4.179501   2.819190
    25  H    3.990626   5.060833   5.120890   4.179976   2.819508
    26  H    4.748857   3.943476   2.560204   2.130629   3.430940
    27  H    5.200298   5.245439   4.242930   2.853060   2.811862
    28  H    8.362476   8.038208   6.755122   5.652778   6.130290
    29  H    7.928124   7.262460   5.885234   5.151397   6.078518
                    6          7          8          9         10
     6  C    0.000000
     7  O    2.381671   0.000000
     8  O    3.642655   2.613386   0.000000
     9  C    4.822982   4.035156   1.421920   0.000000
    10  O    1.351676   2.615668   4.626926   5.931365   0.000000
    11  C    2.373757   4.039333   5.945872   7.184471   1.424498
    12  C    3.718495   5.519328   4.854317   5.079248   4.913638
    13  C    4.384008   6.489915   6.160635   6.460707   5.358049
    14  C    5.767219   7.821466   7.253764   7.353350   6.743871
    15  O    6.578677   8.777500   8.445984   8.625572   7.387334
    16  O    6.457802   8.279752   7.290375   7.132487   7.573160
    17  H    3.891027   4.495376   2.734237   2.532806   5.233578
    18  H    2.139895   4.517303   5.264901   6.137374   2.737654
    19  H    2.385067   0.970788   3.577239   4.998960   2.086589
    20  H    5.642422   4.445355   2.013266   1.090743   6.635500
    21  H    5.043122   4.544914   2.080384   1.098778   6.214754
    22  H    5.042707   4.544549   2.080371   1.098781   6.214293
    23  H    3.250857   4.437854   6.637508   7.949613   2.018258
    24  H    2.683794   4.549155   6.232495   7.392853   2.077464
    25  H    2.684147   4.549614   6.233152   7.393671   2.077460
    26  H    4.540414   6.042102   4.890674   4.801379   5.813424
    27  H    4.152560   6.440998   6.548167   7.049845   4.898235
    28  H    7.506030   9.665239   9.187884   9.259117   8.344899
    29  H    7.406259   9.247146   8.216876   7.992172   8.496441
                   11         12         13         14         15
    11  C    0.000000
    12  C    5.201131   0.000000
    13  C    5.272008   1.387509   0.000000
    14  C    6.594041   2.412907   1.389642   0.000000
    15  O    6.993916   3.596166   2.322623   1.315256   0.000000
    16  O    7.610549   2.776125   2.356451   1.317654   2.288178
    17  H    6.131379   2.614394   4.000548   4.822675   6.102869
    18  H    2.553714   2.739948   2.730874   4.083240   4.650664
    19  H    3.446053   5.927871   6.741076   8.112600   8.961659
    20  H    7.958812   6.169726   7.550423   8.438582   9.714215
    21  H    7.390926   4.833324   6.201856   7.003551   8.285051
    22  H    7.390287   4.833206   6.201758   7.003557   8.285034
    23  H    1.090832   6.290274   6.344037   7.649155   7.985378
    24  H    1.097901   4.969597   4.906205   6.175854   6.505365
    25  H    1.097904   4.969967   4.906289   6.175901   6.505213
    26  H    6.226513   1.092232   2.118062   2.598298   3.906633
    27  H    4.556867   2.184571   1.085196   2.101396   2.490205
    28  H    7.961223   4.342845   3.176606   1.934123   0.967847
    29  H    8.468218   3.740676   3.196904   1.931780   2.404430
                   16         17         18         19         20
    16  O    0.000000
    17  H    4.641501   0.000000
    18  H    5.058093   4.337517   0.000000
    19  H    8.703465   5.260380   4.466179   0.000000
    20  H    8.184342   3.615978   7.122280   5.411707   0.000000
    21  H    6.704728   2.323759   6.140887   5.476482   1.790804
    22  H    6.704844   2.323837   6.140501   5.476051   1.790816
    23  H    8.689428   7.109142   3.637808   3.660691   8.640822
    24  H    7.232355   6.140374   2.344559   4.051836   8.219211
    25  H    7.232556   6.141027   2.344585   4.052176   8.220066
    26  H    2.399701   2.275001   3.815708   6.580330   5.876107
    27  H    3.299271   4.717069   2.160829   6.535023   8.124963
    28  H    2.409940   6.726390   5.610372   9.884054  10.339222
    29  H    0.967397   5.536579   5.926580   9.666045   9.025813
                   21         22         23         24         25
    21  H    0.000000
    22  H    1.803677   0.000000
    23  H    8.209283   8.208566   0.000000
    24  H    7.653107   7.436728   1.791674   0.000000
    25  H    7.438228   7.653301   1.791661   1.804898   0.000000
    26  H    4.454377   4.454380   7.309825   6.012662   6.013131
    27  H    6.859443   6.859310   5.587528   4.140349   4.140135
    28  H    8.874594   8.874557   8.949208   7.462368   7.462322
    29  H    7.533572   7.533570   9.536950   8.057788   8.058093
                   26         27         28         29
    26  H    0.000000
    27  H    3.112404   0.000000
    28  H    4.466623   3.452088   0.000000
    29  H    3.333898   4.030499   2.123198   0.000000
 Stoichiometry    C11H13O5(1+)
 Framework group  C1[X(C11H13O5)]
 Deg. of freedom    81
 Full point group                 C1      NOp   1
 Largest Abelian subgroup         C1      NOp   1
 Largest concise Abelian subgroup C1      NOp   1
                         Standard orientation:                         
 ---------------------------------------------------------------------
 Center     Atomic      Atomic             Coordinates (Angstroms)
 Number     Number       Type             X           Y           Z
 ---------------------------------------------------------------------
      1          6           0       -2.397471    0.202951   -0.000179
      2          6           0       -1.927203   -1.131198   -0.000106
      3          6           0       -0.560179   -1.350051    0.000046
      4          6           0        0.349278   -0.260709    0.000080
      5          6           0       -0.131273    1.074570    0.000009
      6          6           0       -1.490699    1.295461   -0.000111
      7          8           0       -3.702714    0.412655   -0.000296
      8          8           0       -2.885369   -2.069629   -0.000192
      9          6           0       -2.465184   -3.428048    0.000340
     10          8           0       -2.117333    2.493108   -0.000198
     11          6           0       -1.302828    3.661772    0.000503
     12          6           0        1.729528   -0.563933    0.000114
     13          6           0        2.786733    0.334677   -0.000066
     14          6           0        4.100767   -0.117452   -0.000100
     15          8           0        5.067322    0.774551   -0.000212
     16          8           0        4.374766   -1.406303   -0.000002
     17          1           0       -0.166968   -2.363477    0.000129
     18          1           0        0.558153    1.913000    0.000065
     19          1           0       -3.874660    1.368094   -0.000277
     20          1           0       -3.380665   -4.021019    0.000436
     21          1           0       -1.878303   -3.651318   -0.901344
     22          1           0       -1.878521   -3.650657    0.902333
     23          1           0       -1.991832    4.507460    0.000755
     24          1           0       -0.678308    3.688581    0.903078
     25          1           0       -0.677975    3.689421   -0.901820
     26          1           0        1.985128   -1.625837    0.000211
     27          1           0        2.660212    1.412472   -0.000305
     28          1           0        5.962523    0.406661    0.000136
     29          1           0        5.319013   -1.616669    0.000628
 ---------------------------------------------------------------------
 Rotational constants (GHZ):      0.7171765      0.2763795      0.2000166
 Standard basis: CC-pVTZ (5D, 7F)
 There are   755 symmetry adapted cartesian basis functions of A   symmetry.
 There are   662 symmetry adapted basis functions of A   symmetry.
   662 basis functions,  1053 primitive gaussians,   755 cartesian basis functions
    59 alpha electrons       59 beta electrons
       nuclear repulsion energy      1075.5785033341 Hartrees.
 NAtoms=   29 NActive=   29 NUniq=   29 SFac= 1.00D+00 NAtFMM=   60 NAOKFM=F Big=F
 Integral buffers will be    131072 words long.
 Raffenetti 2 integral format.
 Two-electron integral symmetry is turned on.
 One-electron integrals computed using PRISM.
 NBasis=   662 RedAO= T EigKep=  3.20D-05  NBF=   662
 NBsUse=   662 1.00D-06 EigRej= -1.00D+00 NBFU=   662
 ExpMin= 1.03D-01 ExpMax= 1.53D+04 ExpMxC= 5.22D+02 IAcc=1 IRadAn=         1 AccDes= 0.00D+00
 Harris functional with IExCor= 1009 and IRadAn=       1 diagonalized for initial guess.
 HarFok:  IExCor= 1009 AccDes= 0.00D+00 IRadAn=         1 IDoV= 1 UseB2=F ITyADJ=14
 ICtDFT=  3500011 ScaDFX=  1.000000  1.000000  1.000000  1.000000
 FoFCou: FMM=F IPFlag=           0 FMFlag=      100000 FMFlg1=           0
         NFxFlg=           0 DoJE=T BraDBF=F KetDBF=T FulRan=T
         wScrn=  0.000000 ICntrl=     500 IOpCl=  0 I1Cent=   200000004 NGrid=           0
         NMat0=    1 NMatS0=      1 NMatT0=    0 NMatD0=    1 NMtDS0=    0 NMtDT0=    0
 Petite list used in FoFCou.
 Requested convergence on RMS density matrix=1.00D-08 within 128 cycles.
 Requested convergence on MAX density matrix=1.00D-06.
 Requested convergence on             energy=1.00D-06.
 No special actions if energy rises.
 Integral accuracy reduced to 1.0D-05 until final iterations.
 Initial convergence to 1.0D-05 achieved.  Increase integral accuracy.
 SCF Done:  E(RM062X) =  -802.826014815     A.U. after   15 cycles
            NFock= 15  Conv=0.64D-08     -V/T= 2.0058

 **********************************************************************

            Population analysis using the SCF density.

 **********************************************************************

 Orbital symmetries:
       Occupied  (A) (A) (A) (A) (A) (A) (A) (A) (A) (A) (A) (A)
                 (A) (A) (A) (A) (A) (A) (A) (A) (A) (A) (A) (A)
                 (A) (A) (A) (A) (A) (A) (A) (A) (A) (A) (A) (A)
                 (A) (A) (A) (A) (A) (A) (A) (A) (A) (A) (A) (A)
                 (A) (A) (A) (A) (A) (A) (A) (A) (A) (A) (A)
       Virtual   (A) (A) (A) (A) (A) (A) (A) (A) (A) (A) (A) (A)
                 (A) (A) (A) (A) (A) (A) (A) (A) (A) (A) (A) (A)
                 (A) (A) (A) (A) (A) (A) (A) (A) (A) (A) (A) (A)
                 (A) (A) (A) (A) (A) (A) (A) (A) (A) (A) (A) (A)
                 (A) (A) (A) (A) (A) (A) (A) (A) (A) (A) (A) (A)
                 (A) (A) (A) (A) (A) (A) (A) (A) (A) (A) (A) (A)
                 (A) (A) (A) (A) (A) (A) (A) (A) (A) (A) (A) (A)
                 (A) (A) (A) (A) (A) (A) (A) (A) (A) (A) (A) (A)
                 (A) (A) (A) (A) (A) (A) (A) (A) (A) (A) (A) (A)
                 (A) (A) (A) (A) (A) (A) (A) (A) (A) (A) (A) (A)
                 (A) (A) (A) (A) (A) (A) (A) (A) (A) (A) (A) (A)
                 (A) (A) (A) (A) (A) (A) (A) (A) (A) (A) (A) (A)
                 (A) (A) (A) (A) (A) (A) (A) (A) (A) (A) (A) (A)
                 (A) (A) (A) (A) (A) (A) (A) (A) (A) (A) (A) (A)
                 (A) (A) (A) (A) (A) (A) (A) (A) (A) (A) (A) (A)
                 (A) (A) (A) (A) (A) (A) (A) (A) (A) (A) (A) (A)
                 (A) (A) (A) (A) (A) (A) (A) (A) (A) (A) (A) (A)
                 (A) (A) (A) (A) (A) (A) (A) (A) (A) (A) (A) (A)
                 (A) (A) (A) (A) (A) (A) (A) (A) (A) (A) (A) (A)
                 (A) (A) (A) (A) (A) (A) (A) (A) (A) (A) (A) (A)
                 (A) (A) (A) (A) (A) (A) (A) (A) (A) (A) (A) (A)
                 (A) (A) (A) (A) (A) (A) (A) (A) (A) (A) (A) (A)
                 (A) (A) (A) (A) (A) (A) (A) (A) (A) (A) (A) (A)
                 (A) (A) (A) (A) (A) (A) (A) (A) (A) (A) (A) (A)
                 (A) (A) (A) (A) (A) (A) (A) (A) (A) (A) (A) (A)
                 (A) (A) (A) (A) (A) (A) (A) (A) (A) (A) (A) (A)
                 (A) (A) (A) (A) (A) (A) (A) (A) (A) (A) (A) (A)
                 (A) (A) (A) (A) (A) (A) (A) (A) (A) (A) (A) (A)
                 (A) (A) (A) (A) (A) (A) (A) (A) (A) (A) (A) (A)
                 (A) (A) (A) (A) (A) (A) (A) (A) (A) (A) (A) (A)
                 (A) (A) (A) (A) (A) (A) (A) (A) (A) (A) (A) (A)
                 (A) (A) (A) (A) (A) (A) (A) (A) (A) (A) (A) (A)
                 (A) (A) (A) (A) (A) (A) (A) (A) (A) (A) (A) (A)
                 (A) (A) (A) (A) (A) (A) (A) (A) (A) (A) (A) (A)
                 (A) (A) (A) (A) (A) (A) (A) (A) (A) (A) (A) (A)
                 (A) (A) (A) (A) (A) (A) (A) (A) (A) (A) (A) (A)
                 (A) (A) (A) (A) (A) (A) (A) (A) (A) (A) (A) (A)
                 (A) (A) (A) (A) (A) (A) (A) (A) (A) (A) (A) (A)
                 (A) (A) (A) (A) (A) (A) (A) (A) (A) (A) (A) (A)
                 (A) (A) (A) (A) (A) (A) (A) (A) (A) (A) (A) (A)
                 (A) (A) (A) (A) (A) (A) (A) (A) (A) (A) (A) (A)
                 (A) (A) (A) (A) (A) (A) (A) (A) (A) (A) (A) (A)
                 (A) (A) (A) (A) (A) (A) (A) (A) (A) (A) (A) (A)
                 (A) (A) (A) (A) (A) (A) (A) (A) (A) (A) (A) (A)
                 (A) (A) (A) (A) (A) (A) (A) (A) (A) (A) (A) (A)
                 (A) (A) (A) (A) (A) (A) (A) (A) (A) (A) (A) (A)
                 (A) (A) (A) (A) (A) (A) (A) (A) (A) (A) (A) (A)
                 (A) (A) (A) (A) (A) (A) (A) (A) (A) (A) (A) (A)
                 (A) (A) (A) (A) (A) (A) (A) (A) (A) (A) (A) (A)
                 (A) (A) (A) (A) (A) (A) (A) (A) (A) (A) (A) (A)
                 (A) (A) (A)
 The electronic state is 1-A.
 Alpha  occ. eigenvalues --  -19.86089 -19.85945 -19.79021 -19.79006 -19.77132
 Alpha  occ. eigenvalues --  -10.87301 -10.75615 -10.74219 -10.73549 -10.73305
 Alpha  occ. eigenvalues --  -10.70868 -10.69793 -10.69557 -10.69397 -10.68712
 Alpha  occ. eigenvalues --  -10.68546  -1.44153  -1.35955  -1.34800  -1.32012
 Alpha  occ. eigenvalues --   -1.30489  -1.10859  -1.06849  -1.00716  -0.98938
 Alpha  occ. eigenvalues --   -0.94077  -0.93182  -0.89602  -0.87980  -0.86065
 Alpha  occ. eigenvalues --   -0.81460  -0.79078  -0.77672  -0.75694  -0.73571
 Alpha  occ. eigenvalues --   -0.72944  -0.71273  -0.69812  -0.68570  -0.67902
 Alpha  occ. eigenvalues --   -0.66643  -0.66376  -0.64481  -0.63793  -0.62239
 Alpha  occ. eigenvalues --   -0.62068  -0.61505  -0.61401  -0.59179  -0.58073
 Alpha  occ. eigenvalues --   -0.57326  -0.55216  -0.54104  -0.54020  -0.52618
 Alpha  occ. eigenvalues --   -0.52081  -0.47771  -0.41465  -0.38654
 Alpha virt. eigenvalues --   -0.21417  -0.11632  -0.09647  -0.08323  -0.05045
 Alpha virt. eigenvalues --   -0.04361  -0.03724  -0.03094  -0.02455  -0.00511
 Alpha virt. eigenvalues --    0.00808   0.02719   0.03834   0.03859   0.04646
 Alpha virt. eigenvalues --    0.04766   0.05034   0.05206   0.07295   0.08077
 Alpha virt. eigenvalues --    0.08609   0.10653   0.11807   0.13211   0.13951
 Alpha virt. eigenvalues --    0.15769   0.16328   0.16589   0.17569   0.18185
 Alpha virt. eigenvalues --    0.18539   0.19537   0.20280   0.20582   0.21027
 Alpha virt. eigenvalues --    0.22297   0.22647   0.23211   0.23544   0.24589
 Alpha virt. eigenvalues --    0.24787   0.25564   0.26600   0.27582   0.28010
 Alpha virt. eigenvalues --    0.28233   0.28375   0.29457   0.30159   0.30289
 Alpha virt. eigenvalues --    0.30637   0.32069   0.32387   0.33348   0.34010
 Alpha virt. eigenvalues --    0.34175   0.34453   0.34550   0.35597   0.37432
 Alpha virt. eigenvalues --    0.37663   0.38089   0.38338   0.39583   0.39762
 Alpha virt. eigenvalues --    0.39925   0.40366   0.41116   0.41684   0.42397
 Alpha virt. eigenvalues --    0.42579   0.43838   0.44111   0.45160   0.45937
 Alpha virt. eigenvalues --    0.46667   0.47250   0.47601   0.49245   0.50650
 Alpha virt. eigenvalues --    0.51953   0.51990   0.52807   0.53170   0.53788
 Alpha virt. eigenvalues --    0.55014   0.55775   0.57201   0.59235   0.59518
 Alpha virt. eigenvalues --    0.60214   0.60223   0.62171   0.62339   0.62443
 Alpha virt. eigenvalues --    0.62694   0.64240   0.65767   0.65856   0.65927
 Alpha virt. eigenvalues --    0.66714   0.66828   0.68400   0.69240   0.70108
 Alpha virt. eigenvalues --    0.70943   0.72096   0.72755   0.73008   0.73496
 Alpha virt. eigenvalues --    0.74394   0.75937   0.76784   0.77895   0.78568
 Alpha virt. eigenvalues --    0.79651   0.79740   0.80638   0.81597   0.81604
 Alpha virt. eigenvalues --    0.82869   0.83383   0.83982   0.84436   0.86675
 Alpha virt. eigenvalues --    0.87606   0.88915   0.88999   0.90332   0.91427
 Alpha virt. eigenvalues --    0.91707   0.92740   0.92773   0.93653   0.94324
 Alpha virt. eigenvalues --    0.94751   0.96396   0.97684   0.98012   0.98320
 Alpha virt. eigenvalues --    0.99819   1.00972   1.01858   1.03152   1.03926
 Alpha virt. eigenvalues --    1.04670   1.06485   1.07400   1.07742   1.08904
 Alpha virt. eigenvalues --    1.10153   1.12038   1.12680   1.13725   1.14375
 Alpha virt. eigenvalues --    1.15086   1.16584   1.16912   1.17575   1.19097
 Alpha virt. eigenvalues --    1.20119   1.21253   1.21720   1.21816   1.22369
 Alpha virt. eigenvalues --    1.23495   1.23499   1.23784   1.25266   1.26406
 Alpha virt. eigenvalues --    1.27872   1.29641   1.30238   1.30867   1.31796
 Alpha virt. eigenvalues --    1.32219   1.33842   1.35866   1.36481   1.37741
 Alpha virt. eigenvalues --    1.38687   1.41247   1.41806   1.43306   1.44720
 Alpha virt. eigenvalues --    1.45117   1.45310   1.46716   1.49685   1.51211
 Alpha virt. eigenvalues --    1.51953   1.54018   1.54672   1.54858   1.56597
 Alpha virt. eigenvalues --    1.58628   1.59369   1.63207   1.65004   1.68887
 Alpha virt. eigenvalues --    1.69225   1.70120   1.71613   1.73958   1.75261
 Alpha virt. eigenvalues --    1.78611   1.81133   1.81730   1.83048   1.87094
 Alpha virt. eigenvalues --    1.87713   1.88525   1.89082   1.91769   1.92025
 Alpha virt. eigenvalues --    1.92136   1.94432   1.95332   1.97164   1.97469
 Alpha virt. eigenvalues --    1.99427   2.01062   2.01197   2.02060   2.06375
 Alpha virt. eigenvalues --    2.08513   2.08889   2.09492   2.10054   2.11906
 Alpha virt. eigenvalues --    2.13587   2.15411   2.16012   2.18167   2.18499
 Alpha virt. eigenvalues --    2.20110   2.20471   2.20605   2.22054   2.22684
 Alpha virt. eigenvalues --    2.23930   2.24592   2.26393   2.27501   2.29008
 Alpha virt. eigenvalues --    2.29380   2.33301   2.33907   2.35881   2.36576
 Alpha virt. eigenvalues --    2.36851   2.37705   2.38576   2.40922   2.42149
 Alpha virt. eigenvalues --    2.42418   2.43630   2.44584   2.45695   2.46877
 Alpha virt. eigenvalues --    2.48122   2.49687   2.50596   2.51516   2.54075
 Alpha virt. eigenvalues --    2.54998   2.55139   2.56007   2.57821   2.58079
 Alpha virt. eigenvalues --    2.60096   2.60470   2.60569   2.62342   2.64411
 Alpha virt. eigenvalues --    2.64423   2.66320   2.66393   2.66614   2.68887
 Alpha virt. eigenvalues --    2.69341   2.70407   2.70656   2.72647   2.73532
 Alpha virt. eigenvalues --    2.74465   2.74849   2.75425   2.75881   2.76287
 Alpha virt. eigenvalues --    2.77915   2.78823   2.78980   2.80259   2.80624
 Alpha virt. eigenvalues --    2.80719   2.81548   2.81616   2.82675   2.83947
 Alpha virt. eigenvalues --    2.85226   2.86510   2.87729   2.89466   2.89541
 Alpha virt. eigenvalues --    2.90158   2.90574   2.91414   2.92144   2.92356
 Alpha virt. eigenvalues --    2.92895   2.93879   2.94051   2.94135   2.95221
 Alpha virt. eigenvalues --    2.95739   2.96156   2.97224   2.97301   2.98203
 Alpha virt. eigenvalues --    2.98741   3.01014   3.01675   3.01855   3.03641
 Alpha virt. eigenvalues --    3.03951   3.04278   3.05376   3.06353   3.08201
 Alpha virt. eigenvalues --    3.08834   3.09958   3.10758   3.11608   3.12065
 Alpha virt. eigenvalues --    3.12783   3.12805   3.13778   3.14428   3.16349
 Alpha virt. eigenvalues --    3.17138   3.17842   3.17931   3.19476   3.19574
 Alpha virt. eigenvalues --    3.20127   3.22309   3.23337   3.23642   3.24439
 Alpha virt. eigenvalues --    3.24994   3.25856   3.26200   3.26346   3.27784
 Alpha virt. eigenvalues --    3.27925   3.28628   3.29464   3.29881   3.30471
 Alpha virt. eigenvalues --    3.30788   3.32587   3.33764   3.35118   3.36085
 Alpha virt. eigenvalues --    3.37322   3.37787   3.38936   3.40293   3.41408
 Alpha virt. eigenvalues --    3.41903   3.42448   3.43065   3.44137   3.44651
 Alpha virt. eigenvalues --    3.45700   3.46011   3.46640   3.48957   3.48993
 Alpha virt. eigenvalues --    3.50885   3.52323   3.54673   3.54973   3.55958
 Alpha virt. eigenvalues --    3.57744   3.59055   3.60474   3.60845   3.61295
 Alpha virt. eigenvalues --    3.62184   3.63416   3.64289   3.64474   3.65147
 Alpha virt. eigenvalues --    3.66802   3.67496   3.69245   3.69344   3.70017
 Alpha virt. eigenvalues --    3.70582   3.71955   3.72694   3.74754   3.75026
 Alpha virt. eigenvalues --    3.75523   3.76648   3.76710   3.78434   3.79056
 Alpha virt. eigenvalues --    3.79189   3.80775   3.82242   3.83402   3.83673
 Alpha virt. eigenvalues --    3.84014   3.84059   3.86279   3.86296   3.88822
 Alpha virt. eigenvalues --    3.90967   3.91144   3.91695   3.92513   3.93564
 Alpha virt. eigenvalues --    3.95177   3.95324   3.96631   3.97092   3.99069
 Alpha virt. eigenvalues --    3.99701   4.00492   4.01559   4.02539   4.02551
 Alpha virt. eigenvalues --    4.04140   4.04481   4.05763   4.06649   4.07433
 Alpha virt. eigenvalues --    4.08272   4.08967   4.10083   4.10867   4.13266
 Alpha virt. eigenvalues --    4.13638   4.13915   4.16100   4.16487   4.20258
 Alpha virt. eigenvalues --    4.20849   4.21682   4.21893   4.23592   4.24162
 Alpha virt. eigenvalues --    4.26875   4.28378   4.31465   4.32740   4.34363
 Alpha virt. eigenvalues --    4.36022   4.39927   4.40930   4.42076   4.43867
 Alpha virt. eigenvalues --    4.44347   4.49766   4.51140   4.52532   4.53796
 Alpha virt. eigenvalues --    4.54565   4.54690   4.58350   4.59069   4.60836
 Alpha virt. eigenvalues --    4.61353   4.63106   4.64295   4.68999   4.69774
 Alpha virt. eigenvalues --    4.70984   4.72311   4.72443   4.73194   4.76089
 Alpha virt. eigenvalues --    4.78193   4.79631   4.80566   4.82891   4.83769
 Alpha virt. eigenvalues --    4.85900   4.87206   4.89424   4.91087   4.92101
 Alpha virt. eigenvalues --    4.95143   4.97672   4.99452   5.00792   5.02268
 Alpha virt. eigenvalues --    5.03508   5.03981   5.07164   5.07646   5.11541
 Alpha virt. eigenvalues --    5.13867   5.14475   5.18319   5.18622   5.19754
 Alpha virt. eigenvalues --    5.20412   5.21621   5.23237   5.29334   5.29362
 Alpha virt. eigenvalues --    5.31949   5.32370   5.35407   5.38357   5.43478
 Alpha virt. eigenvalues --    5.43577   5.45561   5.49238   5.53299   5.57303
 Alpha virt. eigenvalues --    5.58597   5.60635   5.61949   5.63383   5.68609
 Alpha virt. eigenvalues --    5.68911   5.70681   5.71205   5.73090   5.73717
 Alpha virt. eigenvalues --    5.76446   5.77754   5.82270   5.84337   5.89681
 Alpha virt. eigenvalues --    5.92169   5.93457   5.97846   6.00830   6.03499
 Alpha virt. eigenvalues --    6.08739   6.14476   6.18763   6.19682   6.26628
 Alpha virt. eigenvalues --    6.28830   6.29029   6.33008   6.34479   6.39034
 Alpha virt. eigenvalues --    6.39962   6.43527   6.44232   6.46602   6.52663
 Alpha virt. eigenvalues --    6.54521   6.54807   6.55058   6.57889   6.61455
 Alpha virt. eigenvalues --    6.66208   6.67180   6.67182   6.69674   6.70935
 Alpha virt. eigenvalues --    6.71816   6.78078   6.79685   6.81446   6.82443
 Alpha virt. eigenvalues --    6.94539   6.99936   7.04124   7.09276   7.16831
 Alpha virt. eigenvalues --    7.17790   7.19423   7.27910   7.31652   7.33854
 Alpha virt. eigenvalues --    7.37062   7.40044   8.82877  10.45196  11.09376
 Alpha virt. eigenvalues --   11.61051  12.05296  12.21269  12.33487  12.40210
 Alpha virt. eigenvalues --   12.61233  12.80448  12.93643  13.34966  13.37229
 Alpha virt. eigenvalues --   13.58302  14.22504  15.08115
          Condensed to atoms (all electrons):
               1          2          3          4          5          6
     1  C    4.635519   0.494154  -0.093972  -0.009593  -0.008941   0.430702
     2  C    0.494154   4.763177   0.435298  -0.026689  -0.014745  -0.089601
     3  C   -0.093972   0.435298   5.314565   0.318019  -0.114450   0.009719
     4  C   -0.009593  -0.026689   0.318019   5.102470   0.320597  -0.016706
     5  C   -0.008941  -0.014745  -0.114450   0.320597   5.347808   0.341845
     6  C    0.430702  -0.089601   0.009719  -0.016706   0.341845   4.992322
     7  O    0.450136  -0.066379   0.003956  -0.001464   0.010191  -0.078287
     8  O   -0.059096   0.445041  -0.089011   0.007399   0.000285   0.003805
     9  C    0.005738  -0.068289  -0.001534  -0.001597   0.000128  -0.000300
    10  O   -0.042996   0.004989   0.000063   0.007352  -0.089410   0.371480
    11  C    0.002477  -0.000682   0.000422  -0.000891   0.003776  -0.067958
    12  C   -0.002455   0.002795  -0.012644   0.405992  -0.045488   0.006209
    13  C    0.000101  -0.000284   0.009568  -0.063669  -0.014522   0.000515
    14  C    0.000005   0.000012  -0.000686   0.003626   0.000023  -0.000045
    15  O   -0.000000  -0.000000  -0.000002  -0.000160   0.000003  -0.000001
    16  O   -0.000000  -0.000001  -0.000168   0.001153   0.000093  -0.000000
    17  H    0.003465  -0.041108   0.425417  -0.054738   0.003683  -0.000399
    18  H    0.003362  -0.000617   0.003520  -0.032447   0.404986  -0.033344
    19  H   -0.028106   0.008116  -0.000334  -0.000746   0.004084  -0.023370
    20  H    0.000302   0.004689  -0.000571   0.000161  -0.000003   0.000026
    21  H   -0.000483  -0.010103   0.006516  -0.000931  -0.000081   0.000049
    22  H   -0.000479  -0.010090   0.006522  -0.000934  -0.000081   0.000049
    23  H    0.000369   0.000042  -0.000009   0.000140  -0.000693   0.004641
    24  H    0.000092  -0.000047  -0.000015  -0.000865   0.005120  -0.008062
    25  H    0.000090  -0.000046  -0.000015  -0.000860   0.005117  -0.008087
    26  H   -0.000003   0.001020  -0.002016  -0.046218   0.005780  -0.000107
    27  H   -0.000071   0.000036   0.000520  -0.007597   0.004500   0.000278
    28  H    0.000000  -0.000000  -0.000001   0.000033   0.000001   0.000000
    29  H    0.000000  -0.000000   0.000001  -0.000001  -0.000001   0.000000
               7          8          9         10         11         12
     1  C    0.450136  -0.059096   0.005738  -0.042996   0.002477  -0.002455
     2  C   -0.066379   0.445041  -0.068289   0.004989  -0.000682   0.002795
     3  C    0.003956  -0.089011  -0.001534   0.000063   0.000422  -0.012644
     4  C   -0.001464   0.007399  -0.001597   0.007352  -0.000891   0.405992
     5  C    0.010191   0.000285   0.000128  -0.089410   0.003776  -0.045488
     6  C   -0.078287   0.003805  -0.000300   0.371480  -0.067958   0.006209
     7  O    7.622664  -0.002955   0.000175  -0.012355  -0.000094  -0.000018
     8  O   -0.002955   7.741241   0.280678  -0.000012   0.000003  -0.000376
     9  C    0.000175   0.280678   4.756198   0.000003  -0.000000   0.000174
    10  O   -0.012355  -0.000012   0.000003   7.855409   0.276408  -0.000105
    11  C   -0.000094   0.000003  -0.000000   0.276408   4.759606  -0.000085
    12  C   -0.000018  -0.000376   0.000174  -0.000105  -0.000085   4.984667
    13  C    0.000000   0.000002   0.000003  -0.000009   0.000054   0.357063
    14  C    0.000000   0.000000  -0.000000  -0.000000   0.000004  -0.050646
    15  O    0.000000   0.000000   0.000000   0.000000   0.000000   0.005748
    16  O   -0.000000  -0.000000   0.000000   0.000000   0.000000   0.019763
    17  H   -0.000076  -0.006222   0.005733   0.000006   0.000003   0.005910
    18  H   -0.000048   0.000008   0.000001  -0.006955   0.004966  -0.006196
    19  H    0.329297  -0.000173   0.000034   0.024477  -0.001271  -0.000003
    20  H    0.000043  -0.029942   0.402835  -0.000000   0.000000  -0.000005
    21  H   -0.000032  -0.040088   0.397132   0.000000   0.000000   0.000030
    22  H   -0.000033  -0.040097   0.397113   0.000000   0.000000   0.000031
    23  H    0.000018  -0.000000   0.000000  -0.027893   0.402802   0.000002
    24  H   -0.000045  -0.000000   0.000000  -0.041151   0.398011  -0.000043
    25  H   -0.000045  -0.000000   0.000000  -0.041139   0.398038  -0.000044
    26  H    0.000000   0.000010  -0.000002   0.000002  -0.000001   0.425636
    27  H   -0.000000  -0.000000   0.000000   0.000021   0.000159  -0.009905
    28  H    0.000000  -0.000000  -0.000000  -0.000000  -0.000000  -0.001218
    29  H   -0.000000   0.000000  -0.000000   0.000000  -0.000000  -0.002100
              13         14         15         16         17         18
     1  C    0.000101   0.000005  -0.000000  -0.000000   0.003465   0.003362
     2  C   -0.000284   0.000012  -0.000000  -0.000001  -0.041108  -0.000617
     3  C    0.009568  -0.000686  -0.000002  -0.000168   0.425417   0.003520
     4  C   -0.063669   0.003626  -0.000160   0.001153  -0.054738  -0.032447
     5  C   -0.014522   0.000023   0.000003   0.000093   0.003683   0.404986
     6  C    0.000515  -0.000045  -0.000001  -0.000000  -0.000399  -0.033344
     7  O    0.000000   0.000000   0.000000  -0.000000  -0.000076  -0.000048
     8  O    0.000002   0.000000   0.000000  -0.000000  -0.006222   0.000008
     9  C    0.000003  -0.000000   0.000000   0.000000   0.005733   0.000001
    10  O   -0.000009  -0.000000   0.000000   0.000000   0.000006  -0.006955
    11  C    0.000054   0.000004   0.000000   0.000000   0.000003   0.004966
    12  C    0.357063  -0.050646   0.005748   0.019763   0.005910  -0.006196
    13  C    5.355074   0.475996  -0.095165  -0.136095   0.000990   0.003665
    14  C    0.475996   4.306902   0.487032   0.488623  -0.000114   0.000062
    15  O   -0.095165   0.487032   7.549619  -0.056906  -0.000001  -0.000169
    16  O   -0.136095   0.488623  -0.056906   7.566573  -0.000136  -0.000009
    17  H    0.000990  -0.000114  -0.000001  -0.000136   0.503251  -0.000210
    18  H    0.003665   0.000062  -0.000169  -0.000009  -0.000210   0.502175
    19  H    0.000000   0.000000  -0.000000  -0.000000   0.000018   0.000058
    20  H   -0.000000   0.000000  -0.000000   0.000000  -0.000347  -0.000000
    21  H    0.000002   0.000000   0.000000   0.000000   0.000139   0.000001
    22  H    0.000002   0.000000   0.000000   0.000000   0.000136   0.000001
    23  H   -0.000001  -0.000000   0.000000   0.000000  -0.000000  -0.000190
    24  H    0.000026   0.000002   0.000000  -0.000000   0.000001  -0.000161
    25  H    0.000026   0.000002   0.000000  -0.000000   0.000001  -0.000156
    26  H   -0.052708  -0.007620   0.000476   0.018897   0.002592   0.000009
    27  H    0.383302  -0.033447   0.005814   0.001997   0.000016   0.002062
    28  H    0.013029  -0.026370   0.328011  -0.005187   0.000000   0.000007
    29  H    0.015451  -0.025655  -0.003761   0.326560   0.000005   0.000002
              19         20         21         22         23         24
     1  C   -0.028106   0.000302  -0.000483  -0.000479   0.000369   0.000092
     2  C    0.008116   0.004689  -0.010103  -0.010090   0.000042  -0.000047
     3  C   -0.000334  -0.000571   0.006516   0.006522  -0.000009  -0.000015
     4  C   -0.000746   0.000161  -0.000931  -0.000934   0.000140  -0.000865
     5  C    0.004084  -0.000003  -0.000081  -0.000081  -0.000693   0.005120
     6  C   -0.023370   0.000026   0.000049   0.000049   0.004641  -0.008062
     7  O    0.329297   0.000043  -0.000032  -0.000033   0.000018  -0.000045
     8  O   -0.000173  -0.029942  -0.040088  -0.040097  -0.000000  -0.000000
     9  C    0.000034   0.402835   0.397132   0.397113   0.000000   0.000000
    10  O    0.024477  -0.000000   0.000000   0.000000  -0.027893  -0.041151
    11  C   -0.001271   0.000000   0.000000   0.000000   0.402802   0.398011
    12  C   -0.000003  -0.000005   0.000030   0.000031   0.000002  -0.000043
    13  C    0.000000  -0.000000   0.000002   0.000002  -0.000001   0.000026
    14  C    0.000000   0.000000   0.000000   0.000000  -0.000000   0.000002
    15  O   -0.000000  -0.000000   0.000000   0.000000   0.000000   0.000000
    16  O   -0.000000   0.000000   0.000000   0.000000   0.000000  -0.000000
    17  H    0.000018  -0.000347   0.000139   0.000136  -0.000000   0.000001
    18  H    0.000058  -0.000000   0.000001   0.000001  -0.000190  -0.000161
    19  H    0.398093  -0.000004  -0.000000  -0.000000  -0.000289   0.000171
    20  H   -0.000004   0.519763  -0.025040  -0.025030  -0.000000   0.000000
    21  H   -0.000000  -0.025040   0.636150  -0.070706   0.000000   0.000000
    22  H   -0.000000  -0.025030  -0.070706   0.636159   0.000000  -0.000000
    23  H   -0.000289  -0.000000   0.000000   0.000000   0.516846  -0.024085
    24  H    0.000171   0.000000   0.000000  -0.000000  -0.024085   0.625505
    25  H    0.000171   0.000000  -0.000000   0.000000  -0.024100  -0.069451
    26  H    0.000000   0.000002  -0.000031  -0.000031   0.000000   0.000000
    27  H   -0.000000  -0.000000   0.000000   0.000000  -0.000000   0.000015
    28  H    0.000000  -0.000000   0.000000   0.000000  -0.000000  -0.000000
    29  H    0.000000  -0.000000  -0.000000  -0.000000  -0.000000  -0.000000
              25         26         27         28         29
     1  C    0.000090  -0.000003  -0.000071   0.000000   0.000000
     2  C   -0.000046   0.001020   0.000036  -0.000000  -0.000000
     3  C   -0.000015  -0.002016   0.000520  -0.000001   0.000001
     4  C   -0.000860  -0.046218  -0.007597   0.000033  -0.000001
     5  C    0.005117   0.005780   0.004500   0.000001  -0.000001
     6  C   -0.008087  -0.000107   0.000278   0.000000   0.000000
     7  O   -0.000045   0.000000  -0.000000   0.000000  -0.000000
     8  O   -0.000000   0.000010  -0.000000  -0.000000   0.000000
     9  C    0.000000  -0.000002   0.000000  -0.000000  -0.000000
    10  O   -0.041139   0.000002   0.000021  -0.000000   0.000000
    11  C    0.398038  -0.000001   0.000159  -0.000000  -0.000000
    12  C   -0.000044   0.425636  -0.009905  -0.001218  -0.002100
    13  C    0.000026  -0.052708   0.383302   0.013029   0.015451
    14  C    0.000002  -0.007620  -0.033447  -0.026370  -0.025655
    15  O    0.000000   0.000476   0.005814   0.328011  -0.003761
    16  O   -0.000000   0.018897   0.001997  -0.005187   0.326560
    17  H    0.000001   0.002592   0.000016   0.000000   0.000005
    18  H   -0.000156   0.000009   0.002062   0.000007   0.000002
    19  H    0.000171   0.000000  -0.000000   0.000000   0.000000
    20  H    0.000000   0.000002  -0.000000  -0.000000  -0.000000
    21  H   -0.000000  -0.000031   0.000000   0.000000  -0.000000
    22  H    0.000000  -0.000031   0.000000   0.000000  -0.000000
    23  H   -0.024100   0.000000  -0.000000  -0.000000  -0.000000
    24  H   -0.069451   0.000000   0.000015  -0.000000  -0.000000
    25  H    0.625484   0.000000   0.000015  -0.000000  -0.000000
    26  H    0.000000   0.494449   0.002607  -0.000074  -0.001061
    27  H    0.000015   0.002607   0.474733  -0.000405  -0.000256
    28  H   -0.000000  -0.000074  -0.000405   0.412348   0.007748
    29  H   -0.000000  -0.001061  -0.000256   0.007748   0.409657
 Mulliken charges:
               1
     1  C    0.219683
     2  C    0.169313
     3  C   -0.218681
     4  C    0.099165
     5  C   -0.169604
     6  C    0.164629
     7  O   -0.254649
     8  O   -0.210502
     9  C   -0.174223
    10  O   -0.278185
    11  C   -0.175749
    12  C   -0.082690
    13  C   -0.252415
    14  C    0.382294
    15  O   -0.220539
    16  O   -0.225158
    17  H    0.151986
    18  H    0.155618
    19  H    0.289776
    20  H    0.153122
    21  H    0.107476
    22  H    0.107468
    23  H    0.152401
    24  H    0.114981
    25  H    0.114998
    26  H    0.158391
    27  H    0.175607
    28  H    0.272077
    29  H    0.273409
 Sum of Mulliken charges =   1.00000
 Mulliken charges with hydrogens summed into heavy atoms:
               1
     1  C    0.219683
     2  C    0.169313
     3  C   -0.066695
     4  C    0.099165
     5  C   -0.013986
     6  C    0.164629
     7  O    0.035126
     8  O   -0.210502
     9  C    0.193843
    10  O   -0.278185
    11  C    0.206632
    12  C    0.075700
    13  C   -0.076808
    14  C    0.382294
    15  O    0.051539
    16  O    0.048252
 Electronic spatial extent (au):  <R**2>=           5035.0314
 Charge=              1.0000 electrons
 Dipole moment (field-independent basis, Debye):
    X=             10.6829    Y=             -0.1984    Z=              0.0028  Tot=             10.6848
 Quadrupole moment (field-independent basis, Debye-Ang):
   XX=             -6.3163   YY=            -56.9547   ZZ=            -94.0785
   XY=            -11.6745   XZ=              0.0057   YZ=             -0.0016
 Traceless Quadrupole moment (field-independent basis, Debye-Ang):
   XX=             46.1335   YY=             -4.5049   ZZ=            -41.6287
   XY=            -11.6745   XZ=              0.0057   YZ=             -0.0016
 Octapole moment (field-independent basis, Debye-Ang**2):
  XXX=            460.7993  YYY=              8.0690  ZZZ=             -0.0009  XYY=            -38.2384
  XXY=            -41.7248  XXZ=              0.0582  XZZ=              1.8551  YZZ=              0.4085
  YYZ=              0.0200  XYZ=             -0.0097
 Hexadecapole moment (field-independent basis, Debye-Ang**3):
 XXXX=          -1211.5424 YYYY=          -1428.5595 ZZZZ=           -106.6960 XXXY=           -400.5908
 XXXZ=              0.2893 YYYX=            -10.8826 YYYZ=              0.0150 ZZZX=              0.0060
 ZZZY=             -0.0018 XXYY=           -785.2315 XXZZ=           -722.7225 YYZZ=           -333.7723
 XXYZ=             -0.0727 YYXZ=             -0.0181 ZZXY=             -6.0176
 N-N= 1.075578503334D+03 E-N=-4.010962763373D+03  KE= 7.981909130122D+02
 Calling FoFJK, ICntrl=      2127 FMM=F ISym2X=0 I1Cent= 0 IOpClX= 0 NMat=1 NMatS=1 NMatT=0.
 ***** Axes restored to original set *****
 -------------------------------------------------------------------
 Center     Atomic                   Forces (Hartrees/Bohr)
 Number     Number              X              Y              Z
 -------------------------------------------------------------------
      1        6          -0.001320504   -0.000834713    0.000001580
      2        6          -0.002322298    0.001459509    0.000001425
      3        6           0.002331003    0.001452610   -0.000001808
      4        6          -0.001315426   -0.000379418   -0.000001239
      5        6           0.003245520   -0.000577870   -0.000000540
      6        6          -0.001900112   -0.002533248    0.000002921
      7        8          -0.003638402    0.001635281   -0.000000897
      8        8          -0.004422940   -0.000007177   -0.000005480
      9        6           0.000647950   -0.001076025    0.000001456
     10        8          -0.003556713   -0.000962868   -0.000009303
     11        6           0.000305544    0.001199912    0.000005937
     12        6          -0.000273742    0.001326642    0.000007745
     13        6          -0.000151626   -0.001939051    0.000010243
     14        6           0.002050049    0.001273981   -0.000012194
     15        8           0.001406389   -0.005372471   -0.000006451
     16        8          -0.001829604    0.005175112   -0.000005744
     17        1           0.001674271    0.004596752    0.000001122
     18        1           0.002939584   -0.003938723    0.000000881
     19        1          -0.000534472   -0.001703727    0.000000862
     20        1          -0.003941691    0.002008411    0.000000320
     21        1           0.002319039    0.000511530   -0.004009112
     22        1           0.002319262    0.000507657    0.004010519
     23        1          -0.003185666   -0.003071530    0.000001007
     24        1           0.002352237    0.000220562    0.004017737
     25        1           0.002353086    0.000215754   -0.004019010
     26        1           0.000945320    0.004823654   -0.000001739
     27        1          -0.000443822   -0.005061087   -0.000004001
     28        1           0.001767038    0.001240738    0.000007628
     29        1           0.002180725   -0.000190198    0.000006138
 -------------------------------------------------------------------
 Cartesian Forces:  Max     0.005372471 RMS     0.002148520

 GradGradGradGradGradGradGradGradGradGradGradGradGradGradGradGradGradGrad
 Berny optimization.
 FormGI is forming the generalized inverse of G from B-inverse, IUseBI=4.
 Internal  Forces:  Max     0.007470978 RMS     0.002354826
 Search for a local minimum.
 Step number   1 out of a maximum of  135
 All quantities printed in internal units (Hartrees-Bohrs-Radians)
 Mixed Optimization -- RFO/linear search
 Second derivative matrix not updated -- first step.
 ITU=  0
     Eigenvalues ---    0.01368   0.01402   0.01844   0.01861   0.01915
     Eigenvalues ---    0.01952   0.02029   0.02063   0.02086   0.02130
     Eigenvalues ---    0.02152   0.02180   0.02226   0.02230   0.02241
     Eigenvalues ---    0.02254   0.02331   0.02470   0.02514   0.02724
     Eigenvalues ---    0.02781   0.02813   0.10182   0.10234   0.10716
     Eigenvalues ---    0.10724   0.16000   0.16000   0.16000   0.16000
     Eigenvalues ---    0.16000   0.16000   0.16000   0.16000   0.16000
     Eigenvalues ---    0.16000   0.16000   0.16000   0.16000   0.22000
     Eigenvalues ---    0.22000   0.23476   0.23486   0.25000   0.25000
     Eigenvalues ---    0.25000   0.25000   0.25000   0.25000   0.25000
     Eigenvalues ---    0.25000   0.25000   0.33817   0.33818   0.33915
     Eigenvalues ---    0.33915   0.34556   0.34717   0.34727   0.35157
     Eigenvalues ---    0.35340   0.35374   0.39437   0.41030   0.41790
     Eigenvalues ---    0.42172   0.42547   0.42979   0.43507   0.46531
     Eigenvalues ---    0.47381   0.47755   0.49100   0.53216   0.53819
     Eigenvalues ---    0.53912   0.54666   0.56944   0.61440   0.62519
     Eigenvalues ---    0.63128
 RFO step:  Lambda=-1.65747381D-03 EMin= 1.36771929D-02
 Linear search not attempted -- first point.
 Iteration  1 RMS(Cart)=  0.01316075 RMS(Int)=  0.00001921
 Iteration  2 RMS(Cart)=  0.00003858 RMS(Int)=  0.00000187
 Iteration  3 RMS(Cart)=  0.00000000 RMS(Int)=  0.00000187
 Variable       Old X    -DE/DX   Delta X   Delta X   Delta X     New X
                                 (Linear)    (Quad)   (Total)
    R1        2.67321  -0.00521   0.00000  -0.01196  -0.01196   2.66125
    R2        2.68302  -0.00553   0.00000  -0.01295  -0.01295   2.67007
    R3        2.49818  -0.00413   0.00000  -0.00670  -0.00670   2.49148
    R4        2.61620  -0.00726   0.00000  -0.01495  -0.01495   2.60125
    R5        2.53444  -0.00356   0.00000  -0.00624  -0.00624   2.52820
    R6        2.68167  -0.00544   0.00000  -0.01274  -0.01274   2.66893
    R7        2.05420  -0.00489   0.00000  -0.01384  -0.01384   2.04036
    R8        2.68175  -0.00553   0.00000  -0.01297  -0.01297   2.66878
    R9        2.67049  -0.00580   0.00000  -0.01328  -0.01328   2.65722
   R10        2.60264  -0.00747   0.00000  -0.01504  -0.01504   2.58760
   R11        2.05127  -0.00491   0.00000  -0.01383  -0.01383   2.03744
   R12        2.55430  -0.00293   0.00000  -0.00534  -0.00534   2.54896
   R13        1.83452  -0.00177   0.00000  -0.00332  -0.00332   1.83120
   R14        2.68704  -0.00225   0.00000  -0.00531  -0.00531   2.68173
   R15        2.06121  -0.00440   0.00000  -0.01261  -0.01261   2.04859
   R16        2.07639  -0.00463   0.00000  -0.01363  -0.01363   2.06276
   R17        2.07640  -0.00463   0.00000  -0.01363  -0.01363   2.06277
   R18        2.69191  -0.00223   0.00000  -0.00532  -0.00532   2.68659
   R19        2.06137  -0.00439   0.00000  -0.01259  -0.01259   2.04878
   R20        2.07473  -0.00464   0.00000  -0.01361  -0.01361   2.06112
   R21        2.07474  -0.00464   0.00000  -0.01361  -0.01361   2.06113
   R22        2.62201  -0.00693   0.00000  -0.01446  -0.01446   2.60755
   R23        2.06402  -0.00491   0.00000  -0.01415  -0.01415   2.04987
   R24        2.62604  -0.00597   0.00000  -0.01255  -0.01255   2.61349
   R25        2.05072  -0.00508   0.00000  -0.01428  -0.01428   2.03644
   R26        2.48547  -0.00513   0.00000  -0.00810  -0.00810   2.47737
   R27        2.49001  -0.00496   0.00000  -0.00791  -0.00791   2.48210
   R28        1.82897  -0.00211   0.00000  -0.00391  -0.00391   1.82506
   R29        1.82812  -0.00209   0.00000  -0.00386  -0.00386   1.82426
    A1        2.10994   0.00009   0.00000   0.00035   0.00035   2.11030
    A2        2.06899   0.00089   0.00000   0.00355   0.00355   2.07253
    A3        2.10426  -0.00098   0.00000  -0.00390  -0.00390   2.10036
    A4        2.06843  -0.00037   0.00000  -0.00140  -0.00140   2.06703
    A5        2.00690   0.00030   0.00000   0.00118   0.00118   2.00808
    A6        2.20785   0.00006   0.00000   0.00022   0.00022   2.20807
    A7        2.10769   0.00049   0.00000   0.00217   0.00217   2.10986
    A8        2.09966  -0.00014   0.00000  -0.00042  -0.00042   2.09924
    A9        2.07583  -0.00035   0.00000  -0.00174  -0.00174   2.07409
   A10        2.10049  -0.00051   0.00000  -0.00217  -0.00217   2.09832
   A11        2.05019   0.00001   0.00000   0.00013   0.00013   2.05032
   A12        2.13251   0.00049   0.00000   0.00204   0.00204   2.13454
   A13        2.07733   0.00039   0.00000   0.00155   0.00155   2.07888
   A14        2.10796  -0.00043   0.00000  -0.00223  -0.00223   2.10573
   A15        2.09790   0.00004   0.00000   0.00068   0.00068   2.09858
   A16        2.10248  -0.00010   0.00000  -0.00050  -0.00050   2.10198
   A17        1.96678  -0.00020   0.00000  -0.00072  -0.00072   1.96606
   A18        2.21393   0.00029   0.00000   0.00122   0.00122   2.21514
   A19        1.90816  -0.00041   0.00000  -0.00252  -0.00252   1.90563
   A20        2.04580   0.00175   0.00000   0.00694   0.00694   2.05275
   A21        1.84558   0.00054   0.00000   0.00354   0.00353   1.84911
   A22        1.93013   0.00048   0.00000   0.00291   0.00290   1.93303
   A23        1.93011   0.00049   0.00000   0.00292   0.00291   1.93302
   A24        1.91549  -0.00042   0.00000  -0.00240  -0.00241   1.91308
   A25        1.91550  -0.00042   0.00000  -0.00240  -0.00241   1.91309
   A26        1.92549  -0.00064   0.00000  -0.00430  -0.00431   1.92119
   A27        2.05086   0.00152   0.00000   0.00604   0.00604   2.05690
   A28        1.84926   0.00067   0.00000   0.00441   0.00440   1.85366
   A29        1.92377   0.00043   0.00000   0.00254   0.00254   1.92630
   A30        1.92376   0.00043   0.00000   0.00254   0.00254   1.92629
   A31        1.91789  -0.00042   0.00000  -0.00236  -0.00237   1.91553
   A32        1.91787  -0.00042   0.00000  -0.00235  -0.00236   1.91551
   A33        1.92974  -0.00064   0.00000  -0.00443  -0.00443   1.92531
   A34        2.22085   0.00058   0.00000   0.00264   0.00264   2.22349
   A35        2.02326  -0.00007   0.00000   0.00003   0.00003   2.02329
   A36        2.03908  -0.00051   0.00000  -0.00267  -0.00267   2.03641
   A37        2.10572  -0.00002   0.00000  -0.00007  -0.00007   2.10564
   A38        2.15843  -0.00015   0.00000  -0.00092  -0.00092   2.15751
   A39        2.01904   0.00016   0.00000   0.00099   0.00099   2.02003
   A40        2.06490   0.00068   0.00000   0.00272   0.00272   2.06762
   A41        2.11166  -0.00007   0.00000  -0.00029  -0.00029   2.11137
   A42        2.10663  -0.00061   0.00000  -0.00243  -0.00243   2.10420
   A43        2.00637   0.00088   0.00000   0.00544   0.00544   2.01181
   A44        1.99948   0.00120   0.00000   0.00740   0.00740   2.00688
    D1        0.00001   0.00000   0.00000   0.00001   0.00001   0.00002
    D2       -3.14158   0.00000   0.00000   0.00003   0.00003  -3.14156
    D3       -3.14157  -0.00000   0.00000  -0.00002  -0.00002  -3.14159
    D4        0.00002   0.00000   0.00000   0.00000   0.00000   0.00002
    D5        0.00002  -0.00000   0.00000  -0.00001  -0.00001   0.00001
    D6        3.14159  -0.00000   0.00000  -0.00003  -0.00003   3.14157
    D7       -3.14159   0.00000   0.00000   0.00002   0.00002  -3.14157
    D8       -0.00002   0.00000   0.00000   0.00000   0.00000  -0.00001
    D9        3.14153   0.00000   0.00000   0.00004   0.00004   3.14157
   D10       -0.00005   0.00000   0.00000   0.00001   0.00001  -0.00004
   D11       -0.00004   0.00000   0.00000   0.00001   0.00001  -0.00003
   D12        3.14157   0.00000   0.00000   0.00001   0.00001   3.14158
   D13        3.14156  -0.00000   0.00000  -0.00002  -0.00002   3.14154
   D14       -0.00002  -0.00000   0.00000  -0.00001  -0.00001  -0.00003
   D15       -3.14123  -0.00000   0.00000  -0.00012  -0.00012  -3.14134
   D16        0.00036  -0.00000   0.00000  -0.00010  -0.00010   0.00027
   D17        0.00004  -0.00000   0.00000  -0.00002  -0.00002   0.00002
   D18       -3.14149  -0.00000   0.00000  -0.00004  -0.00004  -3.14154
   D19       -3.14156  -0.00000   0.00000  -0.00002  -0.00002  -3.14159
   D20        0.00009  -0.00000   0.00000  -0.00005  -0.00005   0.00004
   D21       -0.00001   0.00000   0.00000   0.00002   0.00002   0.00000
   D22        3.14156   0.00000   0.00000   0.00002   0.00002   3.14158
   D23        3.14152   0.00000   0.00000   0.00004   0.00004   3.14156
   D24       -0.00009   0.00000   0.00000   0.00004   0.00004  -0.00005
   D25        3.14140   0.00000   0.00000   0.00014   0.00014   3.14153
   D26       -0.00010  -0.00000   0.00000  -0.00000  -0.00000  -0.00010
   D27       -0.00014   0.00000   0.00000   0.00012   0.00012  -0.00002
   D28        3.14155  -0.00000   0.00000  -0.00003  -0.00003   3.14152
   D29       -0.00001  -0.00000   0.00000  -0.00000  -0.00000  -0.00002
   D30       -3.14159   0.00000   0.00000   0.00001   0.00001  -3.14157
   D31       -3.14159  -0.00000   0.00000  -0.00001  -0.00001   3.14159
   D32        0.00002   0.00000   0.00000   0.00001   0.00001   0.00004
   D33        3.14108   0.00000   0.00000   0.00017   0.00017   3.14125
   D34       -0.00053   0.00000   0.00000   0.00015   0.00015  -0.00038
   D35        3.14134   0.00000   0.00000   0.00005   0.00005   3.14139
   D36       -1.06933   0.00008   0.00000   0.00078   0.00079  -1.06855
   D37        1.06883  -0.00008   0.00000  -0.00069  -0.00069   1.06813
   D38       -3.14116  -0.00000   0.00000  -0.00009  -0.00009  -3.14125
   D39       -1.06702   0.00011   0.00000   0.00099   0.00100  -1.06602
   D40        1.06791  -0.00011   0.00000  -0.00118  -0.00118   1.06673
   D41       -3.14151  -0.00000   0.00000  -0.00011  -0.00011   3.14156
   D42       -0.00005  -0.00000   0.00000  -0.00003  -0.00003  -0.00008
   D43       -0.00001   0.00000   0.00000   0.00003   0.00003   0.00002
   D44        3.14145   0.00000   0.00000   0.00011   0.00011   3.14156
   D45       -3.14154  -0.00000   0.00000  -0.00010  -0.00010   3.14154
   D46        0.00003   0.00000   0.00000   0.00010   0.00010   0.00014
   D47        0.00017  -0.00000   0.00000  -0.00017  -0.00017  -0.00000
   D48       -3.14144   0.00000   0.00000   0.00003   0.00003  -3.14140
   D49        3.14117   0.00001   0.00000   0.00029   0.00029   3.14147
   D50       -0.00040   0.00000   0.00000   0.00009   0.00009  -0.00031
   D51       -3.14084  -0.00001   0.00000  -0.00024  -0.00024  -3.14107
   D52        0.00074  -0.00000   0.00000  -0.00003  -0.00003   0.00071
         Item               Value     Threshold  Converged?
 Maximum Force            0.007471     0.000450     NO 
 RMS     Force            0.002355     0.000300     NO 
 Maximum Displacement     0.047612     0.001800     NO 
 RMS     Displacement     0.013171     0.001200     NO 
 Predicted change in Energy=-8.322260D-04
 GradGradGradGradGradGradGradGradGradGradGradGradGradGradGradGradGradGrad

                          Input orientation:                          
 ---------------------------------------------------------------------
 Center     Atomic      Atomic             Coordinates (Angstroms)
 Number     Number       Type             X           Y           Z
 ---------------------------------------------------------------------
      1          6           0        2.383649    0.201355    0.000040
      2          6           0        1.914214   -1.126375    0.000012
      3          6           0        0.554490   -1.340769   -0.000059
      4          6           0       -0.350436   -0.256426   -0.000066
      5          6           0        0.130928    1.071261   -0.000024
      6          6           0        1.482678    1.289775    0.000018
      7          8           0        3.684843    0.413867    0.000101
      8          8           0        2.868017   -2.064537    0.000081
      9          6           0        2.455179   -3.422269   -0.000257
     10          8           0        2.110429    2.483648    0.000083
     11          6           0        1.306975    3.656524   -0.000363
     12          6           0       -1.723922   -0.557699   -0.000070
     13          6           0       -2.777359    0.333519   -0.000013
     14          6           0       -4.084034   -0.119568   -0.000060
     15          8           0       -5.051966    0.764595    0.000057
     16          8           0       -4.353727   -1.405052   -0.000005
     17          1           0        0.161980   -2.346607   -0.000096
     18          1           0       -0.553739    1.904130   -0.000039
     19          1           0        3.851599    1.368440    0.000090
     20          1           0        3.365805   -4.010455   -0.000350
     21          1           0        1.872306   -3.649563    0.894235
     22          1           0        1.872388   -3.649130   -0.894915
     23          1           0        1.994853    4.494526   -0.000584
     24          1           0        0.684795    3.690138   -0.895566
     25          1           0        0.684677    3.690729    0.894737
     26          1           0       -1.978146   -1.612234   -0.000171
     27          1           0       -2.653215    1.403983    0.000118
     28          1           0       -5.945378    0.397788   -0.000094
     29          1           0       -5.293818   -1.624458   -0.000497
 ---------------------------------------------------------------------
                    Distance matrix (angstroms):
                    1          2          3          4          5
     1  C    0.000000
     2  C    1.408274   0.000000
     3  C    2.392482   1.376523   0.000000
     4  C    2.772145   2.425995   1.412336   0.000000
     5  C    2.414847   2.830143   2.448937   1.412255   0.000000
     6  C    1.412942   2.454384   2.789497   2.398134   1.369298
     7  O    1.318434   2.346800   3.588573   4.090571   3.614205
     8  O    2.317085   1.337868   2.424098   3.691573   4.162318
     9  C    3.624331   2.358766   2.818734   4.230135   5.059047
    10  O    2.298588   3.615351   4.128815   3.682915   2.431719
    11  C    3.619036   4.821292   5.053630   4.249493   2.840189
    12  C    4.177117   3.682313   2.409224   1.406140   2.468599
    13  C    5.162700   4.913466   3.728869   2.497597   3.000400
    14  C    6.475640   6.082157   4.796585   3.736105   4.379952
    15  O    7.456917   7.218271   5.988732   4.811119   5.191959
    16  O    6.926239   6.274133   4.908638   4.164814   5.122915
    17  H    3.380521   2.135250   1.079710   2.152075   3.418009
    18  H    3.395245   3.908292   3.428927   2.170100   1.078165
    19  H    1.875357   3.158727   4.267404   4.505251   3.732520
    20  H    4.324809   3.228783   3.876947   5.282347   6.023974
    21  H    3.986305   2.677288   2.804805   4.153762   5.110604
    22  H    3.986047   2.677114   2.804666   4.153570   5.110343
    23  H    4.310740   5.621479   6.010433   5.298294   3.897814
    24  H    3.982439   5.050973   5.111647   4.177199   2.822637
    25  H    3.982803   5.051414   5.112102   4.177579   2.822915
    26  H    4.723808   3.922566   2.547143   2.118408   3.413112
    27  H    5.178447   5.221505   4.221733   2.838969   2.803953
    28  H    8.331343   8.006014   6.728363   5.633060   6.113515
    29  H    7.891584   7.225220   5.855184   5.129184   6.057621
                    6          7          8          9         10
     6  C    0.000000
     7  O    2.369967   0.000000
     8  O    3.629129   2.609539   0.000000
     9  C    4.811353   4.028401   1.419110   0.000000
    10  O    1.348853   2.600533   4.610849   5.915971   0.000000
    11  C    2.373262   4.021080   5.930211   7.171310   1.421681
    12  C    3.700736   5.495333   4.832853   5.066621   4.894082
    13  C    4.366045   6.462702   6.133593   6.440917   5.339806
    14  C    5.742345   7.787169   7.218997   7.325922   6.719234
    15  O    6.555715   8.743846   8.410121   8.595758   7.365803
    16  O    6.428508   8.241788   7.251794   7.101434   7.543692
    17  H    3.868787   4.475576   2.720699   2.532946   5.208437
    18  H    2.127070   4.492935   5.240108   6.117525   2.726469
    19  H    2.370226   0.969028   3.571101   4.990078   2.067695
    20  H    5.624820   4.435810   2.008579   1.084067   6.614328
    21  H    5.034729   4.538307   2.074430   1.091568   6.202619
    22  H    5.034438   4.538061   2.074423   1.091569   6.202310
    23  H    3.245420   4.416768   6.616927   7.930167   2.014197
    24  H    2.683362   4.531717   6.219721   7.383913   2.071289
    25  H    2.683638   4.532019   6.220167   7.384473   2.071285
    26  H    4.516520   6.014526   4.867225   4.788590   5.787287
    27  H    4.137469   6.414928   6.520325   7.027688   4.884463
    28  H    7.481421   9.630235   9.150901   9.228337   8.321468
    29  H    7.376561   9.207123   8.173691   7.954815   8.467550
                   11         12         13         14         15
    11  C    0.000000
    12  C    5.190955   0.000000
    13  C    5.265372   1.379855   0.000000
    14  C    6.581933   2.400434   1.382999   0.000000
    15  O    6.985656   3.581109   2.315095   1.310968   0.000000
    16  O    7.593622   2.762948   2.346820   1.313469   2.279233
    17  H    6.111350   2.599388   3.977787   4.794615   6.071640
    18  H    2.556001   2.725790   2.722371   4.069193   4.640322
    19  H    3.422052   5.898851   6.709258   8.073935   8.924018
    20  H    7.938599   6.150354   7.523868   8.404707   9.677809
    21  H    7.382331   4.826206   6.187408   6.981305   8.260139
    22  H    7.381904   4.826089   6.187285   6.981227   8.260062
    23  H    1.084169   6.273297   6.331507   7.631692   7.973082
    24  H    1.090700   4.964670   4.904632   6.169078   6.501644
    25  H    1.090701   4.964995   4.904807   6.169249   6.501676
    26  H    6.209012   1.084746   2.103497   2.581243   3.885574
    27  H    4.555990   2.170663   1.077638   2.090084   2.482504
    28  H    7.950848   4.328238   3.168671   1.931906   0.965780
    29  H    8.453357   3.725873   3.188454   1.930873   2.401263
                   16         17         18         19         20
[...]
 99,0.00001320,0.00003924,0.00000121,0.00002438,-0.00006885,-0.00000719
 ,-0.00002596,0.00002115,0.00000299,-0.00000129,0.00004928,0.00000820,0
 .00061618,0.00013022,-0.00007456,0.00002120,0.00005411,0.00000251,0.00
 000435,0.00001068,-0.00002069,0.00143755,0.00101187,0.00151974,-0.0147
 4745,-0.00366888,-0.01981114,0.12658395,0.04507074,0.24523608,0.000810
 61,0.00118721,0.00000005,-0.00052963,-0.00008041,0.00000007,0.00011678
 ,-0.00015227,-0.00000002,0.00056259,0.00003959,0.00000010,-0.00105140,
 0.00007247,0.00000012,-0.00228477,0.00347869,-0.00000107,-0.00001415,-
 0.00019311,-0.00000002,0.00008167,0.00010702,0.,-0.00001883,0.00001643
 ,0.,0.01419173,0.02655115,-0.00000314,-0.17248828,-0.15082494,0.000017
 66,-0.00010280,0.00011719,0.,0.00002209,0.00001160,0.,0.00004326,-0.00
 001592,0.,-0.00001744,0.00000038,0.,-0.00003073,-0.00001942,0.,0.00003
 507,-0.00002435,0.,0.00051311,-0.00046494,-0.00000008,0.00000361,0.000
 15870,-0.00000002,0.00000553,0.00001061,0.,-0.00000214,0.00000367,-0.0
 0000161,-0.00000214,0.00000366,0.00000161,0.17882974,-0.00119883,-0.00
 131984,0.00000006,0.00037659,0.00008320,-0.00000009,0.00000517,-0.0000
 0783,0.00000002,-0.00055338,-0.00006541,0.,0.00086657,0.00022738,-0.00
 000007,0.00436709,-0.00129220,0.00000174,0.00022027,0.00022006,0.,0.00
 000988,-0.00028194,-0.00000001,0.00004788,0.00005621,0.00000002,-0.013
 95494,-0.03458509,0.00000298,-0.13434714,-0.20570361,0.00002171,0.0003
 8778,-0.00016149,0.,-0.00030967,0.00003545,0.,0.00031599,0.00010355,-0
 .00000003,-0.00016409,0.00008625,0.,-0.00005767,-0.00011671,0.00000003
 ,-0.00002274,0.00001408,0.,-0.00016234,0.00028168,-0.00000008,-0.00009
 748,-0.00025223,0.00000005,-0.00000358,-0.00001716,0.,-0.00000765,-0.0
 0000648,-0.00000036,-0.00000765,-0.00000647,0.00000036,0.14392815,0.23
 647146,0.,0.00000033,0.00028782,-0.00000015,-0.00000007,-0.00000434,0.
 00000007,-0.00000007,-0.00002556,0.00000012,0.00000011,0.00016590,-0.0
 0000012,-0.00000023,0.00035414,-0.00000068,-0.00000036,0.00043118,0.00
 000006,0.,-0.00010408,0.,0.00000004,-0.00003017,0.,0.,-0.00000653,0.00
 000217,0.00000584,0.00030004,0.00001538,0.00002101,-0.05169984,-0.0000
 0004,0.00000003,0.00002837,0.00000002,0.,0.00001501,-0.00000003,-0.000
 00001,-0.00000158,0.00000001,0.,0.00000205,0.,0.00000001,-0.00000148,0
 .,0.,-0.00003073,0.,-0.00000024,-0.00047079,0.00000001,0.00000003,0.00
 016425,0.,0.,0.00000259,0.00000142,0.00000030,-0.00000022,-0.00000142,
 -0.00000030,-0.00000022,-0.00001683,-0.00002567,0.04727761,-0.00019657
 ,0.00066094,0.00013143,-0.00002415,-0.00027056,0.00001051,0.00013637,0
 .00022719,-0.00001416,0.00026417,-0.00008712,-0.00020251,0.00003990,0.
 00051232,0.00030554,-0.00057292,-0.00348226,0.00036915,0.00004449,0.00
 026410,0.00009816,-0.00002982,0.00018467,-0.00000538,-0.00002140,-0.00
 007848,-0.00001302,-0.01720553,0.01396805,-0.01512993,-0.13117243,-0.0
 0188008,-0.11932712,-0.00034235,0.00019783,0.00002606,0.00035691,-0.00
 005409,-0.00002158,-0.00043420,-0.00013234,-0.00000903,0.00022275,-0.0
 0010348,-0.00000133,0.00010720,0.00018311,0.00000371,0.00001920,-0.000
 01011,0.00000729,0.00003527,-0.00065224,0.00066461,0.00050553,-0.00035
 829,-0.00023097,-0.00000356,0.00000813,-0.00000123,0.00000889,0.000009
 20,0.00000633,0.00000924,0.00000705,-0.00000492,-0.00936192,0.00016326
 ,-0.01739684,0.14584240,0.00123627,-0.00120914,-0.00065518,0.00046750,
 0.00041491,-0.00014996,-0.00037502,0.00023316,-0.00003634,-0.00050361,
 -0.00062129,-0.00045677,-0.00097652,0.00073688,-0.00014144,0.00319182,
 0.00643536,0.00181683,-0.00067620,-0.00056700,-0.00001617,0.00002785,-
 0.00014009,0.00003717,0.00000208,0.00002827,0.00003670,0.02585466,-0.0
 1542948,0.02591536,-0.00618122,-0.05132624,-0.00612379,0.00044044,-0.0
 0018474,0.00004073,-0.00026256,0.00004938,-0.00002746,0.00023427,0.000
 12101,0.00000698,-0.00012084,0.00006188,0.00000298,-0.00003661,-0.0001
 1009,-0.00000320,-0.00002087,0.00000085,0.00003898,-0.00054742,-0.0012
 9459,0.00137526,-0.00055511,0.00040207,0.00020378,-0.00000285,-0.00000
 405,-0.00000027,0.00000022,-0.00002062,0.00000043,-0.00000195,-0.00000
 582,-0.00000444,-0.01195128,0.00311247,-0.02081347,-0.00787984,0.05810
 520,-0.00009994,0.00050035,-0.00024529,-0.00026735,-0.00008677,-0.0000
 1629,0.00013738,-0.00006266,-0.00006518,0.00050323,-0.00012441,-0.0000
 5491,-0.00121020,0.00041282,-0.00026627,-0.00026198,-0.00103928,0.0005
 7161,0.00026044,-0.00005742,0.00001885,0.00013527,-0.00010362,0.000008
 59,0.00001267,0.00004258,0.00000393,0.00056220,0.00440243,0.00719936,-
 0.12278435,-0.00000573,-0.23754013,-0.00011338,0.00011074,0.00002607,0
 .00003083,0.00003497,0.00000688,0.00004956,0.00002472,-0.00000568,-0.0
 0001010,-0.00002075,0.00000769,-0.00005279,-0.00006296,0.00000119,0.00
 003919,-0.00004047,-0.00000183,0.00066235,0.00010673,-0.00006977,0.000
 05245,-0.00011524,0.00000050,0.00000230,-0.00000098,0.00000003,-0.0000
 0758,-0.00000324,-0.00000153,-0.00000761,0.00000135,0.00000156,0.00180
 683,-0.00055530,0.00169830,0.13559159,-0.00222979,0.24817121,-0.000196
 63,0.00066103,-0.00013128,-0.00002414,-0.00027050,-0.00001059,0.000136
 30,0.00022720,0.00001419,0.00026435,-0.00008713,0.00020255,0.00003957,
 0.00051176,-0.00030576,-0.00057349,-0.00348219,-0.00036846,0.00004459,
 0.00026422,-0.00009813,-0.00002981,0.00018469,0.00000539,-0.00002141,-
 0.00007849,0.00001299,-0.01720620,0.01397419,0.01512357,-0.13118516,-0
 .00184744,0.11933368,-0.00034247,0.00019786,-0.00002607,0.00035698,-0.
 00005410,0.00002159,-0.00043425,-0.00013236,0.00000911,0.00022277,-0.0
 0010350,0.00000130,0.00010720,0.00018312,-0.00000380,0.00001921,-0.000
 01012,-0.00000730,0.00003539,-0.00065211,-0.00066445,0.00050561,-0.000
 35834,0.00023091,-0.00000356,0.00000813,0.00000123,0.00000924,0.000007
 05,0.00000492,0.00000889,0.00000920,-0.00000633,-0.00936318,0.00016844
 ,0.01739684,0.01186416,-0.00137898,-0.01510860,0.14585764,0.00123588,-
 0.00120930,0.00065526,0.00046748,0.00041475,0.00015000,-0.00037490,0.0
 0023304,0.00003633,-0.00050363,-0.00062101,0.00045667,-0.00097677,0.00
 073552,0.00014088,0.00319168,0.00643395,-0.00181606,-0.00067617,-0.000
 56708,0.00001613,0.00002778,-0.00014012,-0.00003716,0.00000210,0.00002
 827,-0.00003670,0.02585728,-0.01543773,-0.02590882,-0.00614633,-0.0513
 2168,0.00606747,0.00044047,-0.00018475,-0.00004070,-0.00026262,0.00004
 938,0.00002744,0.00023431,0.00012101,-0.00000704,-0.00012087,0.0000619
 0,-0.00000296,-0.00003661,-0.00011009,0.00000326,-0.00002088,0.0000008
 5,-0.00003898,-0.00054745,-0.00129495,-0.00137529,-0.00055523,0.000402
 13,-0.00020373,-0.00000285,-0.00000406,0.00000027,-0.00000195,-0.00000
 581,0.00000443,0.00000022,-0.00002062,-0.00000043,-0.01195377,0.003119
 23,0.02081275,-0.00137413,0.00118735,-0.00116492,-0.00791879,0.0581055
 0,0.00009966,-0.00049959,-0.00024553,0.00026704,0.00008648,-0.00001629
 ,-0.00013705,0.00006262,-0.00006519,-0.00050324,0.00012458,-0.00005513
 ,0.00121063,-0.00041307,-0.00026638,0.00026121,0.00103702,0.00057156,-
 0.00026028,0.00005756,0.00001884,-0.00013525,0.00010365,0.00000860,-0.
 00001267,-0.00004258,0.00000393,-0.00057228,-0.00439515,0.00721059,0.1
 2279229,-0.00004936,-0.23752386,0.00011332,-0.00011064,0.00002608,-0.0
 0003080,-0.00003498,0.00000687,-0.00004959,-0.00002474,-0.00000567,0.0
 0001012,0.00002074,0.00000769,0.00005279,0.00006298,0.00000118,-0.0000
 3918,0.00004047,-0.00000180,-0.00066218,-0.00010674,-0.00006924,-0.000
 05226,0.00011509,0.00000056,-0.00000229,0.00000098,0.00000002,0.000007
 61,-0.00000134,0.00000156,0.00000758,0.00000325,-0.00000153,-0.0018036
 6,0.00055465,0.00169227,0.01511043,0.00115819,-0.01940107,-0.13559435,
 0.00228681,0.24814973,-0.00024466,-0.00019949,-0.00000001,0.00007915,0
 .00065021,0.,0.00005462,-0.00208392,0.,-0.00503449,-0.03008622,-0.0000
 0044,-0.00535683,0.00062153,0.00000004,0.00049379,-0.00180644,-0.00000
 005,0.00025981,0.00024737,0.,0.00001857,0.00006523,0.00000001,-0.00005
 217,-0.00009679,0.,-0.00053477,0.00014376,0.00000003,-0.00002180,0.000
 05458,-0.00000002,-0.07305505,-0.06307951,-0.00000142,0.00838569,0.025
 30634,0.00000033,0.00113833,0.00333289,-0.00000015,0.00040855,-0.00074
 824,0.00000014,-0.00338032,-0.00164695,0.00000061,-0.00099723,0.000950
 44,-0.00000001,0.00009853,0.00004184,0.,0.00003708,-0.00008948,0.,0.00
 003488,0.00002410,0.,-0.00000968,0.00000704,-0.00006171,-0.00000968,0.
 00000703,0.00006171,0.00000004,-0.00000254,0.,-0.00000040,0.00000868,-
 0.00000736,-0.00000040,0.00000868,0.00000736,0.08142673,-0.00029438,-0
 .00000741,-0.00000001,0.00023654,0.00057608,0.00000001,0.00214166,0.00
 142484,0.00000006,-0.00026836,-0.00538746,-0.00000014,-0.00083458,0.00
 080985,-0.00000004,0.00051179,-0.00055656,-0.00000002,0.00022445,0.000
 10837,0.,0.00000339,-0.00012398,0.,0.00000132,0.00004831,0.,-0.0001286
 1,0.00011858,0.00000002,0.00001414,-0.00001804,0.,-0.06355878,-0.32536
 361,-0.00000483,-0.00457709,-0.01789568,-0.00000040,-0.00063966,-0.002
 07265,0.00000026,0.00015046,0.00025816,-0.00000004,-0.00190944,0.00118
 769,-0.00000029,-0.00005106,0.00054263,-0.00000001,0.00010978,0.000058
 99,0.,0.00001273,-0.00004649,0.,-0.00000422,-0.00000616,0.,0.00000600,
 -0.00000496,0.00001879,0.00000600,-0.00000495,-0.00001879,-0.00000862,
 0.00000392,0.,0.00000395,0.00000996,-0.00001430,0.00000395,0.00000996,
 0.00001429,0.06664945,0.34570264,-0.00000009,-0.00000004,0.00048110,0.
 00000007,0.00000008,0.00053179,-0.00000005,0.00000003,-0.00391585,0.00
 000030,-0.00000035,0.00756441,-0.00000006,-0.00000006,0.00576413,0.,-0
 .00000013,-0.00012192,0.00000007,0.00000003,-0.00015664,-0.00000002,0.
 ,0.00017224,0.,0.,0.00002815,0.00000002,0.00000006,-0.00091683,0.00000
 001,0.00000003,0.00008734,-0.00000184,-0.00000501,-0.04884200,0.000000
 09,-0.00000008,0.00778693,-0.00000020,0.00000024,-0.00486007,-0.000000
 15,-0.00000005,0.00011591,0.00000078,-0.00000037,0.00070027,-0.0000000
 2,0.00000002,0.00021903,0.,0.,0.00000377,0.,-0.00000001,-0.00002345,0.
 ,0.,-0.00001175,0.00000166,0.00001577,-0.00002020,-0.00000166,-0.00001
 576,-0.00002020,0.,0.,-0.00001175,0.00001011,0.00002002,0.00000021,-0.
 00001011,-0.00002001,0.00000022,0.00000141,0.00000529,0.02860504,0.000
 36649,0.00034937,0.00000001,-0.00063361,-0.00058591,0.,0.00077376,-0.0
 0043406,0.,-0.00049896,-0.00118765,0.00000004,-0.00053036,0.00081584,0
 .00000002,-0.00034701,-0.00026005,0.,-0.00029586,-0.00019156,0.,0.0001
 5164,-0.00014482,0.,0.00004138,0.00009612,0.00000001,0.00016063,-0.000
 00716,0.00000002,-0.00007102,0.00008228,-0.00000002,0.01145350,0.02498
 808,0.00000038,-0.06210435,-0.03195855,-0.00000109,-0.00039940,-0.0317
 0865,0.00000032,0.00030052,0.00029846,0.00000006,-0.00691043,-0.001451
 18,-0.00000147,0.00012930,-0.00015807,0.,-0.00314659,-0.00100182,-0.00
 000006,-0.00005381,0.00008067,0.,-0.00000194,-0.00000563,0.,-0.0000106
 5,0.00000233,0.00001087,-0.00001065,0.00000234,-0.00001087,0.00003874,
 -0.00001373,0.,-0.00001527,-0.00002737,0.00006494,-0.00001526,-0.00002
 738,-0.00006494,-0.00368840,0.00234996,-0.00000013,0.06493644,0.000080
 80,-0.00015647,0.00000001,0.00006326,-0.00008888,0.,0.00014545,-0.0001
 2505,0.,-0.00151284,-0.00023091,0.00000003,-0.00035943,-0.00014609,0.,
 0.00001061,0.00072664,0.,-0.00023254,-0.00001049,0.,-0.00002853,0.0001
 0572,0.,-0.00001896,-0.00005759,0.,0.00005205,-0.00032485,0.00000001,-
 0.00011652,0.00016318,0.,-0.00121304,-0.01437766,-0.00000017,-0.040321
 33,-0.34537394,-0.00000369,0.00033548,-0.00859558,0.00000044,0.0017948
 2,0.00044563,-0.00000009,-0.00060304,0.00157249,-0.00000080,-0.0000106
 0,0.00008501,0.,-0.00141563,0.00092479,-0.00000001,0.00001758,0.000045
 70,0.,0.00000142,0.00000533,0.,0.00000319,0.00000291,-0.00000576,0.000
 00319,0.00000291,0.00000576,0.00000495,-0.00001208,0.,-0.00000667,-0.0
 0000269,0.00004162,-0.00000667,-0.00000272,-0.00004163,0.00202307,0.00
 004710,-0.00000004,0.04121209,0.36523392,0.00000002,0.,-0.00037820,0.,
 -0.00000001,-0.00007867,0.,0.,-0.00007990,-0.00000007,-0.00000002,-0.0
 0368205,-0.00000001,0.,-0.00044774,0.,0.00000003,-0.00037563,-0.000000
 02,0.,0.00025783,0.,0.00000001,0.00005174,0.,0.,0.00002716,-0.00000002
 ,0.00000001,0.00007159,0.00000002,0.,0.00019157,0.00000021,0.00000043,
 0.00285205,-0.00000109,-0.00000407,-0.03208059,0.00000028,0.00000008,-
 0.00002814,-0.00000030,0.00000016,-0.00221591,0.00000033,-0.00000133,0
 .00390517,0.,0.,0.00013179,-0.00000004,0.,0.00130313,0.,0.,0.00000618,
 0.,0.,-0.00000030,-0.00000038,-0.00000158,-0.00000559,0.00000038,0.000
 00159,-0.00000559,0.,0.,-0.00003209,0.00002115,0.00000787,-0.00003902,
 -0.00002113,-0.00000789,-0.00003900,-0.00000025,-0.00000006,0.00684856
 ,0.00000095,0.00000395,0.02285242,-0.00199026,-0.00029581,-0.00000004,
 0.00039334,0.00171895,-0.00000003,-0.00135108,0.00067514,0.00000002,0.
 00308832,0.00091737,0.00000004,-0.00083699,-0.00104869,0.,0.00091676,-
 0.00145964,-0.00000004,0.00176609,0.00051302,0.00000003,0.00036484,-0.
 00081192,0.00000001,0.00007698,0.00035285,0.00000002,0.00008336,0.0009
 3598,0.00000001,0.00020733,-0.00035458,0.00000003,-0.00532992,0.000921
 01,-0.00000014,0.00669213,0.00318820,0.00000022,-0.04225764,-0.0132640
 0,0.00000156,-0.43260454,-0.15160918,0.00002440,0.00642461,-0.00396319
 ,-0.00000005,-0.00005081,0.00000089,0.,-0.00005324,-0.00002932,0.,-0.0
 0012083,-0.00030099,0.,0.00001375,-0.00002448,0.,-0.00003111,-0.000035
 66,-0.00000899,-0.00003110,-0.00003566,0.00000898,0.00000786,0.0000263
 9,0.,-0.00004340,0.00001917,0.00001087,-0.00004341,0.00001918,-0.00001
 088,-0.00015874,0.00009379,0.00000001,0.00037215,-0.00002224,0.0000000
 8,0.46288632,-0.00005461,-0.00001091,0.,0.00003594,0.00006382,0.,-0.00
 004043,0.00006891,-0.00000002,0.00026720,-0.00019833,-0.00000010,-0.00
 010338,-0.00010027,0.,0.00009600,0.00001483,0.00000001,0.00003452,0.00
 000320,0.,0.00000910,-0.00006183,0.,0.00001966,0.00004010,0.,-0.000015
 71,-0.00006621,0.,-0.00001970,0.00002870,0.,0.00064397,0.00091587,0.00
 000027,0.00237291,-0.00334542,0.00000037,0.03687956,0.01245585,-0.0000
 0314,-0.20084031,-0.11973324,0.00001450,-0.00110693,-0.00002230,0.0000
 0135,0.00001374,-0.00001154,0.,0.00001377,0.00002221,0.,0.00000140,-0.
 00000015,0.,-0.00000119,-0.00000288,0.,0.00000002,-0.00000198,0.000006
 27,0.00000002,-0.00000197,-0.00000627,-0.00000430,-0.00000025,0.,0.000
 00320,0.00000381,-0.00000027,0.00000320,0.00000381,0.00000027,0.000035
 69,-0.00001045,0.00000003,0.00012370,0.00023342,-0.00000006,0.16061778
 ,0.11393115,-0.00000005,-0.00000002,0.00001575,0.00000003,0.00000006,0
 .00009239,-0.00000007,0.00000003,-0.00036797,0.00000012,0.00000006,-0.
 00082363,-0.00000003,-0.00000005,0.00006331,0.00000004,-0.00000003,0.0
 0001974,0.00000005,0.00000001,-0.00002525,0.,-0.00000002,0.00004385,0.
 ,0.00000001,0.00001322,0.,0.00000002,0.00000043,0.,0.,0.00002808,-0.00
 000036,0.00000008,0.00282699,-0.00000023,0.00000019,0.00397577,-0.0000
 0096,-0.00000079,-0.00433654,0.00002743,0.00001292,-0.00333060,0.00000
 059,0.00000009,-0.00424869,0.,0.,-0.00002526,0.,0.,-0.00002136,0.,0.,0
 .00001408,0.,0.,0.00000133,0.00000208,0.00000016,-0.00000330,-0.000002
 08,-0.00000016,-0.00000330,0.,0.,0.00000064,0.00000098,-0.00000063,-0.
 00000412,-0.00000098,0.00000063,-0.00000412,0.00000002,0.,0.00016336,0
 .00000003,0.00000006,-0.00105326,-0.00002672,-0.00001119,0.00432150,-0
 .00154247,-0.00026052,-0.00000005,0.00031053,0.00134185,0.,-0.00099088
 ,0.00056510,-0.00000002,0.00244907,0.00034580,0.00000004,-0.00071363,-
 0.00082257,0.00000006,0.00070839,-0.00111206,-0.00000001,0.00137442,0.
 00039916,0.00000002,0.00029981,-0.00065469,0.00000002,0.00006513,0.000
 29003,0.,0.00005564,0.00069378,0.,0.00015210,-0.00026103,0.00000002,-0
 .00363266,0.00172208,0.00000016,0.00774853,0.00024459,-0.00000161,-0.0
 1233982,-0.00616326,0.00000033,0.00181917,0.00549377,0.00000115,-0.499
 65663,-0.11404872,-0.00018473,-0.00003721,-0.00000218,0.,-0.00004467,-
 0.00000903,-0.00000001,-0.00009339,-0.00023192,0.,0.00001122,-0.000019
 46,0.,-0.00002524,-0.00002827,-0.00000601,-0.00002524,-0.00002827,0.00
 000601,0.00000499,0.00001998,0.,-0.00003253,0.00001528,0.00000914,-0.0
 0003253,0.00001528,-0.00000914,0.00010883,-0.00024458,-0.00000021,0.00
 000901,0.00012009,-0.00000009,0.00160921,0.00101517,0.00000012,0.50244
 085,-0.00115802,-0.00015517,-0.00000005,0.00013132,0.00101835,-0.00000
 003,-0.00067904,0.00044954,0.00000002,0.00162140,0.00057982,-0.0000000
 8,-0.00039118,-0.00065118,-0.00000002,0.00054830,-0.00074308,-0.000000
 03,0.00101964,0.00028118,0.00000003,0.00026986,-0.00061501,0.,0.000086
 76,0.00029780,0.00000003,0.00007913,0.00046558,0.00000001,0.00008673,-
 0.00016732,0.00000002,-0.00156456,0.00073363,-0.00000049,0.00518018,-0
 .00588426,0.00000098,-0.05546543,-0.01798873,-0.00001642,0.00253140,0.
 00445879,0.00000137,-0.06535374,-0.05635806,-0.00001607,-0.00003750,0.
 00002629,0.00000002,-0.00003584,0.00001483,0.00000003,-0.00007620,-0.0
 0015935,0.,0.00001032,-0.00001760,0.,-0.00002150,-0.00001983,0.0000052
 3,-0.00002150,-0.00001983,-0.00000524,0.00000186,0.00001384,0.,-0.0000
 2332,0.00001328,0.00000979,-0.00002332,0.00001328,-0.00000980,-0.00033
 835,0.00059131,0.00000032,-0.00123765,-0.00008975,0.00000088,0.0032556
 6,-0.00421796,-0.00000140,0.11160460,0.07812961,0.00000087,0.00000021,
 -0.00000409,-0.00000029,-0.00000080,-0.00000999,0.00000069,-0.00000035
 ,-0.00008613,-0.00000164,-0.00000014,0.00021948,0.00000051,0.00000059,
 0.00015186,-0.00000044,0.00000057,-0.00014256,-0.00000076,-0.00000023,
 0.00002572,-0.00000013,0.00000033,-0.00001521,-0.00000003,-0.00000014,
 0.00004077,0.00000002,-0.00000035,-0.00003073,-0.00000009,0.00000014,0
 .00003854,0.00000292,-0.00000161,-0.00113344,-0.00000468,0.00000341,0.
 00284544,0.00001405,0.00000962,-0.00437833,0.00000038,0.00000192,-0.00
 410319,-0.00019764,-0.00004269,-0.00120142,0.,0.00000001,0.00004276,0.
 ,-0.00000004,0.00013901,0.00000004,0.00000013,0.00000652,0.,0.00000001
 ,-0.00000118,0.00000144,-0.00000092,-0.00000692,-0.00000142,0.00000095
 ,-0.00000692,0.,-0.00000001,-0.00000079,0.00000096,-0.00000238,-0.0000
 0488,-0.00000094,0.00000236,-0.00000489,-0.00000022,0.00000019,-0.0001
 7178,0.00000096,0.00000031,0.00204248,0.00000060,-0.00000201,0.0026669
 7,0.00018482,0.00003091,0.00308293\\-0.00002191,0.00001480,-0.00000089
 ,0.00001022,-0.00005063,-0.00000107,0.00002322,-0.00005520,0.00000003,
 -0.00005927,0.00000967,-0.00000072,-0.00004759,-0.00000788,0.00000059,
 0.00006365,0.00004072,-0.00000195,0.00002896,0.00003975,0.00000007,0.0
 0003292,0.00006339,0.00000229,-0.00005580,-0.00011576,-0.00000107,0.00
 005191,-0.00004476,0.00000317,-0.00006239,0.00009051,-0.00000174,0.000
 05156,-0.00001363,0.00000306,-0.00009347,0.00000230,0.00000185,0.00005
 186,0.00001123,-0.00001577,-0.00005472,0.00002295,0.00000776,-0.000032
 31,-0.00003370,0.00000673,-0.00001978,0.00000621,-0.00000016,-0.000017
 15,-0.00001475,-0.00000008,0.00001592,-0.00001311,-0.00000010,0.000000
 58,0.00000763,-0.00000009,0.00001191,0.00001340,-0.00000763,0.00001145
 ,0.00001364,0.00000782,0.00000991,-0.00002055,-0.00000024,0.00001941,-
 0.00000464,0.00000457,0.00001987,-0.00000430,-0.00000408,-0.00001639,-
 0.00000926,-0.00000042,0.00000320,0.00001924,0.00000064,0.00003660,0.0
 0002207,-0.00000164,0.00003764,0.00001067,-0.00000090\\\@


            ARSENIC

 FOR SMELTER FUMES HAVE I BEEN NAMED,
    I AM AN EVIL POISONOUS SMOKE...
 BUT WHEN FROM POISON I AM FREED,
    THROUGH ART AND SLEIGHT OF HAND,
 THEN CAN I CURE BOTH MAN AND BEAST,
    FROM DIRE DISEASE OFTTIMES DIRECT THEM;
 BUT PREPARE ME CORRECTLY, AND TAKE GREAT CARE
    THAT YOU FAITHFULLY KEEP WATCHFUL GUARD OVER ME;
 FOR ELSE I AM POISON, AND POISON REMAIN,
    THAT PIERCES THE HEART OF MANY A ONE.

 ATTRIBUTED TO THE PROBABLY MYTHICAL 15TH
 CENTURY MONK, BASILIUS VALENTINUS
 Job cpu time:       0 days 15 hours 10 minutes 47.1 seconds.
 File lengths (MBytes):  RWF=    907 Int=      0 D2E=      0 Chk=     32 Scr=      1
 Normal termination of Gaussian 09 at Thu Dec 19 18:01:49 2024.
