 Entering Gaussian System, Link 0=g09
 Input=pvdzdzTHAP.gjf
 Output=pvdzdzTHAP.log
 Initial command:
 /home/c612/g09E/g09/l1.exe "/mnt/ja_sm883/scratch/Gau-708409.inp" -scrdir="/mnt/ja_sm883/scratch/"
 Default is to use a total of  18 processors:
                               18 via shared-memory
                                1 via Linda
 Entering Link 1 = /home/c612/g09E/g09/l1.exe PID=    708411.
  
 Copyright (c) 1988,1990,1992,1993,1995,1998,2003,2009,2015,
            Gaussian, Inc.  All Rights Reserved.
  
 This is part of the Gaussian(R) 09 program.  It is based on
 the Gaussian(R) 03 system (copyright 2003, Gaussian, Inc.),
 the Gaussian(R) 98 system (copyright 1998, Gaussian, Inc.),
 the Gaussian(R) 94 system (copyright 1995, Gaussian, Inc.),
 the Gaussian 92(TM) system (copyright 1992, Gaussian, Inc.),
 the Gaussian 90(TM) system (copyright 1990, Gaussian, Inc.),
 the Gaussian 88(TM) system (copyright 1988, Gaussian, Inc.),
 the Gaussian 86(TM) system (copyright 1986, Carnegie Mellon
 University), and the Gaussian 82(TM) system (copyright 1983,
 Carnegie Mellon University). Gaussian is a federally registered
 trademark of Gaussian, Inc.
  
 This software contains proprietary and confidential information,
 including trade secrets, belonging to Gaussian, Inc.
  
 This software is provided under written license and may be
 used, copied, transmitted, or stored only in accord with that
 written license.
  
 The following legend is applicable only to US Government
 contracts under FAR:
  
                    RESTRICTED RIGHTS LEGEND
  
 Use, reproduction and disclosure by the US Government is
 subject to restrictions as set forth in subparagraphs (a)
 and (c) of the Commercial Computer Software - Restricted
 Rights clause in FAR 52.227-19.
  
 Gaussian, Inc.
 340 Quinnipiac St., Bldg. 40, Wallingford CT 06492
  
  
 ---------------------------------------------------------------
 Warning -- This program may not be used in any manner that
 competes with the business of Gaussian, Inc. or will provide
 assistance to any competitor of Gaussian, Inc.  The licensee
 of this program is prohibited from giving any competitor of
 Gaussian, Inc. access to this program.  By using this program,
 the user acknowledges that Gaussian, Inc. is engaged in the
 business of creating and licensing software in the field of
 computational chemistry and represents and warrants to the
 licensee that it is not a competitor of Gaussian, Inc. and that
 it will not use this program in any manner prohibited above.
 ---------------------------------------------------------------
  

 Cite this work as:
 Gaussian 09, Revision E.01,
 M. J. Frisch, G. W. Trucks, H. B. Schlegel, G. E. Scuseria, 
 M. A. Robb, J. R. Cheeseman, G. Scalmani, V. Barone, B. Mennucci, 
 G. A. Petersson, H. Nakatsuji, M. Caricato, X. Li, H. P. Hratchian, 
 A. F. Izmaylov, J. Bloino, G. Zheng, J. L. Sonnenberg, M. Hada, 
 M. Ehara, K. Toyota, R. Fukuda, J. Hasegawa, M. Ishida, T. Nakajima, 
 Y. Honda, O. Kitao, H. Nakai, T. Vreven, J. A. Montgomery, Jr., 
 J. E. Peralta, F. Ogliaro, M. Bearpark, J. J. Heyd, E. Brothers, 
 K. N. Kudin, V. N. Staroverov, T. Keith, R. Kobayashi, J. Normand, 
 K. Raghavachari, A. Rendell, J. C. Burant, S. S. Iyengar, J. Tomasi, 
 M. Cossi, N. Rega, J. M. Millam, M. Klene, J. E. Knox, J. B. Cross, 
 V. Bakken, C. Adamo, J. Jaramillo, R. Gomperts, R. E. Stratmann, 
 O. Yazyev, A. J. Austin, R. Cammi, C. Pomelli, J. W. Ochterski, 
 R. L. Martin, K. Morokuma, V. G. Zakrzewski, G. A. Voth, 
 P. Salvador, J. J. Dannenberg, S. Dapprich, A. D. Daniels, 
 O. Farkas, J. B. Foresman, J. V. Ortiz, J. Cioslowski, 
 and D. J. Fox, Gaussian, Inc., Wallingford CT, 2013.
 
 ******************************************
 Gaussian 09:  ES64L-G09RevE.01 30-Nov-2015
                15-Dec-2024 
 ******************************************
 %chk=pvdzdzTHAP.chk
 ----------------------------
 # opt freq m062x/aug-cc-pvdz
 ----------------------------
 1/14=-1,18=20,19=15,26=3,38=1/1,3;
 2/9=110,12=2,17=6,18=5,40=1/2;
 3/5=16,7=10,11=2,16=1,25=1,30=1,71=1,74=-55/1,2,3;
 4//1;
 5/5=2,38=5/2;
 6/7=2,8=2,9=2,10=2,28=1/1;
 7//1,2,3,16;
 1/14=-1,18=20,19=15,26=3/3(2);
 2/9=110/2;
 99//99;
 2/9=110/2;
 3/5=16,7=10,11=2,16=1,25=1,30=1,71=1,74=-55/1,2,3;
 4/5=5,16=3,69=1/1;
 5/5=2,38=5/2;
 7//1,2,3,16;
 1/14=-1,18=20,19=15,26=3/3(-5);
 2/9=110/2;
 6/7=2,8=2,9=2,10=2,19=2,28=1/1;
 99/9=1/99;
 ----------
 [No Title]
 ----------
 Symbolic Z-matrix:
 Charge =  0 Multiplicity = 1
 C                     1.52167   1.25153  -0.00006 
 C                     2.25586   0.06064  -0.00004 
 C                     1.6264   -1.17419   0.00001 
 C                     0.23005  -1.2281    0.00004 
 C                    -0.56187  -0.04019   0.00003 
 C                     0.13837   1.19213  -0.00003 
 O                    -0.58718   2.34101  -0.00003 
 C                    -2.02637  -0.17136   0.00008 
 C                    -2.94794   1.02076  -0.00003 
 O                    -2.54343  -1.29811   0.0001 
 O                    -0.32931  -2.43321   0.00005 
 O                     3.60346   0.187    -0.00006 
 H                     2.04982   2.1993   -0.00007 
 H                     2.18114  -2.10651   0.00002 
 H                     0.01034   3.09801  -0.0003 
 H                    -2.76764   1.64724  -0.87651 
 H                    -3.9708    0.64553  -0.00003 
 H                    -2.76769   1.64735   0.87638 
 H                    -1.31904  -2.28817   0.00001 
 H                     4.01846  -0.68364  -0.00004 
 

 GradGradGradGradGradGradGradGradGradGradGradGradGradGradGradGradGradGrad
 Berny optimization.
 Initialization pass.
                           ----------------------------
                           !    Initial Parameters    !
                           ! (Angstroms and Degrees)  !
 --------------------------                            --------------------------
 ! Name  Definition              Value          Derivative Info.                !
 --------------------------------------------------------------------------------
 ! R1    R(1,2)                  1.399          estimate D2E/DX2                !
 ! R2    R(1,6)                  1.3846         estimate D2E/DX2                !
 ! R3    R(1,13)                 1.085          estimate D2E/DX2                !
 ! R4    R(2,3)                  1.386          estimate D2E/DX2                !
 ! R5    R(2,12)                 1.3535         estimate D2E/DX2                !
 ! R6    R(3,4)                  1.3974         estimate D2E/DX2                !
 ! R7    R(3,14)                 1.0849         estimate D2E/DX2                !
 ! R8    R(4,5)                  1.4277         estimate D2E/DX2                !
 ! R9    R(4,11)                 1.3286         estimate D2E/DX2                !
 ! R10   R(5,6)                  1.4174         estimate D2E/DX2                !
 ! R11   R(5,8)                  1.4704         estimate D2E/DX2                !
 ! R12   R(6,7)                  1.3588         estimate D2E/DX2                !
 ! R13   R(7,15)                 0.9644         estimate D2E/DX2                !
 ! R14   R(8,9)                  1.5068         estimate D2E/DX2                !
 ! R15   R(8,10)                 1.2397         estimate D2E/DX2                !
 ! R16   R(9,16)                 1.0923         estimate D2E/DX2                !
 ! R17   R(9,17)                 1.0895         estimate D2E/DX2                !
 ! R18   R(9,18)                 1.0923         estimate D2E/DX2                !
 ! R19   R(11,19)                1.0003         estimate D2E/DX2                !
 ! R20   R(12,20)                0.9645         estimate D2E/DX2                !
 ! A1    A(2,1,6)              119.1949         estimate D2E/DX2                !
 ! A2    A(2,1,13)             119.2172         estimate D2E/DX2                !
 ! A3    A(6,1,13)             121.5878         estimate D2E/DX2                !
 ! A4    A(1,2,3)              121.3356         estimate D2E/DX2                !
 ! A5    A(1,2,12)             116.2973         estimate D2E/DX2                !
 ! A6    A(3,2,12)             122.3671         estimate D2E/DX2                !
 ! A7    A(2,3,4)              119.2213         estimate D2E/DX2                !
 ! A8    A(2,3,14)             122.236          estimate D2E/DX2                !
 ! A9    A(4,3,14)             118.5427         estimate D2E/DX2                !
 ! A10   A(3,4,5)              121.4785         estimate D2E/DX2                !
 ! A11   A(3,4,11)             117.1095         estimate D2E/DX2                !
 ! A12   A(5,4,11)             121.4121         estimate D2E/DX2                !
 ! A13   A(4,5,6)              116.7044         estimate D2E/DX2                !
 ! A14   A(4,5,8)              118.5712         estimate D2E/DX2                !
 ! A15   A(6,5,8)              124.7245         estimate D2E/DX2                !
 ! A16   A(1,6,5)              122.0653         estimate D2E/DX2                !
 ! A17   A(1,6,7)              119.8143         estimate D2E/DX2                !
 ! A18   A(5,6,7)              118.1203         estimate D2E/DX2                !
 ! A19   A(6,7,15)             109.4413         estimate D2E/DX2                !
 ! A20   A(5,8,9)              122.5878         estimate D2E/DX2                !
 ! A21   A(5,8,10)             119.7681         estimate D2E/DX2                !
 ! A22   A(9,8,10)             117.6441         estimate D2E/DX2                !
 ! A23   A(8,9,16)             110.6619         estimate D2E/DX2                !
 ! A24   A(8,9,17)             107.5607         estimate D2E/DX2                !
 ! A25   A(8,9,18)             110.6614         estimate D2E/DX2                !
 ! A26   A(16,9,17)            110.6391         estimate D2E/DX2                !
 ! A27   A(16,9,18)            106.7116         estimate D2E/DX2                !
 ! A28   A(17,9,18)            110.6392         estimate D2E/DX2                !
 ! A29   A(4,11,19)            106.5615         estimate D2E/DX2                !
 ! A30   A(2,12,20)            110.1288         estimate D2E/DX2                !
 ! D1    D(6,1,2,3)             -0.0001         estimate D2E/DX2                !
 ! D2    D(6,1,2,12)          -179.9998         estimate D2E/DX2                !
 ! D3    D(13,1,2,3)           179.9986         estimate D2E/DX2                !
 ! D4    D(13,1,2,12)           -0.0011         estimate D2E/DX2                !
 ! D5    D(2,1,6,5)              0.0006         estimate D2E/DX2                !
 ! D6    D(2,1,6,7)            179.999          estimate D2E/DX2                !
 ! D7    D(13,1,6,5)          -179.9981         estimate D2E/DX2                !
 ! D8    D(13,1,6,7)             0.0003         estimate D2E/DX2                !
 ! D9    D(1,2,3,4)              0.0002         estimate D2E/DX2                !
 ! D10   D(1,2,3,14)           179.9996         estimate D2E/DX2                !
 ! D11   D(12,2,3,4)           180.0            estimate D2E/DX2                !
 ! D12   D(12,2,3,14)           -0.0007         estimate D2E/DX2                !
 ! D13   D(1,2,12,20)         -180.0            estimate D2E/DX2                !
 ! D14   D(3,2,12,20)            0.0003         estimate D2E/DX2                !
 ! D15   D(2,3,4,5)             -0.0008         estimate D2E/DX2                !
 ! D16   D(2,3,4,11)           179.9986         estimate D2E/DX2                !
 ! D17   D(14,3,4,5)           179.9998         estimate D2E/DX2                !
 ! D18   D(14,3,4,11)           -0.0008         estimate D2E/DX2                !
 ! D19   D(3,4,5,6)              0.0013         estimate D2E/DX2                !
 ! D20   D(3,4,5,8)           -179.9989         estimate D2E/DX2                !
 ! D21   D(11,4,5,6)          -179.9982         estimate D2E/DX2                !
 ! D22   D(11,4,5,8)             0.0017         estimate D2E/DX2                !
 ! D23   D(3,4,11,19)         -179.9966         estimate D2E/DX2                !
 ! D24   D(5,4,11,19)            0.0028         estimate D2E/DX2                !
 ! D25   D(4,5,6,1)             -0.0011         estimate D2E/DX2                !
 ! D26   D(4,5,6,7)           -179.9996         estimate D2E/DX2                !
 ! D27   D(8,5,6,1)            179.999          estimate D2E/DX2                !
 ! D28   D(8,5,6,7)              0.0005         estimate D2E/DX2                !
 ! D29   D(4,5,8,9)           -179.9953         estimate D2E/DX2                !
 ! D30   D(4,5,8,10)            -0.0017         estimate D2E/DX2                !
 ! D31   D(6,5,8,9)              0.0046         estimate D2E/DX2                !
 ! D32   D(6,5,8,10)           179.9981         estimate D2E/DX2                !
 ! D33   D(1,6,7,15)             0.0155         estimate D2E/DX2                !
 ! D34   D(5,6,7,15)          -179.9859         estimate D2E/DX2                !
 ! D35   D(5,8,9,16)            59.0344         estimate D2E/DX2                !
 ! D36   D(5,8,9,17)           179.9962         estimate D2E/DX2                !
 ! D37   D(5,8,9,18)           -59.0423         estimate D2E/DX2                !
 ! D38   D(10,8,9,16)         -120.9593         estimate D2E/DX2                !
 ! D39   D(10,8,9,17)            0.0025         estimate D2E/DX2                !
 ! D40   D(10,8,9,18)          120.964          estimate D2E/DX2                !
 --------------------------------------------------------------------------------
 Trust Radius=3.00D-01 FncErr=1.00D-07 GrdErr=1.00D-06
 Number of steps in this run=    100 maximum allowed number of steps=    120.
 GradGradGradGradGradGradGradGradGradGradGradGradGradGradGradGradGradGrad

                          Input orientation:                          
 ---------------------------------------------------------------------
 Center     Atomic      Atomic             Coordinates (Angstroms)
 Number     Number       Type             X           Y           Z
 ---------------------------------------------------------------------
      1          6           0        1.521674    1.251533   -0.000056
      2          6           0        2.255861    0.060641   -0.000035
      3          6           0        1.626396   -1.174194    0.000013
      4          6           0        0.230052   -1.228100    0.000036
      5          6           0       -0.561867   -0.040186    0.000029
      6          6           0        0.138366    1.192129   -0.000030
      7          8           0       -0.587179    2.341012   -0.000030
      8          6           0       -2.026370   -0.171356    0.000080
      9          6           0       -2.947940    1.020760   -0.000027
     10          8           0       -2.543428   -1.298111    0.000095
     11          8           0       -0.329306   -2.433207    0.000053
     12          8           0        3.603459    0.186996   -0.000059
     13          1           0        2.049818    2.199296   -0.000071
     14          1           0        2.181140   -2.106506    0.000023
     15          1           0        0.010344    3.098005   -0.000296
     16          1           0       -2.767640    1.647238   -0.876505
     17          1           0       -3.970796    0.645532   -0.000030
     18          1           0       -2.767685    1.647349    0.876381
     19          1           0       -1.319039   -2.288165    0.000011
     20          1           0        4.018455   -0.683635   -0.000042
 ---------------------------------------------------------------------
                    Distance matrix (angstroms):
                    1          2          3          4          5
     1  C    0.000000
     2  C    1.399019   0.000000
     3  C    2.427986   1.386017   0.000000
     4  C    2.795866   2.400991   1.397384   0.000000
     5  C    2.451465   2.819531   2.464644   1.427682   0.000000
     6  C    1.384583   2.400844   2.795303   2.421965   1.417366
     7  O    2.373652   3.644581   4.154105   3.661479   2.381333
     8  C    3.822725   4.288511   3.787926   2.491616   1.470365
     9  C    4.475568   5.291632   5.073694   3.893200   2.611312
    10  O    4.798514   4.987924   4.171665   2.774364   2.347117
    11  O    4.123522   3.591986   2.325916   1.328595   2.404295
    12  O    2.338176   1.353509   2.400337   3.658192   4.171517
    13  H    1.084984   2.148557   3.399959   3.880540   3.440375
    14  H    3.422181   2.168435   1.084872   2.139706   3.434205
    15  H    2.386122   3.777291   4.567637   4.331681   3.189932
    16  H    4.395789   5.340510   5.294933   4.245239   2.912241
    17  H    5.525800   6.254067   5.885572   4.599741   3.477212
    18  H    4.395840   5.340577   5.295005   4.245305   2.912284
    19  H    4.538624   4.277476   3.149050   1.877078   2.372071
    20  H    3.158922   1.913292   2.441842   3.827328   4.625297
                    6          7          8          9         10
     6  C    0.000000
     7  O    1.358804   0.000000
     8  C    2.558354   2.895387   0.000000
     9  C    3.091060   2.704858   1.506795   0.000000
    10  O    3.659688   4.131601   1.239728   2.353889   0.000000
    11  O    3.655377   4.781178   2.827719   4.334413   2.488128
    12  O    3.607930   4.711818   5.641222   6.604240   6.323746
    13  H    2.160563   2.640802   4.715432   5.134835   5.773194
    14  H    3.879938   5.238703   4.631193   6.007267   4.793229
    15  H    1.910171   0.964403   3.851873   3.614746   5.084052
    16  H    3.069235   2.450294   2.150620   1.092335   3.081198
    17  H    4.145357   3.784642   2.109052   1.089509   2.411458
    18  H    3.069276   2.450280   2.150614   1.092335   3.081218
    19  H    3.773125   4.686672   2.231860   3.688130   1.574591
    20  H    4.309708   5.510023   6.066493   7.171863   6.590591
                   11         12         13         14         15
    11  O    0.000000
    12  O    4.725686   0.000000
    13  H    5.207717   2.542273   0.000000
    14  H    2.531615   2.698730   4.307804   0.000000
    15  H    5.541630   4.624332   2.228706   5.639086   0.000000
    16  H    4.833617   6.594798   4.927556   6.272904   3.254176
    17  H    4.768551   7.588122   6.217875   6.739438   4.675906
    18  H    4.833692   6.594866   4.927591   6.272982   3.254291
    19  H    1.000304   5.509756   5.611284   3.504890   5.547800
    20  H    4.686580   0.964479   3.490963   2.323852   5.510513
                   16         17         18         19         20
    16  H    0.000000
    17  H    1.794215   0.000000
    18  H    1.752886   1.794216   0.000000
    19  H    4.284171   3.954541   4.284258   0.000000
    20  H    7.228571   8.099063   7.228644   5.573451   0.000000
 Stoichiometry    C8H8O4
 Framework group  C1[X(C8H8O4)]
 Deg. of freedom    54
 Full point group                 C1      NOp   1
 Largest Abelian subgroup         C1      NOp   1
 Largest concise Abelian subgroup C1      NOp   1
                         Standard orientation:                         
 ---------------------------------------------------------------------
 Center     Atomic      Atomic             Coordinates (Angstroms)
 Number     Number       Type             X           Y           Z
 ---------------------------------------------------------------------
      1          6           0       -1.521674    1.251533    0.000056
      2          6           0       -2.255861    0.060641    0.000035
      3          6           0       -1.626396   -1.174194   -0.000013
      4          6           0       -0.230052   -1.228100   -0.000036
      5          6           0        0.561867   -0.040186   -0.000029
      6          6           0       -0.138366    1.192129    0.000030
      7          8           0        0.587179    2.341012    0.000030
      8          6           0        2.026370   -0.171356   -0.000080
      9          6           0        2.947940    1.020760    0.000027
     10          8           0        2.543428   -1.298111   -0.000095
     11          8           0        0.329306   -2.433207   -0.000053
     12          8           0       -3.603459    0.186996    0.000059
     13          1           0       -2.049818    2.199296    0.000071
     14          1           0       -2.181140   -2.106506   -0.000023
     15          1           0       -0.010344    3.098005    0.000296
     16          1           0        2.767640    1.647238    0.876505
     17          1           0        3.970796    0.645532    0.000030
     18          1           0        2.767685    1.647349   -0.876381
     19          1           0        1.319039   -2.288165   -0.000011
     20          1           0       -4.018455   -0.683635    0.000042
 ---------------------------------------------------------------------
 Rotational constants (GHZ):      1.5550511      0.7686260      0.5160062
 Standard basis: Aug-CC-pVDZ (5D, 7F)
 There are   372 symmetry adapted cartesian basis functions of A   symmetry.
 There are   348 symmetry adapted basis functions of A   symmetry.
   348 basis functions,   604 primitive gaussians,   372 cartesian basis functions
    44 alpha electrons       44 beta electrons
       nuclear repulsion energy       699.3345805856 Hartrees.
 NAtoms=   20 NActive=   20 NUniq=   20 SFac= 1.00D+00 NAtFMM=   60 NAOKFM=F Big=F
 Integral buffers will be    131072 words long.
 Raffenetti 2 integral format.
 Two-electron integral symmetry is turned on.
 One-electron integrals computed using PRISM.
 NBasis=   348 RedAO= T EigKep=  1.48D-06  NBF=   348
 NBsUse=   348 1.00D-06 EigRej= -1.00D+00 NBFU=   348
 ExpMin= 2.97D-02 ExpMax= 1.17D+04 ExpMxC= 4.01D+02 IAcc=3 IRadAn=         5 AccDes= 0.00D+00
 Harris functional with IExCor= 1009 and IRadAn=       5 diagonalized for initial guess.
 HarFok:  IExCor= 1009 AccDes= 0.00D+00 IRadAn=         5 IDoV= 1 UseB2=F ITyADJ=14
 ICtDFT=  3500011 ScaDFX=  1.000000  1.000000  1.000000  1.000000
 FoFCou: FMM=F IPFlag=           0 FMFlag=      100000 FMFlg1=           0
         NFxFlg=           0 DoJE=T BraDBF=F KetDBF=T FulRan=T
         wScrn=  0.000000 ICntrl=     500 IOpCl=  0 I1Cent=   200000004 NGrid=           0
         NMat0=    1 NMatS0=      1 NMatT0=    0 NMatD0=    1 NMtDS0=    0 NMtDT0=    0
 Petite list used in FoFCou.
 Requested convergence on RMS density matrix=1.00D-08 within 128 cycles.
 Requested convergence on MAX density matrix=1.00D-06.
 Requested convergence on             energy=1.00D-06.
 No special actions if energy rises.
 SCF Done:  E(RM062X) =  -610.446157220     A.U. after   15 cycles
            NFock= 15  Conv=0.41D-08     -V/T= 2.0056

 **********************************************************************

            Population analysis using the SCF density.

 **********************************************************************

 Orbital symmetries:
       Occupied  (A) (A) (A) (A) (A) (A) (A) (A) (A) (A) (A) (A)
                 (A) (A) (A) (A) (A) (A) (A) (A) (A) (A) (A) (A)
                 (A) (A) (A) (A) (A) (A) (A) (A) (A) (A) (A) (A)
                 (A) (A) (A) (A) (A) (A) (A) (A)
       Virtual   (A) (A) (A) (A) (A) (A) (A) (A) (A) (A) (A) (A)
                 (A) (A) (A) (A) (A) (A) (A) (A) (A) (A) (A) (A)
                 (A) (A) (A) (A) (A) (A) (A) (A) (A) (A) (A) (A)
                 (A) (A) (A) (A) (A) (A) (A) (A) (A) (A) (A) (A)
                 (A) (A) (A) (A) (A) (A) (A) (A) (A) (A) (A) (A)
                 (A) (A) (A) (A) (A) (A) (A) (A) (A) (A) (A) (A)
                 (A) (A) (A) (A) (A) (A) (A) (A) (A) (A) (A) (A)
                 (A) (A) (A) (A) (A) (A) (A) (A) (A) (A) (A) (A)
                 (A) (A) (A) (A) (A) (A) (A) (A) (A) (A) (A) (A)
                 (A) (A) (A) (A) (A) (A) (A) (A) (A) (A) (A) (A)
                 (A) (A) (A) (A) (A) (A) (A) (A) (A) (A) (A) (A)
                 (A) (A) (A) (A) (A) (A) (A) (A) (A) (A) (A) (A)
                 (A) (A) (A) (A) (A) (A) (A) (A) (A) (A) (A) (A)
                 (A) (A) (A) (A) (A) (A) (A) (A) (A) (A) (A) (A)
                 (A) (A) (A) (A) (A) (A) (A) (A) (A) (A) (A) (A)
                 (A) (A) (A) (A) (A) (A) (A) (A) (A) (A) (A) (A)
                 (A) (A) (A) (A) (A) (A) (A) (A) (A) (A) (A) (A)
                 (A) (A) (A) (A) (A) (A) (A) (A) (A) (A) (A) (A)
                 (A) (A) (A) (A) (A) (A) (A) (A) (A) (A) (A) (A)
                 (A) (A) (A) (A) (A) (A) (A) (A) (A) (A) (A) (A)
                 (A) (A) (A) (A) (A) (A) (A) (A) (A) (A) (A) (A)
                 (A) (A) (A) (A) (A) (A) (A) (A) (A) (A) (A) (A)
                 (A) (A) (A) (A) (A) (A) (A) (A) (A) (A) (A) (A)
                 (A) (A) (A) (A) (A) (A) (A) (A) (A) (A) (A) (A)
                 (A) (A) (A) (A) (A) (A) (A) (A) (A) (A) (A) (A)
                 (A) (A) (A) (A)
 The electronic state is 1-A.
 Alpha  occ. eigenvalues --  -19.69745 -19.69434 -19.65952 -19.64509 -10.65461
 Alpha  occ. eigenvalues --  -10.64444 -10.64014 -10.63667 -10.56345 -10.55497
 Alpha  occ. eigenvalues --  -10.55008 -10.54753  -1.21614  -1.21132  -1.20010
 Alpha  occ. eigenvalues --   -1.16515  -0.96612  -0.87975  -0.85196  -0.83023
 Alpha  occ. eigenvalues --   -0.74686  -0.72726  -0.68191  -0.66262  -0.60388
 Alpha  occ. eigenvalues --   -0.59577  -0.58367  -0.56032  -0.54172  -0.52039
 Alpha  occ. eigenvalues --   -0.51317  -0.51050  -0.49351  -0.49251  -0.48637
 Alpha  occ. eigenvalues --   -0.48057  -0.45276  -0.43741  -0.43455  -0.43110
 Alpha  occ. eigenvalues --   -0.37319  -0.33612  -0.29471  -0.28291
 Alpha virt. eigenvalues --   -0.02210  -0.01467  -0.00648   0.00743   0.01950
 Alpha virt. eigenvalues --    0.02140   0.02380   0.02690   0.03443   0.04444
 Alpha virt. eigenvalues --    0.05175   0.05289   0.06602   0.07204   0.07748
 Alpha virt. eigenvalues --    0.08014   0.08198   0.08752   0.09329   0.10005
 Alpha virt. eigenvalues --    0.10180   0.10721   0.10860   0.11719   0.11830
 Alpha virt. eigenvalues --    0.12378   0.13198   0.13522   0.13936   0.14447
 Alpha virt. eigenvalues --    0.14548   0.14936   0.15118   0.16615   0.16873
 Alpha virt. eigenvalues --    0.17192   0.17318   0.18433   0.19784   0.20093
 Alpha virt. eigenvalues --    0.20467   0.22023   0.22349   0.23006   0.23075
 Alpha virt. eigenvalues --    0.23424   0.23839   0.24280   0.25145   0.25286
 Alpha virt. eigenvalues --    0.25665   0.25909   0.25976   0.27151   0.27619
 Alpha virt. eigenvalues --    0.27753   0.28313   0.29062   0.29513   0.30141
 Alpha virt. eigenvalues --    0.30703   0.31402   0.31541   0.32213   0.32966
 Alpha virt. eigenvalues --    0.33771   0.33902   0.34944   0.35533   0.35542
 Alpha virt. eigenvalues --    0.35945   0.36513   0.37199   0.38030   0.38517
 Alpha virt. eigenvalues --    0.39354   0.40352   0.40763   0.41671   0.42496
 Alpha virt. eigenvalues --    0.42689   0.42759   0.44873   0.45599   0.46306
 Alpha virt. eigenvalues --    0.46616   0.47062   0.48181   0.48451   0.48924
 Alpha virt. eigenvalues --    0.50463   0.51461   0.51718   0.52664   0.53374
 Alpha virt. eigenvalues --    0.54133   0.54646   0.55708   0.55733   0.56277
 Alpha virt. eigenvalues --    0.56923   0.57486   0.57665   0.57896   0.58669
 Alpha virt. eigenvalues --    0.59826   0.60669   0.60847   0.60980   0.61214
 Alpha virt. eigenvalues --    0.62435   0.63005   0.64727   0.64896   0.65566
 Alpha virt. eigenvalues --    0.66229   0.67467   0.69030   0.69923   0.70382
 Alpha virt. eigenvalues --    0.71837   0.72692   0.73144   0.74108   0.74449
 Alpha virt. eigenvalues --    0.75583   0.75682   0.76671   0.78003   0.78665
 Alpha virt. eigenvalues --    0.79600   0.79657   0.80579   0.82102   0.83136
 Alpha virt. eigenvalues --    0.84092   0.84733   0.85205   0.86646   0.88135
 Alpha virt. eigenvalues --    0.88638   0.89708   0.90438   0.92085   0.93443
 Alpha virt. eigenvalues --    0.93536   0.95208   0.95795   0.95996   0.98179
 Alpha virt. eigenvalues --    0.98773   0.99531   1.01707   1.01719   1.05932
 Alpha virt. eigenvalues --    1.06548   1.06856   1.07569   1.08311   1.09566
 Alpha virt. eigenvalues --    1.11892   1.14076   1.15328   1.18378   1.20178
 Alpha virt. eigenvalues --    1.20739   1.23580   1.23888   1.24832   1.25137
 Alpha virt. eigenvalues --    1.26623   1.28384   1.30024   1.30926   1.31299
 Alpha virt. eigenvalues --    1.32410   1.33067   1.34251   1.36802   1.37857
 Alpha virt. eigenvalues --    1.38827   1.39171   1.40179   1.41177   1.42962
 Alpha virt. eigenvalues --    1.43993   1.45312   1.47899   1.48406   1.49464
 Alpha virt. eigenvalues --    1.49670   1.50949   1.51273   1.52251   1.53264
 Alpha virt. eigenvalues --    1.55053   1.55892   1.57432   1.57524   1.59252
 Alpha virt. eigenvalues --    1.61210   1.62847   1.63464   1.63565   1.64515
 Alpha virt. eigenvalues --    1.65237   1.67136   1.67829   1.68391   1.72722
 Alpha virt. eigenvalues --    1.73642   1.74565   1.75374   1.75637   1.77561
 Alpha virt. eigenvalues --    1.79818   1.80842   1.81333   1.82188   1.85105
 Alpha virt. eigenvalues --    1.85805   1.89413   1.89493   1.90869   1.91813
 Alpha virt. eigenvalues --    1.94016   1.96233   1.96379   1.97054   1.98045
 Alpha virt. eigenvalues --    1.98743   1.99379   2.02354   2.03692   2.03829
 Alpha virt. eigenvalues --    2.03888   2.06559   2.07111   2.09656   2.12252
 Alpha virt. eigenvalues --    2.13566   2.14028   2.16712   2.17737   2.18825
 Alpha virt. eigenvalues --    2.20630   2.24040   2.25859   2.27747   2.30436
 Alpha virt. eigenvalues --    2.30628   2.32279   2.34207   2.34248   2.37983
 Alpha virt. eigenvalues --    2.41591   2.42609   2.43726   2.52003   2.52632
 Alpha virt. eigenvalues --    2.57766   2.59958   2.63130   2.64237   2.68276
 Alpha virt. eigenvalues --    2.71070   2.72053   2.74966   2.78064   2.81364
 Alpha virt. eigenvalues --    2.83512   2.87035   2.90145   2.93792   2.96956
 Alpha virt. eigenvalues --    3.01317   3.06635   3.10947   3.12111   3.24513
 Alpha virt. eigenvalues --    3.31496   3.41132   3.41746   3.42428   3.42560
 Alpha virt. eigenvalues --    3.44406   3.45630   3.47235   3.49006   3.52613
 Alpha virt. eigenvalues --    3.55917   3.56714   3.58747   3.67514   3.68578
 Alpha virt. eigenvalues --    3.71163   3.72375   3.75846   3.82133   3.84843
 Alpha virt. eigenvalues --    4.02616   4.05524   4.14722   4.44653
          Condensed to atoms (all electrons):
               1          2          3          4          5          6
     1  C   22.998015  -6.202243   5.539255  -7.540558   3.679606 -10.206204
     2  C   -6.202243  12.825609  -5.275806   3.216550  -4.428108   4.558904
     3  C    5.539255  -5.275806  22.760037  -7.975746   1.253962  -7.129717
     4  C   -7.540558   3.216550  -7.975746  24.527675  -4.955139   0.146575
     5  C    3.679606  -4.428108   1.253962  -4.955139  18.604371  -6.944135
     6  C  -10.206204   4.558904  -7.129717   0.146575  -6.944135  25.858538
     7  O    1.099944  -0.526502   0.378206  -0.166970   0.868584  -1.841746
     8  C   -1.145531   0.591723  -1.776021  -1.605983  -2.504206  -0.671570
     9  C   -0.155347   0.149286  -0.295610  -0.176621  -0.983901   0.548903
    10  O    0.064464  -0.034379  -0.076171  -0.354283  -0.092366   0.124135
    11  O    0.206620  -0.250438   0.127226  -0.715379   0.466385  -0.034730
    12  O    0.187115  -0.544762   0.541961  -0.188860   0.150193  -0.243596
    13  H   -3.801684   1.563178  -0.196847   0.404038  -0.824765   1.859992
    14  H   -0.357800   0.642637  -3.282163   2.086708  -0.275428   0.249084
    15  H   -0.043214   0.048165  -0.019780   0.011099  -0.098382   0.078936
    16  H   -0.014345   0.028987  -0.047608  -0.027863  -0.229748   0.086891
    17  H   -0.016514  -0.006138   0.029584   0.104981   0.321448  -0.154118
    18  H   -0.014287   0.028992  -0.047609  -0.027955  -0.229505   0.086921
    19  H   -0.091256   0.056820   0.057367   0.197086  -0.247986   0.037271
    20  H   -0.052553   0.000675  -0.047061   0.004469  -0.021750   0.054736
               7          8          9         10         11         12
     1  C    1.099944  -1.145531  -0.155347   0.064464   0.206620   0.187115
     2  C   -0.526502   0.591723   0.149286  -0.034379  -0.250438  -0.544762
     3  C    0.378206  -1.776021  -0.295610  -0.076171   0.127226   0.541961
     4  C   -0.166970  -1.605983  -0.176621  -0.354283  -0.715379  -0.188860
     5  C    0.868584  -2.504206  -0.983901  -0.092366   0.466385   0.150193
     6  C   -1.841746  -0.671570   0.548903   0.124135  -0.034730  -0.243596
     7  O    9.032406  -0.032023  -0.111276  -0.013902   0.003100   0.008815
     8  C   -0.032023  12.460210   0.481205   0.462495   0.043922  -0.011234
     9  C   -0.111276   0.481205   5.128062  -0.088547  -0.008836  -0.001012
    10  O   -0.013902   0.462495  -0.088547   8.740575  -0.013449  -0.000133
    11  O    0.003100   0.043922  -0.008836  -0.013449   8.647783   0.004879
    12  O    0.008815  -0.011234  -0.001012  -0.000133   0.004879   8.630986
    13  H   -0.234272   0.052297   0.006925   0.000553   0.000938  -0.105177
    14  H    0.005034   0.065130  -0.003521   0.004899  -0.154809  -0.136261
    15  H    0.218557  -0.018489   0.019859   0.001255  -0.000400  -0.001272
    16  H   -0.037202   0.077644   0.404767   0.028032   0.000785  -0.000154
    17  H    0.030822   0.272920  -0.392517  -0.046494  -0.002748  -0.000082
    18  H   -0.037216   0.077379   0.404896   0.028048   0.000786  -0.000154
    19  H   -0.003869  -0.135703   0.003710  -0.019805   0.253021  -0.001101
    20  H   -0.002766   0.002562   0.000703  -0.000382  -0.001336   0.272474
              13         14         15         16         17         18
     1  C   -3.801684  -0.357800  -0.043214  -0.014345  -0.016514  -0.014287
     2  C    1.563178   0.642637   0.048165   0.028987  -0.006138   0.028992
     3  C   -0.196847  -3.282163  -0.019780  -0.047608   0.029584  -0.047609
     4  C    0.404038   2.086708   0.011099  -0.027863   0.104981  -0.027955
     5  C   -0.824765  -0.275428  -0.098382  -0.229748   0.321448  -0.229505
     6  C    1.859992   0.249084   0.078936   0.086891  -0.154118   0.086921
     7  O   -0.234272   0.005034   0.218557  -0.037202   0.030822  -0.037216
     8  C    0.052297   0.065130  -0.018489   0.077644   0.272920   0.077379
     9  C    0.006925  -0.003521   0.019859   0.404767  -0.392517   0.404896
    10  O    0.000553   0.004899   0.001255   0.028032  -0.046494   0.028048
    11  O    0.000938  -0.154809  -0.000400   0.000785  -0.002748   0.000786
    12  O   -0.105177  -0.136261  -0.001272  -0.000154  -0.000082  -0.000154
    13  H    3.366188  -0.025830   0.013331   0.001452   0.001808   0.001451
    14  H   -0.025830   3.226961  -0.001533  -0.000371   0.000596  -0.000371
    15  H    0.013331  -0.001533   0.529960  -0.000047   0.002109  -0.000043
    16  H    0.001452  -0.000371  -0.000047   1.174010  -0.267819  -0.177738
    17  H    0.001808   0.000596   0.002109  -0.267819   1.816120  -0.267799
    18  H    0.001451  -0.000371  -0.000043  -0.177738  -0.267799   1.173815
    19  H    0.002041   0.003691   0.000338   0.000447   0.002275   0.000441
    20  H    0.006059  -0.009773   0.000688   0.000065   0.000016   0.000065
              19         20
     1  C   -0.091256  -0.052553
     2  C    0.056820   0.000675
     3  C    0.057367  -0.047061
     4  C    0.197086   0.004469
     5  C   -0.247986  -0.021750
     6  C    0.037271   0.054736
     7  O   -0.003869  -0.002766
     8  C   -0.135703   0.002562
     9  C    0.003710   0.000703
    10  O   -0.019805  -0.000382
    11  O    0.253021  -0.001336
    12  O   -0.001101   0.272474
    13  H    0.002041   0.006059
    14  H    0.003691  -0.009773
    15  H    0.000338   0.000688
    16  H    0.000447   0.000065
    17  H    0.002275   0.000016
    18  H    0.000441   0.000065
    19  H    0.643374   0.000930
    20  H    0.000930   0.596455
 Mulliken charges:
               1
     1  C    1.866516
     2  C   -0.443149
     3  C    1.482538
     4  C   -0.963824
     5  C    2.490872
     6  C   -0.465071
     7  O   -0.637724
     8  C   -0.686731
     9  C    1.068872
    10  O   -0.714545
    11  O   -0.573320
    12  O   -0.562623
    13  H   -1.091677
    14  H   -1.036878
    15  H    0.258864
    16  H   -0.000184
    17  H   -0.428450
    18  H   -0.000116
    19  H    0.240909
    20  H    0.195722
 Sum of Mulliken charges =  -0.00000
 Mulliken charges with hydrogens summed into heavy atoms:
               1
     1  C    0.774839
     2  C   -0.443149
     3  C    0.445660
     4  C   -0.963824
     5  C    2.490872
     6  C   -0.465071
     7  O   -0.378860
     8  C   -0.686731
     9  C    0.640122
    10  O   -0.714545
    11  O   -0.332412
    12  O   -0.366901
 Electronic spatial extent (au):  <R**2>=           2062.2372
 Charge=             -0.0000 electrons
 Dipole moment (field-independent basis, Debye):
    X=             -2.0796    Y=              3.0016    Z=              0.0005  Tot=              3.6516
 Quadrupole moment (field-independent basis, Debye-Ang):
   XX=            -65.8634   YY=            -65.2588   ZZ=            -71.8702
   XY=              8.4200   XZ=              0.0004   YZ=              0.0012
 Traceless Quadrupole moment (field-independent basis, Debye-Ang):
   XX=              1.8007   YY=              2.4053   ZZ=             -4.2060
   XY=              8.4200   XZ=              0.0004   YZ=              0.0012
 Octapole moment (field-independent basis, Debye-Ang**2):
  XXX=            -30.0790  YYY=             41.1474  ZZZ=             -0.0000  XYY=            -17.7329
  XXY=            -14.9871  XXZ=              0.0005  XZZ=              5.0879  YZZ=             -0.2895
  YYZ=              0.0064  XYZ=             -0.0008
 Hexadecapole moment (field-independent basis, Debye-Ang**3):
 XXXX=          -1584.5057 YYYY=           -753.2536 ZZZZ=            -81.0515 XXXY=            151.7046
 XXXZ=              0.0152 YYYX=            -29.2332 YYYZ=              0.0054 ZZZX=              0.0115
 ZZZY=             -0.0112 XXYY=           -402.3005 XXZZ=           -302.6526 YYZZ=           -158.3041
 XXYZ=             -0.0067 YYXZ=              0.0040 ZZXY=             -0.0233
 N-N= 6.993345805856D+02 E-N=-2.826313974540D+03  KE= 6.070187027835D+02
 Calling FoFJK, ICntrl=      2127 FMM=F ISym2X=0 I1Cent= 0 IOpClX= 0 NMat=1 NMatS=1 NMatT=0.
 ***** Axes restored to original set *****
 -------------------------------------------------------------------
 Center     Atomic                   Forces (Hartrees/Bohr)
 Number     Number              X              Y              Z
 -------------------------------------------------------------------
      1        6           0.000115129   -0.001087859   -0.000000866
      2        6          -0.000507900   -0.000400707    0.000000486
      3        6          -0.001281002    0.000421590   -0.000000610
      4        6          -0.000238999    0.000609429    0.000000052
      5        6          -0.000613506   -0.000372813    0.000003582
      6        6          -0.000486075   -0.000400295    0.000002465
      7        8          -0.000791300    0.002232152   -0.000002460
      8        6          -0.000627375   -0.001049494   -0.000015586
      9        6           0.000331764   -0.001641999    0.000006068
     10        8          -0.000231228    0.001780648    0.000003142
     11        8          -0.001063468   -0.001376474   -0.000001847
     12        8           0.002240008    0.000363135   -0.000000185
     13        1           0.000990165    0.002200360   -0.000000481
     14        1           0.001467167   -0.001915441   -0.000000125
     15        1           0.000213839   -0.001574999    0.000002026
     16        1           0.000736949    0.000876291   -0.001762817
     17        1          -0.001711713   -0.000837908    0.000000245
     18        1           0.000735126    0.000878423    0.001762521
     19        1           0.002015440    0.000822148    0.000004301
     20        1          -0.001293022    0.000473812    0.000000086
 -------------------------------------------------------------------
 Cartesian Forces:  Max     0.002240008 RMS     0.000994629

 GradGradGradGradGradGradGradGradGradGradGradGradGradGradGradGradGradGrad
 Berny optimization.
 FormGI is forming the generalized inverse of G from B-inverse, IUseBI=4.
 Internal  Forces:  Max     0.002402141 RMS     0.000821424
 Search for a local minimum.
 Step number   1 out of a maximum of  100
 All quantities printed in internal units (Hartrees-Bohrs-Radians)
 Mixed Optimization -- En-DIIS/RFO-DIIS
 Second derivative matrix not updated -- first step.
 ITU=  0
     Eigenvalues ---    0.00676   0.00874   0.01158   0.01610   0.01843
     Eigenvalues ---    0.02025   0.02098   0.02131   0.02171   0.02205
     Eigenvalues ---    0.02207   0.02237   0.02238   0.02307   0.02636
     Eigenvalues ---    0.07370   0.07536   0.16000   0.16000   0.16000
     Eigenvalues ---    0.16000   0.16000   0.16000   0.16000   0.16000
     Eigenvalues ---    0.23482   0.23499   0.25000   0.25000   0.25000
     Eigenvalues ---    0.25000   0.25000   0.25000   0.25000   0.31675
     Eigenvalues ---    0.34544   0.34544   0.34869   0.35399   0.35412
     Eigenvalues ---    0.35697   0.39618   0.41121   0.43982   0.45192
     Eigenvalues ---    0.47070   0.47635   0.47828   0.53190   0.54282
     Eigenvalues ---    0.54521   0.54537   0.59839   0.87150
 RFO step:  Lambda=-2.15245394D-04 EMin= 6.76059710D-03
 Linear search not attempted -- first point.
 Iteration  1 RMS(Cart)=  0.00659806 RMS(Int)=  0.00002825
 Iteration  2 RMS(Cart)=  0.00003009 RMS(Int)=  0.00000190
 Iteration  3 RMS(Cart)=  0.00000000 RMS(Int)=  0.00000190
 Variable       Old X    -DE/DX   Delta X   Delta X   Delta X     New X
                                 (Linear)    (Quad)   (Total)
    R1        2.64376   0.00047   0.00000   0.00105   0.00105   2.64481
    R2        2.61648   0.00116   0.00000   0.00242   0.00242   2.61890
    R3        2.05032   0.00240   0.00000   0.00678   0.00678   2.05710
    R4        2.61919   0.00104   0.00000   0.00216   0.00216   2.62135
    R5        2.55776   0.00102   0.00000   0.00187   0.00187   2.55963
    R6        2.64067   0.00057   0.00000   0.00122   0.00122   2.64189
    R7        2.05011   0.00240   0.00000   0.00677   0.00677   2.05688
    R8        2.69793   0.00112   0.00000   0.00270   0.00270   2.70063
    R9        2.51068   0.00010   0.00000   0.00017   0.00017   2.51085
   R10        2.67843   0.00076   0.00000   0.00177   0.00177   2.68020
   R11        2.77859   0.00075   0.00000   0.00211   0.00211   2.78070
   R12        2.56777   0.00086   0.00000   0.00161   0.00161   2.56938
   R13        1.82246  -0.00110   0.00000  -0.00202  -0.00202   1.82044
   R14        2.84743  -0.00062   0.00000  -0.00194  -0.00194   2.84549
   R15        2.34275  -0.00153   0.00000  -0.00175  -0.00175   2.34100
   R16        2.06421   0.00204   0.00000   0.00591   0.00591   2.07012
   R17        2.05887   0.00189   0.00000   0.00542   0.00542   2.06430
   R18        2.06421   0.00204   0.00000   0.00591   0.00591   2.07013
   R19        1.89030  -0.00187   0.00000  -0.00392  -0.00392   1.88638
   R20        1.82260  -0.00098   0.00000  -0.00179  -0.00179   1.82081
    A1        2.08034  -0.00015   0.00000  -0.00061  -0.00061   2.07973
    A2        2.08073   0.00028   0.00000   0.00159   0.00159   2.08232
    A3        2.12211  -0.00013   0.00000  -0.00098  -0.00098   2.12113
    A4        2.11771   0.00014   0.00000   0.00060   0.00060   2.11830
    A5        2.02977  -0.00012   0.00000  -0.00050  -0.00049   2.02928
    A6        2.13571  -0.00002   0.00000  -0.00010  -0.00010   2.13560
    A7        2.08080  -0.00020   0.00000  -0.00091  -0.00091   2.07989
    A8        2.13342  -0.00018   0.00000  -0.00130  -0.00130   2.13212
    A9        2.06896   0.00038   0.00000   0.00221   0.00221   2.07117
   A10        2.12020   0.00040   0.00000   0.00159   0.00159   2.12179
   A11        2.04395  -0.00052   0.00000  -0.00206  -0.00206   2.04189
   A12        2.11904   0.00012   0.00000   0.00047   0.00047   2.11951
   A13        2.03688  -0.00048   0.00000  -0.00190  -0.00190   2.03498
   A14        2.06946   0.00139   0.00000   0.00557   0.00557   2.07502
   A15        2.17685  -0.00092   0.00000  -0.00367  -0.00367   2.17318
   A16        2.13044   0.00029   0.00000   0.00123   0.00123   2.13167
   A17        2.09115  -0.00103   0.00000  -0.00414  -0.00414   2.08701
   A18        2.06159   0.00074   0.00000   0.00291   0.00291   2.06450
   A19        1.91011  -0.00209   0.00000  -0.01307  -0.01307   1.89705
   A20        2.13956  -0.00059   0.00000  -0.00237  -0.00237   2.13719
   A21        2.09035   0.00142   0.00000   0.00567   0.00567   2.09602
   A22        2.05328  -0.00083   0.00000  -0.00330  -0.00330   2.04998
   A23        1.93141  -0.00062   0.00000  -0.00411  -0.00412   1.92730
   A24        1.87729  -0.00000   0.00000   0.00044   0.00044   1.87773
   A25        1.93141  -0.00062   0.00000  -0.00408  -0.00409   1.92732
   A26        1.93102   0.00038   0.00000   0.00280   0.00280   1.93382
   A27        1.86247   0.00048   0.00000   0.00211   0.00210   1.86457
   A28        1.93102   0.00038   0.00000   0.00280   0.00280   1.93382
   A29        1.85985  -0.00209   0.00000  -0.01307  -0.01307   1.84678
   A30        1.92211  -0.00177   0.00000  -0.01102  -0.01102   1.91109
    D1       -0.00000  -0.00000   0.00000  -0.00002  -0.00002  -0.00002
    D2       -3.14159  -0.00000   0.00000  -0.00001  -0.00001   3.14159
    D3        3.14157   0.00000   0.00000   0.00000   0.00000   3.14157
    D4       -0.00002   0.00000   0.00000   0.00001   0.00001  -0.00001
    D5        0.00001  -0.00000   0.00000  -0.00001  -0.00001  -0.00000
    D6        3.14158   0.00000   0.00000   0.00003   0.00003  -3.14158
    D7       -3.14156  -0.00000   0.00000  -0.00003  -0.00003  -3.14159
    D8        0.00001   0.00000   0.00000   0.00001   0.00001   0.00001
    D9        0.00000  -0.00000   0.00000  -0.00000  -0.00000   0.00000
   D10        3.14159   0.00000   0.00000   0.00003   0.00003  -3.14157
   D11        3.14159  -0.00000   0.00000  -0.00001  -0.00001   3.14158
   D12       -0.00001   0.00000   0.00000   0.00002   0.00002   0.00001
   D13       -3.14159  -0.00000   0.00000  -0.00001  -0.00001   3.14158
   D14        0.00000   0.00000   0.00000   0.00000   0.00000   0.00001
   D15       -0.00001   0.00000   0.00000   0.00005   0.00005   0.00003
   D16        3.14157   0.00000   0.00000   0.00008   0.00008  -3.14154
   D17        3.14159   0.00000   0.00000   0.00002   0.00002  -3.14158
   D18       -0.00001   0.00000   0.00000   0.00005   0.00005   0.00004
   D19        0.00002  -0.00000   0.00000  -0.00007  -0.00007  -0.00005
   D20       -3.14157  -0.00000   0.00000  -0.00009  -0.00009   3.14152
   D21       -3.14156  -0.00000   0.00000  -0.00011  -0.00011   3.14152
   D22        0.00003  -0.00000   0.00000  -0.00013  -0.00013  -0.00010
   D23       -3.14153  -0.00000   0.00000  -0.00016  -0.00016   3.14149
   D24        0.00005  -0.00000   0.00000  -0.00013  -0.00013  -0.00008
   D25       -0.00002   0.00000   0.00000   0.00005   0.00005   0.00003
   D26       -3.14159   0.00000   0.00000   0.00002   0.00002  -3.14157
   D27        3.14158   0.00000   0.00000   0.00007   0.00007  -3.14154
   D28        0.00001   0.00000   0.00000   0.00004   0.00004   0.00005
   D29       -3.14151  -0.00000   0.00000  -0.00028  -0.00028   3.14140
   D30       -0.00003   0.00000   0.00000   0.00012   0.00012   0.00009
   D31        0.00008  -0.00000   0.00000  -0.00030  -0.00030  -0.00022
   D32        3.14156   0.00000   0.00000   0.00010   0.00010  -3.14153
   D33        0.00027  -0.00000   0.00000  -0.00009  -0.00009   0.00018
   D34       -3.14135  -0.00000   0.00000  -0.00005  -0.00005  -3.14140
   D35        1.03034  -0.00009   0.00000  -0.00106  -0.00106   1.02928
   D36        3.14153   0.00000   0.00000   0.00019   0.00019  -3.14147
   D37       -1.03048   0.00010   0.00000   0.00147   0.00146  -1.02902
   D38       -2.11114  -0.00010   0.00000  -0.00145  -0.00144  -2.11258
   D39        0.00004  -0.00000   0.00000  -0.00019  -0.00019  -0.00015
   D40        2.11122   0.00009   0.00000   0.00108   0.00108   2.11230
         Item               Value     Threshold  Converged?
 Maximum Force            0.002402     0.000450     NO 
 RMS     Force            0.000821     0.000300     NO 
 Maximum Displacement     0.025507     0.001800     NO 
 RMS     Displacement     0.006605     0.001200     NO 
 Predicted change in Energy=-1.077181D-04
 GradGradGradGradGradGradGradGradGradGradGradGradGradGradGradGradGradGrad

                          Input orientation:                          
 ---------------------------------------------------------------------
 Center     Atomic      Atomic             Coordinates (Angstroms)
 Number     Number       Type             X           Y           Z
 ---------------------------------------------------------------------
      1          6           0        1.518157    1.252164   -0.000066
      2          6           0        2.254949    0.062230   -0.000031
      3          6           0        1.628110   -1.175220    0.000007
      4          6           0        0.231211   -1.231430    0.000007
      5          6           0       -0.565330   -0.044889   -0.000068
      6          6           0        0.133728    1.189168   -0.000082
      7          8           0       -0.590449    2.339924   -0.000126
      8          6           0       -2.031251   -0.172723   -0.000154
      9          6           0       -2.946570    1.022905    0.000011
     10          8           0       -2.556926   -1.294462   -0.000066
     11          8           0       -0.323732   -2.438677    0.000110
     12          8           0        3.603222    0.191966   -0.000020
     13          1           0        2.044688    2.204926   -0.000073
     14          1           0        2.188277   -2.108463    0.000054
     15          1           0        0.017428    3.087253   -0.000305
     16          1           0       -2.758780    1.648271   -0.879585
     17          1           0       -3.974045    0.651979    0.000035
     18          1           0       -2.758689    1.648127    0.879691
     19          1           0       -1.310011   -2.284684    0.000191
     20          1           0        4.010331   -0.681335    0.000011
 ---------------------------------------------------------------------
                    Distance matrix (angstroms):
                    1          2          3          4          5
     1  C    0.000000
     2  C    1.399573   0.000000
     3  C    2.429873   1.387159   0.000000
     4  C    2.797225   2.401889   1.398029   0.000000
     5  C    2.454234   2.822313   2.467555   1.429111   0.000000
     6  C    1.385862   2.401993   2.797054   2.422560   1.418301
     7  O    2.372644   3.644747   4.156710   3.664654   2.384945
     8  C    3.824735   4.292635   3.794195   2.497918   1.471484
     9  C    4.470609   5.289489   5.075377   3.896193   2.609691
    10  O    4.805372   4.999475   4.186734   2.788849   2.351146
    11  O    4.124908   3.592233   2.325083   1.328687   2.405950
    12  O    2.339127   1.354500   2.402138   3.660125   4.175276
    13  H    1.088573   2.152988   3.405720   3.885517   3.445847
    14  H    3.426787   2.171717   1.088453   2.144597   3.441031
    15  H    2.370599   3.762614   4.556640   4.323971   3.185893
    16  H    4.384364   5.331662   5.290613   4.243396   2.907157
    17  H    5.524899   6.256850   5.892605   4.607755   3.479219
    18  H    4.384310   5.331562   5.290476   4.243253   2.907078
    19  H    4.528557   4.268132   3.140615   1.866738   2.360346
    20  H    3.154258   1.906372   2.432879   3.818946   4.619712
                    6          7          8          9         10
     6  C    0.000000
     7  O    1.359658   0.000000
     8  C    2.557710   2.896430   0.000000
     9  C    3.084782   2.699231   1.505768   0.000000
    10  O    3.661698   4.132286   1.238802   2.349896   0.000000
    11  O    3.656574   4.786038   2.837281   4.343021   2.509259
    12  O    3.609959   4.711751   5.646263   6.602290   6.336946
    13  H    2.164147   2.638593   4.718739   5.129311   5.781052
    14  H    3.885299   5.244946   4.642360   6.014326   4.814514
    15  H    1.901644   0.963335   3.850263   3.612038   5.081999
    16  H    3.057925   2.439978   2.149121   1.095462   3.077982
    17  H    4.142749   3.781254   2.110589   1.092379   2.407667
    18  H    3.057895   2.440067   2.149137   1.095463   3.077907
    19  H    3.761919   4.680252   2.231717   3.690321   1.592274
    20  H    4.304281   5.504105   6.062952   7.162604   6.595815
                   11         12         13         14         15
    11  O    0.000000
    12  O    4.726654   0.000000
    13  H    5.212722   2.545788   0.000000
    14  H    2.533620   2.700749   4.315778   0.000000
    15  H    5.536451   4.608753   2.210947   5.630990   0.000000
    16  H    4.838023   6.585555   4.914948   6.273770   3.248251
    17  H    4.782985   7.591218   6.215850   6.752352   4.675726
    18  H    4.837835   6.585455   4.914921   6.273612   3.248431
    19  H    0.998228   5.502150   5.604516   3.502724   5.533516
    20  H    4.676789   0.963531   3.492027   2.314427   5.490494
                   16         17         18         19         20
    16  H    0.000000
    17  H    1.800888   0.000000
    18  H    1.759276   1.800887   0.000000
    19  H    4.282648   3.964980   4.282428   0.000000
    20  H    7.212601   8.094936   7.212480   5.556687   0.000000
 Stoichiometry    C8H8O4
 Framework group  C1[X(C8H8O4)]
 Deg. of freedom    54
 Full point group                 C1      NOp   1
 Largest Abelian subgroup         C1      NOp   1
 Largest concise Abelian subgroup C1      NOp   1
                         Standard orientation:                         
 ---------------------------------------------------------------------
 Center     Atomic      Atomic             Coordinates (Angstroms)
 Number     Number       Type             X           Y           Z
 ---------------------------------------------------------------------
      1          6           0       -1.519714    1.252634    0.000031
      2          6           0       -2.256602    0.062760   -0.000003
      3          6           0       -1.629862   -1.174740   -0.000041
      4          6           0       -0.232968   -1.231063   -0.000042
      5          6           0        0.563669   -0.044585    0.000033
      6          6           0       -0.135290    1.189528    0.000048
      7          8           0        0.588980    2.340225    0.000091
      8          6           0        2.029579   -0.172538    0.000119
      9          6           0        2.944995    1.023017   -0.000046
     10          8           0        2.555164   -1.294318    0.000031
     11          8           0        0.321879   -2.438354   -0.000145
     12          8           0       -3.604864    0.192605   -0.000014
     13          1           0       -2.046168    2.205439    0.000038
     14          1           0       -2.190104   -2.107938   -0.000088
     15          1           0       -0.018837    3.087603    0.000271
     16          1           0        2.757255    1.648398    0.879551
     17          1           0        3.972440    0.652009   -0.000070
     18          1           0        2.757164    1.648254   -0.879726
     19          1           0        1.308170   -2.284440   -0.000225
     20          1           0       -4.012043   -0.680664   -0.000046
 ---------------------------------------------------------------------
 Rotational constants (GHZ):      1.5535096      0.7674465      0.5153168
 Standard basis: Aug-CC-pVDZ (5D, 7F)
 There are   372 symmetry adapted cartesian basis functions of A   symmetry.
 There are   348 symmetry adapted basis functions of A   symmetry.
   348 basis functions,   604 primitive gaussians,   372 cartesian basis functions
    44 alpha electrons       44 beta electrons
       nuclear repulsion energy       698.9157009067 Hartrees.
 NAtoms=   20 NActive=   20 NUniq=   20 SFac= 1.00D+00 NAtFMM=   60 NAOKFM=F Big=F
 Integral buffers will be    131072 words long.
 Raffenetti 2 integral format.
 Two-electron integral symmetry is turned on.
 One-electron integrals computed using PRISM.
 NBasis=   348 RedAO= T EigKep=  1.49D-06  NBF=   348
 NBsUse=   348 1.00D-06 EigRej= -1.00D+00 NBFU=   348
 Initial guess from the checkpoint file:  "pvdzdzTHAP.chk"
 B after Tr=     0.000000   -0.000000   -0.000000
         Rot=    1.000000   -0.000002    0.000008    0.000193 Ang=  -0.02 deg.
 ExpMin= 2.97D-02 ExpMax= 1.17D+04 ExpMxC= 4.01D+02 IAcc=3 IRadAn=         5 AccDes= 0.00D+00
 Harris functional with IExCor= 1009 and IRadAn=       5 diagonalized for initial guess.
 HarFok:  IExCor= 1009 AccDes= 0.00D+00 IRadAn=         5 IDoV= 1 UseB2=F ITyADJ=14
 ICtDFT=  3500011 ScaDFX=  1.000000  1.000000  1.000000  1.000000
 FoFCou: FMM=F IPFlag=           0 FMFlag=      100000 FMFlg1=           0
         NFxFlg=           0 DoJE=T BraDBF=F KetDBF=T FulRan=T
         wScrn=  0.000000 ICntrl=     500 IOpCl=  0 I1Cent=   200000004 NGrid=           0
         NMat0=    1 NMatS0=      1 NMatT0=    0 NMatD0=    1 NMtDS0=    0 NMtDT0=    0
 Petite list used in FoFCou.
 Requested convergence on RMS density matrix=1.00D-08 within 128 cycles.
 Requested convergence on MAX density matrix=1.00D-06.
 Requested convergence on             energy=1.00D-06.
 No special actions if energy rises.
 SCF Done:  E(RM062X) =  -610.446212405     A.U. after   12 cycles
            NFock= 12  Conv=0.78D-08     -V/T= 2.0057
 Calling FoFJK, ICntrl=      2127 FMM=F ISym2X=0 I1Cent= 0 IOpClX= 0 NMat=1 NMatS=1 NMatT=0.
 ***** Axes restored to original set *****
 -------------------------------------------------------------------
 Center     Atomic                   Forces (Hartrees/Bohr)
 Number     Number              X              Y              Z
 -------------------------------------------------------------------
      1        6           0.000341917   -0.000335691    0.000000575
      2        6          -0.000641503    0.000642722   -0.000000177
      3        6          -0.000377219   -0.000085684    0.000000092
      4        6           0.001253259    0.001706911    0.000001848
      5        6           0.000641327   -0.000219861   -0.000008679
      6        6          -0.000371798   -0.000974595   -0.000003271
      7        8           0.000049677    0.000755277   -0.000001870
      8        6          -0.001087396   -0.000702483    0.000038861
      9        6          -0.000273886    0.000463372   -0.000015047
     10        8           0.002419751   -0.000163057   -0.000008581
     11        8          -0.003055018    0.000312719    0.000002669
     12        8           0.000466804   -0.000086349   -0.000000123
     13        1          -0.000066715   -0.000032619    0.000000040
     14        1          -0.000003710    0.000113235    0.000000419
     15        1           0.000026760    0.000138418    0.000001267
     16        1          -0.000045029    0.000013377    0.000078968
     17        1           0.000188380   -0.000018054   -0.000000090
     18        1          -0.000040246    0.000008967   -0.000078600
     19        1           0.000356798   -0.001439634   -0.000008207
     20        1           0.000217846   -0.000096969   -0.000000095
 -------------------------------------------------------------------
 Cartesian Forces:  Max     0.003055018 RMS     0.000678987

 GradGradGradGradGradGradGradGradGradGradGradGradGradGradGradGradGradGrad
 Berny optimization.
 Using GEDIIS/GDIIS optimizer.
 FormGI is forming the generalized inverse of G from B-inverse, IUseBI=4.
 Internal  Forces:  Max     0.003546775 RMS     0.000829014
 Search for a local minimum.
 Step number   2 out of a maximum of  100
 All quantities printed in internal units (Hartrees-Bohrs-Radians)
 Mixed Optimization -- En-DIIS/RFO-DIIS
 Swapping is turned off.
 Update second derivatives using D2CorX and points    1    2
 DE= -5.52D-05 DEPred=-1.08D-04 R= 5.12D-01
 TightC=F SS=  1.41D+00  RLast= 3.03D-02 DXNew= 5.0454D-01 9.1049D-02
 Trust test= 5.12D-01 RLast= 3.03D-02 DXMaxT set to 3.00D-01
 ITU=  1  0
     Eigenvalues ---    0.00676   0.00875   0.01158   0.01610   0.01843
     Eigenvalues ---    0.02024   0.02097   0.02130   0.02171   0.02205
     Eigenvalues ---    0.02207   0.02237   0.02238   0.02307   0.02636
     Eigenvalues ---    0.07393   0.07549   0.12790   0.16000   0.16000
     Eigenvalues ---    0.16000   0.16000   0.16000   0.16000   0.16935
     Eigenvalues ---    0.23174   0.23498   0.23984   0.25000   0.25000
     Eigenvalues ---    0.25000   0.25000   0.25000   0.29115   0.31724
     Eigenvalues ---    0.34544   0.34727   0.35071   0.35239   0.35406
     Eigenvalues ---    0.38333   0.41068   0.43861   0.44722   0.46476
     Eigenvalues ---    0.47064   0.47736   0.51737   0.53291   0.53954
     Eigenvalues ---    0.54528   0.55562   0.69911   0.86444
 En-DIIS/RFO-DIIS IScMMF=        0 using points:     2    1
 RFO step:  Lambda=-8.35108752D-05.
 DidBck=T Rises=F RFO-DIIS coefs:    0.67474    0.32526
 Iteration  1 RMS(Cart)=  0.00898681 RMS(Int)=  0.00002503
 Iteration  2 RMS(Cart)=  0.00003634 RMS(Int)=  0.00000050
 Iteration  3 RMS(Cart)=  0.00000000 RMS(Int)=  0.00000050
 Variable       Old X    -DE/DX   Delta X   Delta X   Delta X     New X
                                 (Linear)    (Quad)   (Total)
    R1        2.64481  -0.00015  -0.00034   0.00061   0.00027   2.64508
    R2        2.61890   0.00031  -0.00079   0.00223   0.00145   2.62035
    R3        2.05710  -0.00006  -0.00221   0.00481   0.00260   2.05971
    R4        2.62135   0.00021  -0.00070   0.00190   0.00119   2.62254
    R5        2.55963   0.00066  -0.00061   0.00218   0.00157   2.56121
    R6        2.64189  -0.00038  -0.00040   0.00029  -0.00010   2.64179
    R7        2.05688  -0.00010  -0.00220   0.00473   0.00253   2.05941
    R8        2.70063  -0.00172  -0.00088  -0.00093  -0.00181   2.69882
    R9        2.51085   0.00215  -0.00006   0.00255   0.00250   2.51335
   R10        2.68020  -0.00020  -0.00057   0.00094   0.00036   2.68056
   R11        2.78070  -0.00113  -0.00069  -0.00060  -0.00129   2.77941
   R12        2.56938   0.00071  -0.00053   0.00207   0.00155   2.57093
   R13        1.82044   0.00013   0.00066  -0.00131  -0.00065   1.81979
   R14        2.84549   0.00049   0.00063  -0.00037   0.00026   2.84575
   R15        2.34100  -0.00088   0.00057  -0.00195  -0.00139   2.33961
   R16        2.07012  -0.00006  -0.00192   0.00418   0.00225   2.07238
   R17        2.06430  -0.00017  -0.00176   0.00360   0.00184   2.06613
   R18        2.07013  -0.00006  -0.00192   0.00417   0.00225   2.07238
   R19        1.88638  -0.00057   0.00128  -0.00366  -0.00238   1.88400
   R20        1.82081   0.00019   0.00058  -0.00107  -0.00049   1.82032
    A1        2.07973   0.00006   0.00020  -0.00001   0.00019   2.07992
    A2        2.08232   0.00001  -0.00052   0.00110   0.00058   2.08290
    A3        2.12113  -0.00007   0.00032  -0.00109  -0.00077   2.12036
    A4        2.11830  -0.00009  -0.00019   0.00041   0.00021   2.11852
    A5        2.02928   0.00024   0.00016   0.00019   0.00035   2.02963
    A6        2.13560  -0.00016   0.00003  -0.00060  -0.00056   2.13504
    A7        2.07989  -0.00017   0.00030  -0.00120  -0.00090   2.07899
    A8        2.13212   0.00003   0.00042  -0.00089  -0.00047   2.13165
    A9        2.07117   0.00014  -0.00072   0.00209   0.00137   2.07254
   A10        2.12179   0.00013  -0.00052   0.00129   0.00078   2.12257
   A11        2.04189   0.00115   0.00067   0.00170   0.00237   2.04426
   A12        2.11951  -0.00128  -0.00015  -0.00300  -0.00315   2.11636
   A13        2.03498   0.00074   0.00062   0.00041   0.00102   2.03600
   A14        2.07502  -0.00355  -0.00181  -0.00542  -0.00723   2.06779
   A15        2.17318   0.00281   0.00119   0.00502   0.00621   2.17939
   A16        2.13167  -0.00067  -0.00040  -0.00090  -0.00130   2.13037
   A17        2.08701  -0.00031   0.00135  -0.00387  -0.00252   2.08450
   A18        2.06450   0.00098  -0.00095   0.00476   0.00382   2.06832
   A19        1.89705   0.00011   0.00425  -0.00902  -0.00477   1.89228
   A20        2.13719   0.00161   0.00077   0.00263   0.00340   2.14059
   A21        2.09602  -0.00345  -0.00184  -0.00518  -0.00703   2.08899
   A22        2.04998   0.00183   0.00107   0.00255   0.00363   2.05360
   A23        1.92730   0.00010   0.00134  -0.00253  -0.00119   1.92610
   A24        1.87773  -0.00014  -0.00014  -0.00032  -0.00046   1.87727
   A25        1.92732   0.00009   0.00133  -0.00256  -0.00123   1.92608
   A26        1.93382   0.00001  -0.00091   0.00204   0.00113   1.93495
   A27        1.86457  -0.00007  -0.00068   0.00130   0.00062   1.86519
   A28        1.93382   0.00001  -0.00091   0.00204   0.00113   1.93495
   A29        1.84678   0.00258   0.00425   0.00137   0.00562   1.85240
   A30        1.91109   0.00028   0.00358  -0.00685  -0.00326   1.90783
    D1       -0.00002   0.00000   0.00001   0.00001   0.00002   0.00000
    D2        3.14159   0.00000   0.00000  -0.00000  -0.00000   3.14159
    D3        3.14157   0.00000  -0.00000   0.00002   0.00002   3.14158
    D4       -0.00001  -0.00000  -0.00000  -0.00000  -0.00000  -0.00001
    D5       -0.00000   0.00000   0.00000   0.00001   0.00001   0.00001
    D6       -3.14158  -0.00000  -0.00001  -0.00001  -0.00002   3.14159
    D7       -3.14159   0.00000   0.00001   0.00001   0.00002  -3.14157
    D8        0.00001  -0.00000  -0.00000  -0.00001  -0.00001   0.00000
    D9        0.00000  -0.00000   0.00000  -0.00001  -0.00001  -0.00000
   D10       -3.14157  -0.00000  -0.00001  -0.00002  -0.00003   3.14158
   D11        3.14158   0.00000   0.00000   0.00001   0.00001  -3.14159
   D12        0.00001  -0.00000  -0.00001  -0.00001  -0.00001  -0.00001
   D13        3.14158   0.00000   0.00000   0.00001   0.00001  -3.14159
   D14        0.00001  -0.00000  -0.00000  -0.00001  -0.00001  -0.00000
   D15        0.00003  -0.00000  -0.00001  -0.00002  -0.00003  -0.00000
   D16       -3.14154  -0.00000  -0.00003  -0.00006  -0.00009   3.14156
   D17       -3.14158  -0.00000  -0.00001  -0.00000  -0.00001  -3.14159
   D18        0.00004  -0.00000  -0.00002  -0.00005  -0.00006  -0.00003
   D19       -0.00005   0.00000   0.00002   0.00004   0.00006   0.00001
   D20        3.14152   0.00000   0.00003   0.00006   0.00009  -3.14157
   D21        3.14152   0.00000   0.00003   0.00008   0.00012  -3.14155
   D22       -0.00010   0.00001   0.00004   0.00011   0.00015   0.00005
   D23        3.14149   0.00001   0.00005   0.00011   0.00016  -3.14153
   D24       -0.00008   0.00001   0.00004   0.00007   0.00011   0.00003
   D25        0.00003  -0.00000  -0.00002  -0.00003  -0.00005  -0.00002
   D26       -3.14157  -0.00000  -0.00001  -0.00002  -0.00002  -3.14159
   D27       -3.14154  -0.00000  -0.00002  -0.00006  -0.00008   3.14157
   D28        0.00005  -0.00000  -0.00001  -0.00004  -0.00005  -0.00001
   D29        3.14140   0.00001   0.00009   0.00025   0.00034  -3.14144
   D30        0.00009  -0.00000  -0.00004  -0.00014  -0.00018  -0.00009
   D31       -0.00022   0.00001   0.00010   0.00028   0.00037   0.00016
   D32       -3.14153  -0.00000  -0.00003  -0.00011  -0.00014   3.14151
   D33        0.00018  -0.00000   0.00003  -0.00008  -0.00005   0.00013
   D34       -3.14140  -0.00000   0.00002  -0.00009  -0.00008  -3.14148
   D35        1.02928   0.00001   0.00034  -0.00094  -0.00060   1.02868
   D36       -3.14147  -0.00000  -0.00006  -0.00016  -0.00022   3.14150
   D37       -1.02902  -0.00002  -0.00048   0.00061   0.00013  -1.02889
   D38       -2.11258   0.00002   0.00047  -0.00056  -0.00009  -2.11268
   D39       -0.00015   0.00001   0.00006   0.00022   0.00028   0.00014
   D40        2.11230  -0.00001  -0.00035   0.00099   0.00064   2.11294
         Item               Value     Threshold  Converged?
 Maximum Force            0.003547     0.000450     NO 
 RMS     Force            0.000829     0.000300     NO 
 Maximum Displacement     0.031441     0.001800     NO 
 RMS     Displacement     0.008990     0.001200     NO 
 Predicted change in Energy=-6.004532D-05
 GradGradGradGradGradGradGradGradGradGradGradGradGradGradGradGradGradGrad

                          Input orientation:                          
 ---------------------------------------------------------------------
 Center     Atomic      Atomic             Coordinates (Angstroms)
 Number     Number       Type             X           Y           Z
 ---------------------------------------------------------------------
      1          6           0        1.522294    1.254241   -0.000056
      2          6           0        2.256075    0.062282   -0.000043
      3          6           0        1.626008   -1.174237    0.000009
      4          6           0        0.228987   -1.225864    0.000054
      5          6           0       -0.564049   -0.038130    0.000052
      6          6           0        0.136930    1.195057   -0.000015
      7          8           0       -0.581576    2.350328   -0.000019
      8          6           0       -2.028670   -0.172834    0.000128
      9          6           0       -2.953765    1.015422   -0.000056
     10          8           0       -2.540820   -1.300007    0.000097
     11          8           0       -0.333330   -2.431153    0.000064
     12          8           0        3.605553    0.188129   -0.000090
     13          1           0        2.051405    2.207148   -0.000090
     14          1           0        2.185078   -2.109697    0.000008
     15          1           0        0.033572    3.091236   -0.000172
     16          1           0       -2.769578    1.642168   -0.880917
     17          1           0       -3.978926    0.635341   -0.000051
     18          1           0       -2.769643    1.642366    0.880678
     19          1           0       -1.318358   -2.277319    0.000039
     20          1           0        4.007130   -0.687446   -0.000078
 ---------------------------------------------------------------------
                    Distance matrix (angstroms):
                    1          2          3          4          5
     1  C    0.000000
     2  C    1.399715   0.000000
     3  C    2.430691   1.387791   0.000000
     4  C    2.797063   2.401750   1.397974   0.000000
     5  C    2.454190   2.821911   2.467202   1.428153   0.000000
     6  C    1.386627   2.402906   2.798376   2.422671   1.418493
     7  O    2.372272   3.645191   4.158843   3.666901   2.388522
     8  C    3.826994   4.291191   3.789390   2.491162   1.470803
     9  C    4.482425   5.296311   5.076310   3.892721   2.611650
    10  O    4.799278   4.986585   4.168725   2.770799   2.345198
    11  O    4.126192   3.594751   2.327840   1.330008   2.404120
    12  O    2.340206   1.355333   2.403048   3.660679   4.175736
    13  H    1.089950   2.154609   3.408038   3.886744   3.447009
    14  H    3.428609   2.173139   1.089792   2.146498   3.442251
    15  H    2.364497   3.756871   4.553033   4.321521   3.185919
    16  H    4.398473   5.341270   5.294274   4.241829   2.909273
    17  H    5.535924   6.261281   5.889810   4.601154   3.480654
    18  H    4.398528   5.341365   5.294391   4.241937   2.909332
    19  H    4.532242   4.272038   3.144214   1.870785   2.362827
    20  H    3.153499   1.904805   2.430372   3.816314   4.617065
                    6          7          8          9         10
     6  C    0.000000
     7  O    1.360478   0.000000
     8  C    2.561435   2.908681   0.000000
     9  C    3.095911   2.721994   1.505906   0.000000
    10  O    3.660012   4.142895   1.238069   2.351964   0.000000
    11  O    3.656575   4.787920   2.823860   4.329614   2.480424
    12  O    3.611821   4.712446   5.645774   6.611283   6.323958
    13  H    2.165535   2.636871   4.723487   5.145088   5.778292
    14  H    3.887970   5.248447   4.637577   6.014489   4.794759
    15  H    1.898994   0.962991   3.860958   3.637744   5.090236
    16  H    3.069802   2.462687   2.149283   1.096655   3.079758
    17  H    4.153740   3.805676   2.111077   1.093351   2.411166
    18  H    3.069832   2.462615   2.149269   1.096655   3.079828
    19  H    3.765005   4.685933   2.221126   3.676507   1.565104
    20  H    4.303750   5.503116   6.057698   7.166157   6.576540
                   11         12         13         14         15
    11  O    0.000000
    12  O    4.730267   0.000000
    13  H    5.215438   2.547904   0.000000
    14  H    2.538841   2.701435   4.318914   0.000000
    15  H    5.534564   4.602942   2.203012   5.628382   0.000000
    16  H    4.827357   6.597907   4.933248   6.277033   3.276150
    17  H    4.763797   7.597652   6.231811   6.747606   4.704419
    18  H    4.827490   6.598005   4.933278   6.277167   3.276146
    19  H    0.996969   5.506663   5.609434   3.507445   5.536163
    20  H    4.677617   0.963273   3.493355   2.311422   5.483393
                   16         17         18         19         20
    16  H    0.000000
    17  H    1.803371   0.000000
    18  H    1.761595   1.803372   0.000000
    19  H    4.271359   3.944897   4.271497   0.000000
    20  H    7.219885   8.094866   7.220000   5.557744   0.000000
 Stoichiometry    C8H8O4
 Framework group  C1[X(C8H8O4)]
 Deg. of freedom    54
 Full point group                 C1      NOp   1
 Largest Abelian subgroup         C1      NOp   1
 Largest concise Abelian subgroup C1      NOp   1
                         Standard orientation:                         
 ---------------------------------------------------------------------
 Center     Atomic      Atomic             Coordinates (Angstroms)
 Number     Number       Type             X           Y           Z
 ---------------------------------------------------------------------
      1          6           0       -1.525430    1.249556    0.000059
      2          6           0       -2.256415    0.055880    0.000046
      3          6           0       -1.623450   -1.179158   -0.000006
      4          6           0       -0.226313   -1.227510   -0.000051
      5          6           0        0.563937   -0.037919   -0.000049
      6          6           0       -0.139932    1.193621    0.000018
      7          8           0        0.575863    2.350573    0.000022
      8          6           0        2.028870   -0.169189   -0.000125
      9          6           0        2.951176    1.021233    0.000059
     10          8           0        2.543661   -1.295158   -0.000094
     11          8           0        0.338829   -2.431476   -0.000061
     12          8           0       -3.606184    0.178563    0.000093
     13          1           0       -2.056774    2.201220    0.000093
     14          1           0       -2.180326   -2.115926   -0.000005
     15          1           0       -0.041020    3.090037    0.000175
     16          1           0        2.765520    1.647546    0.880920
     17          1           0        3.977225    0.643557    0.000054
     18          1           0        2.765584    1.647744   -0.880675
     19          1           0        1.323494   -2.275334   -0.000036
     20          1           0       -4.005707   -0.697951    0.000081
 ---------------------------------------------------------------------
 Rotational constants (GHZ):      1.5527074      0.7679062      0.5154399
 Standard basis: Aug-CC-pVDZ (5D, 7F)
 There are   372 symmetry adapted cartesian basis functions of A   symmetry.
 There are   348 symmetry adapted basis functions of A   symmetry.
   348 basis functions,   604 primitive gaussians,   372 cartesian basis functions
    44 alpha electrons       44 beta electrons
       nuclear repulsion energy       698.9790631135 Hartrees.
 NAtoms=   20 NActive=   20 NUniq=   20 SFac= 1.00D+00 NAtFMM=   60 NAOKFM=F Big=F
 Integral buffers will be    131072 words long.
 Raffenetti 2 integral format.
 Two-electron integral symmetry is turned on.
 One-electron integrals computed using PRISM.
 NBasis=   348 RedAO= T EigKep=  1.49D-06  NBF=   348
 NBsUse=   348 1.00D-06 EigRej= -1.00D+00 NBFU=   348
 Initial guess from the checkpoint file:  "pvdzdzTHAP.chk"
 B after Tr=    -0.000000    0.000000    0.000000
         Rot=    0.999999    0.000001   -0.000010   -0.001333 Ang=   0.15 deg.
 ExpMin= 2.97D-02 ExpMax= 1.17D+04 ExpMxC= 4.01D+02 IAcc=3 IRadAn=         5 AccDes= 0.00D+00
 Harris functional with IExCor= 1009 and IRadAn=       5 diagonalized for initial guess.
 HarFok:  IExCor= 1009 AccDes= 0.00D+00 IRadAn=         5 IDoV= 1 UseB2=F ITyADJ=14
 ICtDFT=  3500011 ScaDFX=  1.000000  1.000000  1.000000  1.000000
 FoFCou: FMM=F IPFlag=           0 FMFlag=      100000 FMFlg1=           0
         NFxFlg=           0 DoJE=T BraDBF=F KetDBF=T FulRan=T
         wScrn=  0.000000 ICntrl=     500 IOpCl=  0 I1Cent=   200000004 NGrid=           0
         NMat0=    1 NMatS0=      1 NMatT0=    0 NMatD0=    1 NMtDS0=    0 NMtDT0=    0
 Petite list used in FoFCou.
 Requested convergence on RMS density matrix=1.00D-08 within 128 cycles.
 Requested convergence on MAX density matrix=1.00D-06.
 Requested convergence on             energy=1.00D-06.
 No special actions if energy rises.
 SCF Done:  E(RM062X) =  -610.446201544     A.U. after   12 cycles
            NFock= 12  Conv=0.69D-08     -V/T= 2.0057
 Calling FoFJK, ICntrl=      2127 FMM=F ISym2X=0 I1Cent= 0 IOpClX= 0 NMat=1 NMatS=1 NMatT=0.
 ***** Axes restored to original set *****
 -------------------------------------------------------------------
 Center     Atomic                   Forces (Hartrees/Bohr)
 Number     Number              X              Y              Z
 -------------------------------------------------------------------
      1        6           0.000144876    0.000140249   -0.000000892
      2        6          -0.000442108    0.000385669   -0.000000001
      3        6           0.000437706   -0.000325054    0.000000328
      4        6           0.000199872   -0.000807552   -0.000002569
      5        6           0.000356038    0.000850250    0.000008662
      6        6           0.000078256   -0.000683944    0.000003060
      7        8          -0.000586031   -0.000630536   -0.000001144
      8        6           0.000313115    0.000435367   -0.000032820
      9        6           0.000149765    0.000693978    0.000012642
     10        8          -0.001677533    0.000054670    0.000009662
     11        8           0.002697746   -0.000042249   -0.000000065
     12        8          -0.000475560   -0.000110792    0.000000094
     13        1          -0.000446536   -0.000877292   -0.000000326
     14        1          -0.000545789    0.000871136   -0.000000202
     15        1          -0.000108852    0.000686789    0.000000978
     16        1          -0.000139826   -0.000344231    0.000655063
     17        1           0.000739587    0.000425847   -0.000000015
     18        1          -0.000143535   -0.000340727   -0.000655617
     19        1          -0.001163422   -0.000118821    0.000003109
     20        1           0.000612230   -0.000262757    0.000000054
 -------------------------------------------------------------------
 Cartesian Forces:  Max     0.002697746 RMS     0.000588074

 GradGradGradGradGradGradGradGradGradGradGradGradGradGradGradGradGradGrad
 Berny optimization.
 Using GEDIIS/GDIIS optimizer.
 FormGI is forming the generalized inverse of G from B-inverse, IUseBI=4.
 Internal  Forces:  Max     0.004641484 RMS     0.000979016
 Search for a local minimum.
 Step number   3 out of a maximum of  100
 All quantities printed in internal units (Hartrees-Bohrs-Radians)
[...]
 -0.04630811,-0.00004157,-0.00005747,0.03019122,0.01397439,-0.00656881,
 -0.00002418,-0.01028736,0.00728086,-0.00000094,0.00061987,0.00395697,0
 .00000632,-0.02479963,0.04969602,0.00000182,-0.21016606,0.01036513,-0.
 00000852,-0.01648414,-0.04036109,0.00000974,-0.00785703,0.01607267,-0.
 00000061,0.60128839,0.00223620,-0.00797414,-0.00004076,-0.00278060,0.0
 0033090,-0.00000036,0.00199648,-0.00661592,0.00000851,0.03673570,0.038
 55035,0.00000633,0.02950468,-0.11445812,-0.00000527,-0.03797654,-0.000
 87197,0.00001639,0.00253221,0.00279026,-0.00000133,0.08761352,0.835124
 41,0.00000314,-0.00000464,0.00560366,0.00000036,0.00000179,-0.00100770
 ,-0.00000132,0.00000296,0.00455816,0.00000196,-0.00000268,0.00291182,0
 .00000078,0.00001035,-0.07534369,-0.00000516,-0.00000813,-0.00347958,0
 .00000098,0.00000155,-0.00294236,0.00001260,0.00002054,0.22683552,-0.0
 0065428,0.00028613,0.00000900,0.00062341,-0.00016848,-0.00000020,-0.00
 013880,0.00157130,-0.00000107,-0.00523499,-0.00389045,-0.00000180,-0.0
 1141909,0.02391059,0.00000253,0.00053855,0.00004764,-0.00000415,-0.009
 15529,-0.00696417,0.00000122,-0.15577099,0.07530473,-0.00000044,0.5680
 3378,0.00089558,-0.00021552,0.00002929,-0.00080289,0.00012435,0.000000
 17,0.00023466,0.00163261,-0.00000571,-0.00439313,-0.00025447,-0.000005
 55,0.00342927,0.00933398,0.00000717,0.00003527,-0.00295980,-0.00001304
 ,-0.00418704,-0.00028780,0.00000106,0.05921573,-0.14615000,-0.00000174
 ,0.06966043,0.53939672,-0.00000200,0.00001265,-0.00014685,-0.00000142,
 -0.00000129,0.00018543,0.00000436,-0.00001272,-0.00160501,-0.00000349,
 0.00000557,0.00316083,-0.00000678,-0.00000392,0.01306568,0.00000798,0.
 00000529,0.00009448,-0.00000239,-0.00000255,-0.00132042,-0.00000096,-0
 .00000898,-0.08618206,0.00000598,0.00000605,0.53286991,-0.00265634,-0.
 00163692,-0.00000075,0.00414203,0.00035818,0.00000064,-0.00306820,-0.0
 0390553,-0.00000157,0.00940598,0.00174781,-0.00000006,-0.03592487,-0.0
 5636732,-0.00000176,-0.00663574,0.01403918,-0.00000009,0.00334273,-0.0
 0529568,-0.00000031,-0.19747324,-0.20397507,-0.00000962,0.01828279,0.0
 1748516,-0.00000003,0.25619337,-0.00909776,0.00522754,0.00001605,0.005
 09149,-0.00896694,0.00000078,0.00493909,0.00472288,-0.00000424,-0.0062
 3223,-0.04495850,-0.00000012,-0.06658490,-0.01283822,0.00000154,0.0092
 4422,0.01554435,-0.00000662,-0.00043967,-0.00316442,0.00000023,-0.1650
 5445,-0.54307504,-0.00001987,-0.01224801,-0.06254619,-0.00000180,0.222
 41300,0.62713696,0.00000017,0.00000107,-0.00146774,0.00000004,0.000001
 15,0.00031216,-0.00000063,-0.00000318,0.00008476,0.00000075,0.00000397
 ,-0.00228776,0.,-0.00000103,0.01963193,0.00000007,-0.00000001,0.005239
 15,-0.00000012,-0.00000046,0.00025443,-0.00001539,-0.00002339,-0.07058
 743,0.00000067,-0.00000128,0.02392657,0.00001377,0.00003379,0.03477818
 ,0.01097613,-0.01082132,0.00001262,-0.00487291,0.02345345,0.00000002,-
 0.04415395,-0.06775228,0.00000119,-0.15620809,-0.10012636,0.00001072,0
 .03785086,0.00824581,0.00000324,-0.01674086,-0.00461867,-0.00000507,0.
 00339101,0.00047390,-0.00000011,-0.03406938,-0.02855844,-0.00000121,0.
 00213224,0.00424181,0.00000164,-0.03706395,0.06207967,-0.00001002,0.57
 457253,0.00189646,-0.00860274,0.00001387,0.00493716,0.01168411,0.00000
 017,-0.03353060,-0.01197919,0.00000077,-0.07329361,-0.32363418,0.00001
 329,0.00270776,-0.05253601,0.00000758,0.00197229,-0.00119917,-0.000005
 56,-0.00068622,-0.00193353,0.00000047,-0.02501245,-0.01015436,-0.00000
 099,0.00055840,-0.00082325,0.00000202,0.01966058,0.01497798,0.00000143
 ,0.05378869,0.45303057,-0.00000055,0.00000424,-0.00123498,-0.00000016,
 -0.00000151,0.00491185,0.00000532,-0.00000051,0.01087075,0.00001055,0.
 00002113,-0.05620469,-0.00000139,0.00000720,0.01337250,0.00000124,-0.0
 0000075,0.00588523,-0.00000027,0.00000004,0.00012909,0.00000102,-0.000
 00153,-0.00289137,0.00000036,0.00000214,-0.00088601,-0.00000333,0.0000
 0009,0.00812332,-0.00004558,-0.00002341,0.04594070,-0.04923453,0.01248
 450,0.00000303,-0.32577042,-0.05053698,0.00000323,-0.04795761,-0.01080
 885,0.00000165,0.01301025,-0.00503055,-0.00000076,-0.01574612,0.001117
 61,0.00000028,0.00882852,0.00339030,-0.00000143,-0.00183424,0.00118653
 ,0.00000047,0.01273851,0.00300124,-0.00000087,-0.00058928,0.00098009,0
 .00000127,-0.00474816,-0.00505675,0.,-0.00235704,-0.00098838,0.0000002
 7,0.53079819,0.04944017,0.00800839,-0.00001695,0.00038559,-0.11979002,
 0.00000164,-0.04793091,0.00223997,0.00000505,0.00911949,-0.00736816,0.
 00000304,0.00006090,0.00523156,-0.00000388,-0.00661537,-0.00972836,0.0
 0000722,0.00344870,-0.00038608,-0.00000016,-0.00075233,0.00002033,-0.0
 0000038,-0.00005971,0.00004088,-0.00000192,-0.00010313,0.00130927,-0.0
 0000049,-0.00443634,-0.00044013,-0.00000092,-0.14764599,0.56707887,-0.
 00000066,-0.00000020,0.00802413,0.00000240,0.00000272,-0.04855577,0.00
 000242,0.00000022,0.01318342,-0.00000023,0.00000048,0.00900822,0.00000
 052,0.00000127,-0.00141791,-0.00000044,-0.00000060,0.00430096,0.000000
 04,0.00000009,-0.00030076,-0.00000043,-0.00000023,-0.00026603,0.000000
 02,0.00000022,0.00015599,0.00000029,0.00000016,-0.00007656,0.00000022,
 -0.00000009,-0.00060073,-0.00000042,-0.00001491,0.03291895,-0.12166862
 ,-0.12148987,-0.00000449,0.01133110,0.01484359,0.00000029,-0.00149745,
 0.00310767,-0.00000055,-0.00130647,0.00066322,0.00000214,-0.00495223,0
 .00185806,-0.00000216,-0.00931838,-0.02714866,0.00000509,0.00296156,-0
 .00096354,-0.00000066,0.00091343,-0.00114828,0.00000147,-0.00001248,0.
 00002396,-0.00000232,-0.00079698,-0.00050525,-0.00000011,0.00058009,0.
 00011811,-0.00000026,0.00099059,-0.00107615,0.00000009,0.12393605,-0.1
 2061422,-0.27392951,-0.00001712,-0.01698307,-0.01771406,0.00000240,0.0
 0407834,-0.00264404,0.00000035,0.00154065,0.00015411,0.00000578,-0.000
 05024,0.00154172,-0.00000545,0.00429998,-0.00025888,0.00001141,0.00065
 629,0.00318222,-0.00000175,0.00058873,0.00007482,0.00000330,-0.0000223
 6,0.00000981,-0.00000581,-0.00025131,0.00005408,-0.00000070,-0.0003481
 3,0.00009171,-0.00000085,-0.00064605,0.00184791,0.00000005,0.12970325,
 0.28776115,0.00000252,-0.00002271,-0.02539452,0.00000325,-0.00000010,0
 .00386821,-0.00001171,0.00003722,0.00374038,0.00000633,-0.00000675,-0.
 00155616,0.00001026,-0.00001532,0.00442808,-0.00000923,0.00000379,0.00
 349072,0.00000167,0.00000269,-0.00505216,0.00001206,0.00001940,0.00136
 656,-0.00000404,-0.00001409,-0.00015723,-0.00000009,-0.00000792,-0.000
 52124,-0.00000619,-0.00000645,0.00011731,-0.00000090,0.00000801,-0.003
 30126,-0.00000065,0.00000275,0.01785429,-0.00066291,-0.00308520,-0.000
 00107,0.00837608,-0.01389197,-0.00000012,-0.13289246,0.12670097,-0.000
 00229,-0.01081636,0.02913120,-0.00000167,-0.00488374,-0.00200172,-0.00
 000136,-0.00118034,-0.00117713,0.00000056,0.00029729,0.00018603,0.0000
 0063,0.00024269,0.00211939,-0.00000142,-0.00048497,-0.00030328,0.00000
 096,0.00018593,-0.00074410,0.00000017,0.00336316,-0.00033030,-0.000000
 40,0.00320897,-0.00008482,-0.00000033,0.00054079,-0.00063490,0.0000013
 1,0.13552402,-0.00378350,-0.00256676,0.00002475,0.01813439,-0.01632304
 ,0.00000001,0.12811674,-0.26663656,0.00000489,-0.00258267,0.00349397,-
 0.00000517,-0.00035457,0.00098783,0.00000663,-0.00110604,-0.00000581,-
 0.00001132,0.00014516,0.00026469,0.00000082,-0.00054201,-0.00009438,-0
 .00000182,-0.00000992,0.00002362,0.00000476,0.00006088,0.00027144,0.00
 000061,-0.00001665,0.00018413,0.00000106,0.00031457,0.00262847,-0.0000
 0026,0.00075337,-0.00087740,-0.00001124,-0.13714444,0.27952752,-0.0000
 0022,0.00000118,0.00443510,-0.00000092,0.00000026,0.00314866,-0.000004
 25,0.00000727,-0.02770519,-0.00000027,-0.00000092,0.00463290,0.0000004
 8,0.00000367,0.00421078,0.00000025,-0.00000181,-0.00107939,-0.00000022
 ,0.00000018,-0.00017265,-0.00000083,-0.00000152,0.00047700,0.00000019,
 0.00000035,-0.00011806,0.00000018,0.00000066,-0.00004196,0.00000032,-0
 .00000006,-0.00392151,-0.00000006,-0.00000068,-0.00441342,0.00000032,0
 .00000030,0.00080589,0.00000499,-0.00000837,0.01975633,0.00031529,0.00
 567788,0.00000368,-0.00099495,0.00003352,-0.00000054,-0.00029663,0.000
 08551,0.00000034,0.00091124,0.00100084,-0.00000108,-0.00205209,0.00396
 359,0.00000045,0.01660421,0.02318077,-0.00000501,-0.25229152,-0.266128
 91,0.00004573,-0.00047757,0.00023614,-0.00000089,-0.00131213,-0.000010
 01,0.00000108,0.00014931,0.00020868,0.00000018,-0.00058002,-0.00028535
 ,0.00000015,0.00009033,-0.00012330,-0.00000006,-0.00146455,-0.00123942
 ,-0.00000145,-0.00010814,-0.00015138,0.00000004,0.24163082,-0.00268720
 ,0.00525592,0.00000582,0.00041906,-0.00217937,-0.00000140,0.00078036,0
 .00114066,0.00000164,-0.00268237,-0.00097876,-0.00000202,0.00646306,-0
 .00167263,0.00000134,-0.02514983,-0.04084952,0.00000108,-0.21273727,-0
 .31558396,0.00004282,-0.00098734,-0.00008978,-0.00000210,0.00045176,0.
 00008075,0.00000238,0.00052709,0.00046597,0.00000032,0.00084482,0.0002
 2207,-0.00000002,-0.00090992,0.00053767,-0.00000018,0.00116142,0.00043
 986,-0.00000180,0.00007503,0.00006366,-0.00000015,0.23457067,0.3529102
 3,0.00000039,0.00000034,-0.00158077,0.00000009,0.00000030,-0.00103957,
 0.00000039,-0.00000185,0.00003167,0.00000004,-0.00000029,0.00161734,0.
 00000007,0.00000230,0.00278731,0.00000101,-0.00000104,-0.00205971,0.00
 004069,0.00004735,-0.00583621,-0.00000074,-0.00000088,-0.00053730,0.00
 000003,0.00000064,-0.00001605,0.00000018,0.00000044,-0.00010164,0.0000
 0043,0.00000017,-0.00024885,-0.00000004,-0.00000057,-0.00003150,-0.000
 00015,-0.00000005,0.00088131,-0.00000029,0.00000038,0.00003529,-0.0000
 4191,-0.00004654,0.00551851,-0.00013884,-0.00011268,0.00009803,0.00016
 891,0.00006283,0.00005925,-0.00007266,-0.00037973,-0.00027094,0.000598
 02,-0.00030736,0.00039535,-0.00224885,-0.00095859,0.00215261,-0.001039
 96,0.00282223,-0.00042527,-0.00174723,-0.00190752,-0.00089345,0.007560
 23,0.00697982,-0.02021569,-0.05415627,-0.02558807,0.03969546,-0.000940
 46,0.00321873,0.00239962,-0.00042908,0.00012495,-0.00002214,-0.0002447
 6,-0.00004606,0.00001357,-0.00004318,-0.00001144,-0.00004786,0.0000147
 9,-0.00000048,-0.00001798,-0.00012997,-0.00017717,-0.00004456,0.054061
 35,-0.00005868,-0.00000090,0.00015048,0.00007217,-0.00010988,0.0000646
 3,0.00011295,0.00005930,0.00023197,-0.00020906,-0.00057135,-0.00047049
 ,0.00013683,0.00049105,-0.00221586,0.00034322,0.00044711,0.00038596,-0
 .00121639,-0.00086577,-0.00100589,-0.00823714,-0.01436009,0.02192285,-
 0.02548960,-0.12960113,0.13388738,0.00384620,-0.00472037,-0.00291602,0
 .00082100,0.00020147,0.00011326,-0.00005514,0.00000038,-0.00005178,-0.
 00001314,0.00000300,-0.00001279,-0.00001422,-0.00000056,0.00001699,-0.
 00029038,0.00006914,-0.00024763,0.02923171,0.14322778,0.00047531,-0.00
 037660,-0.00015029,-0.00007361,0.00035176,-0.00003891,-0.00014203,-0.0
 0016928,0.00000713,0.00016131,0.00013584,0.00015673,-0.00031612,0.0000
 1124,0.00034477,-0.00084126,0.00162426,-0.00016615,0.00181864,-0.00025
 486,0.00042482,0.00018629,-0.00225827,0.00091283,0.03810627,0.13048684
 ,-0.21919749,-0.00023208,-0.00113347,-0.00087260,-0.00014241,-0.000190
 68,-0.00003381,0.00006108,-0.00006468,0.00000903,-0.00004205,-0.000023
 92,0.00003196,-0.00000933,-0.00000766,-0.00000260,0.00037372,-0.000024
 09,0.00012669,-0.04285440,-0.14047395,0.23737812,-0.00017697,0.0000885
 2,-0.00000085,0.00021808,-0.00004768,-0.00000009,-0.00006192,0.0003543
 1,0.00000022,-0.00103327,-0.00131326,0.00000033,-0.00040031,0.00400225
 ,-0.00000028,0.00087578,0.00003490,0.00000036,-0.00009860,-0.00043895,
 0.00000003,-0.02403713,-0.00881611,-0.00000074,-0.29455607,-0.08958674
 ,-0.00000832,0.00496953,-0.00275279,0.00000007,0.00102593,0.00035858,-
 0.00000011,-0.00022965,-0.00000631,-0.00000001,-0.00000502,-0.00001764
 ,0.00000046,-0.00011855,-0.00000337,-0.00000003,-0.00003455,0.00019081
 ,-0.00000007,-0.00159812,0.00017914,-0.00050173,0.31774044,-0.00024184
 ,0.00033976,-0.00000379,-0.00003377,-0.00025699,-0.00000028,0.00014804
 ,-0.00026543,0.00000109,0.00109942,0.00060126,0.00000067,0.00155951,-0
 .00411676,-0.00000180,0.00033217,-0.00154014,0.00000192,-0.00193879,-0
 .00000358,0.00000012,0.02958725,0.00736994,0.00000081,-0.09760727,-0.0
 8056241,-0.00000324,-0.00103237,0.00186075,-0.00000008,-0.00043469,0.0
 0005613,-0.00000030,0.00001877,0.00005958,-0.00000009,0.00004730,0.000
 02959,0.00000208,0.00013899,0.00000688,0.00000003,-0.00034726,0.000138
 18,-0.00000017,-0.01458132,-0.00480479,-0.00281880,0.09722929,0.086040
 22,0.00000020,-0.00000539,-0.00011777,0.00000056,0.00000021,-0.0000159
 3,-0.00000214,0.00000612,-0.00014793,0.00000152,-0.00000158,0.00042281
 ,0.00000220,-0.00000096,0.00177680,-0.00000256,-0.00000050,-0.00042280
 ,0.00000087,0.00000086,0.00101439,0.00000252,0.00000335,-0.00189217,-0
 .00000947,-0.00000502,-0.04751380,0.00000025,-0.00000105,-0.00109626,-
 0.00000085,-0.00000101,-0.00002629,-0.00000036,0.00000119,0.00001101,0
 .00000080,0.00000218,0.00001069,0.,-0.00000208,-0.00001106,-0.00000035
 ,-0.00000068,0.00015016,0.02355974,0.00626136,0.00166599,0.00000895,0.
 00000338,0.04450726,-0.00013877,-0.00011639,-0.00009466,0.00016929,0.0
 0006288,-0.00005940,-0.00007407,-0.00037506,0.00027070,0.00059869,-0.0
 0030895,-0.00039612,-0.00224736,-0.00095877,-0.00215198,-0.00104115,0.
 00282129,0.00042368,-0.00174309,-0.00190349,0.00089292,0.00756017,0.00
 698066,0.02021596,-0.05414972,-0.02558018,-0.03969076,-0.00094043,0.00
 321774,-0.00239927,-0.00042958,0.00012423,0.00002226,-0.00024497,-0.00
 004521,-0.00001358,-0.00004259,-0.00000995,0.00004640,0.00001479,-0.00
 000199,0.00001800,-0.00012982,-0.00017757,0.00004454,-0.00019736,0.001
 82487,0.00382989,-0.00159736,-0.01457928,-0.02356131,0.05404995,-0.000
 05980,0.00000096,-0.00016008,0.00007227,-0.00011025,-0.00006420,0.0001
 1356,0.00005769,-0.00023090,-0.00020992,-0.00057094,0.00047249,0.00013
 543,0.00049088,0.00221421,0.00034504,0.00044806,-0.00038169,-0.0012134
 4,-0.00086442,0.00100460,-0.00823647,-0.01435931,-0.02192363,-0.025479
 65,-0.12957781,-0.13388291,0.00384578,-0.00472057,0.00291621,0.0008211
 9,0.00020164,-0.00011376,-0.00005499,0.00000032,0.00005180,-0.00001327
 ,0.00000210,0.00001700,-0.00001389,0.,-0.00001711,-0.00028974,0.000069
 75,0.00024747,0.00182440,0.01015944,0.01528191,0.00017929,-0.00480471,
 -0.00626129,0.02921868,0.14320101,-0.00047479,0.00037277,-0.00015868,0
 .00007412,-0.00035151,-0.00003889,0.00014072,0.00017342,0.00000874,-0.
 00016059,-0.00013816,0.00015842,0.00031797,-0.00000905,0.00034295,0.00
 083887,-0.00162615,-0.00016245,-0.00181775,0.00025531,0.00042473,-0.00
 018610,0.00226008,0.00091244,-0.03810416,-0.13048291,-0.21922126,0.000
 23256,0.00113245,-0.00087257,0.00014238,0.00019016,-0.00003441,-0.0000
 6149,0.00006523,0.00000899,0.00004292,0.00002579,0.00003587,0.00000904
 ,0.00000608,-0.00000280,-0.00037400,0.00002342,0.00012641,-0.00382947,
 -0.01527910,-0.02046574,0.00050176,0.00281778,0.00166521,0.04285101,0.
 14046807,0.23740266,-0.00504317,0.00504803,0.00000210,0.00026954,-0.00
 864813,-0.00000035,0.01022431,0.00579785,0.00000197,-0.03413241,-0.040
 51302,0.00000355,-0.01681527,0.00435452,-0.00000042,0.00350864,0.00430
 583,-0.00000121,-0.00102229,0.00096079,0.00000055,0.03743940,0.0282995
 2,-0.00000003,-0.00208870,-0.00567147,-0.00000061,-0.00695478,-0.04181
 855,0.00000992,-0.33818289,0.04721186,0.00003287,-0.00054988,0.0012772
 1,-0.00000031,-0.00030297,0.00014340,-0.00000043,-0.00048788,-0.000013
 91,-0.00000024,0.00016097,-0.00000134,-0.00000020,0.00057416,-0.000982
 47,0.00014639,-0.00092382,0.00064834,-0.00000031,0.00057422,-0.0009825
 7,-0.00014682,0.35420202,0.00323604,-0.00238008,-0.00001011,-0.0025442
 0,0.00512972,-0.00000023,-0.00520085,-0.00958091,0.00000268,-0.0453870
 8,0.01438057,0.00000522,0.00851028,-0.00203902,-0.00000303,-0.00324855
 ,-0.00320154,0.00000433,0.00053640,0.00064043,-0.00000030,-0.00980396,
 -0.02632151,0.00000177,0.00015271,0.00224375,-0.00000063,-0.01106146,0
 .01401372,-0.00001175,0.06244847,-0.06915261,-0.00000536,0.00085332,-0
 .00112649,-0.00000009,0.00024047,-0.00003966,0.00000493,0.00035762,0.0
 0004453,-0.00000018,-0.00012053,-0.00000484,-0.00000022,-0.00016739,0.
 00038246,-0.00009946,0.00037349,-0.00014269,0.00000076,-0.00016684,0.0
 0038263,0.00010012,0.00082760,0.07663480,-0.00000104,-0.00000223,-0.00
 002923,0.00000048,-0.00000084,0.00213961,-0.00000072,0.00000440,0.0036
 2586,0.00000385,-0.00000376,-0.00063306,-0.00000193,-0.00000347,-0.002
 43598,0.00000042,0.00000201,-0.00073029,-0.00000008,-0.00000009,-0.000
 06819,0.00000470,0.00000546,0.00158337,-0.00000044,-0.00000283,0.00294
 928,0.00000204,-0.00001003,-0.01444319,0.00003957,-0.00000096,-0.02326
 759,-0.00000021,0.00000115,-0.00051325,0.00000007,0.00000051,-0.000005
 67,0.00000021,-0.00000090,-0.00064942,0.,0.00000015,0.00007720,0.00026
 333,-0.00035974,-0.00013909,-0.00000003,0.00000034,0.00001423,-0.00026
 333,0.00035974,-0.00013872,-0.00004662,0.00001094,0.03257537,-0.005762
 98,-0.00363866,0.00000370,-0.02699258,0.04765253,-0.00000116,0.0034291
 5,0.00061458,-0.00000117,-0.00188351,0.00000791,-0.00000035,0.00102452
 ,-0.00054579,0.00000047,-0.00020984,0.00236434,-0.00000136,-0.00027166
 ,-0.00069023,0.00000010,-0.00091455,-0.00028526,0.00000013,0.00011227,
 -0.00007917,0.00000034,0.00053149,0.00012182,0.00000011,0.00119581,0.0
 0066784,0.00000016,-0.12015868,0.14519356,-0.00000310,0.00015731,-0.00
 018190,-0.00000171,-0.00013317,-0.00181419,0.00000026,0.00000977,0.000
 02593,0.00000011,0.00000930,-0.00000187,-0.00000389,0.00004158,-0.0000
 1247,-0.00000024,0.00000916,-0.00000189,0.00000383,-0.00044920,0.00016
 447,-0.00000029,0.15025579,-0.00221353,0.00167932,-0.00000247,-0.00123
 352,0.00394924,-0.00000046,-0.00625479,0.00282754,0.00000079,0.0007208
 8,-0.00112490,0.00000055,-0.00128205,0.00013212,-0.00000076,0.00045931
 ,0.00054588,0.00000115,-0.00001394,-0.00015675,0.00000010,0.00117916,0
 .00026361,0.00000005,-0.00000407,0.00009192,-0.00000033,-0.00035508,-0
 .00059468,-0.00000016,-0.00010594,-0.00019463,-0.00000022,0.19838667,-
 0.45016437,0.00001142,-0.00016227,0.00027145,0.00000129,0.00071674,-0.
 00099222,-0.00000011,0.00002869,-0.00003499,-0.00000012,-0.00002684,-0
 .00000629,0.00000388,-0.00000773,-0.00000479,0.00000016,-0.00002666,-0
 .00000646,-0.00000380,-0.00024348,0.00013674,0.00000015,-0.18956154,0.
 44338226,-0.00000014,-0.00000302,0.00334091,0.00000037,-0.00000091,-0.
 00284964,-0.00000126,0.00000447,-0.00154235,0.00000052,-0.00000031,-0.
 00098269,0.00000077,-0.00000384,0.00001259,-0.00000036,0.00000157,0.00
 213916,0.00000008,0.00000024,-0.00053265,0.00000165,0.00000243,-0.0000
 3166,-0.00000048,-0.00000177,-0.00004391,-0.00000022,-0.00000109,0.000
 01843,-0.00000089,-0.00000074,-0.00000051,-0.00000474,0.00001300,-0.00
 814351,0.00000021,0.00000085,-0.00064303,0.00000039,-0.00000118,0.0006
 1613,-0.00000007,0.00000002,0.00009970,-0.00001519,-0.00000163,0.00000
 862,0.00000008,0.00000033,0.00000546,0.00001505,0.00000204,0.00000910,
 0.00000020,0.00000061,0.00008875,0.00000404,-0.00001109,0.00843108\\-0
 .00011557,-0.00000424,0.00000015,-0.00000952,-0.00009744,0.00000007,0.
 00004948,0.00010496,0.00000047,-0.00012182,-0.00016372,-0.00000276,-0.
 00012765,-0.00009788,-0.00000027,0.00005553,0.00008890,0.00000098,0.00
 000416,-0.00000725,0.00000011,0.00022567,0.00020984,-0.00000028,-0.000
 00978,-0.00003307,0.00000302,-0.00011826,-0.00015972,-0.00000568,0.000
 23340,0.00007144,-0.00000371,0.00001437,-0.00001734,0.00000003,0.00003
 399,0.00002140,0.00000015,0.00001494,-0.00003787,-0.00000026,-0.000005
 13,0.00001407,-0.00000061,0.00001013,0.00002463,-0.00003054,-0.0000154
 2,-0.00000040,-0.00000031,0.00000860,0.00002459,0.00002986,-0.00015204
 ,0.00007299,0.00000949,0.00002492,-0.00001391,0.00000009\\\@


 GETTING A SIMPLE ANSWER FROM A PROFESSOR IS LIKE
 GETTING A THIMBLE OF WATER FROM A FIRE HYDRANT.
     -- PROF. LEN SHAPIRO, NDSU
 Job cpu time:       0 days  1 hours 38 minutes  1.5 seconds.
 File lengths (MBytes):  RWF=    222 Int=      0 D2E=      0 Chk=     10 Scr=      1
 Normal termination of Gaussian 09 at Sun Dec 15 21:04:35 2024.
