 Entering Gaussian System, Link 0=g09
 Input=pvdzTHAPyang.gjf
 Output=pvdzTHAPyang.log
 Initial command:
 /home/c612/g09E/g09/l1.exe "/mnt/ja_sm883/scratch/Gau-741395.inp" -scrdir="/mnt/ja_sm883/scratch/"
 Default is to use a total of  18 processors:
                               18 via shared-memory
                                1 via Linda
 Entering Link 1 = /home/c612/g09E/g09/l1.exe PID=    741397.
  
 Copyright (c) 1988,1990,1992,1993,1995,1998,2003,2009,2015,
            Gaussian, Inc.  All Rights Reserved.
  
 This is part of the Gaussian(R) 09 program.  It is based on
 the Gaussian(R) 03 system (copyright 2003, Gaussian, Inc.),
 the Gaussian(R) 98 system (copyright 1998, Gaussian, Inc.),
 the Gaussian(R) 94 system (copyright 1995, Gaussian, Inc.),
 the Gaussian 92(TM) system (copyright 1992, Gaussian, Inc.),
 the Gaussian 90(TM) system (copyright 1990, Gaussian, Inc.),
 the Gaussian 88(TM) system (copyright 1988, Gaussian, Inc.),
 the Gaussian 86(TM) system (copyright 1986, Carnegie Mellon
 University), and the Gaussian 82(TM) system (copyright 1983,
 Carnegie Mellon University). Gaussian is a federally registered
 trademark of Gaussian, Inc.
  
 This software contains proprietary and confidential information,
 including trade secrets, belonging to Gaussian, Inc.
  
 This software is provided under written license and may be
 used, copied, transmitted, or stored only in accord with that
 written license.
  
 The following legend is applicable only to US Government
 contracts under FAR:
  
                    RESTRICTED RIGHTS LEGEND
  
 Use, reproduction and disclosure by the US Government is
 subject to restrictions as set forth in subparagraphs (a)
 and (c) of the Commercial Computer Software - Restricted
 Rights clause in FAR 52.227-19.
  
 Gaussian, Inc.
 340 Quinnipiac St., Bldg. 40, Wallingford CT 06492
  
  
 ---------------------------------------------------------------
 Warning -- This program may not be used in any manner that
 competes with the business of Gaussian, Inc. or will provide
 assistance to any competitor of Gaussian, Inc.  The licensee
 of this program is prohibited from giving any competitor of
 Gaussian, Inc. access to this program.  By using this program,
 the user acknowledges that Gaussian, Inc. is engaged in the
 business of creating and licensing software in the field of
 computational chemistry and represents and warrants to the
 licensee that it is not a competitor of Gaussian, Inc. and that
 it will not use this program in any manner prohibited above.
 ---------------------------------------------------------------
  

 Cite this work as:
 Gaussian 09, Revision E.01,
 M. J. Frisch, G. W. Trucks, H. B. Schlegel, G. E. Scuseria, 
 M. A. Robb, J. R. Cheeseman, G. Scalmani, V. Barone, B. Mennucci, 
 G. A. Petersson, H. Nakatsuji, M. Caricato, X. Li, H. P. Hratchian, 
 A. F. Izmaylov, J. Bloino, G. Zheng, J. L. Sonnenberg, M. Hada, 
 M. Ehara, K. Toyota, R. Fukuda, J. Hasegawa, M. Ishida, T. Nakajima, 
 Y. Honda, O. Kitao, H. Nakai, T. Vreven, J. A. Montgomery, Jr., 
 J. E. Peralta, F. Ogliaro, M. Bearpark, J. J. Heyd, E. Brothers, 
 K. N. Kudin, V. N. Staroverov, T. Keith, R. Kobayashi, J. Normand, 
 K. Raghavachari, A. Rendell, J. C. Burant, S. S. Iyengar, J. Tomasi, 
 M. Cossi, N. Rega, J. M. Millam, M. Klene, J. E. Knox, J. B. Cross, 
 V. Bakken, C. Adamo, J. Jaramillo, R. Gomperts, R. E. Stratmann, 
 O. Yazyev, A. J. Austin, R. Cammi, C. Pomelli, J. W. Ochterski, 
 R. L. Martin, K. Morokuma, V. G. Zakrzewski, G. A. Voth, 
 P. Salvador, J. J. Dannenberg, S. Dapprich, A. D. Daniels, 
 O. Farkas, J. B. Foresman, J. V. Ortiz, J. Cioslowski, 
 and D. J. Fox, Gaussian, Inc., Wallingford CT, 2013.
 
 ******************************************
 Gaussian 09:  ES64L-G09RevE.01 30-Nov-2015
                15-Dec-2024 
 ******************************************
 %chk=pvdzTHAPyang.chk
 ----------------------------
 # opt freq m062x/aug-cc-pvdz
 ----------------------------
 1/14=-1,18=20,19=15,26=3,38=1/1,3;
 2/9=110,12=2,17=6,18=5,40=1/2;
 3/5=16,7=10,11=2,16=1,25=1,30=1,71=1,74=-55/1,2,3;
 4//1;
 5/5=2,38=5/2;
 6/7=2,8=2,9=2,10=2,28=1/1;
 7//1,2,3,16;
 1/14=-1,18=20,19=15,26=3/3(2);
 2/9=110/2;
 99//99;
 2/9=110/2;
 3/5=16,7=10,11=2,16=1,25=1,30=1,71=1,74=-55/1,2,3;
 4/5=5,16=3,69=1/1;
 5/5=2,38=5/2;
 7//1,2,3,16;
 1/14=-1,18=20,19=15,26=3/3(-5);
 2/9=110/2;
 6/7=2,8=2,9=2,10=2,19=2,28=1/1;
 99/9=1/99;
 ----------
 [No Title]
 ----------
 Symbolic Z-matrix:
 Charge =  1 Multiplicity = 1
 C                     1.54033  -1.26945  -0.00018 
 C                     2.27705  -0.08266   0.00002 
 C                     1.63782   1.17016   0.00002 
 C                     0.26437   1.21208  -0.0001 
 C                    -0.55302   0.03021  -0.00019 
 C                     0.16052  -1.2202   -0.00032 
 O                    -0.56706  -2.34079  -0.00058 
 C                    -1.97565   0.0882    0.0002 
 C                    -2.90037  -1.07866   0.00054 
 O                    -2.62172   1.21145   0.00035 
 O                    -0.39127   2.39702  -0.00026 
 O                     3.59808  -0.20839   0.00012 
 H                     2.07313  -2.21418  -0.00027 
 H                     2.21823   2.08777  -0.00008 
 H                    -0.0045   -3.12812  -0.00059 
 H                    -2.72053  -1.70633  -0.87569 
 H                    -2.71984  -1.70642   0.87656 
 H                    -3.92269  -0.70491   0.00096 
 H                    -2.03503   1.99695   0.00014 
 H                     0.20158   3.16143   0.00173 
 H                     4.05915   0.64146   0.00029 
 

 GradGradGradGradGradGradGradGradGradGradGradGradGradGradGradGradGradGrad
 Berny optimization.
 Initialization pass.
                           ----------------------------
                           !    Initial Parameters    !
                           ! (Angstroms and Degrees)  !
 --------------------------                            --------------------------
 ! Name  Definition              Value          Derivative Info.                !
 --------------------------------------------------------------------------------
 ! R1    R(1,2)                  1.3969         estimate D2E/DX2                !
 ! R2    R(1,6)                  1.3807         estimate D2E/DX2                !
 ! R3    R(1,13)                 1.0846         estimate D2E/DX2                !
 ! R4    R(2,3)                  1.4065         estimate D2E/DX2                !
 ! R5    R(2,12)                 1.327          estimate D2E/DX2                !
 ! R6    R(3,4)                  1.3741         estimate D2E/DX2                !
 ! R7    R(3,14)                 1.0858         estimate D2E/DX2                !
 ! R8    R(4,5)                  1.437          estimate D2E/DX2                !
 ! R9    R(4,11)                 1.3542         estimate D2E/DX2                !
 ! R10   R(5,6)                  1.4397         estimate D2E/DX2                !
 ! R11   R(5,8)                  1.4238         estimate D2E/DX2                !
 ! R12   R(6,7)                  1.3361         estimate D2E/DX2                !
 ! R13   R(7,15)                 0.9677         estimate D2E/DX2                !
 ! R14   R(8,9)                  1.4888         estimate D2E/DX2                !
 ! R15   R(8,10)                 1.2958         estimate D2E/DX2                !
 ! R16   R(9,16)                 1.0927         estimate D2E/DX2                !
 ! R17   R(9,17)                 1.0927         estimate D2E/DX2                !
 ! R18   R(9,18)                 1.0885         estimate D2E/DX2                !
 ! R19   R(10,19)                0.9804         estimate D2E/DX2                !
 ! R20   R(11,20)                0.9674         estimate D2E/DX2                !
 ! R21   R(12,21)                0.9669         estimate D2E/DX2                !
 ! A1    A(2,1,6)              119.7861         estimate D2E/DX2                !
 ! A2    A(2,1,13)             118.7476         estimate D2E/DX2                !
 ! A3    A(6,1,13)             121.4663         estimate D2E/DX2                !
 ! A4    A(1,2,3)              121.1374         estimate D2E/DX2                !
 ! A5    A(1,2,12)             116.3939         estimate D2E/DX2                !
 ! A6    A(3,2,12)             122.4687         estimate D2E/DX2                !
 ! A7    A(2,3,4)              118.7804         estimate D2E/DX2                !
 ! A8    A(2,3,14)             120.654          estimate D2E/DX2                !
 ! A9    A(4,3,14)             120.5657         estimate D2E/DX2                !
 ! A10   A(3,4,5)              122.9195         estimate D2E/DX2                !
 ! A11   A(3,4,11)             120.7043         estimate D2E/DX2                !
 ! A12   A(5,4,11)             116.3763         estimate D2E/DX2                !
 ! A13   A(4,5,6)              115.6211         estimate D2E/DX2                !
 ! A14   A(4,5,8)              122.3335         estimate D2E/DX2                !
 ! A15   A(6,5,8)              122.0454         estimate D2E/DX2                !
 ! A16   A(1,6,5)              121.7556         estimate D2E/DX2                !
 ! A17   A(1,6,7)              120.9503         estimate D2E/DX2                !
 ! A18   A(5,6,7)              117.2941         estimate D2E/DX2                !
 ! A19   A(6,7,15)             111.4585         estimate D2E/DX2                !
 ! A20   A(5,8,9)              126.0619         estimate D2E/DX2                !
 ! A21   A(5,8,10)             122.2409         estimate D2E/DX2                !
 ! A22   A(9,8,10)             111.6972         estimate D2E/DX2                !
 ! A23   A(8,9,16)             110.3512         estimate D2E/DX2                !
 ! A24   A(8,9,17)             110.3533         estimate D2E/DX2                !
 ! A25   A(8,9,18)             108.3141         estimate D2E/DX2                !
 ! A26   A(16,9,17)            106.5992         estimate D2E/DX2                !
 ! A27   A(16,9,18)            110.6161         estimate D2E/DX2                !
 ! A28   A(17,9,18)            110.6163         estimate D2E/DX2                !
 ! A29   A(8,10,19)            113.337          estimate D2E/DX2                !
 ! A30   A(4,11,20)            113.2484         estimate D2E/DX2                !
 ! A31   A(2,12,21)            113.0448         estimate D2E/DX2                !
 ! D1    D(6,1,2,3)             -0.0032         estimate D2E/DX2                !
 ! D2    D(6,1,2,12)          -179.9991         estimate D2E/DX2                !
 ! D3    D(13,1,2,3)           179.9944         estimate D2E/DX2                !
 ! D4    D(13,1,2,12)           -0.0015         estimate D2E/DX2                !
 ! D5    D(2,1,6,5)             -0.0034         estimate D2E/DX2                !
 ! D6    D(2,1,6,7)            179.9969         estimate D2E/DX2                !
 ! D7    D(13,1,6,5)           179.999          estimate D2E/DX2                !
 ! D8    D(13,1,6,7)            -0.0008         estimate D2E/DX2                !
 ! D9    D(1,2,3,4)              0.004          estimate D2E/DX2                !
 ! D10   D(1,2,3,14)          -179.9844         estimate D2E/DX2                !
 ! D11   D(12,2,3,4)           179.9996         estimate D2E/DX2                !
 ! D12   D(12,2,3,14)            0.0112         estimate D2E/DX2                !
 ! D13   D(1,2,12,21)         -179.9985         estimate D2E/DX2                !
 ! D14   D(3,2,12,21)            0.0057         estimate D2E/DX2                !
 ! D15   D(2,3,4,5)              0.002          estimate D2E/DX2                !
 ! D16   D(2,3,4,11)          -179.9924         estimate D2E/DX2                !
 ! D17   D(14,3,4,5)           179.9904         estimate D2E/DX2                !
 ! D18   D(14,3,4,11)           -0.004          estimate D2E/DX2                !
 ! D19   D(3,4,5,6)             -0.008          estimate D2E/DX2                !
 ! D20   D(3,4,5,8)            179.9754         estimate D2E/DX2                !
 ! D21   D(11,4,5,6)           179.9866         estimate D2E/DX2                !
 ! D22   D(11,4,5,8)            -0.0301         estimate D2E/DX2                !
 ! D23   D(3,4,11,20)           -0.1293         estimate D2E/DX2                !
 ! D24   D(5,4,11,20)          179.876          estimate D2E/DX2                !
 ! D25   D(4,5,6,1)              0.0087         estimate D2E/DX2                !
 ! D26   D(4,5,6,7)           -179.9915         estimate D2E/DX2                !
 ! D27   D(8,5,6,1)           -179.9747         estimate D2E/DX2                !
 ! D28   D(8,5,6,7)              0.025          estimate D2E/DX2                !
 ! D29   D(4,5,8,9)           -179.9814         estimate D2E/DX2                !
 ! D30   D(4,5,8,10)             0.0161         estimate D2E/DX2                !
 ! D31   D(6,5,8,9)              0.0009         estimate D2E/DX2                !
 ! D32   D(6,5,8,10)           179.9984         estimate D2E/DX2                !
 ! D33   D(1,6,7,15)             0.0035         estimate D2E/DX2                !
 ! D34   D(5,6,7,15)          -179.9962         estimate D2E/DX2                !
 ! D35   D(5,8,9,16)           -58.787          estimate D2E/DX2                !
 ! D36   D(5,8,9,17)            58.7672         estimate D2E/DX2                !
 ! D37   D(5,8,9,18)           179.9909         estimate D2E/DX2                !
 ! D38   D(10,8,9,16)          121.2152         estimate D2E/DX2                !
 ! D39   D(10,8,9,17)         -121.2306         estimate D2E/DX2                !
 ! D40   D(10,8,9,18)           -0.0069         estimate D2E/DX2                !
 ! D41   D(5,8,10,19)            0.0018         estimate D2E/DX2                !
 ! D42   D(9,8,10,19)          179.9996         estimate D2E/DX2                !
 --------------------------------------------------------------------------------
 Trust Radius=3.00D-01 FncErr=1.00D-07 GrdErr=1.00D-06
 Number of steps in this run=    104 maximum allowed number of steps=    126.
 GradGradGradGradGradGradGradGradGradGradGradGradGradGradGradGradGradGrad

                          Input orientation:                          
 ---------------------------------------------------------------------
 Center     Atomic      Atomic             Coordinates (Angstroms)
 Number     Number       Type             X           Y           Z
 ---------------------------------------------------------------------
      1          6           0        1.540326   -1.269451   -0.000184
      2          6           0        2.277046   -0.082657    0.000018
      3          6           0        1.637824    1.170155    0.000017
      4          6           0        0.264367    1.212078   -0.000104
      5          6           0       -0.553018    0.030205   -0.000189
      6          6           0        0.160519   -1.220195   -0.000321
      7          8           0       -0.567061   -2.340794   -0.000578
      8          6           0       -1.975650    0.088197    0.000203
      9          6           0       -2.900367   -1.078664    0.000540
     10          8           0       -2.621723    1.211453    0.000353
     11          8           0       -0.391265    2.397017   -0.000264
     12          8           0        3.598076   -0.208385    0.000123
     13          1           0        2.073129   -2.214183   -0.000268
     14          1           0        2.218231    2.087772   -0.000079
     15          1           0       -0.004499   -3.128117   -0.000590
     16          1           0       -2.720533   -1.706325   -0.875694
     17          1           0       -2.719837   -1.706417    0.876562
     18          1           0       -3.922692   -0.704909    0.000964
     19          1           0       -2.035028    1.996950    0.000143
     20          1           0        0.201576    3.161426    0.001725
     21          1           0        4.059151    0.641464    0.000285
 ---------------------------------------------------------------------
                    Distance matrix (angstroms):
                    1          2          3          4          5
     1  C    0.000000
     2  C    1.396867   0.000000
     3  C    2.441553   1.406465   0.000000
     4  C    2.790351   2.393160   1.374097   0.000000
     5  C    2.463979   2.832314   2.469671   1.436991   0.000000
     6  C    1.380686   2.402848   2.810018   2.434489   1.439665
     7  O    2.364076   3.631546   4.145875   3.648859   2.371041
     8  C    3.768991   4.256127   3.771979   2.506149   1.423814
     9  C    4.444790   5.272346   5.064816   3.906794   2.596081
    10  O    4.845362   5.066819   4.259747   2.886090   2.382202
    11  O    4.144156   3.642618   2.371158   1.354228   2.372333
    12  O    2.315210   1.327000   2.396447   3.623718   4.157945
    13  H    1.084619   2.141258   3.412218   3.874388   3.454551
    14  H    3.424982   2.171226   1.085769   2.141127   3.451580
    15  H    2.416842   3.805296   4.601344   4.348515   3.205600
    16  H    4.371761   5.327191   5.294930   4.265368   2.912073
    17  H    4.371340   5.326703   5.294545   4.265165   2.911984
    18  H    5.492110   6.230887   5.868152   4.605030   3.448927
    19  H    4.842781   4.787353   3.764762   2.429659   2.462608
    20  H    4.628707   3.851189   2.455193   1.950360   3.220863
    21  H    3.161657   1.923603   2.478374   3.837445   4.652498
                    6          7          8          9         10
     6  C    0.000000
     7  O    1.336082   0.000000
     8  C    2.505017   2.807868   0.000000
     9  C    3.064156   2.652789   1.488847   0.000000
    10  O    3.695103   4.103669   1.295806   2.307006   0.000000
    11  O    3.659056   4.741071   2.800165   4.286718   2.525966
    12  O    3.583372   4.679266   5.581611   6.556458   6.379799
    13  H    2.155479   2.643224   4.657635   5.101477   5.811765
    14  H    3.895744   5.231639   4.646175   6.018834   4.918647
    15  H    1.915045   0.967654   3.772282   3.547719   5.067714
    16  H    3.050092   2.409527   2.131280   1.092742   3.048057
    17  H    3.049883   2.409617   2.131304   1.092739   3.048169
    18  H    4.115596   3.733146   2.102377   1.088504   2.316239
    19  H    3.894926   4.579405   1.909676   3.195029   0.980417
    20  H    4.381814   5.555649   3.766305   5.253610   3.431241
    21  H    4.320313   5.504153   6.060110   7.168942   6.705145
                   11         12         13         14         15
    11  O    0.000000
    12  O    4.764762   0.000000
    13  H    5.228423   2.519661   0.000000
    14  H    2.627756   2.678863   4.304401   0.000000
    15  H    5.538655   4.637174   2.269761   5.669747   0.000000
    16  H    4.798883   6.552534   4.899335   6.289139   3.188125
    17  H    4.798879   6.551967   4.898896   6.288790   3.188054
    18  H    4.700311   7.537141   6.182862   6.746110   4.606970
    19  H    1.691748   6.049410   5.883077   4.254229   5.512655
    20  H    0.967360   4.784542   5.692090   2.284652   6.292919
    21  H    4.784158   0.966868   3.478362   2.341109   5.542833
                   16         17         18         19         20
    16  H    0.000000
    17  H    1.752256   0.000000
    18  H    1.793474   1.793474   0.000000
    19  H    3.866685   3.866782   3.295955   0.000000
    20  H    5.744875   5.744205   5.653153   2.521588   0.000000
    21  H    7.227971   7.227384   8.094599   6.243105   4.607721
                   21
    21  H    0.000000
 Stoichiometry    C8H9O4(1+)
 Framework group  C1[X(C8H9O4)]
 Deg. of freedom    57
 Full point group                 C1      NOp   1
 Largest Abelian subgroup         C1      NOp   1
 Largest concise Abelian subgroup C1      NOp   1
                         Standard orientation:                         
 ---------------------------------------------------------------------
 Center     Atomic      Atomic             Coordinates (Angstroms)
 Number     Number       Type             X           Y           Z
 ---------------------------------------------------------------------
      1          6           0        1.540326   -1.269451   -0.000184
      2          6           0        2.277046   -0.082657    0.000018
      3          6           0        1.637824    1.170155    0.000017
      4          6           0        0.264367    1.212078   -0.000104
      5          6           0       -0.553018    0.030205   -0.000189
      6          6           0        0.160519   -1.220195   -0.000321
      7          8           0       -0.567061   -2.340794   -0.000578
      8          6           0       -1.975650    0.088197    0.000203
      9          6           0       -2.900367   -1.078664    0.000540
     10          8           0       -2.621723    1.211453    0.000353
     11          8           0       -0.391265    2.397017   -0.000264
     12          8           0        3.598076   -0.208385    0.000123
     13          1           0        2.073129   -2.214183   -0.000268
     14          1           0        2.218231    2.087772   -0.000079
     15          1           0       -0.004499   -3.128117   -0.000590
     16          1           0       -2.720533   -1.706325   -0.875694
     17          1           0       -2.719837   -1.706417    0.876562
     18          1           0       -3.922692   -0.704909    0.000964
     19          1           0       -2.035028    1.996950    0.000143
     20          1           0        0.201576    3.161426    0.001725
     21          1           0        4.059151    0.641464    0.000285
 ---------------------------------------------------------------------
 Rotational constants (GHZ):      1.5298175      0.7628388      0.5106098
 Standard basis: Aug-CC-pVDZ (5D, 7F)
 There are   381 symmetry adapted cartesian basis functions of A   symmetry.
 There are   357 symmetry adapted basis functions of A   symmetry.
   357 basis functions,   615 primitive gaussians,   381 cartesian basis functions
    44 alpha electrons       44 beta electrons
       nuclear repulsion energy       714.9524168728 Hartrees.
 NAtoms=   21 NActive=   21 NUniq=   21 SFac= 1.00D+00 NAtFMM=   60 NAOKFM=F Big=F
 Integral buffers will be    131072 words long.
 Raffenetti 2 integral format.
 Two-electron integral symmetry is turned on.
 One-electron integrals computed using PRISM.
 NBasis=   357 RedAO= T EigKep=  1.34D-06  NBF=   357
 NBsUse=   357 1.00D-06 EigRej= -1.00D+00 NBFU=   357
 ExpMin= 2.97D-02 ExpMax= 1.17D+04 ExpMxC= 4.01D+02 IAcc=3 IRadAn=         5 AccDes= 0.00D+00
 Harris functional with IExCor= 1009 and IRadAn=       5 diagonalized for initial guess.
 HarFok:  IExCor= 1009 AccDes= 0.00D+00 IRadAn=         5 IDoV= 1 UseB2=F ITyADJ=14
 ICtDFT=  3500011 ScaDFX=  1.000000  1.000000  1.000000  1.000000
 FoFCou: FMM=F IPFlag=           0 FMFlag=      100000 FMFlg1=           0
         NFxFlg=           0 DoJE=T BraDBF=F KetDBF=T FulRan=T
         wScrn=  0.000000 ICntrl=     500 IOpCl=  0 I1Cent=   200000004 NGrid=           0
         NMat0=    1 NMatS0=      1 NMatT0=    0 NMatD0=    1 NMtDS0=    0 NMtDT0=    0
 Petite list used in FoFCou.
 Requested convergence on RMS density matrix=1.00D-08 within 128 cycles.
 Requested convergence on MAX density matrix=1.00D-06.
 Requested convergence on             energy=1.00D-06.
 No special actions if energy rises.
 SCF Done:  E(RM062X) =  -610.796417845     A.U. after   15 cycles
            NFock= 15  Conv=0.46D-08     -V/T= 2.0056

 **********************************************************************

            Population analysis using the SCF density.

 **********************************************************************

 Orbital symmetries:
       Occupied  (A) (A) (A) (A) (A) (A) (A) (A) (A) (A) (A) (A)
                 (A) (A) (A) (A) (A) (A) (A) (A) (A) (A) (A) (A)
                 (A) (A) (A) (A) (A) (A) (A) (A) (A) (A) (A) (A)
                 (A) (A) (A) (A) (A) (A) (A) (A)
       Virtual   (A) (A) (A) (A) (A) (A) (A) (A) (A) (A) (A) (A)
                 (A) (A) (A) (A) (A) (A) (A) (A) (A) (A) (A) (A)
                 (A) (A) (A) (A) (A) (A) (A) (A) (A) (A) (A) (A)
                 (A) (A) (A) (A) (A) (A) (A) (A) (A) (A) (A) (A)
                 (A) (A) (A) (A) (A) (A) (A) (A) (A) (A) (A) (A)
                 (A) (A) (A) (A) (A) (A) (A) (A) (A) (A) (A) (A)
                 (A) (A) (A) (A) (A) (A) (A) (A) (A) (A) (A) (A)
                 (A) (A) (A) (A) (A) (A) (A) (A) (A) (A) (A) (A)
                 (A) (A) (A) (A) (A) (A) (A) (A) (A) (A) (A) (A)
                 (A) (A) (A) (A) (A) (A) (A) (A) (A) (A) (A) (A)
                 (A) (A) (A) (A) (A) (A) (A) (A) (A) (A) (A) (A)
                 (A) (A) (A) (A) (A) (A) (A) (A) (A) (A) (A) (A)
                 (A) (A) (A) (A) (A) (A) (A) (A) (A) (A) (A) (A)
                 (A) (A) (A) (A) (A) (A) (A) (A) (A) (A) (A) (A)
                 (A) (A) (A) (A) (A) (A) (A) (A) (A) (A) (A) (A)
                 (A) (A) (A) (A) (A) (A) (A) (A) (A) (A) (A) (A)
                 (A) (A) (A) (A) (A) (A) (A) (A) (A) (A) (A) (A)
                 (A) (A) (A) (A) (A) (A) (A) (A) (A) (A) (A) (A)
                 (A) (A) (A) (A) (A) (A) (A) (A) (A) (A) (A) (A)
                 (A) (A) (A) (A) (A) (A) (A) (A) (A) (A) (A) (A)
                 (A) (A) (A) (A) (A) (A) (A) (A) (A) (A) (A) (A)
                 (A) (A) (A) (A) (A) (A) (A) (A) (A) (A) (A) (A)
                 (A) (A) (A) (A) (A) (A) (A) (A) (A) (A) (A) (A)
                 (A) (A) (A) (A) (A) (A) (A) (A) (A) (A) (A) (A)
                 (A) (A) (A) (A) (A) (A) (A) (A) (A) (A) (A) (A)
                 (A) (A) (A) (A) (A) (A) (A) (A) (A) (A) (A) (A)
                 (A)
 The electronic state is 1-A.
 Alpha  occ. eigenvalues --  -19.87171 -19.86941 -19.84856 -19.84554 -10.84450
 Alpha  occ. eigenvalues --  -10.81716 -10.80994 -10.80746 -10.74030 -10.71971
 Alpha  occ. eigenvalues --  -10.70831 -10.69802  -1.40928  -1.38222  -1.37319
 Alpha  occ. eigenvalues --   -1.36896  -1.13496  -1.06181  -1.01956  -1.00479
 Alpha  occ. eigenvalues --   -0.92019  -0.90256  -0.88080  -0.84199  -0.81753
 Alpha  occ. eigenvalues --   -0.79576  -0.75444  -0.73136  -0.71534  -0.69002
 Alpha  occ. eigenvalues --   -0.68950  -0.68308  -0.67828  -0.66527  -0.64775
 Alpha  occ. eigenvalues --   -0.64598  -0.62363  -0.60448  -0.60376  -0.58689
 Alpha  occ. eigenvalues --   -0.58066  -0.54032  -0.46175  -0.45215
 Alpha virt. eigenvalues --   -0.21206  -0.13185  -0.13005  -0.11397  -0.11138
 Alpha virt. eigenvalues --   -0.09936  -0.09770  -0.08596  -0.08012  -0.07638
 Alpha virt. eigenvalues --   -0.06133  -0.05571  -0.05153  -0.04411  -0.04250
 Alpha virt. eigenvalues --   -0.03656  -0.03318  -0.01908  -0.01828  -0.01592
 Alpha virt. eigenvalues --   -0.01162  -0.01047  -0.00076   0.00366   0.00415
 Alpha virt. eigenvalues --    0.00783   0.01329   0.02441   0.02447   0.02892
 Alpha virt. eigenvalues --    0.02946   0.03375   0.03897   0.03937   0.04543
 Alpha virt. eigenvalues --    0.04769   0.05613   0.05712   0.06163   0.07296
 Alpha virt. eigenvalues --    0.08114   0.08463   0.08801   0.09146   0.09293
 Alpha virt. eigenvalues --    0.10511   0.10597   0.11044   0.11101   0.11939
 Alpha virt. eigenvalues --    0.12259   0.12489   0.13142   0.13626   0.13880
 Alpha virt. eigenvalues --    0.14321   0.14787   0.15450   0.16044   0.16301
 Alpha virt. eigenvalues --    0.16423   0.17023   0.17330   0.17865   0.18561
 Alpha virt. eigenvalues --    0.19157   0.19578   0.20450   0.21360   0.21466
 Alpha virt. eigenvalues --    0.21525   0.22037   0.23350   0.23625   0.23630
 Alpha virt. eigenvalues --    0.24898   0.25434   0.25588   0.26495   0.27335
 Alpha virt. eigenvalues --    0.28463   0.29246   0.30155   0.30336   0.31095
 Alpha virt. eigenvalues --    0.31123   0.31662   0.31999   0.32461   0.33747
 Alpha virt. eigenvalues --    0.34686   0.35263   0.35312   0.35765   0.36982
 Alpha virt. eigenvalues --    0.38720   0.38805   0.39496   0.39822   0.40533
 Alpha virt. eigenvalues --    0.41228   0.41532   0.41872   0.42814   0.43349
 Alpha virt. eigenvalues --    0.43849   0.44167   0.44216   0.45606   0.45825
 Alpha virt. eigenvalues --    0.46255   0.46976   0.47224   0.47906   0.48859
 Alpha virt. eigenvalues --    0.49130   0.50127   0.50369   0.51574   0.51744
 Alpha virt. eigenvalues --    0.52208   0.53468   0.54918   0.56656   0.57172
 Alpha virt. eigenvalues --    0.57993   0.58443   0.59148   0.59897   0.60765
 Alpha virt. eigenvalues --    0.61037   0.61919   0.62406   0.63588   0.63736
 Alpha virt. eigenvalues --    0.64874   0.65294   0.66266   0.67156   0.68804
 Alpha virt. eigenvalues --    0.68943   0.69493   0.70490   0.71167   0.73648
 Alpha virt. eigenvalues --    0.73923   0.76391   0.76719   0.78064   0.79384
 Alpha virt. eigenvalues --    0.79950   0.80461   0.81589   0.82699   0.84355
 Alpha virt. eigenvalues --    0.84595   0.85802   0.86039   0.87529   0.89134
 Alpha virt. eigenvalues --    0.89473   0.91588   0.92535   0.92988   0.93235
 Alpha virt. eigenvalues --    0.96507   0.98052   0.99263   0.99934   1.03331
 Alpha virt. eigenvalues --    1.03941   1.06937   1.07704   1.09309   1.10197
 Alpha virt. eigenvalues --    1.10817   1.11658   1.14518   1.15904   1.16032
 Alpha virt. eigenvalues --    1.16897   1.17293   1.19761   1.20558   1.20826
 Alpha virt. eigenvalues --    1.22485   1.23340   1.25201   1.26171   1.27258
 Alpha virt. eigenvalues --    1.29047   1.30531   1.30924   1.32242   1.33759
 Alpha virt. eigenvalues --    1.34382   1.35652   1.36162   1.36371   1.37552
 Alpha virt. eigenvalues --    1.38809   1.39197   1.41146   1.43247   1.44018
 Alpha virt. eigenvalues --    1.45367   1.46210   1.49665   1.49857   1.50035
 Alpha virt. eigenvalues --    1.50227   1.51304   1.52481   1.54346   1.57483
 Alpha virt. eigenvalues --    1.58584   1.59047   1.59145   1.59814   1.60699
 Alpha virt. eigenvalues --    1.62984   1.64007   1.64975   1.66128   1.66612
 Alpha virt. eigenvalues --    1.70174   1.72588   1.73931   1.74142   1.75636
 Alpha virt. eigenvalues --    1.77791   1.79125   1.79977   1.80781   1.81038
 Alpha virt. eigenvalues --    1.82008   1.84591   1.85936   1.86447   1.87751
 Alpha virt. eigenvalues --    1.89070   1.90096   1.90762   1.92460   1.92575
 Alpha virt. eigenvalues --    1.95776   1.97481   1.98015   1.98141   2.01822
 Alpha virt. eigenvalues --    2.03226   2.04767   2.05734   2.07864   2.10321
 Alpha virt. eigenvalues --    2.12115   2.13104   2.14957   2.16200   2.17356
 Alpha virt. eigenvalues --    2.17565   2.21154   2.23518   2.28335   2.31113
 Alpha virt. eigenvalues --    2.35900   2.40081   2.41860   2.44682   2.45852
 Alpha virt. eigenvalues --    2.49317   2.52105   2.54170   2.55800   2.60824
 Alpha virt. eigenvalues --    2.61454   2.64635   2.67522   2.68992   2.70443
 Alpha virt. eigenvalues --    2.74305   2.75842   2.78760   2.83120   2.86964
 Alpha virt. eigenvalues --    2.91335   2.92265   2.96047   3.11052   3.16862
 Alpha virt. eigenvalues --    3.23599   3.24631   3.26389   3.27500   3.28009
 Alpha virt. eigenvalues --    3.28797   3.29732   3.33053   3.33800   3.39252
 Alpha virt. eigenvalues --    3.40235   3.43750   3.51033   3.53520   3.55431
 Alpha virt. eigenvalues --    3.57516   3.63875   3.72014   3.83516   3.89806
 Alpha virt. eigenvalues --    3.92968   3.96403   4.34655
          Condensed to atoms (all electrons):
               1          2          3          4          5          6
     1  C   24.114384  -6.357196   6.360934  -8.683987   3.944408 -10.860827
     2  C   -6.357196  13.284065  -5.150224   3.016023  -4.622641   4.498955
     3  C    6.360934  -5.150224  26.247900 -13.788649   3.129725  -7.919280
     4  C   -8.683987   3.016023 -13.788649  29.876441  -5.056432   1.622665
     5  C    3.944408  -4.622641   3.129725  -5.056432  20.274714  -7.519316
     6  C  -10.860827   4.498955  -7.919280   1.622665  -7.519316  28.035471
     7  O    1.065544  -0.564776   0.421567  -0.185917   1.048508  -2.047997
     8  C   -1.338974   0.655701  -2.110767  -1.155008  -5.434345  -1.838759
     9  C   -0.371278   0.218415  -0.440195   0.122664  -1.655606   0.473263
    10  O    0.041049  -0.028453   0.029423  -0.171782   0.212719   0.136225
    11  O    0.287679  -0.197573   1.228093  -1.729339   0.592356  -0.238380
    12  O    0.150107  -0.491904   0.593656  -0.187154   0.163649  -0.269620
    13  H   -3.541513   1.489827  -0.193135   0.377458  -0.832257   1.804550
    14  H   -0.382728   0.499373  -3.361515   2.529961  -0.396045   0.244326
    15  H   -0.066405   0.075670  -0.026632   0.014508  -0.109838   0.098223
    16  H   -0.004191   0.036219  -0.060810  -0.030951  -0.141477   0.146652
    17  H   -0.004266   0.036262  -0.060879  -0.030829  -0.141821   0.147045
    18  H   -0.005824  -0.010514   0.041838   0.086446   0.080087  -0.169460
    19  H   -0.019010   0.006359  -0.043918  -0.099493  -0.100845   0.048586
    20  H   -0.042290   0.034224  -0.210377   0.135074  -0.030531   0.037840
    21  H   -0.050350  -0.003197  -0.078819   0.028292  -0.024680   0.060472
               7          8          9         10         11         12
     1  C    1.065544  -1.338974  -0.371278   0.041049   0.287679   0.150107
     2  C   -0.564776   0.655701   0.218415  -0.028453  -0.197573  -0.491904
     3  C    0.421567  -2.110767  -0.440195   0.029423   1.228093   0.593656
     4  C   -0.185917  -1.155008   0.122664  -0.171782  -1.729339  -0.187154
     5  C    1.048508  -5.434345  -1.655606   0.212719   0.592356   0.163649
     6  C   -2.047997  -1.838759   0.473263   0.136225  -0.238380  -0.269620
     7  O    9.038964   0.076962  -0.149511  -0.018433   0.004198   0.008696
     8  C    0.076962  16.785627   0.573408  -0.264100  -0.221818  -0.014957
     9  C   -0.149511   0.573408   6.111551  -0.124944   0.020942  -0.001918
    10  O   -0.018433  -0.264100  -0.124944   8.455340  -0.036745   0.000162
    11  O    0.004198  -0.221818   0.020942  -0.036745   9.061491   0.007532
    12  O    0.008696  -0.014957  -0.001918   0.000162   0.007532   8.545696
    13  H   -0.241651   0.069242  -0.003333  -0.000821   0.001174  -0.104213
    14  H    0.007273   0.084107  -0.011285   0.002378  -0.245336  -0.145130
    15  H    0.220039  -0.041281   0.028161   0.003211  -0.000481  -0.000886
    16  H   -0.036189  -0.026523   0.403310   0.035033   0.001309  -0.000229
    17  H   -0.036212  -0.026423   0.403027   0.035059   0.001312  -0.000229
    18  H    0.035805   0.628562  -0.558348  -0.160136  -0.003459  -0.000100
    19  H   -0.002062   0.184450  -0.023141   0.245782  -0.041496  -0.000351
    20  H   -0.001580   0.029593   0.004815  -0.000782   0.251704  -0.001015
    21  H   -0.003103   0.003858   0.001679  -0.000338  -0.001430   0.268192
              13         14         15         16         17         18
     1  C   -3.541513  -0.382728  -0.066405  -0.004191  -0.004266  -0.005824
     2  C    1.489827   0.499373   0.075670   0.036219   0.036262  -0.010514
     3  C   -0.193135  -3.361515  -0.026632  -0.060810  -0.060879   0.041838
     4  C    0.377458   2.529961   0.014508  -0.030951  -0.030829   0.086446
     5  C   -0.832257  -0.396045  -0.109838  -0.141477  -0.141821   0.080087
     6  C    1.804550   0.244326   0.098223   0.146652   0.147045  -0.169460
     7  O   -0.241651   0.007273   0.220039  -0.036189  -0.036212   0.035805
     8  C    0.069242   0.084107  -0.041281  -0.026523  -0.026423   0.628562
     9  C   -0.003333  -0.011285   0.028161   0.403310   0.403027  -0.558348
    10  O   -0.000821   0.002378   0.003211   0.035033   0.035059  -0.160136
    11  O    0.001174  -0.245336  -0.000481   0.001309   0.001312  -0.003459
    12  O   -0.104213  -0.145130  -0.000886  -0.000229  -0.000229  -0.000100
    13  H    3.187994  -0.027117   0.020073   0.001460   0.001456   0.002293
    14  H   -0.027117   3.231672  -0.001734  -0.000702  -0.000704   0.001354
    15  H    0.020073  -0.001734   0.488181   0.002122   0.002140  -0.000983
    16  H    0.001460  -0.000702   0.002122   0.957089  -0.160326  -0.229635
    17  H    0.001456  -0.000704   0.002140  -0.160326   0.957378  -0.229712
    18  H    0.002293   0.001354  -0.000983  -0.229635  -0.229712   1.870371
    19  H    0.001979   0.003866  -0.000381  -0.000676  -0.000673   0.013133
    20  H   -0.000068   0.038539   0.000172   0.000453   0.000455  -0.001203
    21  H    0.005643   0.009301   0.000668   0.000155   0.000156  -0.000029
              19         20         21
     1  C   -0.019010  -0.042290  -0.050350
     2  C    0.006359   0.034224  -0.003197
     3  C   -0.043918  -0.210377  -0.078819
     4  C   -0.099493   0.135074   0.028292
     5  C   -0.100845  -0.030531  -0.024680
     6  C    0.048586   0.037840   0.060472
     7  O   -0.002062  -0.001580  -0.003103
     8  C    0.184450   0.029593   0.003858
     9  C   -0.023141   0.004815   0.001679
    10  O    0.245782  -0.000782  -0.000338
    11  O   -0.041496   0.251704  -0.001430
    12  O   -0.000351  -0.001015   0.268192
    13  H    0.001979  -0.000068   0.005643
    14  H    0.003866   0.038539   0.009301
    15  H   -0.000381   0.000172   0.000668
    16  H   -0.000676   0.000453   0.000155
    17  H   -0.000673   0.000455   0.000156
    18  H    0.013133  -0.001203  -0.000029
    19  H    0.618509  -0.000194   0.000238
    20  H   -0.000194   0.457857  -0.000009
    21  H    0.000238  -0.000009   0.551042
 Mulliken charges:
               1
     1  C    1.764734
     2  C   -0.424616
     3  C    1.392067
     4  C   -0.689989
     5  C    2.619668
     6  C   -0.490632
     7  O   -0.640124
     8  C   -0.618556
     9  C    0.978326
    10  O   -0.389845
    11  O   -0.741732
    12  O   -0.519984
    13  H   -1.019040
    14  H   -1.079855
    15  H    0.295453
    16  H    0.107906
    17  H    0.107783
    18  H   -0.390485
    19  H    0.209338
    20  H    0.297325
    21  H    0.232259
 Sum of Mulliken charges =   1.00000
 Mulliken charges with hydrogens summed into heavy atoms:
               1
     1  C    0.745694
     2  C   -0.424616
     3  C    0.312212
     4  C   -0.689989
     5  C    2.619668
     6  C   -0.490632
     7  O   -0.344671
     8  C   -0.618556
     9  C    0.803530
    10  O   -0.180507
    11  O   -0.444407
    12  O   -0.287725
 Electronic spatial extent (au):  <R**2>=           2059.6473
 Charge=              1.0000 electrons
 Dipole moment (field-independent basis, Debye):
    X=              1.3049    Y=              1.5881    Z=              0.0035  Tot=              2.0554
 Quadrupole moment (field-independent basis, Debye-Ang):
   XX=            -41.3435   YY=            -36.4406   ZZ=            -69.7252
   XY=              8.3332   XZ=             -0.0002   YZ=              0.0131
 Traceless Quadrupole moment (field-independent basis, Debye-Ang):
   XX=              7.8263   YY=             12.7292   ZZ=            -20.5555
   XY=              8.3332   XZ=             -0.0002   YZ=              0.0131
 Octapole moment (field-independent basis, Debye-Ang**2):
  XXX=             27.0735  YYY=             13.7108  ZZZ=              0.0019  XYY=             13.8014
  XXY=             18.7985  XXZ=              0.0089  XZZ=             -5.4306  YZZ=             -0.0650
  YYZ=              0.0351  XYZ=              0.0084
 Hexadecapole moment (field-independent basis, Debye-Ang**3):
 XXXX=          -1277.7189 YYYY=           -478.3595 ZZZZ=            -74.5465 XXXY=            142.7450
 XXXZ=              0.0533 YYYX=            -14.1903 YYYZ=              0.1349 ZZZX=              0.0436
 ZZZY=             -0.0274 XXYY=           -346.4273 XXZZ=           -288.2150 YYZZ=           -152.8009
 XXYZ=             -0.0085 YYXZ=              0.0155 ZZXY=              1.1549
 N-N= 7.149524168728D+02 E-N=-2.842985676235D+03  KE= 6.073812073275D+02
 Calling FoFJK, ICntrl=      2127 FMM=F ISym2X=0 I1Cent= 0 IOpClX= 0 NMat=1 NMatS=1 NMatT=0.
 ***** Axes restored to original set *****
 -------------------------------------------------------------------
 Center     Atomic                   Forces (Hartrees/Bohr)
 Number     Number              X              Y              Z
 -------------------------------------------------------------------
      1        6          -0.000299329    0.000835741   -0.000001108
      2        6          -0.000678393    0.001135256    0.000000965
      3        6          -0.000762015   -0.000856673   -0.000000493
      4        6           0.000058700    0.000324546    0.000000249
      5        6          -0.000456948   -0.000250329    0.000003086
      6        6          -0.000256903    0.000280528   -0.000001020
      7        8          -0.001077314   -0.002192147    0.000001098
      8        6           0.001397144   -0.000916038   -0.000005458
      9        6           0.000357689    0.001773942   -0.000000081
     10        8          -0.001827120    0.002215027   -0.000000622
     11        8          -0.001319789    0.002600521    0.000016618
     12        8           0.002360530   -0.000918303    0.000000266
     13        1           0.001053984   -0.002321460   -0.000000201
     14        1           0.001383170    0.002080593    0.000002762
     15        1           0.000466057    0.001595219   -0.000000813
     16        1           0.000778442   -0.000831081   -0.001732589
     17        1           0.000780039   -0.000830396    0.001731410
     18        1          -0.001771961    0.000837713    0.000000496
     19        1           0.000851544   -0.002424897    0.000000530
     20        1           0.000406461   -0.002070274   -0.000014415
     21        1          -0.001443988   -0.000067486   -0.000000680
 -------------------------------------------------------------------
 Cartesian Forces:  Max     0.002600521 RMS     0.001131511

 GradGradGradGradGradGradGradGradGradGradGradGradGradGradGradGradGradGrad
 Berny optimization.
 FormGI is forming the generalized inverse of G from B-inverse, IUseBI=4.
 Internal  Forces:  Max     0.003950949 RMS     0.000930655
 Search for a local minimum.
 Step number   1 out of a maximum of  104
 All quantities printed in internal units (Hartrees-Bohrs-Radians)
 Mixed Optimization -- En-DIIS/RFO-DIIS
 Second derivative matrix not updated -- first step.
 ITU=  0
     Eigenvalues ---    0.00913   0.01553   0.01617   0.01754   0.01774
     Eigenvalues ---    0.02003   0.02073   0.02118   0.02153   0.02204
     Eigenvalues ---    0.02245   0.02271   0.02297   0.02537   0.02657
     Eigenvalues ---    0.03070   0.07559   0.07596   0.16000   0.16000
     Eigenvalues ---    0.16000   0.16000   0.16000   0.16000   0.16000
     Eigenvalues ---    0.16000   0.16000   0.23482   0.23492   0.25000
     Eigenvalues ---    0.25000   0.25000   0.25000   0.25000   0.25000
     Eigenvalues ---    0.25000   0.33576   0.34498   0.34498   0.34986
     Eigenvalues ---    0.35306   0.35442   0.38055   0.38988   0.41891
     Eigenvalues ---    0.43419   0.44729   0.47306   0.49714   0.51304
     Eigenvalues ---    0.53859   0.53920   0.54022   0.54132   0.58092
     Eigenvalues ---    0.60220   0.68371
 RFO step:  Lambda=-3.53700733D-04 EMin= 9.13476482D-03
 Linear search not attempted -- first point.
 Iteration  1 RMS(Cart)=  0.00986452 RMS(Int)=  0.00010758
 Iteration  2 RMS(Cart)=  0.00010498 RMS(Int)=  0.00000239
 Iteration  3 RMS(Cart)=  0.00000000 RMS(Int)=  0.00000239
 Variable       Old X    -DE/DX   Delta X   Delta X   Delta X     New X
                                 (Linear)    (Quad)   (Total)
    R1        2.63970   0.00097   0.00000   0.00215   0.00215   2.64185
    R2        2.60912   0.00091   0.00000   0.00187   0.00187   2.61099
    R3        2.04963   0.00254   0.00000   0.00716   0.00716   2.05679
    R4        2.65783   0.00085   0.00000   0.00193   0.00193   2.65976
    R5        2.50767   0.00100   0.00000   0.00167   0.00167   2.50933
    R6        2.59667   0.00071   0.00000   0.00139   0.00139   2.59806
    R7        2.05181   0.00250   0.00000   0.00707   0.00707   2.05888
    R8        2.71552   0.00089   0.00000   0.00218   0.00218   2.71770
    R9        2.55912   0.00091   0.00000   0.00168   0.00168   2.56080
   R10        2.72057   0.00066   0.00000   0.00162   0.00162   2.72219
   R11        2.69062  -0.00058   0.00000  -0.00137  -0.00137   2.68924
   R12        2.52483   0.00083   0.00000   0.00143   0.00143   2.52626
   R13        1.82860  -0.00102   0.00000  -0.00190  -0.00190   1.82670
   R14        2.81351  -0.00082   0.00000  -0.00245  -0.00245   2.81106
   R15        2.44872   0.00030   0.00000   0.00044   0.00044   2.44916
   R16        2.06498   0.00200   0.00000   0.00578   0.00578   2.07077
   R17        2.06498   0.00200   0.00000   0.00578   0.00578   2.07076
   R18        2.05697   0.00195   0.00000   0.00556   0.00556   2.06254
   R19        1.85272  -0.00144   0.00000  -0.00280  -0.00280   1.84992
   R20        1.82805  -0.00139   0.00000  -0.00258  -0.00258   1.82547
   R21        1.82712  -0.00074   0.00000  -0.00137  -0.00137   1.82574
    A1        2.09066  -0.00028   0.00000  -0.00110  -0.00110   2.08956
    A2        2.07254   0.00036   0.00000   0.00194   0.00194   2.07448
    A3        2.11999  -0.00008   0.00000  -0.00084  -0.00084   2.11915
    A4        2.11425   0.00038   0.00000   0.00167   0.00167   2.11592
    A5        2.03146  -0.00016   0.00000  -0.00072  -0.00072   2.03073
    A6        2.13748  -0.00022   0.00000  -0.00095  -0.00095   2.13653
    A7        2.07311  -0.00020   0.00000  -0.00085  -0.00085   2.07226
    A8        2.10581   0.00005   0.00000   0.00009   0.00009   2.10590
    A9        2.10427   0.00015   0.00000   0.00075   0.00075   2.10502
   A10        2.14535  -0.00012   0.00000  -0.00055  -0.00055   2.14480
   A11        2.10669  -0.00068   0.00000  -0.00270  -0.00270   2.10399
   A12        2.03115   0.00081   0.00000   0.00325   0.00325   2.03440
   A13        2.01797   0.00034   0.00000   0.00124   0.00124   2.01921
   A14        2.13512  -0.00091   0.00000  -0.00357  -0.00357   2.13155
   A15        2.13009   0.00057   0.00000   0.00233   0.00233   2.13242
   A16        2.12504  -0.00011   0.00000  -0.00042  -0.00042   2.12461
   A17        2.11098  -0.00092   0.00000  -0.00367  -0.00367   2.10731
   A18        2.04717   0.00103   0.00000   0.00409   0.00409   2.05126
   A19        1.94532  -0.00240   0.00000  -0.01495  -0.01495   1.93037
   A20        2.20020   0.00078   0.00000   0.00310   0.00310   2.20329
   A21        2.13351  -0.00119   0.00000  -0.00475  -0.00475   2.12875
   A22        1.94948   0.00041   0.00000   0.00165   0.00165   1.95114
   A23        1.92599  -0.00070   0.00000  -0.00461  -0.00462   1.92137
   A24        1.92603  -0.00070   0.00000  -0.00462  -0.00463   1.92140
   A25        1.89044   0.00006   0.00000   0.00090   0.00091   1.89134
   A26        1.86051   0.00051   0.00000   0.00221   0.00219   1.86270
   A27        1.93061   0.00041   0.00000   0.00303   0.00303   1.93364
   A28        1.93062   0.00041   0.00000   0.00303   0.00303   1.93364
   A29        1.97810  -0.00395   0.00000  -0.02464  -0.02464   1.95346
   A30        1.97656  -0.00290   0.00000  -0.01807  -0.01807   1.95848
   A31        1.97300  -0.00227   0.00000  -0.01414  -0.01414   1.95886
    D1       -0.00006   0.00000   0.00000   0.00001   0.00001  -0.00005
    D2       -3.14158   0.00000   0.00000   0.00001   0.00001  -3.14156
    D3        3.14150   0.00000   0.00000   0.00001   0.00001   3.14150
    D4       -0.00003   0.00000   0.00000   0.00001   0.00001  -0.00002
    D5       -0.00006   0.00000   0.00000   0.00001   0.00001  -0.00005
    D6        3.14154  -0.00000   0.00000  -0.00001  -0.00001   3.14152
    D7        3.14157   0.00000   0.00000   0.00002   0.00002   3.14159
    D8       -0.00001  -0.00000   0.00000  -0.00001  -0.00001  -0.00002
    D9        0.00007  -0.00000   0.00000  -0.00000  -0.00000   0.00007
   D10       -3.14132  -0.00000   0.00000  -0.00006  -0.00006  -3.14138
   D11        3.14159  -0.00000   0.00000  -0.00001  -0.00001   3.14158
   D12        0.00020  -0.00000   0.00000  -0.00006  -0.00006   0.00013
   D13       -3.14157  -0.00000   0.00000  -0.00003  -0.00003  -3.14159
   D14        0.00010  -0.00000   0.00000  -0.00002  -0.00002   0.00008
   D15        0.00003  -0.00000   0.00000  -0.00003  -0.00003   0.00000
   D16       -3.14146   0.00000   0.00000   0.00001   0.00001  -3.14145
   D17        3.14142   0.00000   0.00000   0.00003   0.00003   3.14145
   D18       -0.00007   0.00000   0.00000   0.00007   0.00007  -0.00000
   D19       -0.00014   0.00000   0.00000   0.00005   0.00005  -0.00009
   D20        3.14116   0.00000   0.00000   0.00018   0.00018   3.14135
   D21        3.14136   0.00000   0.00000   0.00001   0.00001   3.14137
   D22       -0.00052   0.00000   0.00000   0.00015   0.00015  -0.00038
   D23       -0.00226   0.00001   0.00000   0.00047   0.00047  -0.00179
   D24        3.13943   0.00001   0.00000   0.00050   0.00050   3.13993
   D25        0.00015  -0.00000   0.00000  -0.00004  -0.00004   0.00011
   D26       -3.14145  -0.00000   0.00000  -0.00001  -0.00001  -3.14146
   D27       -3.14115  -0.00000   0.00000  -0.00017  -0.00017  -3.14133
   D28        0.00044  -0.00000   0.00000  -0.00015  -0.00015   0.00029
   D29       -3.14127  -0.00000   0.00000  -0.00004  -0.00004  -3.14131
   D30        0.00028  -0.00000   0.00000  -0.00004  -0.00004   0.00024
   D31        0.00002   0.00000   0.00000   0.00011   0.00011   0.00012
   D32        3.14157   0.00000   0.00000   0.00010   0.00010  -3.14152
   D33        0.00006  -0.00000   0.00000  -0.00002  -0.00001   0.00005
   D34       -3.14153  -0.00000   0.00000  -0.00004  -0.00004  -3.14157
   D35       -1.02603   0.00011   0.00000   0.00148   0.00148  -1.02455
   D36        1.02568  -0.00011   0.00000  -0.00145  -0.00145   1.02423
   D37        3.14143  -0.00000   0.00000   0.00001   0.00001   3.14144
   D38        2.11561   0.00011   0.00000   0.00149   0.00148   2.11708
   D39       -2.11587  -0.00011   0.00000  -0.00145  -0.00145  -2.11732
   D40       -0.00012  -0.00000   0.00000   0.00001   0.00001  -0.00011
   D41        0.00003  -0.00000   0.00000  -0.00001  -0.00001   0.00002
   D42        3.14159  -0.00000   0.00000  -0.00002  -0.00002   3.14157
         Item               Value     Threshold  Converged?
 Maximum Force            0.003951     0.000450     NO 
 RMS     Force            0.000931     0.000300     NO 
 Maximum Displacement     0.052423     0.001800     NO 
 RMS     Displacement     0.009848     0.001200     NO 
 Predicted change in Energy=-1.771640D-04
 GradGradGradGradGradGradGradGradGradGradGradGradGradGradGradGradGradGrad

                          Input orientation:                          
 ---------------------------------------------------------------------
 Center     Atomic      Atomic             Coordinates (Angstroms)
 Number     Number       Type             X           Y           Z
 ---------------------------------------------------------------------
      1          6           0        1.539839   -1.271075   -0.000182
      2          6           0        2.274347   -0.081570   -0.000002
      3          6           0        1.633791    1.171705    0.000070
      4          6           0        0.259534    1.211533    0.000043
      5          6           0       -0.556038    0.027006   -0.000051
      6          6           0        0.158982   -1.223534   -0.000235
      7          8           0       -0.563466   -2.348346   -0.000486
      8          6           0       -1.977856    0.087077    0.000218
      9          6           0       -2.907098   -1.074522    0.000490
     10          8           0       -2.617027    1.214542    0.000300
     11          8           0       -0.395151    2.398012   -0.000054
     12          8           0        3.596459   -0.205210    0.000004
     13          1           0        2.074907   -2.218876   -0.000319
     14          1           0        2.215475    2.092942    0.000011
     15          1           0        0.014036   -3.123522   -0.000567
     16          1           0       -2.724879   -1.702441   -0.878883
     17          1           0       -2.724345   -1.702489    0.879715
     18          1           0       -3.930804   -0.695990    0.000811
     19          1           0       -2.007287    1.980395    0.000141
     20          1           0        0.211429    3.149816    0.001503
     21          1           0        4.043725    0.651167    0.000133
 ---------------------------------------------------------------------
                    Distance matrix (angstroms):
                    1          2          3          4          5
     1  C    0.000000
     2  C    1.398006   0.000000
     3  C    2.444585   1.407484   0.000000
     4  C    2.793300   2.394074   1.374834   0.000000
     5  C    2.465302   2.832466   2.470969   1.438145   0.000000
     6  C    1.381675   2.403924   2.812869   2.437143   1.440522
     7  O    2.363135   3.632004   4.149542   3.653774   2.375363
     8  C    3.770777   4.255546   3.770996   2.504060   1.423087
     9  C    4.451280   5.275730   5.066084   3.905587   2.596315
    10  O    4.843329   5.060183   4.251034   2.876563   2.378639
    11  O    4.148058   3.643425   2.370746   1.355118   2.376458
    12  O    2.316409   1.327881   2.397490   3.625222   4.158985
    13  H    1.088405   2.146591   3.419155   3.881145   3.459170
    14  H    3.431193   2.175309   1.089510   2.145364   3.456786
    15  H    2.399925   3.789786   4.590488   4.342002   3.201689
    16  H    4.375616   5.328406   5.294458   4.262684   2.909846
    17  H    4.375340   5.328057   5.294158   4.262496   2.909758
    18  H    5.500788   6.235496   5.869668   4.604083   3.451344
    19  H    4.811877   4.752272   3.729803   2.393664   2.433486
    20  H    4.616162   3.833730   2.436399   1.938880   3.215734
    21  H    3.156653   1.915099   2.465510   3.825456   4.641917
                    6          7          8          9         10
     6  C    0.000000
     7  O    1.336837   0.000000
     8  C    2.506747   2.816342   0.000000
     9  C    3.069700   2.667441   1.487550   0.000000
    10  O    3.694651   4.112333   1.296039   2.307370   0.000000
    11  O    3.663695   4.749341   2.800959   4.285833   2.517406
    12  O    3.585140   4.679531   5.581973   6.561400   6.373626
    13  H    2.159044   2.641548   4.662865   5.111744   5.814001
    14  H    3.902329   5.239040   4.648388   6.022755   4.911686
    15  H    1.905509   0.966648   3.778304   3.568113   5.073589
    16  H    3.052545   2.420843   2.129140   1.095803   3.048505
    17  H    3.052422   2.421008   2.129156   1.095799   3.048599
    18  H    4.123671   3.750900   2.104092   1.091449   2.318651
    19  H    3.867542   4.563180   1.893546   3.184678   0.978935
    20  H    4.373665   5.552499   3.764749   5.250737   3.427163
    21  H    4.313436   5.497571   6.047945   7.161840   6.684536
                   11         12         13         14         15
    11  O    0.000000
    12  O    4.765472   0.000000
    13  H    5.236110   2.523881   0.000000
    14  H    2.628390   2.681160   4.314109   0.000000
    15  H    5.536676   4.620639   2.250683   5.661963   0.000000
    16  H    4.797258   6.555415   4.906784   6.291620   3.208203
    17  H    4.797211   6.555020   4.906519   6.291342   3.208264
    18  H    4.698264   7.543246   6.195785   6.749436   4.631920
    19  H    1.665349   6.014885   5.856465   4.224261   5.489601
    20  H    0.965997   4.765987   5.682905   2.265653   6.276443
    21  H    4.770230   0.966141   3.480430   2.328350   5.521474
                   16         17         18         19         20
    16  H    0.000000
    17  H    1.758597   0.000000
    18  H    1.800295   1.800294   0.000000
    19  H    3.853687   3.853758   3.295899   0.000000
    20  H    5.739458   5.738891   5.652284   2.508036   0.000000
    21  H    7.219844   7.219427   8.087518   6.195288   4.574904
                   21
    21  H    0.000000
 Stoichiometry    C8H9O4(1+)
 Framework group  C1[X(C8H9O4)]
 Deg. of freedom    57
 Full point group                 C1      NOp   1
 Largest Abelian subgroup         C1      NOp   1
 Largest concise Abelian subgroup C1      NOp   1
                         Standard orientation:                         
 ---------------------------------------------------------------------
 Center     Atomic      Atomic             Coordinates (Angstroms)
 Number     Number       Type             X           Y           Z
 ---------------------------------------------------------------------
      1          6           0        1.541298   -1.270586   -0.000213
      2          6           0        2.275578   -0.080942   -0.000033
      3          6           0        1.634783    1.172211    0.000039
      4          6           0        0.260518    1.211777    0.000012
      5          6           0       -0.554827    0.027094   -0.000082
      6          6           0        0.160432   -1.223309   -0.000266
      7          8           0       -0.561802   -2.348259   -0.000517
      8          6           0       -1.976657    0.086894    0.000187
      9          6           0       -2.905677   -1.074882    0.000459
     10          8           0       -2.616043    1.214237    0.000268
     11          8           0       -0.394393    2.398131   -0.000085
     12          8           0        3.597714   -0.204329   -0.000027
     13          1           0        2.076547   -2.218286   -0.000350
     14          1           0        2.216291    2.093559   -0.000020
     15          1           0        0.015848   -3.123325   -0.000599
     16          1           0       -2.723338   -1.702767   -0.878914
     17          1           0       -2.722803   -1.702814    0.879683
     18          1           0       -3.929455   -0.696546    0.000780
     19          1           0       -2.006449    1.980206    0.000110
     20          1           0        0.212043    3.150050    0.001472
     21          1           0        4.044817    0.652134    0.000102
 ---------------------------------------------------------------------
 Rotational constants (GHZ):      1.5267995      0.7633469      0.5105120
 Standard basis: Aug-CC-pVDZ (5D, 7F)
 There are   381 symmetry adapted cartesian basis functions of A   symmetry.
 There are   357 symmetry adapted basis functions of A   symmetry.
   357 basis functions,   615 primitive gaussians,   381 cartesian basis functions
    44 alpha electrons       44 beta electrons
       nuclear repulsion energy       714.8574147299 Hartrees.
 NAtoms=   21 NActive=   21 NUniq=   21 SFac= 1.00D+00 NAtFMM=   60 NAOKFM=F Big=F
 Integral buffers will be    131072 words long.
 Raffenetti 2 integral format.
 Two-electron integral symmetry is turned on.
 One-electron integrals computed using PRISM.
 NBasis=   357 RedAO= T EigKep=  1.35D-06  NBF=   357
 NBsUse=   357 1.00D-06 EigRej= -1.00D+00 NBFU=   357
 Initial guess from the checkpoint file:  "pvdzTHAPyang.chk"
 B after Tr=     0.000000   -0.000000    0.000000
         Rot=    1.000000   -0.000007   -0.000003   -0.000193 Ang=  -0.02 deg.
 ExpMin= 2.97D-02 ExpMax= 1.17D+04 ExpMxC= 4.01D+02 IAcc=3 IRadAn=         5 AccDes= 0.00D+00
 Harris functional with IExCor= 1009 and IRadAn=       5 diagonalized for initial guess.
 HarFok:  IExCor= 1009 AccDes= 0.00D+00 IRadAn=         5 IDoV= 1 UseB2=F ITyADJ=14
 ICtDFT=  3500011 ScaDFX=  1.000000  1.000000  1.000000  1.000000
 FoFCou: FMM=F IPFlag=           0 FMFlag=      100000 FMFlg1=           0
         NFxFlg=           0 DoJE=T BraDBF=F KetDBF=T FulRan=T
         wScrn=  0.000000 ICntrl=     500 IOpCl=  0 I1Cent=   200000004 NGrid=           0
         NMat0=    1 NMatS0=      1 NMatT0=    0 NMatD0=    1 NMtDS0=    0 NMtDT0=    0
 Petite list used in FoFCou.
 Requested convergence on RMS density matrix=1.00D-08 within 128 cycles.
 Requested convergence on MAX density matrix=1.00D-06.
 Requested convergence on             energy=1.00D-06.
 No special actions if energy rises.
 SCF Done:  E(RM062X) =  -610.796533974     A.U. after   12 cycles
            NFock= 12  Conv=0.55D-08     -V/T= 2.0056
 Calling FoFJK, ICntrl=      2127 FMM=F ISym2X=0 I1Cent= 0 IOpClX= 0 NMat=1 NMatS=1 NMatT=0.
 ***** Axes restored to original set *****
 -------------------------------------------------------------------
 Center     Atomic                   Forces (Hartrees/Bohr)
 Number     Number              X              Y              Z
 -------------------------------------------------------------------
      1        6           0.000232401    0.000354782    0.000000065
      2        6          -0.000895254   -0.000344924   -0.000000678
      3        6          -0.000086526   -0.000009252    0.000003129
      4        6           0.000542579   -0.001529861   -0.000008726
      5        6           0.000935387   -0.000296540   -0.000000117
      6        6          -0.000129031    0.001056817   -0.000000938
      7        8          -0.000797361   -0.000250084    0.000002686
      8        6          -0.000632887   -0.001124531   -0.000001603
      9        6           0.000253755   -0.000180862   -0.000001475
     10        8          -0.000420115    0.000064292   -0.000000675
     11        8           0.000408072    0.000671592    0.000015699
     12        8           0.000657114    0.000062939    0.000000686
     13        1          -0.000016888    0.000072350    0.000000049
     14        1           0.000057329   -0.000069399    0.000001720
     15        1          -0.000074884   -0.000201641   -0.000000896
     16        1           0.000129382   -0.000102093   -0.000015304
     17        1           0.000130675   -0.000102484    0.000015345
     18        1           0.000139085   -0.000057528   -0.000000231
     19        1          -0.000467180    0.001561225    0.000001534
     20        1          -0.000220056    0.000359258   -0.000010002
     21        1           0.000254402    0.000065943   -0.000000266
 -------------------------------------------------------------------
 Cartesian Forces:  Max     0.001561225 RMS     0.000446754

 GradGradGradGradGradGradGradGradGradGradGradGradGradGradGradGradGradGrad
 Berny optimization.
 Using GEDIIS/GDIIS optimizer.
 FormGI is forming the generalized inverse of G from B-inverse, IUseBI=4.
 Internal  Forces:  Max     0.002624769 RMS     0.000674786
 Search for a local minimum.
 Step number   2 out of a maximum of  104
 All quantities printed in internal units (Hartrees-Bohrs-Radians)
 Mixed Optimization -- En-DIIS/RFO-DIIS
 Swapping is turned off.
 Update second derivatives using D2CorX and points    1    2
 DE= -1.16D-04 DEPred=-1.77D-04 R= 6.55D-01
 TightC=F SS=  1.41D+00  RLast= 4.25D-02 DXNew= 5.0454D-01 1.2740D-01
 Trust test= 6.55D-01 RLast= 4.25D-02 DXMaxT set to 3.00D-01
 ITU=  1  0
     Eigenvalues ---    0.00913   0.01550   0.01617   0.01754   0.01774
     Eigenvalues ---    0.02002   0.02073   0.02117   0.02152   0.02203
     Eigenvalues ---    0.02245   0.02271   0.02297   0.02537   0.02657
     Eigenvalues ---    0.03070   0.07556   0.07608   0.13998   0.16000
     Eigenvalues ---    0.16000   0.16000   0.16000   0.16000   0.16000
     Eigenvalues ---    0.16000   0.17031   0.23435   0.23493   0.24521
     Eigenvalues ---    0.25000   0.25000   0.25000   0.25000   0.25000
     Eigenvalues ---    0.30825   0.33615   0.34498   0.34667   0.35104
     Eigenvalues ---    0.35377   0.36952   0.38606   0.40005   0.42684
     Eigenvalues ---    0.44124   0.45364   0.47341   0.49607   0.52304
     Eigenvalues ---    0.53491   0.53881   0.54004   0.54918   0.58248
     Eigenvalues ---    0.60233   0.69877
 En-DIIS/RFO-DIIS IScMMF=        0 using points:     2    1
 RFO step:  Lambda=-6.45978697D-05.
 DidBck=T Rises=F RFO-DIIS coefs:    0.74147    0.25853
 Iteration  1 RMS(Cart)=  0.01165083 RMS(Int)=  0.00004012
 Iteration  2 RMS(Cart)=  0.00007786 RMS(Int)=  0.00000027
 Iteration  3 RMS(Cart)=  0.00000000 RMS(Int)=  0.00000027
 Variable       Old X    -DE/DX   Delta X   Delta X   Delta X     New X
                                 (Linear)    (Quad)   (Total)
    R1        2.64185  -0.00035  -0.00056   0.00041  -0.00014   2.64171
    R2        2.61099   0.00016  -0.00048   0.00108   0.00060   2.61159
    R3        2.05679  -0.00007  -0.00185   0.00310   0.00125   2.05803
    R4        2.65976  -0.00013  -0.00050   0.00067   0.00017   2.65993
    R5        2.50933   0.00089  -0.00043   0.00185   0.00142   2.51076
    R6        2.59806   0.00003  -0.00036   0.00069   0.00033   2.59839
    R7        2.05888  -0.00003  -0.00183   0.00316   0.00133   2.06021
    R8        2.71770   0.00011  -0.00056   0.00120   0.00064   2.71834
    R9        2.56080   0.00082  -0.00043   0.00189   0.00145   2.56225
   R10        2.72219  -0.00099  -0.00042  -0.00113  -0.00154   2.72065
   R11        2.68924   0.00086   0.00036   0.00090   0.00126   2.69050
   R12        2.52626   0.00084  -0.00037   0.00173   0.00136   2.52761
   R13        1.82670   0.00012   0.00049  -0.00070  -0.00020   1.82650
   R14        2.81106  -0.00005   0.00063  -0.00121  -0.00058   2.81048
   R15        2.44916   0.00185  -0.00011   0.00220   0.00209   2.45125
   R16        2.07077   0.00010  -0.00150   0.00284   0.00134   2.07211
   R17        2.07076   0.00010  -0.00149   0.00284   0.00134   2.07210
   R18        2.06254  -0.00016  -0.00144   0.00220   0.00076   2.06330
   R19        1.84992   0.00092   0.00072   0.00006   0.00079   1.85070
   R20        1.82547   0.00014   0.00067  -0.00098  -0.00032   1.82515
   R21        1.82574   0.00019   0.00036  -0.00037  -0.00001   1.82573
    A1        2.08956  -0.00003   0.00028  -0.00066  -0.00037   2.08919
    A2        2.07448  -0.00001  -0.00050   0.00082   0.00032   2.07480
    A3        2.11915   0.00005   0.00022  -0.00017   0.00005   2.11920
    A4        2.11592  -0.00019  -0.00043   0.00021  -0.00022   2.11570
    A5        2.03073   0.00022   0.00019   0.00031   0.00050   2.03123
    A6        2.13653  -0.00003   0.00025  -0.00052  -0.00027   2.13626
    A7        2.07226   0.00011   0.00022   0.00003   0.00025   2.07251
    A8        2.10590  -0.00013  -0.00002  -0.00053  -0.00056   2.10535
    A9        2.10502   0.00003  -0.00020   0.00051   0.00031   2.10533
   A10        2.14480  -0.00005   0.00014  -0.00036  -0.00022   2.14458
   A11        2.10399  -0.00044   0.00070  -0.00254  -0.00184   2.10214
   A12        2.03440   0.00049  -0.00084   0.00290   0.00206   2.03646
   A13        2.01921  -0.00017  -0.00032   0.00004  -0.00028   2.01893
   A14        2.13155   0.00262   0.00092   0.00618   0.00710   2.13865
   A15        2.13242  -0.00246  -0.00060  -0.00622  -0.00682   2.12560
   A16        2.12461   0.00033   0.00011   0.00074   0.00085   2.12546
   A17        2.10731   0.00059   0.00095   0.00013   0.00107   2.10839
   A18        2.05126  -0.00093  -0.00106  -0.00087  -0.00192   2.04934
   A19        1.93037   0.00032   0.00386  -0.00532  -0.00146   1.92891
   A20        2.20329  -0.00253  -0.00080  -0.00609  -0.00689   2.19641
   A21        2.12875   0.00248   0.00123   0.00520   0.00643   2.13519
   A22        1.95114   0.00004  -0.00043   0.00088   0.00046   1.95159
   A23        1.92137  -0.00007   0.00119  -0.00258  -0.00139   1.91999
   A24        1.92140  -0.00007   0.00120  -0.00259  -0.00139   1.92000
   A25        1.89134   0.00009  -0.00023   0.00112   0.00088   1.89223
   A26        1.86270  -0.00007  -0.00057   0.00012  -0.00045   1.86225
   A27        1.93364   0.00006  -0.00078   0.00192   0.00114   1.93478
   A28        1.93364   0.00006  -0.00078   0.00193   0.00114   1.93479
   A29        1.95346   0.00248   0.00637   0.00028   0.00665   1.96012
   A30        1.95848   0.00074   0.00467  -0.00479  -0.00012   1.95836
   A31        1.95886   0.00034   0.00366  -0.00484  -0.00118   1.95768
    D1       -0.00005   0.00000  -0.00000   0.00001   0.00001  -0.00004
    D2       -3.14156  -0.00000  -0.00000  -0.00001  -0.00001  -3.14157
    D3        3.14150   0.00000  -0.00000   0.00003   0.00002   3.14153
    D4       -0.00002   0.00000  -0.00000   0.00001   0.00000  -0.00001
    D5       -0.00005   0.00000  -0.00000   0.00001   0.00001  -0.00004
    D6        3.14152   0.00000   0.00000   0.00003   0.00004   3.14156
    D7        3.14159  -0.00000  -0.00000   0.00000  -0.00000   3.14159
    D8       -0.00002   0.00000   0.00000   0.00002   0.00002  -0.00000
    D9        0.00007  -0.00000   0.00000  -0.00002  -0.00002   0.00005
   D10       -3.14138  -0.00000   0.00002  -0.00007  -0.00005  -3.14143
   D11        3.14158   0.00000   0.00000   0.00000   0.00000   3.14158
   D12        0.00013  -0.00000   0.00002  -0.00005  -0.00003   0.00010
   D13       -3.14159  -0.00000   0.00001  -0.00001  -0.00000   3.14159
   D14        0.00008  -0.00000   0.00001  -0.00003  -0.00002   0.00005
   D15        0.00000   0.00000   0.00001  -0.00000   0.00001   0.00001
   D16       -3.14145  -0.00000  -0.00000  -0.00003  -0.00003  -3.14148
   D17        3.14145   0.00000  -0.00001   0.00005   0.00004   3.14149
   D18       -0.00000  -0.00000  -0.00002   0.00002   0.00001   0.00000
   D19       -0.00009  -0.00000  -0.00001   0.00003   0.00001  -0.00008
   D20        3.14135   0.00000  -0.00005   0.00011   0.00006   3.14141
   D21        3.14137   0.00000  -0.00000   0.00005   0.00005   3.14142
   D22       -0.00038   0.00000  -0.00004   0.00013   0.00010  -0.00028
   D23       -0.00179   0.00001  -0.00012   0.00051   0.00039  -0.00140
   D24        3.13993   0.00001  -0.00013   0.00049   0.00036   3.14029
   D25        0.00011  -0.00000   0.00001  -0.00003  -0.00002   0.00009
   D26       -3.14146  -0.00000   0.00000  -0.00005  -0.00004  -3.14150
   D27       -3.14133  -0.00000   0.00004  -0.00012  -0.00007  -3.14140
   D28        0.00029  -0.00000   0.00004  -0.00013  -0.00009   0.00019
   D29       -3.14131  -0.00000   0.00001  -0.00009  -0.00008  -3.14139
   D30        0.00024  -0.00000   0.00001  -0.00009  -0.00008   0.00016
   D31        0.00012  -0.00000  -0.00003   0.00000  -0.00003   0.00010
   D32       -3.14152  -0.00000  -0.00003  -0.00000  -0.00003  -3.14155
   D33        0.00005  -0.00000   0.00000  -0.00004  -0.00003   0.00001
   D34       -3.14157  -0.00000   0.00001  -0.00002  -0.00001  -3.14158
   D35       -1.02455   0.00008  -0.00038   0.00147   0.00109  -1.02346
   D36        1.02423  -0.00009   0.00037  -0.00150  -0.00112   1.02311
   D37        3.14144  -0.00000  -0.00000  -0.00002  -0.00002   3.14143
   D38        2.11708   0.00008  -0.00038   0.00147   0.00109   2.11818
   D39       -2.11732  -0.00009   0.00037  -0.00149  -0.00112  -2.11844
   D40       -0.00011  -0.00000  -0.00000  -0.00001  -0.00001  -0.00012
   D41        0.00002  -0.00000   0.00000  -0.00003  -0.00003  -0.00001
   D42        3.14157  -0.00000   0.00000  -0.00004  -0.00003   3.14154
         Item               Value     Threshold  Converged?
 Maximum Force            0.002625     0.000450     NO 
 RMS     Force            0.000675     0.000300     NO 
 Maximum Displacement     0.050413     0.001800     NO 
 RMS     Displacement     0.011698     0.001200     NO 
 Predicted change in Energy=-5.048991D-05
 GradGradGradGradGradGradGradGradGradGradGradGradGradGradGradGradGradGrad

                          Input orientation:                          
 ---------------------------------------------------------------------
 Center     Atomic      Atomic             Coordinates (Angstroms)
 Number     Number       Type             X           Y           Z
 ---------------------------------------------------------------------
      1          6           0        1.534497   -1.270550   -0.000178
      2          6           0        2.273232   -0.083755   -0.000023
      3          6           0        1.636864    1.171753    0.000080
      4          6           0        0.262583    1.216556    0.000086
      5          6           0       -0.557194    0.034526    0.000005
      6          6           0        0.153523   -1.217525   -0.000187
      7          8           0       -0.574975   -2.339284   -0.000373
      8          6           0       -1.979891    0.089353    0.000232
      9          6           0       -2.896588   -1.081783    0.000417
     10          8           0       -2.631015    1.211236    0.000354
     11          8           0       -0.385985    2.407264    0.000053
     12          8           0        3.595705   -0.211560   -0.000046
     13          1           0        2.066174   -2.221013   -0.000318
     14          1           0        2.222538    2.091292    0.000051
     15          1           0       -0.000315   -3.116436   -0.000477
     16          1           0       -2.705730   -1.707731   -0.879413
     17          1           0       -2.705217   -1.707875    0.880030
     18          1           0       -3.924948   -0.714888    0.000744
     19          1           0       -2.033965    1.987546    0.000285
     20          1           0        0.224675    3.155543    0.001278
     21          1           0        4.044607    0.643952    0.000063
 ---------------------------------------------------------------------
                    Distance matrix (angstroms):
                    1          2          3          4          5
     1  C    0.000000
     2  C    1.397931   0.000000
     3  C    2.444447   1.407574   0.000000
     4  C    2.793468   2.394477   1.375011   0.000000
     5  C    2.465440   2.832896   2.471270   1.438482   0.000000
     6  C    1.381992   2.403872   2.812285   2.436523   1.439705
     7  O    2.364754   3.633138   4.149652   3.653150   2.373877
     8  C    3.768323   4.256645   3.775249   2.509836   1.423753
     9  C    4.435103   5.265272   5.062668   3.906754   2.592086
    10  O    4.848788   5.072340   4.268061   2.893603   2.384403
    11  O    4.149044   3.643708   2.370317   1.355886   2.378907
    12  O    2.317334   1.328634   2.398044   3.626185   4.160184
    13  H    1.089064   2.147264   3.419820   3.881987   3.459699
    14  H    3.431527   2.175638   1.090214   2.146296   3.457918
    15  H    2.400613   3.790273   4.590089   4.340961   3.199794
    16  H    4.352436   5.310432   5.284227   4.258622   2.902592
    17  H    4.352148   5.310105   5.283960   4.258455   2.902483
    18  H    5.487650   6.230230   5.873088   4.611496   3.450129
    19  H    4.832092   4.779355   3.760386   2.422510   2.448497
    20  H    4.615835   3.832706   2.435098   1.939357   3.217463
    21  H    3.156892   1.915027   2.464914   3.825125   4.641979
                    6          7          8          9         10
     6  C    0.000000
     7  O    1.337555   0.000000
     8  C    2.501876   2.805721   0.000000
     9  C    3.053129   2.640302   1.487243   0.000000
    10  O    3.694932   4.102864   1.297144   2.308347   0.000000
    11  O    3.664719   4.750309   2.813050   4.298439   2.543747
    12  O    3.586166   4.682070   5.583711   6.550355   6.387205
    13  H    2.159913   2.643795   4.659231   5.091841   5.817552
    14  H    3.902446   5.239855   4.654908   6.022778   4.932694
    15  H    1.905133   0.966540   3.767732   3.539521   5.064516
    16  H    3.031281   2.389913   2.128410   1.096512   3.049580
    17  H    3.031108   2.389920   2.128420   1.096509   3.049679
    18  H    4.109327   3.723034   2.104768   1.091851   2.320391
    19  H    3.880410   4.566192   1.898963   3.188244   0.979351
    20  H    4.373646   5.552708   3.776458   5.262814   3.454750
    21  H    4.313424   5.499112   6.049972   7.152506   6.699682
                   11         12         13         14         15
    11  O    0.000000
    12  O    4.765721   0.000000
    13  H    5.237751   2.525345   0.000000
    14  H    2.627590   2.681178   4.315139   0.000000
    15  H    5.537148   4.622734   2.252146   5.662288   0.000000
    16  H    4.804984   6.536046   4.879276   6.284414   3.174310
    17  H    4.804953   6.535680   4.878985   6.284171   3.174245
    18  H    4.719333   7.537477   6.177536   6.757679   4.601106
    19  H    1.700589   6.043943   5.875637   4.257767   5.494212
    20  H    0.965830   4.764580   5.683175   2.263645   6.276014
    21  H    4.768586   0.966133   3.481698   2.326957   5.522854
                   16         17         18         19         20
    16  H    0.000000
    17  H    1.759443   0.000000
    18  H    1.801917   1.801919   0.000000
    19  H    3.857488   3.857547   3.298329   0.000000
    20  H    5.745810   5.745373   5.674470   2.542768   0.000000
    21  H    7.202148   7.201774   8.084569   6.225293   4.571648
                   21
    21  H    0.000000
 Stoichiometry    C8H9O4(1+)
 Framework group  C1[X(C8H9O4)]
 Deg. of freedom    57
 Full point group                 C1      NOp   1
 Largest Abelian subgroup         C1      NOp   1
 Largest concise Abelian subgroup C1      NOp   1
                         Standard orientation:                         
 ---------------------------------------------------------------------
 Center     Atomic      Atomic             Coordinates (Angstroms)
 Number     Number       Type             X           Y           Z
 ---------------------------------------------------------------------
      1          6           0        1.535433   -1.273565   -0.000231
      2          6           0        2.275601   -0.087664   -0.000076
      3          6           0        1.640751    1.168612    0.000027
      4          6           0        0.266526    1.215077    0.000033
      5          6           0       -0.554680    0.034038   -0.000048
      6          6           0        0.154524   -1.218870   -0.000240
      7          8           0       -0.575329   -2.339749   -0.000427
      8          6           0       -1.977309    0.090584    0.000179
      9          6           0       -2.895420   -1.079443    0.000364
     10          8           0       -2.627077    1.213253    0.000301
     11          8           0       -0.380602    2.406568   -0.000001
     12          8           0        3.597919   -0.217067   -0.000100
     13          1           0        2.065961   -2.224670   -0.000371
     14          1           0        2.227536    2.087443   -0.000002
     15          1           0       -0.001609   -3.117595   -0.000530
     16          1           0       -2.705319   -1.705622   -0.879466
     17          1           0       -2.704806   -1.705766    0.879977
     18          1           0       -3.923337   -0.711306    0.000691
     19          1           0       -2.029089    1.988842    0.000232
     20          1           0        0.230961    3.154108    0.001225
     21          1           0        4.047855    0.637902    0.000010
 ---------------------------------------------------------------------
 Rotational constants (GHZ):      1.5258452      0.7630430      0.5102709
 Standard basis: Aug-CC-pVDZ (5D, 7F)
 There are   381 symmetry adapted cartesian basis functions of A   symmetry.
 There are   357 symmetry adapted basis functions of A   symmetry.
   357 basis functions,   615 primitive gaussians,   381 cartesian basis functions
    44 alpha electrons       44 beta electrons
       nuclear repulsion energy       714.6260323436 Hartrees.
 NAtoms=   21 NActive=   21 NUniq=   21 SFac= 1.00D+00 NAtFMM=   60 NAOKFM=F Big=F
 Integral buffers will be    131072 words long.
 Raffenetti 2 integral format.
 Two-electron integral symmetry is turned on.
 One-electron integrals computed using PRISM.
 NBasis=   357 RedAO= T EigKep=  1.35D-06  NBF=   357
 NBsUse=   357 1.00D-06 EigRej= -1.00D+00 NBFU=   357
 Initial guess from the checkpoint file:  "pvdzTHAPyang.chk"
 B after Tr=    -0.000000   -0.000000   -0.000000
         Rot=    0.999999   -0.000003   -0.000003    0.001048 Ang=  -0.12 deg.
[...]
 42,-0.00392818,-0.03758414,0.00000849,0.06119367,-0.00731882,-0.000026
 56,-0.01156582,0.01917248,0.00000550,-0.00065548,-0.00600724,-0.000003
 87,0.12968961,-0.37644765,-0.00001080,0.01485842,-0.06013284,-0.000018
 54,0.03827143,0.73278873,0.00000309,0.00007569,-0.00173197,-0.00004773
 ,-0.00006251,0.00038709,0.00001412,-0.00005622,-0.00045006,0.00001408,
 0.00003004,-0.00334931,0.00002806,0.00001477,0.02115011,-0.00002122,-0
 .00005271,0.00829252,0.00000540,0.00000083,0.00017424,0.00003407,-0.00
 002705,-0.06283802,0.00000586,0.00001577,0.01065791,-0.00005826,0.0000
 1250,0.05295299,0.01030299,0.00774466,-0.00006107,-0.00532390,-0.02020
 960,0.,-0.03537438,0.06152038,0.00006017,-0.17506644,0.05769141,-0.000
 05549,0.03298754,-0.01704810,-0.00001055,-0.01813537,0.00319129,0.0000
 1452,0.00382725,-0.00037904,0.00000248,-0.02051635,0.01506823,0.000047
 77,0.00094330,-0.00149445,0.00000359,-0.01720171,-0.03237113,-0.000018
 18,0.46959919,-0.00610796,-0.00754792,0.00000434,-0.00344725,0.0150479
 7,0.00000624,0.02782733,-0.01981684,-0.00001515,0.11134191,-0.27341472
 ,-0.00001409,0.00093572,-0.04545832,-0.00002490,0.00382126,-0.00467444
 ,0.00000383,-0.00003067,-0.00265622,-0.00000221,0.02196172,-0.00544460
 ,0.00001894,-0.00041203,-0.00227106,-0.00001575,-0.01919626,0.00917255
 ,0.00000688,0.12615429,0.66341181,-0.00000043,-0.00003392,-0.00132806,
 0.00002358,0.00002558,0.00981452,-0.00000950,0.00002560,0.01431166,-0.
 00002031,-0.00008369,-0.04559925,0.00000386,-0.00002266,0.00349709,0.0
 0000683,0.00002383,0.00260789,-0.00000194,-0.00000303,0.00046210,-0.00
 000675,0.00000503,-0.00202248,-0.00000248,-0.00000622,0.00054741,-0.00
 000869,-0.00000922,0.00331311,0.00038956,0.00044924,0.02841693,-0.0634
 6010,-0.01941473,0.00003248,-0.37710237,0.05221238,0.00000790,-0.04835
 285,0.01623187,-0.00001781,0.01383765,0.00500202,0.00000404,-0.0224733
 0,0.00148490,0.00001095,0.02062214,-0.00654375,-0.00000898,-0.00346302
 ,-0.00258604,-0.00000140,0.01960698,-0.00443138,-0.00002910,-0.0005463
 7,-0.00253003,0.00000127,-0.00567929,0.00898784,0.00000824,-0.00107194
 ,0.00170570,-0.00000246,0.60223193,-0.05218815,0.00857462,0.00006310,0
 .00263787,-0.12488012,-0.00002034,0.04788190,0.00161437,-0.00004745,-0
 .00832610,-0.00732067,0.00001125,0.00066924,0.00397286,0.00003157,0.00
 683101,-0.00875868,-0.00001909,-0.00420065,-0.00153270,-0.00000128,0.0
 0016847,0.00043528,-0.00007337,0.00000966,0.00010058,0.00001319,-0.000
 05584,0.00094341,0.00001381,0.00414116,-0.00128327,-0.00000703,0.15867
 960,0.55088312,-0.00000280,0.00005356,0.00885014,-0.00002754,-0.000054
 59,-0.05207308,0.00001571,-0.00004422,0.01533048,0.00000883,0.00002220
 ,0.00763636,0.00001652,0.00002371,-0.00102435,-0.00001543,-0.00004432,
 0.00469019,0.00000341,0.00000126,-0.00083628,0.00000717,-0.00000053,-0
 .00025563,0.00000374,0.00001034,0.00009383,-0.00000119,0.00000436,0.00
 001131,-0.00000894,0.00000008,-0.00173012,0.00000928,0.00007308,0.0345
 6884,-0.12493758,0.12437532,0.00009411,0.01260036,-0.01592260,-0.00000
 402,-0.00176954,-0.00313960,-0.00007786,-0.00123996,-0.00063792,0.0000
 2064,-0.00397049,-0.00174836,-0.00000285,-0.01031442,0.02673422,-0.000
 00713,0.00307286,0.00073049,-0.00000329,0.00005713,0.00142370,-0.00002
 382,0.00001900,-0.00000052,-0.00002017,-0.00054170,0.00014652,0.000017
 21,0.00052882,-0.00021921,-0.00000752,0.00041138,0.00108266,0.00001137
 ,0.12719582,0.12340771,-0.27636003,-0.00008830,0.01534153,-0.01781196,
 0.00000435,-0.00348417,-0.00239998,0.00003439,-0.00135136,0.00008815,-
 0.00001201,-0.00056207,0.00087061,-0.00005643,-0.00415175,0.00280224,0
 .00002119,-0.00076889,0.00225353,0.00000019,-0.00033339,0.00021065,0.0
 0010674,-0.00004252,0.00001579,-0.00003083,-0.00003438,0.00011491,-0.0
 0001199,0.00027296,0.00020179,0.00000603,0.00122459,0.00189374,-0.0000
 0727,-0.13097947,0.28816311,0.00001875,-0.00021075,-0.02995352,0.00011
 331,0.00015057,0.00474058,-0.00003571,0.00011657,0.00411417,-0.0000275
 8,-0.00008125,-0.00106172,0.00000036,-0.00004441,0.00495114,0.00003243
 ,0.00012799,0.00421535,-0.00001513,0.00000199,-0.00497339,-0.00004906,
 0.00001457,0.00123003,-0.00002200,-0.00003609,-0.00014461,0.00000884,-
 0.00001687,-0.00065169,0.00003311,-0.00000724,-0.00014066,-0.00001593,
 -0.00002669,-0.00333751,-0.00006596,0.00005867,0.02015144,-0.00115462,
 0.00319769,0.00000766,0.01034944,0.01374525,-0.00000917,-0.14062854,-0
 .12944534,0.00001761,-0.01198837,-0.02739650,-0.00001194,-0.00417700,0
 .00231708,0.00001579,-0.00095697,0.00072417,-0.00001371,0.00040590,0.0
 0008051,0.00000198,-0.00007522,-0.00176453,-0.00001210,-0.00037154,0.0
 0031201,0.00000894,0.00015098,0.00039863,-0.00000060,0.00326020,-0.000
 65973,-0.00000024,0.00230042,-0.00024602,0.00000061,0.00062781,0.00060
 629,0.00000204,0.14455753,0.00374146,-0.00265015,0.00009444,-0.0187289
 6,-0.01724490,-0.00002090,-0.12986725,-0.26332921,-0.00005611,0.003836
 05,0.00316691,0.00001003,0.00105987,0.00108072,0.00006569,0.00145559,-
 0.00020403,-0.00003891,-0.00028919,0.00015186,0.00000074,0.00042059,0.
 00004712,-0.00012702,0.00004054,0.00006039,0.00003032,-0.00000800,0.00
 039026,0.00001952,0.00096050,0.00217934,-0.00000871,-0.00033228,0.0026
 8260,0.00001523,-0.00082673,-0.00086866,-0.00003798,0.13769061,0.27501
 037,0.00000132,0.00011539,0.00366401,-0.00007506,-0.00011166,0.0033796
 4,0.00002925,-0.00006722,-0.02893052,0.00001475,0.00005882,0.00431133,
 -0.00002839,0.00001352,0.00509328,-0.00001168,-0.00008252,-0.00115463,
 0.00001096,-0.00000294,-0.00008906,0.00004645,-0.00001669,0.00089184,0
 .00002066,0.00002663,-0.00034013,-0.00000812,0.00001275,0.00000098,-0.
 00002106,0.00000984,-0.00516255,0.00000830,0.00001574,-0.00349232,0.00
 003083,-0.00000909,0.00047926,-0.00000576,0.00002325,0.01984492,-0.000
 77011,-0.00561999,-0.00002463,-0.00037958,0.00129447,0.00000199,0.0003
 5254,-0.00042569,0.00002269,0.00028492,-0.00089244,-0.00000539,-0.0015
 2751,-0.00392115,0.00000007,0.01819063,-0.02509887,-0.00000036,-0.2288
 2735,0.25755791,0.00004787,-0.00075326,-0.00024047,0.00000724,-0.00148
 818,0.00002111,0.00000614,0.00024473,-0.00040807,-0.00000542,-0.000438
 12,0.00003594,0.00000224,-0.00022254,0.00001557,-0.00000381,-0.0015641
 9,0.00089048,0.00001356,-0.00008733,0.00013480,-0.00000947,0.21730720,
 0.00412264,0.00577556,0.00001718,-0.00105216,-0.00338892,0.00000007,-0
 .00139135,0.00141875,-0.00001895,0.00300578,-0.00045523,0.00000513,-0.
 00672898,-0.00105010,-0.00000401,0.02017297,-0.04135961,-0.00000679,0.
 20604556,-0.33178005,-0.00006280,0.00194712,-0.00049967,-0.00000240,-0
 .00043919,0.00005908,-0.00000636,-0.00072715,0.00100104,0.00000411,-0.
 00085195,0.00050673,-0.00000220,0.00148393,0.00070243,0.00000274,-0.00
 104314,0.00055111,-0.00001009,-0.00009136,0.00008394,0.00000744,-0.224
 59585,0.36867668,-0.00000005,0.00001115,-0.00210186,-0.00000633,-0.000
 01124,-0.00105133,0.00000385,-0.00000187,-0.00003794,0.00000018,0.0000
 0674,0.00134343,-0.00001365,-0.00000471,0.00365993,0.00000584,-0.00001
 243,-0.00209615,0.00003935,-0.00006367,-0.00811368,0.00000910,-0.00000
 322,-0.00057647,0.00000410,0.00000280,0.00036909,-0.00000167,0.0000024
 2,-0.00024349,-0.00000184,0.00000156,0.00004712,0.00000070,0.00000046,
 0.00004965,0.00000321,0.00000088,0.00075057,-0.00000102,-0.00000045,0.
 00007169,-0.00004229,0.00006834,0.00740119,-0.00004448,0.00001966,0.00
 020950,0.00063826,-0.00069302,0.00011239,-0.00075623,0.00090077,-0.000
 24958,0.00137338,0.00142066,0.00080973,-0.00431125,0.00031601,0.001828
 37,-0.00118115,-0.00416294,-0.00065845,-0.00220071,0.00330306,-0.00125
 370,0.00768224,-0.00706372,-0.02044552,-0.05460180,0.02482814,0.041139
 99,-0.00115447,-0.00242873,0.00085870,0.00001730,-0.00048725,0.0001022
 7,-0.00073048,0.00009349,-0.00000915,-0.00004155,0.00002851,-0.0000365
 6,0.00000629,0.00000711,-0.00007196,-0.00023943,0.00017142,0.00000476,
 0.05627251,0.00017676,0.00002915,-0.00017890,-0.00037315,0.00004810,-0
 .00007140,0.00015779,-0.00025721,-0.00017485,-0.00032027,-0.00079509,0
 .00066936,0.00142560,0.00010913,0.00191158,-0.00018488,0.00140451,-0.0
 0062893,0.00166574,-0.00178511,0.00129632,0.00426448,-0.01815227,-0.02
 121563,0.02654949,-0.12826612,-0.13401964,-0.00334349,-0.00305659,0.00
 032175,-0.00032134,0.00031580,0.00009565,0.00041049,-0.00001711,0.0000
 4633,0.00002976,0.00000485,0.00003170,0.00001906,0.00000673,-0.0000521
 5,0.00044017,0.00013102,0.00028429,-0.02960859,0.14582845,0.00073617,0
 .00056179,-0.00024496,-0.00036929,-0.00049435,-0.00004626,-0.00005390,
 0.00003392,-0.00000183,-0.00001582,-0.00029728,0.00014270,0.00049425,-
 0.00012865,0.00077277,-0.00106432,-0.00122280,-0.00005330,0.00175890,0
 .00009837,0.00033906,-0.00119191,0.00151031,0.00115439,0.03879437,-0.1
 3235326,-0.21736788,-0.00011330,0.00214208,-0.00089077,-0.00003302,0.0
 0033626,-0.00007168,0.00035816,0.00008131,0.00001268,-0.00002056,0.000
 01683,0.00004468,-0.00001012,0.00001385,-0.00000413,0.00039289,0.00006
 346,0.00008789,-0.04268704,0.14145742,0.23575874,-0.00004486,0.0000286
 8,-0.00023759,0.00063309,-0.00070086,-0.00010906,-0.00075287,0.0008955
 1,0.00027342,0.00137407,0.00142687,-0.00081744,-0.00431102,0.00031295,
 -0.00183734,-0.00118328,-0.00416710,0.00066407,-0.00218972,0.00329772,
 0.00125558,0.00769419,-0.00706482,0.02047136,-0.05464121,0.02489880,-0
 .04121451,-0.00115546,-0.00242968,-0.00086542,0.00001534,-0.00048648,-
 0.00009845,-0.00072981,0.00009495,0.00000442,-0.00003913,0.00002736,0.
 00005019,0.00000522,0.00000843,0.00006393,-0.00023964,0.00017256,-0.00
 000481,-0.00034239,-0.00126145,0.00359105,0.05630209,0.00017254,-0.000
 03684,0.00014923,-0.00033340,0.00009667,0.00008216,0.00015077,-0.00019
 807,0.00018240,-0.00033987,-0.00081985,-0.00067063,0.00138018,0.000077
 56,-0.00194135,-0.00015162,0.00145186,0.00064150,0.00165527,-0.0017877
 0,-0.00129702,0.00427789,-0.01815907,0.02126673,0.02662088,-0.12832200
 ,0.13400762,-0.00334392,-0.00306067,-0.00032633,-0.00030886,0.00031665
 ,-0.00009249,0.00040370,-0.00003191,-0.00005138,0.00001725,0.00002073,
 -0.00002284,0.00001818,-0.00001605,0.00005038,0.00044373,0.00012816,-0
 .00028342,-0.00126432,0.00969074,-0.01499209,-0.02967414,0.14588451,-0
 .00073534,-0.00042157,-0.00023233,0.00028004,0.00036371,-0.00005299,0.
 00008712,-0.00011564,0.00000010,0.00003193,0.00036930,0.00013994,-0.00
 052698,0.00014443,0.00078978,0.00105176,0.00112465,-0.00006103,-0.0017
 4438,-0.00010545,0.00033965,0.00124527,-0.00153002,0.00112051,-0.03884
 119,0.13239557,-0.21730006,0.00010315,-0.00212464,-0.00088809,0.000006
 97,-0.00032710,-0.00007259,-0.00034625,-0.00006246,0.00001466,0.000057
 74,-0.00002705,0.00004223,0.00000636,0.00000949,-0.00000477,-0.0004039
 5,-0.00005441,0.00008724,-0.00360568,0.01499796,-0.02050284,0.04276141
 ,-0.14146780,0.23569572,-0.00005751,0.00003115,0.00000898,0.00005432,-
 0.00001556,-0.00000351,-0.00001572,-0.00029786,-0.00000242,-0.00074389
 ,0.00081976,0.00000118,0.00014082,-0.00311768,0.00001355,0.00051373,-0
 .00000274,-0.00000300,-0.00002079,0.00028507,0.00000026,-0.02322074,0.
 00710362,-0.00002079,-0.29931182,0.08972013,0.00007248,0.00273734,0.00
 304205,0.00000120,0.00056721,-0.00012173,-0.00000085,-0.00005635,0.000
 01433,0.00000183,0.00000528,-0.00000448,-0.00000206,-0.00006197,0.0000
 1935,-0.00000047,-0.00000915,-0.00014121,-0.00000053,-0.00094171,-0.00
 007547,-0.00053220,-0.00095057,-0.00007723,0.00053327,0.32129922,0.000
 35964,0.00041827,-0.00000077,0.00010095,-0.00046213,0.00000180,-0.0003
 3472,-0.00023703,-0.00000334,-0.00098745,0.00083899,0.00000340,-0.0015
 4308,-0.00459231,0.00000154,-0.00053926,-0.00175821,0.00000201,0.00206
 410,0.00016395,-0.00000061,-0.03066229,0.00780110,0.00000148,0.1001214
 3,-0.08336571,-0.00001827,-0.00068173,0.00011663,0.00000059,0.00019742
 ,-0.00003016,-0.00000032,-0.00006903,0.00007590,-0.00000007,-0.0000499
 0,0.00002473,0.00000004,-0.00014766,0.00000946,-0.00000017,0.00033972,
 0.00013538,-0.00000013,0.01471986,-0.00465136,0.00302755,0.01472000,-0
 .00465159,-0.00303611,-0.09709305,0.09012151,0.00000126,0.00003891,-0.
 00016517,-0.00002516,-0.00003346,0.00002461,0.00000644,-0.00002780,-0.
 00020625,0.00000730,0.00001688,0.00075731,0.00000473,0.00001463,0.0021
 2573,-0.00000903,-0.00003073,-0.00051680,0.00000329,-0.00000047,0.0011
 6206,0.00001108,-0.00000271,-0.00263425,0.00006628,-0.00001066,-0.0467
 6326,-0.00000234,0.00000334,-0.00104002,-0.00000733,0.00000099,-0.0000
 2261,0.00000394,0.00000677,0.00000682,0.00000890,-0.00000487,0.0000159
 1,0.00000026,0.00000955,-0.00005958,-0.00000274,0.00000215,0.00009563,
 0.02302389,-0.00608171,0.00169931,-0.02302348,0.00607749,0.00171174,-0
 .00006712,0.00002096,0.04396023,-0.00371900,-0.00311208,0.00000601,0.0
 0166935,0.00427261,0.00000070,0.00332016,-0.00359038,-0.00000544,-0.00
 796798,0.02562897,0.00000351,-0.01460709,0.00106178,0.00000163,0.00438
 344,-0.00416449,-0.00000395,-0.00060191,-0.00005611,0.00000006,0.04092
 793,0.00956332,-0.00000619,-0.00250395,0.00459462,-0.00000134,-0.21451
 181,-0.20050548,0.00002771,0.00202977,-0.00606726,0.00001143,-0.001478
 49,-0.00088499,0.00000063,-0.00015046,-0.00007729,-0.00000348,-0.00039
 854,-0.00025698,0.00000311,0.00010210,-0.00001119,0.00000026,0.0004576
 1,0.00045433,0.00000034,0.00045785,0.00045366,0.00000248,-0.00000948,-
 0.00057390,0.00000055,0.18837156,-0.00302404,-0.00180401,-0.00002644,0
 .00272402,0.00257267,0.00000689,0.00107838,-0.00273944,0.00001538,0.00
 567618,0.01648084,-0.00000217,-0.01136289,0.00261771,-0.00000494,0.002
 59858,-0.00520545,0.00000679,-0.00010330,0.00135348,0.00000080,-0.0061
 4784,-0.04821430,0.00001907,0.00276113,0.00010509,-0.00000298,-0.17359
 894,-0.27398601,0.00001615,0.00468800,-0.01403989,0.00000357,-0.002379
 06,-0.00060943,-0.00000453,-0.00021615,-0.00004521,0.00001183,-0.00036
 052,-0.00007697,-0.00000653,0.00011872,-0.00020883,-0.00000036,-0.0002
 4853,-0.00052357,0.00022842,-0.00024887,-0.00051812,-0.00023671,-0.000
 05967,0.00002622,-0.00000295,0.17869196,0.32587260,0.00000085,0.000016
 58,0.00018103,-0.00001083,-0.00001180,0.00020048,0.00000207,-0.0000161
 6,0.00028850,0.00000248,0.00000703,0.00095656,0.00001026,0.00001118,-0
 .00468662,-0.00000692,-0.00001346,-0.00063094,0.00000117,0.00000090,-0
 .00013455,-0.00000492,-0.00000370,0.00108720,0.00000364,0.00000310,0.0
 1159294,0.00002658,0.00002743,-0.02584606,0.00000558,-0.00000612,-0.00
 283597,0.00000178,0.00000336,-0.00007732,0.00000301,-0.00000349,0.0001
 0574,0.00000092,0.00000592,0.00002963,-0.00000107,0.00000066,0.0000973
 6,0.00100414,0.00138414,-0.00088685,-0.00100633,-0.00138551,-0.0008856
 2,0.00000002,0.,-0.00018107,-0.00002778,-0.00002272,0.02239615,0.00053
 784,0.00045305,-0.00000419,-0.00053509,-0.00138444,0.00000172,-0.00007
 664,0.00528403,0.00000102,0.01944230,0.01768848,0.00002750,-0.00029822
 ,0.00417639,-0.00000368,0.00009029,0.00107567,0.00000257,-0.00033162,-
 0.00001660,-0.00000033,-0.00239271,0.00186235,0.00000237,0.00012442,-0
 .00009625,0.00000006,-0.00274799,-0.00303767,0.00000061,-0.25207007,-0
 .25563702,-0.00038091,-0.00031802,-0.00003754,-0.00000063,-0.00008221,
 -0.00012863,0.00000149,-0.00146087,-0.00075308,-0.00000038,0.00004226,
 0.00007068,-0.00000011,0.00003685,-0.00006667,0.00000020,0.00003695,-0
 .00006608,-0.00000157,0.00006544,0.00003310,-0.00000037,0.00445795,-0.
 00068014,-0.00000414,0.23561977,0.00124520,0.00115448,0.00001154,0.000
 66625,-0.00305492,0.00000287,-0.00319090,0.00541657,-0.00001199,-0.022
 16775,-0.03625863,-0.00002423,0.00608147,-0.00144780,-0.00000611,-0.00
 296496,-0.00050591,0.00000084,0.00092191,0.00051145,-0.00000073,-0.000
 87664,-0.00069347,-0.00000426,0.00007956,0.00042703,-0.00000316,0.0031
 2663,0.00273210,0.00000173,-0.20866222,-0.31408905,-0.00036417,-0.0012
 5304,0.00062896,0.00000160,0.00011875,0.00005691,-0.00000755,0.0012007
 9,0.00032898,0.00000283,-0.00008488,-0.00029813,0.00000062,0.00006660,
 -0.00002034,-0.00005375,0.00006718,-0.00002270,0.00006006,-0.00002940,
 0.00001601,0.00000158,-0.00574315,-0.00140637,0.00000267,0.23099048,0.
 34641470,0.00000050,0.00000579,0.00001182,-0.00000444,0.00000031,-0.00
 092919,0.00000101,-0.00000927,-0.00162388,0.00000463,0.00001789,-0.003
 04424,0.00001328,0.00001578,0.00351502,-0.00000692,-0.00000538,0.00121
 558,-0.00000013,0.00000368,0.00002381,-0.00000581,0.00000033,-0.000431
 76,-0.00000280,0.00000008,-0.00055665,0.00000817,0.00000569,0.00096354
 ,-0.00035685,-0.00042334,-0.00417503,0.00000011,0.00000355,0.00014272,
 -0.00000016,-0.00000408,0.00005955,0.00000227,0.00000447,0.00080364,0.
 00000005,0.00000009,-0.00000467,-0.00005027,-0.00008306,0.00003551,0.0
 0004874,0.00008024,0.00003676,0.00000098,0.00000031,0.00001985,-0.0000
 0912,-0.00000257,-0.00081587,0.00035812,0.00039188,0.00464529,-0.00410
 137,0.00393628,-0.00000449,-0.02947053,-0.04488878,-0.00000241,0.00393
 531,-0.00111322,-0.00000135,-0.00222108,-0.00022091,-0.00000145,0.0019
 3043,0.00041740,-0.00001848,-0.00093229,-0.00200141,0.00000223,-0.0001
 1693,0.00078741,-0.00000031,-0.00189954,0.00058959,0.00003444,0.000099
 84,0.00022355,-0.00001475,0.00066616,-0.00069255,-0.00000150,0.0011193
 8,-0.00091103,0.00000076,-0.13332556,-0.15638063,-0.00001402,0.0001327
 8,0.00011897,-0.00000061,-0.00030283,0.00168757,0.00000279,0.00002203,
 -0.00011914,0.00000095,0.00006121,-0.00003836,-0.00003484,0.00006113,-
 0.00003463,0.00003785,0.00001632,0.00002586,-0.00000035,-0.00022898,0.
 00009298,-0.00000051,-0.00014061,0.00040812,-0.00000133,0.16469512,0.0
 0399720,0.00215085,0.00001168,0.00168168,0.00654526,0.00000514,0.00596
 482,0.00196372,-0.00002347,-0.00106632,-0.00107761,0.00000422,0.002383
 37,-0.00017414,-0.00002670,-0.00216120,0.00109376,0.00000184,0.0003381
 8,0.00011804,-0.00000168,-0.00228685,0.00050934,0.00003974,0.00000462,
 0.00027124,-0.00002560,0.00062500,-0.00117791,0.00000265,0.00001638,-0
 .00042617,-0.00000086,-0.20828769,-0.42807397,-0.00004758,0.00012494,0
 .00021299,-0.00001218,-0.00019861,-0.00080871,0.00001240,-0.00000521,-
 0.00012937,0.00000223,0.00008180,-0.00004370,-0.00002936,0.00008239,-0
 .00004231,0.00004379,0.00000064,0.00000033,0.00000211,0.00032204,0.000
 34899,0.,0.00026987,0.00011012,-0.00000239,0.19811295,0.41862923,-0.00
 000091,-0.00005740,0.00484949,0.00003790,0.00005308,-0.00435389,-0.000
 01031,0.00003893,-0.00220657,-0.00000909,-0.00002728,-0.00087420,0.000
 00067,-0.00001470,-0.00004509,0.00001062,0.00004244,0.00262653,-0.0000
 0464,0.00000059,-0.00091555,-0.00001659,0.00000477,0.00003313,-0.00000
 741,-0.00001203,-0.00010995,0.00000291,-0.00000575,0.00002568,0.000010
 59,-0.00000231,0.00014315,-0.00002522,-0.00005947,-0.00858107,-0.00001
 368,0.00000613,-0.00063756,0.00000022,-0.00001242,0.00066746,0.0000043
 8,-0.00000336,0.00016482,-0.00002582,0.00000977,0.00002278,0.00003025,
 -0.00000688,0.00002200,-0.00000080,0.00000012,0.00000983,-0.00000112,0
 .00000400,0.00004527,0.00000065,-0.00000225,0.00010819,0.00001739,0.00
 004402,0.00900556\\-0.00004135,0.00001196,0.00000006,0.00001416,0.0000
 0341,0.00000006,-0.00000458,-0.00001901,-0.00000135,-0.00003669,0.0000
 0942,0.00000288,-0.00000348,0.00000957,0.00000090,0.00001109,-0.000029
 45,0.00000029,0.00005610,0.00000238,-0.00000109,0.00003525,-0.00000894
 ,0.00000152,-0.00001626,-0.00002364,0.00000122,-0.00004432,-0.00000513
 ,-0.00000065,0.00007755,-0.00000304,-0.00000858,-0.00002843,0.00002872
 ,-0.00000016,0.00000675,0.00001655,-0.00000002,-0.00000689,0.00000204,
 -0.00000084,-0.00000102,-0.00003242,0.00000047,-0.00000624,0.00000884,
 0.00000598,-0.00000629,0.00000909,-0.00000656,0.00000671,-0.00001437,0
 .00000012,-0.00002650,-0.00001103,-0.00000027,-0.00001455,0.00002973,0
 .00000593,0.00002901,0.00001533,0.00000009\\\@


 The cat could very well be man's best friend
 but would never stoop to admitting it.
                               -- Doug Larson
 Job cpu time:       0 days  2 hours 43 minutes 53.2 seconds.
 File lengths (MBytes):  RWF=    420 Int=      0 D2E=      0 Chk=     10 Scr=      1
 Normal termination of Gaussian 09 at Sun Dec 15 21:31:39 2024.
