 Entering Gaussian System, Link 0=g09
 Input=ccpvTZdzTHAP.gjf
 Output=ccpvTZdzTHAP.log
 Initial command:
 /home/c612/g09E/g09/l1.exe "/mnt/ja_sm883/scratch/Gau-2069932.inp" -scrdir="/mnt/ja_sm883/scratch/"
 Default is to use a total of  18 processors:
                               18 via shared-memory
                                1 via Linda
 Entering Link 1 = /home/c612/g09E/g09/l1.exe PID=   2069934.
  
 Copyright (c) 1988,1990,1992,1993,1995,1998,2003,2009,2015,
            Gaussian, Inc.  All Rights Reserved.
  
 This is part of the Gaussian(R) 09 program.  It is based on
 the Gaussian(R) 03 system (copyright 2003, Gaussian, Inc.),
 the Gaussian(R) 98 system (copyright 1998, Gaussian, Inc.),
 the Gaussian(R) 94 system (copyright 1995, Gaussian, Inc.),
 the Gaussian 92(TM) system (copyright 1992, Gaussian, Inc.),
 the Gaussian 90(TM) system (copyright 1990, Gaussian, Inc.),
 the Gaussian 88(TM) system (copyright 1988, Gaussian, Inc.),
 the Gaussian 86(TM) system (copyright 1986, Carnegie Mellon
 University), and the Gaussian 82(TM) system (copyright 1983,
 Carnegie Mellon University). Gaussian is a federally registered
 trademark of Gaussian, Inc.
  
 This software contains proprietary and confidential information,
 including trade secrets, belonging to Gaussian, Inc.
  
 This software is provided under written license and may be
 used, copied, transmitted, or stored only in accord with that
 written license.
  
 The following legend is applicable only to US Government
 contracts under FAR:
  
                    RESTRICTED RIGHTS LEGEND
  
 Use, reproduction and disclosure by the US Government is
 subject to restrictions as set forth in subparagraphs (a)
 and (c) of the Commercial Computer Software - Restricted
 Rights clause in FAR 52.227-19.
  
 Gaussian, Inc.
 340 Quinnipiac St., Bldg. 40, Wallingford CT 06492
  
  
 ---------------------------------------------------------------
 Warning -- This program may not be used in any manner that
 competes with the business of Gaussian, Inc. or will provide
 assistance to any competitor of Gaussian, Inc.  The licensee
 of this program is prohibited from giving any competitor of
 Gaussian, Inc. access to this program.  By using this program,
 the user acknowledges that Gaussian, Inc. is engaged in the
 business of creating and licensing software in the field of
 computational chemistry and represents and warrants to the
 licensee that it is not a competitor of Gaussian, Inc. and that
 it will not use this program in any manner prohibited above.
 ---------------------------------------------------------------
  

 Cite this work as:
 Gaussian 09, Revision E.01,
 M. J. Frisch, G. W. Trucks, H. B. Schlegel, G. E. Scuseria, 
 M. A. Robb, J. R. Cheeseman, G. Scalmani, V. Barone, B. Mennucci, 
 G. A. Petersson, H. Nakatsuji, M. Caricato, X. Li, H. P. Hratchian, 
 A. F. Izmaylov, J. Bloino, G. Zheng, J. L. Sonnenberg, M. Hada, 
 M. Ehara, K. Toyota, R. Fukuda, J. Hasegawa, M. Ishida, T. Nakajima, 
 Y. Honda, O. Kitao, H. Nakai, T. Vreven, J. A. Montgomery, Jr., 
 J. E. Peralta, F. Ogliaro, M. Bearpark, J. J. Heyd, E. Brothers, 
 K. N. Kudin, V. N. Staroverov, T. Keith, R. Kobayashi, J. Normand, 
 K. Raghavachari, A. Rendell, J. C. Burant, S. S. Iyengar, J. Tomasi, 
 M. Cossi, N. Rega, J. M. Millam, M. Klene, J. E. Knox, J. B. Cross, 
 V. Bakken, C. Adamo, J. Jaramillo, R. Gomperts, R. E. Stratmann, 
 O. Yazyev, A. J. Austin, R. Cammi, C. Pomelli, J. W. Ochterski, 
 R. L. Martin, K. Morokuma, V. G. Zakrzewski, G. A. Voth, 
 P. Salvador, J. J. Dannenberg, S. Dapprich, A. D. Daniels, 
 O. Farkas, J. B. Foresman, J. V. Ortiz, J. Cioslowski, 
 and D. J. Fox, Gaussian, Inc., Wallingford CT, 2013.
 
 ******************************************
 Gaussian 09:  ES64L-G09RevE.01 30-Nov-2015
                19-Dec-2024 
 ******************************************
 %chk=ccpvTZdzTHAP.chk
 ------------------------
 # opt freq m062x/cc-pvtz
 ------------------------
 1/14=-1,18=20,19=15,26=3,38=1/1,3;
 2/9=110,12=2,17=6,18=5,40=1/2;
 3/5=16,6=1,11=2,16=1,25=1,30=1,71=1,74=-55/1,2,3;
 4//1;
 5/5=2,38=5/2;
 6/7=2,8=2,9=2,10=2,28=1/1;
 7//1,2,3,16;
 1/14=-1,18=20,19=15,26=3/3(2);
 2/9=110/2;
 99//99;
 2/9=110/2;
 3/5=16,6=1,11=2,16=1,25=1,30=1,71=1,74=-55/1,2,3;
 4/5=5,16=3,69=1/1;
 5/5=2,38=5/2;
 7//1,2,3,16;
 1/14=-1,18=20,19=15,26=3/3(-5);
 2/9=110/2;
 6/7=2,8=2,9=2,10=2,19=2,28=1/1;
 99/9=1/99;
 ----------
 [No Title]
 ----------
 Symbolic Z-matrix:
 Charge =  0 Multiplicity = 1
 C                    -1.52105   1.25159   0.00004 
 C                    -2.256     0.06108   0.00002 
 C                    -1.62712  -1.1755   -0.00003 
 C                    -0.23059  -1.22925  -0.00006 
 C                     0.56366  -0.04208  -0.00001 
 C                    -0.13616   1.19083   0.00003 
 O                     0.58544   2.34434   0.00007 
 C                     2.02927  -0.17195   0.00002 
 C                     2.94673   1.02259  -0.00002 
 O                     2.54876  -1.29597   0.00006 
 O                     0.32768  -2.43628  -0.00016 
 O                    -3.60537   0.18774   0.00003 
 H                    -2.04862   2.20375   0.00007 
 H                    -2.18626  -2.10925  -0.00007 
 H                    -0.02433   3.09025   0.00019 
 H                     2.75945   1.64825   0.87948 
 H                     3.97342   0.6501    0.00002 
 H                     2.75948   1.64818  -0.87957 
 H                     1.31384  -2.28764  -0.00024 
 H                    -4.01151  -0.68619   0.00001 
 

 GradGradGradGradGradGradGradGradGradGradGradGradGradGradGradGradGradGrad
 Berny optimization.
 Initialization pass.
                           ----------------------------
                           !    Initial Parameters    !
                           ! (Angstroms and Degrees)  !
 --------------------------                            --------------------------
 ! Name  Definition              Value          Derivative Info.                !
 --------------------------------------------------------------------------------
 ! R1    R(1,2)                  1.3991         estimate D2E/DX2                !
 ! R2    R(1,6)                  1.3862         estimate D2E/DX2                !
 ! R3    R(1,13)                 1.0886         estimate D2E/DX2                !
 ! R4    R(2,3)                  1.3873         estimate D2E/DX2                !
 ! R5    R(2,12)                 1.3553         estimate D2E/DX2                !
 ! R6    R(3,4)                  1.3976         estimate D2E/DX2                !
 ! R7    R(3,14)                 1.0884         estimate D2E/DX2                !
 ! R8    R(4,5)                  1.4284         estimate D2E/DX2                !
 ! R9    R(4,11)                 1.3299         estimate D2E/DX2                !
 ! R10   R(5,6)                  1.4177         estimate D2E/DX2                !
 ! R11   R(5,8)                  1.4714         estimate D2E/DX2                !
 ! R12   R(6,7)                  1.3606         estimate D2E/DX2                !
 ! R13   R(7,15)                 0.9634         estimate D2E/DX2                !
 ! R14   R(8,9)                  1.5062         estimate D2E/DX2                !
 ! R15   R(8,10)                 1.2383         estimate D2E/DX2                !
 ! R16   R(9,16)                 1.0955         estimate D2E/DX2                !
 ! R17   R(9,17)                 1.0922         estimate D2E/DX2                !
 ! R18   R(9,18)                 1.0955         estimate D2E/DX2                !
 ! R19   R(11,19)                0.9973         estimate D2E/DX2                !
 ! R20   R(12,20)                0.9637         estimate D2E/DX2                !
 ! A1    A(2,1,6)              119.1767         estimate D2E/DX2                !
 ! A2    A(2,1,13)             119.3216         estimate D2E/DX2                !
 ! A3    A(6,1,13)             121.5018         estimate D2E/DX2                !
 ! A4    A(1,2,3)              121.3551         estimate D2E/DX2                !
 ! A5    A(1,2,12)             116.3263         estimate D2E/DX2                !
 ! A6    A(3,2,12)             122.3186         estimate D2E/DX2                !
 ! A7    A(2,3,4)              119.1602         estimate D2E/DX2                !
 ! A8    A(2,3,14)             122.1303         estimate D2E/DX2                !
 ! A9    A(4,3,14)             118.7095         estimate D2E/DX2                !
 ! A10   A(3,4,5)              121.5797         estimate D2E/DX2                !
 ! A11   A(3,4,11)             117.0253         estimate D2E/DX2                !
 ! A12   A(5,4,11)             121.395          estimate D2E/DX2                !
 ! A13   A(4,5,6)              116.6364         estimate D2E/DX2                !
 ! A14   A(4,5,8)              118.72           estimate D2E/DX2                !
 ! A15   A(6,5,8)              124.6436         estimate D2E/DX2                !
 ! A16   A(1,6,5)              122.0919         estimate D2E/DX2                !
 ! A17   A(1,6,7)              119.5164         estimate D2E/DX2                !
 ! A18   A(5,6,7)              118.3917         estimate D2E/DX2                !
 ! A19   A(6,7,15)             108.7062         estimate D2E/DX2                !
 ! A20   A(5,8,9)              122.4619         estimate D2E/DX2                !
 ! A21   A(5,8,10)             119.8688         estimate D2E/DX2                !
 ! A22   A(9,8,10)             117.6693         estimate D2E/DX2                !
 ! A23   A(8,9,16)             110.414          estimate D2E/DX2                !
 ! A24   A(8,9,17)             107.5846         estimate D2E/DX2                !
 ! A25   A(8,9,18)             110.4144         estimate D2E/DX2                !
 ! A26   A(16,9,17)            110.8225         estimate D2E/DX2                !
 ! A27   A(16,9,18)            106.8122         estimate D2E/DX2                !
 ! A28   A(17,9,18)            110.8226         estimate D2E/DX2                !
 ! A29   A(4,11,19)            106.2498         estimate D2E/DX2                !
 ! A30   A(2,12,20)            109.5633         estimate D2E/DX2                !
 ! D1    D(6,1,2,3)             -0.0007         estimate D2E/DX2                !
 ! D2    D(6,1,2,12)           179.9998         estimate D2E/DX2                !
 ! D3    D(13,1,2,3)           179.9994         estimate D2E/DX2                !
 ! D4    D(13,1,2,12)           -0.0001         estimate D2E/DX2                !
 ! D5    D(2,1,6,5)              0.0002         estimate D2E/DX2                !
 ! D6    D(2,1,6,7)           -179.9992         estimate D2E/DX2                !
 ! D7    D(13,1,6,5)          -179.9998         estimate D2E/DX2                !
 ! D8    D(13,1,6,7)             0.0007         estimate D2E/DX2                !
 ! D9    D(1,2,3,4)              0.0            estimate D2E/DX2                !
 ! D10   D(1,2,3,14)          -179.9991         estimate D2E/DX2                !
 ! D11   D(12,2,3,4)           179.9995         estimate D2E/DX2                !
 ! D12   D(12,2,3,14)            0.0004         estimate D2E/DX2                !
 ! D13   D(1,2,12,20)          179.9997         estimate D2E/DX2                !
 ! D14   D(3,2,12,20)            0.0002         estimate D2E/DX2                !
 ! D15   D(2,3,4,5)              0.001          estimate D2E/DX2                !
 ! D16   D(2,3,4,11)          -179.9974         estimate D2E/DX2                !
 ! D17   D(14,3,4,5)          -179.9998         estimate D2E/DX2                !
 ! D18   D(14,3,4,11)            0.0018         estimate D2E/DX2                !
 ! D19   D(3,4,5,6)             -0.0014         estimate D2E/DX2                !
 ! D20   D(3,4,5,8)            179.9976         estimate D2E/DX2                !
 ! D21   D(11,4,5,6)           179.997          estimate D2E/DX2                !
 ! D22   D(11,4,5,8)            -0.0041         estimate D2E/DX2                !
 ! D23   D(3,4,11,19)          179.9952         estimate D2E/DX2                !
 ! D24   D(5,4,11,19)           -0.0032         estimate D2E/DX2                !
 ! D25   D(4,5,6,1)              0.0007         estimate D2E/DX2                !
 ! D26   D(4,5,6,7)           -179.9998         estimate D2E/DX2                !
 ! D27   D(8,5,6,1)           -179.9981         estimate D2E/DX2                !
 ! D28   D(8,5,6,7)              0.0013         estimate D2E/DX2                !
 ! D29   D(4,5,8,9)            179.9963         estimate D2E/DX2                !
 ! D30   D(4,5,8,10)            -0.0035         estimate D2E/DX2                !
 ! D31   D(6,5,8,9)             -0.0049         estimate D2E/DX2                !
 ! D32   D(6,5,8,10)           179.9954         estimate D2E/DX2                !
 ! D33   D(1,6,7,15)             0.005          estimate D2E/DX2                !
 ! D34   D(5,6,7,15)          -179.9944         estimate D2E/DX2                !
 ! D35   D(5,8,9,16)            58.9461         estimate D2E/DX2                !
 ! D36   D(5,8,9,17)           179.9997         estimate D2E/DX2                !
 ! D37   D(5,8,9,18)           -58.9465         estimate D2E/DX2                !
 ! D38   D(10,8,9,16)         -121.0541         estimate D2E/DX2                !
 ! D39   D(10,8,9,17)           -0.0006         estimate D2E/DX2                !
 ! D40   D(10,8,9,18)          121.0532         estimate D2E/DX2                !
 --------------------------------------------------------------------------------
 Trust Radius=3.00D-01 FncErr=1.00D-07 GrdErr=1.00D-06
 Number of steps in this run=    100 maximum allowed number of steps=    120.
 GradGradGradGradGradGradGradGradGradGradGradGradGradGradGradGradGradGrad

                          Input orientation:                          
 ---------------------------------------------------------------------
 Center     Atomic      Atomic             Coordinates (Angstroms)
 Number     Number       Type             X           Y           Z
 ---------------------------------------------------------------------
      1          6           0       -1.521053    1.251585    0.000043
      2          6           0       -2.255999    0.061084    0.000018
      3          6           0       -1.627120   -1.175500   -0.000031
      4          6           0       -0.230593   -1.229249   -0.000055
      5          6           0        0.563659   -0.042083   -0.000009
      6          6           0       -0.136157    1.190826    0.000032
      7          8           0        0.585437    2.344342    0.000073
      8          6           0        2.029274   -0.171952    0.000017
      9          6           0        2.946731    1.022593   -0.000017
     10          8           0        2.548763   -1.295969    0.000064
     11          8           0        0.327675   -2.436277   -0.000156
     12          8           0       -3.605367    0.187744    0.000034
     13          1           0       -2.048621    2.203748    0.000072
     14          1           0       -2.186258   -2.109248   -0.000065
     15          1           0       -0.024326    3.090248    0.000186
     16          1           0        2.759448    1.648247    0.879477
     17          1           0        3.973423    0.650103    0.000018
     18          1           0        2.759483    1.648179   -0.879567
     19          1           0        1.313838   -2.287636   -0.000239
     20          1           0       -4.011509   -0.686185    0.000010
 ---------------------------------------------------------------------
                    Distance matrix (angstroms):
                    1          2          3          4          5
     1  C    0.000000
     2  C    1.399085   0.000000
     3  C    2.429402   1.387310   0.000000
     4  C    2.796395   2.401506   1.397561   0.000000
     5  C    2.453488   2.821545   2.466606   1.428355   0.000000
     6  C    1.386228   2.402092   2.796868   2.421917   1.417677
     7  O    2.373061   3.645137   4.157487   3.665577   2.386524
     8  C    3.825086   4.291605   3.791613   2.494970   1.471358
     9  C    4.473649   5.290832   5.074616   3.894378   2.610089
    10  O    4.801399   4.992728   4.177620   2.780157   2.347950
    11  O    4.125303   3.593353   2.326109   1.329880   2.405796
    12  O    2.340112   1.355300   2.402477   3.660187   4.175356
    13  H    1.088551   2.152676   3.405434   3.884674   3.444962
    14  H    3.426032   2.171452   1.088357   2.144533   3.440235
    15  H    2.370838   3.762472   4.556924   4.324419   3.187040
    16  H    4.387873   5.333596   5.290469   4.241922   2.907267
    17  H    5.527300   6.257207   5.890578   4.604966   3.479312
    18  H    4.387937   5.333629   5.290466   4.241897   2.907276
    19  H    4.534610   4.273198   3.144214   1.872285   2.367547
    20  H    3.155523   1.907938   2.434079   3.819718   4.620285
                    6          7          8          9         10
     6  C    0.000000
     7  O    1.360624   0.000000
     8  C    2.558565   2.901103   0.000000
     9  C    3.087475   2.706054   1.506209   0.000000
    10  O    3.659637   4.136002   1.238258   2.352469   0.000000
    11  O    3.656640   4.787563   2.832421   4.338575   2.496705
    12  O    3.611314   4.713147   5.646110   6.605071   6.330460
    13  H    2.164146   2.637807   4.719447   5.133095   5.777885
    14  H    3.885023   5.245642   4.639378   6.012986   4.804357
    15  H    1.902711   0.963424   3.854766   3.619721   5.085242
    16  H    3.060586   2.446267   2.149355   1.095458   3.079962
    17  H    4.145000   3.787994   2.110803   1.092175   2.411815
    18  H    3.060653   2.446403   2.149360   1.095458   3.079961
    19  H    3.768578   4.688901   2.233376   3.691064   1.583807
    20  H    4.305987   5.505997   6.062631   7.164986   6.588551
                   11         12         13         14         15
    11  O    0.000000
    12  O    4.728034   0.000000
    13  H    5.213119   2.547102   0.000000
    14  H    2.535115   2.700008   4.315192   0.000000
    15  H    5.537724   4.609597   2.209899   5.631049   0.000000
    16  H    4.834316   6.589185   4.919295   6.273147   3.256059
    17  H    4.776737   7.592880   6.219230   6.749495   4.683621
    18  H    4.834236   6.589225   4.919379   6.273128   3.256243
    19  H    0.997302   5.506912   5.610585   3.504639   5.541870
    20  H    4.678818   0.963692   3.493514   2.314444   5.491728
                   16         17         18         19         20
    16  H    0.000000
    17  H    1.800965   0.000000
    18  H    1.759044   1.800965   0.000000
    19  H    4.284258   3.962790   4.284127   0.000000
    20  H    7.215878   8.095975   7.215902   5.560932   0.000000
 Stoichiometry    C8H8O4
 Framework group  C1[X(C8H8O4)]
 Deg. of freedom    54
 Full point group                 C1      NOp   1
 Largest Abelian subgroup         C1      NOp   1
 Largest concise Abelian subgroup C1      NOp   1
                         Standard orientation:                         
 ---------------------------------------------------------------------
 Center     Atomic      Atomic             Coordinates (Angstroms)
 Number     Number       Type             X           Y           Z
 ---------------------------------------------------------------------
      1          6           0        1.521053    1.251585   -0.000043
      2          6           0        2.255999    0.061084   -0.000018
      3          6           0        1.627120   -1.175500    0.000031
      4          6           0        0.230593   -1.229249    0.000055
      5          6           0       -0.563659   -0.042083    0.000009
      6          6           0        0.136157    1.190826   -0.000032
      7          8           0       -0.585437    2.344342   -0.000073
      8          6           0       -2.029274   -0.171952   -0.000017
      9          6           0       -2.946731    1.022593    0.000017
     10          8           0       -2.548763   -1.295969   -0.000064
     11          8           0       -0.327675   -2.436277    0.000156
     12          8           0        3.605367    0.187744   -0.000034
     13          1           0        2.048621    2.203748   -0.000072
     14          1           0        2.186258   -2.109248    0.000065
     15          1           0        0.024326    3.090248   -0.000186
     16          1           0       -2.759448    1.648247   -0.879477
     17          1           0       -3.973423    0.650103   -0.000018
     18          1           0       -2.759483    1.648179    0.879567
     19          1           0       -1.313838   -2.287636    0.000239
     20          1           0        4.011509   -0.686185   -0.000010
 ---------------------------------------------------------------------
 Rotational constants (GHZ):      1.5526734      0.7679465      0.5154496
 Standard basis: CC-pVTZ (5D, 7F)
 There are   540 symmetry adapted cartesian basis functions of A   symmetry.
 There are   472 symmetry adapted basis functions of A   symmetry.
   472 basis functions,   760 primitive gaussians,   540 cartesian basis functions
    44 alpha electrons       44 beta electrons
       nuclear repulsion energy       698.9634254244 Hartrees.
 NAtoms=   20 NActive=   20 NUniq=   20 SFac= 1.00D+00 NAtFMM=   60 NAOKFM=F Big=F
 Integral buffers will be    131072 words long.
 Raffenetti 2 integral format.
 Two-electron integral symmetry is turned on.
 One-electron integrals computed using PRISM.
 NBasis=   472 RedAO= T EigKep=  4.02D-05  NBF=   472
 NBsUse=   472 1.00D-06 EigRej= -1.00D+00 NBFU=   472
 ExpMin= 1.03D-01 ExpMax= 1.53D+04 ExpMxC= 5.22D+02 IAcc=1 IRadAn=         1 AccDes= 0.00D+00
 Harris functional with IExCor= 1009 and IRadAn=       1 diagonalized for initial guess.
 HarFok:  IExCor= 1009 AccDes= 0.00D+00 IRadAn=         1 IDoV= 1 UseB2=F ITyADJ=14
 ICtDFT=  3500011 ScaDFX=  1.000000  1.000000  1.000000  1.000000
 FoFCou: FMM=F IPFlag=           0 FMFlag=      100000 FMFlg1=           0
         NFxFlg=           0 DoJE=T BraDBF=F KetDBF=T FulRan=T
         wScrn=  0.000000 ICntrl=     500 IOpCl=  0 I1Cent=   200000004 NGrid=           0
         NMat0=    1 NMatS0=      1 NMatT0=    0 NMatD0=    1 NMtDS0=    0 NMtDT0=    0
 Petite list used in FoFCou.
 Requested convergence on RMS density matrix=1.00D-08 within 128 cycles.
 Requested convergence on MAX density matrix=1.00D-06.
 Requested convergence on             energy=1.00D-06.
 No special actions if energy rises.
 Integral accuracy reduced to 1.0D-05 until final iterations.
 EnCoef did     2 forward-backward iterations
 Initial convergence to 1.0D-05 achieved.  Increase integral accuracy.
 SCF Done:  E(RM062X) =  -610.573552762     A.U. after   14 cycles
            NFock= 14  Conv=0.97D-08     -V/T= 2.0057

 **********************************************************************

            Population analysis using the SCF density.

 **********************************************************************

 Orbital symmetries:
       Occupied  (A) (A) (A) (A) (A) (A) (A) (A) (A) (A) (A) (A)
                 (A) (A) (A) (A) (A) (A) (A) (A) (A) (A) (A) (A)
                 (A) (A) (A) (A) (A) (A) (A) (A) (A) (A) (A) (A)
                 (A) (A) (A) (A) (A) (A) (A) (A)
       Virtual   (A) (A) (A) (A) (A) (A) (A) (A) (A) (A) (A) (A)
                 (A) (A) (A) (A) (A) (A) (A) (A) (A) (A) (A) (A)
                 (A) (A) (A) (A) (A) (A) (A) (A) (A) (A) (A) (A)
                 (A) (A) (A) (A) (A) (A) (A) (A) (A) (A) (A) (A)
                 (A) (A) (A) (A) (A) (A) (A) (A) (A) (A) (A) (A)
                 (A) (A) (A) (A) (A) (A) (A) (A) (A) (A) (A) (A)
                 (A) (A) (A) (A) (A) (A) (A) (A) (A) (A) (A) (A)
                 (A) (A) (A) (A) (A) (A) (A) (A) (A) (A) (A) (A)
                 (A) (A) (A) (A) (A) (A) (A) (A) (A) (A) (A) (A)
                 (A) (A) (A) (A) (A) (A) (A) (A) (A) (A) (A) (A)
                 (A) (A) (A) (A) (A) (A) (A) (A) (A) (A) (A) (A)
                 (A) (A) (A) (A) (A) (A) (A) (A) (A) (A) (A) (A)
                 (A) (A) (A) (A) (A) (A) (A) (A) (A) (A) (A) (A)
                 (A) (A) (A) (A) (A) (A) (A) (A) (A) (A) (A) (A)
                 (A) (A) (A) (A) (A) (A) (A) (A) (A) (A) (A) (A)
                 (A) (A) (A) (A) (A) (A) (A) (A) (A) (A) (A) (A)
                 (A) (A) (A) (A) (A) (A) (A) (A) (A) (A) (A) (A)
                 (A) (A) (A) (A) (A) (A) (A) (A) (A) (A) (A) (A)
                 (A) (A) (A) (A) (A) (A) (A) (A) (A) (A) (A) (A)
                 (A) (A) (A) (A) (A) (A) (A) (A) (A) (A) (A) (A)
                 (A) (A) (A) (A) (A) (A) (A) (A) (A) (A) (A) (A)
                 (A) (A) (A) (A) (A) (A) (A) (A) (A) (A) (A) (A)
                 (A) (A) (A) (A) (A) (A) (A) (A) (A) (A) (A) (A)
                 (A) (A) (A) (A) (A) (A) (A) (A) (A) (A) (A) (A)
                 (A) (A) (A) (A) (A) (A) (A) (A) (A) (A) (A) (A)
                 (A) (A) (A) (A) (A) (A) (A) (A) (A) (A) (A) (A)
                 (A) (A) (A) (A) (A) (A) (A) (A) (A) (A) (A) (A)
                 (A) (A) (A) (A) (A) (A) (A) (A) (A) (A) (A) (A)
                 (A) (A) (A) (A) (A) (A) (A) (A) (A) (A) (A) (A)
                 (A) (A) (A) (A) (A) (A) (A) (A) (A) (A) (A) (A)
                 (A) (A) (A) (A) (A) (A) (A) (A) (A) (A) (A) (A)
                 (A) (A) (A) (A) (A) (A) (A) (A) (A) (A) (A) (A)
                 (A) (A) (A) (A) (A) (A) (A) (A) (A) (A) (A) (A)
                 (A) (A) (A) (A) (A) (A) (A) (A) (A) (A) (A) (A)
                 (A) (A) (A) (A) (A) (A) (A) (A) (A) (A) (A) (A)
                 (A) (A) (A) (A) (A) (A) (A) (A)
 The electronic state is 1-A.
 Alpha  occ. eigenvalues --  -19.67701 -19.67308 -19.63929 -19.62322 -10.64548
 Alpha  occ. eigenvalues --  -10.63686 -10.63199 -10.62898 -10.55568 -10.54609
 Alpha  occ. eigenvalues --  -10.54136 -10.53831  -1.21331  -1.20782  -1.19696
 Alpha  occ. eigenvalues --   -1.16201  -0.96459  -0.87868  -0.85038  -0.82950
 Alpha  occ. eigenvalues --   -0.74453  -0.72519  -0.67921  -0.66145  -0.60257
 Alpha  occ. eigenvalues --   -0.59445  -0.58229  -0.55923  -0.54229  -0.52027
 Alpha  occ. eigenvalues --   -0.51290  -0.51101  -0.49470  -0.49258  -0.48655
 Alpha  occ. eigenvalues --   -0.48158  -0.45281  -0.43779  -0.43485  -0.43201
 Alpha  occ. eigenvalues --   -0.37473  -0.33687  -0.29574  -0.28383
 Alpha virt. eigenvalues --   -0.01987   0.03398   0.04788   0.05526   0.07342
 Alpha virt. eigenvalues --    0.09158   0.11425   0.12474   0.13860   0.14842
 Alpha virt. eigenvalues --    0.15360   0.19097   0.20539   0.21766   0.23562
 Alpha virt. eigenvalues --    0.24538   0.27320   0.28397   0.28692   0.30166
 Alpha virt. eigenvalues --    0.30829   0.30848   0.33177   0.34802   0.35048
 Alpha virt. eigenvalues --    0.35134   0.35892   0.36302   0.37256   0.38150
 Alpha virt. eigenvalues --    0.39774   0.41064   0.42376   0.42531   0.42858
 Alpha virt. eigenvalues --    0.43435   0.43911   0.44700   0.45062   0.46948
 Alpha virt. eigenvalues --    0.48365   0.48952   0.49441   0.49981   0.51972
 Alpha virt. eigenvalues --    0.52220   0.54014   0.54276   0.54612   0.55707
 Alpha virt. eigenvalues --    0.57344   0.58009   0.59261   0.60003   0.62408
 Alpha virt. eigenvalues --    0.64018   0.65669   0.65772   0.67723   0.68039
 Alpha virt. eigenvalues --    0.69542   0.69905   0.71010   0.72384   0.72920
 Alpha virt. eigenvalues --    0.73221   0.74490   0.75226   0.75470   0.77808
 Alpha virt. eigenvalues --    0.78077   0.79057   0.79226   0.80795   0.80988
 Alpha virt. eigenvalues --    0.82070   0.84253   0.86703   0.87194   0.88328
 Alpha virt. eigenvalues --    0.88643   0.89979   0.93402   0.93946   0.93989
 Alpha virt. eigenvalues --    0.95276   0.95463   0.96954   0.97741   0.97768
 Alpha virt. eigenvalues --    1.00478   1.02235   1.03566   1.03979   1.04320
 Alpha virt. eigenvalues --    1.06134   1.07711   1.10274   1.13104   1.13632
 Alpha virt. eigenvalues --    1.15387   1.18053   1.20516   1.21062   1.23821
 Alpha virt. eigenvalues --    1.24829   1.25126   1.26379   1.26392   1.27791
 Alpha virt. eigenvalues --    1.29503   1.32548   1.32826   1.34028   1.34388
 Alpha virt. eigenvalues --    1.35091   1.37562   1.37569   1.39437   1.40551
 Alpha virt. eigenvalues --    1.41198   1.43176   1.43910   1.44681   1.46206
 Alpha virt. eigenvalues --    1.47335   1.49904   1.52314   1.52898   1.54017
 Alpha virt. eigenvalues --    1.56793   1.58316   1.59876   1.65903   1.67135
 Alpha virt. eigenvalues --    1.71964   1.74301   1.75933   1.77916   1.81976
 Alpha virt. eigenvalues --    1.84801   1.88597   1.89581   1.92850   1.93949
 Alpha virt. eigenvalues --    1.94913   1.94970   1.95426   2.00937   2.01709
 Alpha virt. eigenvalues --    2.03761   2.04884   2.06216   2.11855   2.12710
 Alpha virt. eigenvalues --    2.14008   2.16169   2.18214   2.20216   2.21174
 Alpha virt. eigenvalues --    2.21781   2.22810   2.24683   2.26040   2.28014
 Alpha virt. eigenvalues --    2.29412   2.31228   2.32870   2.34900   2.37142
 Alpha virt. eigenvalues --    2.37453   2.37483   2.38851   2.41507   2.43026
 Alpha virt. eigenvalues --    2.45425   2.46098   2.49770   2.50832   2.51538
 Alpha virt. eigenvalues --    2.52032   2.56005   2.57184   2.57620   2.58930
 Alpha virt. eigenvalues --    2.61795   2.62243   2.63698   2.66341   2.69152
 Alpha virt. eigenvalues --    2.69199   2.72264   2.73167   2.75000   2.75547
 Alpha virt. eigenvalues --    2.76599   2.77643   2.78841   2.79745   2.82154
 Alpha virt. eigenvalues --    2.83085   2.84675   2.85146   2.86171   2.87828
 Alpha virt. eigenvalues --    2.88261   2.88924   2.90367   2.91857   2.92228
 Alpha virt. eigenvalues --    2.92518   2.95447   2.97229   2.97254   2.98840
 Alpha virt. eigenvalues --    3.01821   3.02703   3.02861   3.05179   3.07189
 Alpha virt. eigenvalues --    3.07508   3.07903   3.08749   3.09089   3.09988
 Alpha virt. eigenvalues --    3.10317   3.11619   3.11909   3.13819   3.16158
 Alpha virt. eigenvalues --    3.16421   3.16864   3.18304   3.19069   3.19071
 Alpha virt. eigenvalues --    3.22670   3.23985   3.26482   3.27315   3.28150
 Alpha virt. eigenvalues --    3.29967   3.30253   3.31889   3.32244   3.34484
 Alpha virt. eigenvalues --    3.34835   3.34838   3.36144   3.36827   3.38285
 Alpha virt. eigenvalues --    3.39069   3.42280   3.42375   3.43997   3.46636
 Alpha virt. eigenvalues --    3.47103   3.47745   3.50076   3.51479   3.53962
 Alpha virt. eigenvalues --    3.54851   3.56471   3.58518   3.59645   3.61840
 Alpha virt. eigenvalues --    3.63770   3.63819   3.66870   3.67279   3.68276
 Alpha virt. eigenvalues --    3.70874   3.71155   3.71942   3.73446   3.74347
 Alpha virt. eigenvalues --    3.75895   3.76608   3.77380   3.78465   3.79247
 Alpha virt. eigenvalues --    3.79448   3.83733   3.84153   3.84534   3.85024
 Alpha virt. eigenvalues --    3.85776   3.87350   3.87518   3.92533   3.93489
 Alpha virt. eigenvalues --    3.94112   3.95285   3.97598   3.98467   3.98771
 Alpha virt. eigenvalues --    4.00957   4.01222   4.02610   4.04414   4.06341
 Alpha virt. eigenvalues --    4.07207   4.08138   4.08630   4.11933   4.12570
 Alpha virt. eigenvalues --    4.16248   4.16720   4.17458   4.18762   4.19581
 Alpha virt. eigenvalues --    4.21040   4.21884   4.23279   4.23843   4.26923
 Alpha virt. eigenvalues --    4.27083   4.30038   4.31107   4.32274   4.35140
 Alpha virt. eigenvalues --    4.36880   4.37859   4.38829   4.42784   4.45197
 Alpha virt. eigenvalues --    4.48729   4.52224   4.54406   4.55373   4.60894
 Alpha virt. eigenvalues --    4.63054   4.65653   4.67573   4.71622   4.75837
 Alpha virt. eigenvalues --    4.76218   4.77657   4.81336   4.81422   4.85268
 Alpha virt. eigenvalues --    4.88336   4.91873   4.93662   4.94572   4.95559
 Alpha virt. eigenvalues --    5.04208   5.04758   5.09097   5.10875   5.12594
 Alpha virt. eigenvalues --    5.12746   5.14758   5.18068   5.21346   5.23260
 Alpha virt. eigenvalues --    5.28602   5.28608   5.30764   5.35043   5.38709
 Alpha virt. eigenvalues --    5.40642   5.42108   5.46859   5.48378   5.50503
 Alpha virt. eigenvalues --    5.51268   5.54449   5.58815   5.59211   5.65256
 Alpha virt. eigenvalues --    5.72564   5.76285   5.80074   5.81631   5.84935
 Alpha virt. eigenvalues --    5.86922   5.94706   5.96181   5.99271   6.05059
 Alpha virt. eigenvalues --    6.10644   6.22789   6.29944   6.30024   6.35286
 Alpha virt. eigenvalues --    6.38099   6.41063   6.42332   6.47964   6.56163
 Alpha virt. eigenvalues --    6.57758   6.58696   6.61037   6.62198   6.67614
 Alpha virt. eigenvalues --    6.71325   6.75340   6.76037   6.78145   6.78967
 Alpha virt. eigenvalues --    6.80829   6.83553   6.85709   6.87406   6.90936
 Alpha virt. eigenvalues --    7.01746   7.06211   7.09101   7.12069   7.20806
 Alpha virt. eigenvalues --    7.24400   7.28820   7.33015   7.39373   7.41481
 Alpha virt. eigenvalues --    7.64892   8.39123  10.89987  11.79938  12.22706
 Alpha virt. eigenvalues --   12.32307  12.47389  12.54651  12.73442  13.17572
 Alpha virt. eigenvalues --   13.32723  13.83207  15.19744
          Condensed to atoms (all electrons):
               1          2          3          4          5          6
     1  C    5.283245   0.365717  -0.041835  -0.059661  -0.033291   0.506579
     2  C    0.365717   4.803999   0.402206  -0.009101  -0.047536  -0.062706
     3  C   -0.041835   0.402206   5.492543   0.223500   0.000071  -0.045861
     4  C   -0.059661  -0.009101   0.223500   5.027815   0.162300   0.022057
     5  C   -0.033291  -0.047536   0.000071   0.162300   6.072067   0.277751
     6  C    0.506579  -0.062706  -0.045861   0.022057   0.277751   4.741859
     7  O   -0.082656   0.011672  -0.000567   0.003114  -0.062442   0.377541
     8  C    0.002650  -0.001815   0.009133  -0.040784   0.132129  -0.017646
     9  C   -0.001183   0.000094  -0.000309   0.010758  -0.090189  -0.013570
    10  O   -0.000002   0.000053   0.003321   0.010318  -0.157356   0.003599
    11  O    0.000081   0.004057  -0.055939   0.428867  -0.083742   0.005998
    12  O   -0.050572   0.393297  -0.091247   0.016760  -0.001727   0.005308
    13  H    0.418219  -0.050760   0.012294  -0.004845   0.012577  -0.062884
    14  H    0.008326  -0.055966   0.409418  -0.052228   0.018013  -0.002688
    15  H    0.003394   0.003974  -0.000247   0.000353   0.006581  -0.055456
    16  H   -0.000222   0.000008  -0.000015  -0.000053   0.008888  -0.005280
    17  H    0.000081  -0.000014   0.000003  -0.000912   0.014730   0.000202
    18  H   -0.000222   0.000008  -0.000015  -0.000053   0.008890  -0.005280
    19  H    0.000074  -0.000065  -0.000003  -0.018311  -0.021927   0.000751
    20  H   -0.000160  -0.046915  -0.000318   0.005185  -0.000246  -0.000665
               7          8          9         10         11         12
     1  C   -0.082656   0.002650  -0.001183  -0.000002   0.000081  -0.050572
     2  C    0.011672  -0.001815   0.000094   0.000053   0.004057   0.393297
     3  C   -0.000567   0.009133  -0.000309   0.003321  -0.055939  -0.091247
     4  C    0.003114  -0.040784   0.010758   0.010318   0.428867   0.016760
     5  C   -0.062442   0.132129  -0.090189  -0.157356  -0.083742  -0.001727
     6  C    0.377541  -0.017646  -0.013570   0.003599   0.005998   0.005308
     7  O    7.755281   0.001515  -0.006452  -0.000008  -0.000022  -0.000022
     8  C    0.001515   4.745980   0.376128   0.653321  -0.004785  -0.000014
     9  C   -0.006452   0.376128   5.015074  -0.071452  -0.000100   0.000000
    10  O   -0.000008   0.653321  -0.071452   7.868971  -0.051596  -0.000000
    11  O   -0.000022  -0.004785  -0.000100  -0.051596   7.765632  -0.000034
    12  O   -0.000022  -0.000014   0.000000  -0.000000  -0.000034   7.720240
    13  H   -0.007379   0.000328  -0.000055   0.000004   0.000005   0.004921
    14  H    0.000006   0.000017   0.000006   0.000065   0.006797  -0.006342
    15  H    0.342626  -0.000080  -0.000198   0.000005   0.000010  -0.000023
    16  H    0.002414  -0.044849   0.389835   0.002025   0.000035   0.000000
    17  H    0.001467  -0.047225   0.386342   0.008977   0.000085   0.000000
    18  H    0.002411  -0.044856   0.389845   0.002025   0.000035   0.000000
    19  H    0.000023  -0.000953   0.002392   0.088169   0.328177   0.000012
    20  H    0.000015   0.000003   0.000000   0.000000  -0.000024   0.341538
              13         14         15         16         17         18
     1  C    0.418219   0.008326   0.003394  -0.000222   0.000081  -0.000222
     2  C   -0.050760  -0.055966   0.003974   0.000008  -0.000014   0.000008
     3  C    0.012294   0.409418  -0.000247  -0.000015   0.000003  -0.000015
     4  C   -0.004845  -0.052228   0.000353  -0.000053  -0.000912  -0.000053
     5  C    0.012577   0.018013   0.006581   0.008888   0.014730   0.008890
     6  C   -0.062884  -0.002688  -0.055456  -0.005280   0.000202  -0.005280
     7  O   -0.007379   0.000006   0.342626   0.002414   0.001467   0.002411
     8  C    0.000328   0.000017  -0.000080  -0.044849  -0.047225  -0.044856
     9  C   -0.000055   0.000006  -0.000198   0.389835   0.386342   0.389845
    10  O    0.000004   0.000065   0.000005   0.002025   0.008977   0.002025
    11  O    0.000005   0.006797   0.000010   0.000035   0.000085   0.000035
    12  O    0.004921  -0.006342  -0.000023   0.000000   0.000000   0.000000
    13  H    0.568441  -0.000137   0.004687  -0.000012  -0.000001  -0.000012
    14  H   -0.000137   0.554931  -0.000013  -0.000000  -0.000001  -0.000000
    15  H    0.004687  -0.000013   0.427937   0.000244  -0.000078   0.000244
    16  H   -0.000012  -0.000000   0.000244   0.568552  -0.021002  -0.039085
    17  H   -0.000001  -0.000001  -0.000078  -0.021002   0.550718  -0.021002
    18  H   -0.000012  -0.000000   0.000244  -0.039085  -0.021002   0.568546
    19  H   -0.000009  -0.000036  -0.000003  -0.000201   0.000030  -0.000201
    20  H   -0.000766   0.002552   0.000005  -0.000000  -0.000000  -0.000000
              19         20
     1  C    0.000074  -0.000160
     2  C   -0.000065  -0.046915
     3  C   -0.000003  -0.000318
     4  C   -0.018311   0.005185
     5  C   -0.021927  -0.000246
     6  C    0.000751  -0.000665
     7  O    0.000023   0.000015
     8  C   -0.000953   0.000003
     9  C    0.002392   0.000000
    10  O    0.088169   0.000000
    11  O    0.328177  -0.000024
    12  O    0.000012   0.341538
    13  H   -0.000009  -0.000766
    14  H   -0.000036   0.002552
    15  H   -0.000003   0.000005
    16  H   -0.000201  -0.000000
    17  H    0.000030  -0.000000
    18  H   -0.000201  -0.000000
    19  H    0.345995   0.000003
    20  H    0.000003   0.434722
 Mulliken charges:
               1
     1  C   -0.318562
     2  C    0.289792
     3  C   -0.316132
     4  C    0.274921
     5  C   -0.215539
     6  C    0.330390
     7  O   -0.338537
     8  C    0.281802
     9  C   -0.386966
    10  O   -0.360439
    11  O   -0.343536
    12  O   -0.332095
    13  H    0.105383
    14  H    0.117280
    15  H    0.266041
    16  H    0.138719
    17  H    0.127601
    18  H    0.138723
    19  H    0.276085
    20  H    0.265070
 Sum of Mulliken charges =  -0.00000
 Mulliken charges with hydrogens summed into heavy atoms:
               1
     1  C   -0.213179
     2  C    0.289792
     3  C   -0.198853
     4  C    0.274921
     5  C   -0.215539
     6  C    0.330390
     7  O   -0.072496
     8  C    0.281802
     9  C    0.018077
    10  O   -0.360439
    11  O   -0.067451
    12  O   -0.067025
 Electronic spatial extent (au):  <R**2>=           2062.9827
 Charge=             -0.0000 electrons
 Dipole moment (field-independent basis, Debye):
    X=              2.1392    Y=              2.9398    Z=              0.0000  Tot=              3.6357
 Quadrupole moment (field-independent basis, Debye-Ang):
   XX=            -65.5372   YY=            -64.7915   ZZ=            -71.3740
   XY=             -8.2011   XZ=             -0.0007   YZ=             -0.0012
 Traceless Quadrupole moment (field-independent basis, Debye-Ang):
   XX=              1.6971   YY=              2.4427   ZZ=             -4.1398
   XY=             -8.2011   XZ=             -0.0007   YZ=             -0.0012
 Octapole moment (field-independent basis, Debye-Ang**2):
  XXX=             32.1710  YYY=             40.2052  ZZZ=              0.0001  XYY=             17.6435
  XXY=            -15.5952  XXZ=              0.0022  XZZ=             -4.7424  YZZ=             -0.5358
  YYZ=             -0.0023  XYZ=              0.0010
 Hexadecapole moment (field-independent basis, Debye-Ang**3):
 XXXX=          -1569.8454 YYYY=           -743.0924 ZZZZ=            -78.1205 XXXY=           -148.5092
 XXXZ=              0.0014 YYYX=             31.7135 YYYZ=              0.0021 ZZZX=              0.0015
 ZZZY=              0.0136 XXYY=           -398.7602 XXZZ=           -299.1609 YYZZ=           -155.3618
 XXYZ=              0.0015 YYXZ=             -0.0035 ZZXY=              0.9149
 N-N= 6.989634254244D+02 E-N=-2.826290303573D+03  KE= 6.071169118049D+02
 Calling FoFJK, ICntrl=      2127 FMM=F ISym2X=0 I1Cent= 0 IOpClX= 0 NMat=1 NMatS=1 NMatT=0.
 ***** Axes restored to original set *****
 -------------------------------------------------------------------
 Center     Atomic                   Forces (Hartrees/Bohr)
 Number     Number              X              Y              Z
 -------------------------------------------------------------------
      1        6           0.001965672   -0.001624016    0.000000148
      2        6           0.001345685   -0.000060478   -0.000000048
      3        6           0.000880659    0.002564141    0.000000420
      4        6          -0.001214706   -0.000618667   -0.000002628
      5        6          -0.002359532    0.001021138   -0.000000320
      6        6          -0.002014838   -0.001034173    0.000001070
      7        8          -0.003701031   -0.001586008    0.000000224
      8        6           0.001271702   -0.007147939   -0.000000152
      9        6           0.000600059    0.001454137    0.000002836
     10        8          -0.003506880    0.008346199   -0.000005820
     11        8          -0.000593690    0.004199645   -0.000003309
     12        8           0.002940442   -0.002694965   -0.000000003
     13        1           0.002459654   -0.004327183   -0.000000019
     14        1           0.002564638    0.004244243   -0.000000119
     15        1           0.001391747   -0.001421407   -0.000000879
     16        1           0.000978961   -0.002440111   -0.003812982
     17        1          -0.004019856    0.001686522   -0.000000481
     18        1           0.000977483   -0.002440037    0.003812681
     19        1          -0.001041444   -0.000080729    0.000009295
     20        1           0.001075275    0.001959688    0.000000086
 -------------------------------------------------------------------
 Cartesian Forces:  Max     0.008346199 RMS     0.002372863

 GradGradGradGradGradGradGradGradGradGradGradGradGradGradGradGradGradGrad
 Berny optimization.
 FormGI is forming the generalized inverse of G from B-inverse, IUseBI=4.
 Internal  Forces:  Max     0.009048831 RMS     0.002362174
 Search for a local minimum.
 Step number   1 out of a maximum of  100
 All quantities printed in internal units (Hartrees-Bohrs-Radians)
 Mixed Optimization -- RFO/linear search
 Second derivative matrix not updated -- first step.
 ITU=  0
     Eigenvalues ---    0.00684   0.00873   0.01145   0.01601   0.01836
     Eigenvalues ---    0.02017   0.02084   0.02120   0.02163   0.02193
     Eigenvalues ---    0.02196   0.02213   0.02223   0.02283   0.02619
     Eigenvalues ---    0.07423   0.07554   0.16000   0.16000   0.16000
     Eigenvalues ---    0.16000   0.16000   0.16000   0.16000   0.16000
     Eigenvalues ---    0.23483   0.23499   0.25000   0.25000   0.25000
     Eigenvalues ---    0.25000   0.25000   0.25000   0.25000   0.31735
     Eigenvalues ---    0.34189   0.34189   0.34563   0.34981   0.35003
     Eigenvalues ---    0.35578   0.39541   0.41062   0.43926   0.45147
     Eigenvalues ---    0.46894   0.47581   0.48166   0.52822   0.53909
     Eigenvalues ---    0.54687   0.54743   0.59534   0.87730
 RFO step:  Lambda=-1.09004522D-03 EMin= 6.83816233D-03
 Linear search not attempted -- first point.
 Iteration  1 RMS(Cart)=  0.01080431 RMS(Int)=  0.00000586
 Iteration  2 RMS(Cart)=  0.00000977 RMS(Int)=  0.00000056
 Iteration  3 RMS(Cart)=  0.00000000 RMS(Int)=  0.00000056
 Variable       Old X    -DE/DX   Delta X   Delta X   Delta X     New X
                                 (Linear)    (Quad)   (Total)
    R1        2.64389  -0.00589   0.00000  -0.01305  -0.01305   2.63084
    R2        2.61959  -0.00701   0.00000  -0.01461  -0.01461   2.60498
    R3        2.05706  -0.00498   0.00000  -0.01419  -0.01419   2.04288
    R4        2.62164  -0.00674   0.00000  -0.01424  -0.01424   2.60740
    R5        2.56114  -0.00407   0.00000  -0.00753  -0.00753   2.55361
    R6        2.64101  -0.00621   0.00000  -0.01343  -0.01343   2.62758
    R7        2.05670  -0.00496   0.00000  -0.01412  -0.01412   2.04258
    R8        2.69920  -0.00535   0.00000  -0.01272  -0.01272   2.68648
    R9        2.51311  -0.00442   0.00000  -0.00742  -0.00742   2.50569
   R10        2.67902  -0.00536   0.00000  -0.01232  -0.01232   2.66670
   R11        2.78046  -0.00364   0.00000  -0.01020  -0.01020   2.77026
   R12        2.57121  -0.00378   0.00000  -0.00713  -0.00713   2.56407
   R13        1.82061  -0.00198   0.00000  -0.00361  -0.00361   1.81700
   R14        2.84632  -0.00226   0.00000  -0.00711  -0.00711   2.83921
   R15        2.33997  -0.00905   0.00000  -0.01030  -0.01030   2.32967
   R16        2.07012  -0.00462   0.00000  -0.01347  -0.01347   2.05664
   R17        2.06391  -0.00436   0.00000  -0.01256  -0.01256   2.05135
   R18        2.07012  -0.00462   0.00000  -0.01347  -0.01347   2.05664
   R19        1.88463  -0.00104   0.00000  -0.00215  -0.00215   1.88247
   R20        1.82111  -0.00223   0.00000  -0.00406  -0.00406   1.81705
    A1        2.08003   0.00046   0.00000   0.00146   0.00146   2.08149
    A2        2.08255  -0.00018   0.00000  -0.00040  -0.00040   2.08215
    A3        2.12061  -0.00028   0.00000  -0.00106  -0.00106   2.11954
    A4        2.11805  -0.00027   0.00000  -0.00184  -0.00184   2.11621
    A5        2.03028   0.00074   0.00000   0.00332   0.00332   2.03360
    A6        2.13486  -0.00047   0.00000  -0.00148  -0.00148   2.13338
    A7        2.07974   0.00067   0.00000   0.00263   0.00263   2.08237
    A8        2.13158  -0.00031   0.00000  -0.00117  -0.00117   2.13041
    A9        2.07187  -0.00036   0.00000  -0.00146  -0.00146   2.07041
   A10        2.12197  -0.00065   0.00000  -0.00222  -0.00222   2.11975
   A11        2.04248   0.00071   0.00000   0.00264   0.00265   2.04512
   A12        2.11874  -0.00006   0.00000  -0.00042  -0.00042   2.11832
   A13        2.03569   0.00004   0.00000   0.00082   0.00082   2.03651
   A14        2.07205  -0.00074   0.00000  -0.00328  -0.00328   2.06878
   A15        2.17544   0.00070   0.00000   0.00246   0.00246   2.17790
   A16        2.13091  -0.00025   0.00000  -0.00085  -0.00085   2.13005
   A17        2.08595  -0.00018   0.00000  -0.00081  -0.00081   2.08514
   A18        2.06632   0.00044   0.00000   0.00167   0.00167   2.06799
   A19        1.89728   0.00032   0.00000   0.00199   0.00199   1.89927
   A20        2.13736  -0.00037   0.00000  -0.00147  -0.00147   2.13589
   A21        2.09211   0.00056   0.00000   0.00223   0.00223   2.09433
   A22        2.05372  -0.00019   0.00000  -0.00076  -0.00076   2.05296
   A23        1.92709   0.00032   0.00000   0.00199   0.00198   1.92907
   A24        1.87771   0.00019   0.00000   0.00120   0.00119   1.87890
   A25        1.92709   0.00032   0.00000   0.00197   0.00197   1.92906
   A26        1.93422  -0.00025   0.00000  -0.00155  -0.00155   1.93266
   A27        1.86422  -0.00032   0.00000  -0.00203  -0.00203   1.86220
   A28        1.93422  -0.00025   0.00000  -0.00155  -0.00155   1.93266
   A29        1.85441  -0.00014   0.00000  -0.00089  -0.00089   1.85352
   A30        1.91224  -0.00028   0.00000  -0.00171  -0.00171   1.91053
    D1       -0.00001   0.00000   0.00000   0.00004   0.00004   0.00002
    D2        3.14159   0.00000   0.00000   0.00001   0.00001  -3.14159
    D3        3.14158   0.00000   0.00000   0.00001   0.00001  -3.14159
    D4       -0.00000  -0.00000   0.00000  -0.00002  -0.00002  -0.00002
    D5        0.00000  -0.00000   0.00000  -0.00000  -0.00000   0.00000
    D6       -3.14158  -0.00000   0.00000  -0.00006  -0.00006   3.14154
    D7       -3.14159   0.00000   0.00000   0.00002   0.00002  -3.14157
    D8        0.00001  -0.00000   0.00000  -0.00004  -0.00004  -0.00002
    D9        0.00000  -0.00000   0.00000  -0.00000  -0.00000  -0.00000
   D10       -3.14158  -0.00000   0.00000  -0.00006  -0.00006   3.14155
   D11        3.14158   0.00000   0.00000   0.00003   0.00003  -3.14157
   D12        0.00001  -0.00000   0.00000  -0.00003  -0.00003  -0.00003
   D13        3.14159   0.00000   0.00000   0.00001   0.00001  -3.14158
   D14        0.00000  -0.00000   0.00000  -0.00001  -0.00001  -0.00001
   D15        0.00002  -0.00000   0.00000  -0.00006  -0.00006  -0.00005
   D16       -3.14155  -0.00000   0.00000  -0.00018  -0.00018   3.14146
   D17       -3.14159  -0.00000   0.00000  -0.00001  -0.00001   3.14159
   D18        0.00003  -0.00000   0.00000  -0.00012  -0.00012  -0.00009
   D19       -0.00002   0.00000   0.00000   0.00009   0.00009   0.00007
   D20        3.14155   0.00000   0.00000   0.00016   0.00016  -3.14147
   D21        3.14154   0.00000   0.00000   0.00021   0.00021  -3.14143
   D22       -0.00007   0.00001   0.00000   0.00028   0.00028   0.00021
   D23        3.14151   0.00001   0.00000   0.00036   0.00036  -3.14132
   D24       -0.00006   0.00001   0.00000   0.00025   0.00025   0.00019
   D25        0.00001  -0.00000   0.00000  -0.00006  -0.00006  -0.00005
   D26       -3.14159   0.00000   0.00000  -0.00000  -0.00000  -3.14159
   D27       -3.14156  -0.00000   0.00000  -0.00013  -0.00013   3.14149
   D28        0.00002  -0.00000   0.00000  -0.00008  -0.00008  -0.00005
   D29        3.14153   0.00000   0.00000   0.00017   0.00017  -3.14149
   D30       -0.00006   0.00000   0.00000   0.00035   0.00036   0.00029
   D31       -0.00009   0.00000   0.00000   0.00025   0.00025   0.00016
   D32        3.14151   0.00001   0.00000   0.00043   0.00043  -3.14124
   D33        0.00009   0.00000   0.00000   0.00000   0.00000   0.00009
   D34       -3.14150  -0.00000   0.00000  -0.00005  -0.00005  -3.14155
   D35        1.02880  -0.00000   0.00000   0.00010   0.00010   1.02890
   D36        3.14159   0.00000   0.00000   0.00013   0.00013  -3.14147
   D37       -1.02881   0.00000   0.00000   0.00015   0.00015  -1.02866
   D38       -2.11279  -0.00000   0.00000  -0.00008  -0.00008  -2.11288
   D39       -0.00001  -0.00000   0.00000  -0.00005  -0.00005  -0.00006
   D40        2.11278   0.00000   0.00000  -0.00003  -0.00003   2.11275
         Item               Value     Threshold  Converged?
 Maximum Force            0.009049     0.000450     NO 
 RMS     Force            0.002362     0.000300     NO 
 Maximum Displacement     0.033942     0.001800     NO 
 RMS     Displacement     0.010806     0.001200     NO 
 Predicted change in Energy=-5.464218D-04
 GradGradGradGradGradGradGradGradGradGradGradGradGradGradGradGradGradGrad

                          Input orientation:                          
 ---------------------------------------------------------------------
 Center     Atomic      Atomic             Coordinates (Angstroms)
 Number     Number       Type             X           Y           Z
 ---------------------------------------------------------------------
      1          6           0       -1.514067    1.246705    0.000041
      2          6           0       -2.246309    0.062649   -0.000035
      3          6           0       -1.619546   -1.166556   -0.000073
      4          6           0       -0.230206   -1.222214   -0.000035
      5          6           0        0.559537   -0.040127   -0.000016
      6          6           0       -0.136856    1.187228    0.000050
      7          8           0        0.581011    2.338620    0.000068
      8          6           0        2.019431   -0.173353   -0.000132
      9          6           0        2.935973    1.017148    0.000013
     10          8           0        2.536187   -1.292627   -0.000557
     11          8           0        0.327707   -2.425081    0.000083
     12          8           0       -3.592026    0.185515   -0.000047
     13          1           0       -2.037639    2.192499    0.000070
     14          1           0       -2.174949   -2.093830   -0.000089
     15          1           0       -0.027180    3.083345    0.000155
     16          1           0        2.752307    1.640075    0.873333
     17          1           0        3.956430    0.646964   -0.000242
     18          1           0        2.752022    1.640495   -0.872948
     19          1           0        1.312450   -2.274675    0.000358
     20          1           0       -3.993548   -0.688179   -0.000093
 ---------------------------------------------------------------------
                    Distance matrix (angstroms):
                    1          2          3          4          5
     1  C    0.000000
     2  C    1.392180   0.000000
     3  C    2.415564   1.379774   0.000000
     4  C    2.782779   2.390721   1.390454   0.000000
     5  C    2.440445   2.807728   2.453006   1.421627   0.000000
     6  C    1.378495   2.390496   2.781846   2.411249   1.411156
     7  O    2.362548   3.629571   4.138684   3.652070   2.378844
     8  C    3.808172   4.272264   3.772082   2.482131   1.465961
     9  C    4.455958   5.269452   5.051863   3.878071   2.601016
    10  O    4.780457   4.970819   4.157644   2.767288   2.340065
    11  O    4.107815   3.579715   2.318551   1.325954   2.396195
    12  O    2.333246   1.351314   2.391396   3.644659   4.157690
    13  H    1.081044   2.140048   3.384974   3.863558   3.424901
    14  H    3.405281   2.157660   1.080884   2.131136   3.419811
    15  H    2.363066   3.748218   4.538423   4.310343   3.178099
    16  H    4.372565   5.313869   5.268122   4.225027   2.897250
    17  H    5.503275   6.230201   5.863477   4.584948   3.465686
    18  H    4.372265   5.313652   5.268022   4.225016   2.897153
    19  H    4.515452   4.257681   3.134410   1.867474   2.357982
    20  H    3.145091   1.901732   2.421721   3.801044   4.598973
                    6          7          8          9         10
     6  C    0.000000
     7  O    1.356848   0.000000
     8  C    2.549657   2.894661   0.000000
     9  C    3.077533   2.700396   1.502445   0.000000
    10  O    3.646209   4.124157   1.232807   2.344119   0.000000
    11  O    3.642059   4.770431   2.816418   4.318795   2.481901
    12  O    3.597448   4.695753   5.622921   6.580759   6.303959
    13  H    2.150244   2.622724   4.696496   5.110604   5.750304
    14  H    3.862533   5.219380   4.613139   5.983286   4.778778
    15  H    1.899286   0.961514   3.846387   3.612402   5.071487
    16  H    3.052041   2.442352   2.142094   1.088329   3.067757
    17  H    4.128786   3.775601   2.103541   1.085527   2.403977
    18  H    3.051752   2.441890   2.142088   1.088330   3.067713
    19  H    3.753033   4.670920   2.217065   3.670412   1.569060
    20  H    4.288499   5.485262   6.034978   7.136274   6.557651
                   11         12         13         14         15
    11  O    0.000000
    12  O    4.709514   0.000000
    13  H    5.188151   2.538524   0.000000
    14  H    2.524483   2.683938   4.288528   0.000000
    15  H    5.519846   4.594077   2.198989   5.605002   0.000000
    16  H    4.813184   6.567275   4.900137   6.243618   3.251309
    17  H    4.754481   7.562548   6.190117   6.716082   4.669593
    18  H    4.813356   6.567029   4.899768   6.243566   3.250859
    19  H    0.996163   5.486932   5.583793   3.492084   5.522950
    20  H    4.657260   0.961541   3.481937   2.298512   5.473250
                   16         17         18         19         20
    16  H    0.000000
    17  H    1.788663   0.000000
    18  H    1.746281   1.788664   0.000000
    19  H    4.261518   3.940381   4.261876   0.000000
    20  H    7.189589   8.061312   7.189389   5.538102   0.000000
 Stoichiometry    C8H8O4
 Framework group  C1[X(C8H8O4)]
 Deg. of freedom    54
 Full point group                 C1      NOp   1
 Largest Abelian subgroup         C1      NOp   1
 Largest concise Abelian subgroup C1      NOp   1
                         Standard orientation:                         
 ---------------------------------------------------------------------
 Center     Atomic      Atomic             Coordinates (Angstroms)
 Number     Number       Type             X           Y           Z
 ---------------------------------------------------------------------
      1          6           0        1.514642    1.244840   -0.000089
      2          6           0        2.246020    0.060251   -0.000013
      3          6           0        1.618361   -1.168496    0.000025
      4          6           0        0.228981   -1.223142   -0.000012
      5          6           0       -0.559900   -0.040480   -0.000032
      6          6           0        0.137387    1.186367   -0.000098
      7          8           0       -0.579640    2.338282   -0.000115
      8          6           0       -2.019891   -0.172642    0.000084
      9          6           0       -2.935565    1.018526   -0.000061
     10          8           0       -2.537462   -1.291540    0.000509
     11          8           0       -0.329808   -2.425602   -0.000131
     12          8           0        3.591826    0.182137   -0.000001
     13          1           0        2.038903    2.190253   -0.000118
     14          1           0        2.173088   -2.096176    0.000042
     15          1           0        0.029093    3.082563   -0.000203
     16          1           0       -2.751445    1.641319   -0.873381
     17          1           0       -3.956292    0.649086    0.000195
     18          1           0       -2.751160    1.641739    0.872900
     19          1           0       -1.314441   -2.274479   -0.000406
     20          1           0        3.992711   -0.691850    0.000045
 ---------------------------------------------------------------------
 Rotational constants (GHZ):      1.5651148      0.7743911      0.5197001
 Standard basis: CC-pVTZ (5D, 7F)
 There are   540 symmetry adapted cartesian basis functions of A   symmetry.
 There are   472 symmetry adapted basis functions of A   symmetry.
   472 basis functions,   760 primitive gaussians,   540 cartesian basis functions
    44 alpha electrons       44 beta electrons
       nuclear repulsion energy       701.8801989624 Hartrees.
 NAtoms=   20 NActive=   20 NUniq=   20 SFac= 1.00D+00 NAtFMM=   60 NAOKFM=F Big=F
 Integral buffers will be    131072 words long.
 Raffenetti 2 integral format.
 Two-electron integral symmetry is turned on.
 One-electron integrals computed using PRISM.
 NBasis=   472 RedAO= T EigKep=  3.88D-05  NBF=   472
 NBsUse=   472 1.00D-06 EigRej= -1.00D+00 NBFU=   472
 Initial guess from the checkpoint file:  "ccpvTZdzTHAP.chk"
 B after Tr=     0.000000   -0.000000   -0.000000
         Rot=    1.000000    0.000005   -0.000012    0.000328 Ang=   0.04 deg.
 ExpMin= 1.03D-01 ExpMax= 1.53D+04 ExpMxC= 5.22D+02 IAcc=1 IRadAn=         1 AccDes= 0.00D+00
 Harris functional with IExCor= 1009 and IRadAn=       1 diagonalized for initial guess.
 HarFok:  IExCor= 1009 AccDes= 0.00D+00 IRadAn=         1 IDoV= 1 UseB2=F ITyADJ=14
 ICtDFT=  3500011 ScaDFX=  1.000000  1.000000  1.000000  1.000000
 FoFCou: FMM=F IPFlag=           0 FMFlag=      100000 FMFlg1=           0
         NFxFlg=           0 DoJE=T BraDBF=F KetDBF=T FulRan=T
         wScrn=  0.000000 ICntrl=     500 IOpCl=  0 I1Cent=   200000004 NGrid=           0
         NMat0=    1 NMatS0=      1 NMatT0=    0 NMatD0=    1 NMtDS0=    0 NMtDT0=    0
 Petite list used in FoFCou.
 Requested convergence on RMS density matrix=1.00D-08 within 128 cycles.
 Requested convergence on MAX density matrix=1.00D-06.
 Requested convergence on             energy=1.00D-06.
 No special actions if energy rises.
 Integral accuracy reduced to 1.0D-05 until final iterations.
 Initial convergence to 1.0D-05 achieved.  Increase integral accuracy.
 SCF Done:  E(RM062X) =  -610.574042349     A.U. after   11 cycles
            NFock= 11  Conv=0.65D-08     -V/T= 2.0053
 Calling FoFJK, ICntrl=      2127 FMM=F ISym2X=0 I1Cent= 0 IOpClX= 0 NMat=1 NMatS=1 NMatT=0.
 ***** Axes restored to original set *****
 -------------------------------------------------------------------
 Center     Atomic                   Forces (Hartrees/Bohr)
 Number     Number              X              Y              Z
 -------------------------------------------------------------------
      1        6          -0.000115913    0.000181084   -0.000000355
      2        6          -0.001356606    0.000342104   -0.000000153
      3        6          -0.000114603   -0.000049040   -0.000001185
      4        6           0.000299746   -0.001873973    0.000007341
      5        6           0.000271056    0.000584747    0.000008221
      6        6           0.000722344    0.000852662   -0.000003165
      7        8          -0.000384360    0.000132961    0.000003352
      8        6           0.000419898   -0.000913545   -0.000026656
      9        6           0.000025687    0.000147298   -0.000000662
     10        8           0.000808267    0.000891741    0.000028305
     11        8          -0.001274244    0.000162327    0.000013476
     12        8           0.000123173   -0.000459336   -0.000000220
     13        1          -0.000058547    0.000183788   -0.000000101
     14        1          -0.000138127   -0.000223585    0.000000718
     15        1           0.000281661    0.000032165   -0.000000536
     16        1           0.000074527    0.000096757    0.000004173
     17        1           0.000118384    0.000081112    0.000001050
     18        1           0.000076458    0.000094367   -0.000001848
     19        1           0.000440320   -0.000455780   -0.000031643
     20        1          -0.000219122    0.000192144   -0.000000113
 -------------------------------------------------------------------
 Cartesian Forces:  Max     0.001873973 RMS     0.000457068

 GradGradGradGradGradGradGradGradGradGradGradGradGradGradGradGradGradGrad
 Berny optimization.
 Using GEDIIS/GDIIS optimizer.
 FormGI is forming the generalized inverse of G from B-inverse, IUseBI=4.
 Internal  Forces:  Max     0.002586118 RMS     0.000624792
 Search for a local minimum.
 Step number   2 out of a maximum of  100
 All quantities printed in internal units (Hartrees-Bohrs-Radians)
 Mixed Optimization -- En-DIIS/RFO-DIIS
 Update second derivatives using D2CorX and points    1    2
 DE= -4.90D-04 DEPred=-5.46D-04 R= 8.96D-01
 TightC=F SS=  1.41D+00  RLast= 5.06D-02 DXNew= 5.0454D-01 1.5173D-01
 Trust test= 8.96D-01 RLast= 5.06D-02 DXMaxT set to 3.00D-01
 ITU=  1  0
 Use linear search instead of GDIIS.
     Eigenvalues ---    0.00684   0.00873   0.01145   0.01602   0.01835
     Eigenvalues ---    0.02017   0.02084   0.02121   0.02163   0.02193
     Eigenvalues ---    0.02196   0.02213   0.02223   0.02283   0.02619
     Eigenvalues ---    0.07402   0.07536   0.15853   0.16000   0.16000
     Eigenvalues ---    0.16000   0.16000   0.16000   0.16000   0.16047
     Eigenvalues ---    0.22645   0.23487   0.24152   0.25000   0.25000
     Eigenvalues ---    0.25000   0.25000   0.25000   0.25179   0.31824
     Eigenvalues ---    0.33964   0.34189   0.34499   0.34878   0.34996
     Eigenvalues ---    0.36389   0.40398   0.41093   0.43950   0.46437
     Eigenvalues ---    0.46918   0.48134   0.52121   0.53404   0.54565
     Eigenvalues ---    0.54716   0.55219   0.59510   0.86575
 RFO step:  Lambda=-8.99571304D-05 EMin= 6.83816426D-03
 Quartic linear search produced a step of -0.09620.
 Iteration  1 RMS(Cart)=  0.01050651 RMS(Int)=  0.00003448
 Iteration  2 RMS(Cart)=  0.00004574 RMS(Int)=  0.00000069
 Iteration  3 RMS(Cart)=  0.00000000 RMS(Int)=  0.00000069
 Variable       Old X    -DE/DX   Delta X   Delta X   Delta X     New X
                                 (Linear)    (Quad)   (Total)
    R1        2.63084   0.00061   0.00126  -0.00125   0.00000   2.63084
    R2        2.60498   0.00083   0.00141  -0.00110   0.00030   2.60528
    R3        2.04288   0.00019   0.00136  -0.00208  -0.00072   2.04216
    R4        2.60740   0.00071   0.00137  -0.00130   0.00007   2.60746
    R5        2.55361   0.00007   0.00072  -0.00124  -0.00051   2.55310
    R6        2.62758   0.00105   0.00129  -0.00032   0.00097   2.62855
    R7        2.04258   0.00026   0.00136  -0.00188  -0.00052   2.04206
    R8        2.68648   0.00259   0.00122   0.00349   0.00472   2.69120
    R9        2.50569  -0.00008   0.00071  -0.00146  -0.00075   2.50494
   R10        2.66670   0.00103   0.00119   0.00002   0.00121   2.66791
   R11        2.77026   0.00148   0.00098   0.00191   0.00289   2.77315
   R12        2.56407   0.00008   0.00069  -0.00114  -0.00046   2.56362
   R13        1.81700  -0.00015   0.00035  -0.00090  -0.00055   1.81645
   R14        2.83921   0.00052   0.00068   0.00018   0.00087   2.84008
   R15        2.32967  -0.00047   0.00099  -0.00234  -0.00134   2.32832
   R16        2.05664   0.00005   0.00130  -0.00231  -0.00102   2.05563
   R17        2.05135   0.00008   0.00121  -0.00206  -0.00085   2.05050
   R18        2.05664   0.00004   0.00130  -0.00232  -0.00103   2.05562
   R19        1.88247   0.00037   0.00021   0.00030   0.00051   1.88298
   R20        1.81705  -0.00008   0.00039  -0.00087  -0.00047   1.81658
    A1        2.08149   0.00030  -0.00014   0.00112   0.00098   2.08247
    A2        2.08215  -0.00012   0.00004  -0.00030  -0.00026   2.08190
    A3        2.11954  -0.00019   0.00010  -0.00083  -0.00073   2.11882
    A4        2.11621  -0.00033   0.00018  -0.00194  -0.00176   2.11445
    A5        2.03360   0.00027  -0.00032   0.00179   0.00147   2.03507
    A6        2.13338   0.00006   0.00014   0.00015   0.00029   2.13367
    A7        2.08237   0.00067  -0.00025   0.00307   0.00282   2.08519
    A8        2.13041  -0.00034   0.00011  -0.00152  -0.00140   2.12900
    A9        2.07041  -0.00033   0.00014  -0.00156  -0.00141   2.06900
   A10        2.11975  -0.00051   0.00021  -0.00203  -0.00182   2.11793
   A11        2.04512  -0.00133  -0.00025  -0.00443  -0.00468   2.04044
   A12        2.11832   0.00184   0.00004   0.00646   0.00650   2.12482
   A13        2.03651  -0.00047  -0.00008  -0.00127  -0.00135   2.03516
   A14        2.06878   0.00233   0.00032   0.00767   0.00799   2.07677
   A15        2.17790  -0.00186  -0.00024  -0.00640  -0.00664   2.17126
   A16        2.13005   0.00033   0.00008   0.00105   0.00113   2.13118
   A17        2.08514  -0.00018   0.00008  -0.00079  -0.00072   2.08442
   A18        2.06799  -0.00015  -0.00016  -0.00025  -0.00041   2.06758
   A19        1.89927   0.00043  -0.00019   0.00279   0.00260   1.90187
   A20        2.13589  -0.00092   0.00014  -0.00359  -0.00345   2.13245
   A21        2.09433   0.00175  -0.00021   0.00674   0.00652   2.10085
   A22        2.05296  -0.00083   0.00007  -0.00315  -0.00307   2.04988
   A23        1.92907   0.00012  -0.00019   0.00102   0.00083   1.92990
   A24        1.87890   0.00012  -0.00011   0.00091   0.00079   1.87969
   A25        1.92906   0.00012  -0.00019   0.00102   0.00083   1.92990
   A26        1.93266  -0.00012   0.00015  -0.00096  -0.00081   1.93185
   A27        1.86220  -0.00012   0.00020  -0.00104  -0.00084   1.86135
   A28        1.93266  -0.00012   0.00015  -0.00096  -0.00081   1.93186
   A29        1.85352   0.00097   0.00009   0.00532   0.00541   1.85893
   A30        1.91053   0.00050   0.00016   0.00253   0.00270   1.91323
    D1        0.00002  -0.00000  -0.00000  -0.00011  -0.00011  -0.00008
    D2       -3.14159  -0.00000  -0.00000  -0.00003  -0.00003   3.14157
    D3       -3.14159  -0.00000  -0.00000  -0.00002  -0.00002   3.14157
    D4       -0.00002   0.00000   0.00000   0.00005   0.00005   0.00004
    D5        0.00000   0.00000   0.00000   0.00002   0.00002   0.00002
    D6        3.14154   0.00000   0.00001   0.00019   0.00020  -3.14144
    D7       -3.14157  -0.00000  -0.00000  -0.00006  -0.00007   3.14155
    D8       -0.00002   0.00000   0.00000   0.00011   0.00011   0.00009
    D9       -0.00000   0.00000   0.00000  -0.00000  -0.00000  -0.00000
   D10        3.14155   0.00000   0.00001   0.00018   0.00018  -3.14145
   D11       -3.14157  -0.00000  -0.00000  -0.00008  -0.00008   3.14153
   D12       -0.00003   0.00000   0.00000   0.00010   0.00010   0.00008
   D13       -3.14158  -0.00000  -0.00000  -0.00004  -0.00004   3.14156
   D14       -0.00001   0.00000   0.00000   0.00003   0.00003   0.00003
   D15       -0.00005   0.00000   0.00001   0.00019   0.00020   0.00015
   D16        3.14146   0.00001   0.00002   0.00052   0.00053  -3.14119
   D17        3.14159   0.00000   0.00000   0.00002   0.00002  -3.14158
   D18       -0.00009   0.00001   0.00001   0.00034   0.00035   0.00027
   D19        0.00007  -0.00001  -0.00001  -0.00027  -0.00027  -0.00020
   D20       -3.14147  -0.00001  -0.00002  -0.00048  -0.00050   3.14122
   D21       -3.14143  -0.00001  -0.00002  -0.00060  -0.00063   3.14113
   D22        0.00021  -0.00002  -0.00003  -0.00082  -0.00085  -0.00064
   D23       -3.14132  -0.00003  -0.00003  -0.00108  -0.00112   3.14075
   D24        0.00019  -0.00002  -0.00002  -0.00076  -0.00078  -0.00059
   D25       -0.00005   0.00000   0.00001   0.00016   0.00016   0.00012
   D26       -3.14159  -0.00000   0.00000  -0.00001  -0.00001   3.14158
   D27        3.14149   0.00001   0.00001   0.00039   0.00040  -3.14129
   D28       -0.00005   0.00000   0.00001   0.00022   0.00023   0.00017
   D29       -3.14149  -0.00000  -0.00002  -0.00016  -0.00017   3.14153
   D30        0.00029  -0.00002  -0.00003  -0.00150  -0.00154  -0.00124
   D31        0.00016  -0.00001  -0.00002  -0.00039  -0.00041  -0.00025
   D32       -3.14124  -0.00002  -0.00004  -0.00174  -0.00178   3.14016
   D33        0.00009  -0.00000  -0.00000  -0.00011  -0.00011  -0.00002
   D34       -3.14155   0.00000   0.00000   0.00006   0.00006  -3.14149
   D35        1.02890  -0.00001  -0.00001  -0.00076  -0.00077   1.02814
   D36       -3.14147  -0.00001  -0.00001  -0.00075  -0.00077   3.14095
   D37       -1.02866  -0.00001  -0.00001  -0.00075  -0.00076  -1.02942
   D38       -2.11288   0.00001   0.00001   0.00056   0.00056  -2.11231
   D39       -0.00006   0.00001   0.00000   0.00056   0.00056   0.00050
   D40        2.11275   0.00001   0.00000   0.00057   0.00057   2.11332
         Item               Value     Threshold  Converged?
 Maximum Force            0.002586     0.000450     NO 
 RMS     Force            0.000625     0.000300     NO 
 Maximum Displacement     0.048265     0.001800     NO 
 RMS     Displacement     0.010507     0.001200     NO 
 Predicted change in Energy=-5.062623D-05
 GradGradGradGradGradGradGradGradGradGradGradGradGradGradGradGradGradGrad

                          Input orientation:                          
 ---------------------------------------------------------------------
 Center     Atomic      Atomic             Coordinates (Angstroms)
 Number     Number       Type             X           Y           Z
 ---------------------------------------------------------------------
      1          6           0       -1.509606    1.245278    0.000039
      2          6           0       -2.246015    0.063808    0.000184
      3          6           0       -1.621399   -1.166528    0.000078
      4          6           0       -0.231815   -1.228571   -0.000180
      5          6           0        0.562583   -0.046599   -0.000154
      6          6           0       -0.132390    1.182296   -0.000113
      7          8           0        0.587447    2.332173   -0.000078
      8          6           0        2.024677   -0.172323    0.000049
      9          6           0        2.931136    1.026449    0.000005
     10          8           0        2.554240   -1.284806    0.001516
     11          8           0        0.314768   -2.436193   -0.000745
     12          8           0       -3.591205    0.189410    0.000361
     13          1           0       -2.029903    2.192446    0.000108
     14          1           0       -2.179592   -2.091807    0.000061
     15          1           0       -0.017257    3.079355    0.000044
     16          1           0        2.742105    1.648694    0.871994
     17          1           0        3.954626    0.666091    0.000847
     18          1           0        2.743218    1.647783   -0.872870
     19          1           0        1.301878   -2.300215   -0.001660
     20          1           0       -3.996766   -0.682140    0.000420
 ---------------------------------------------------------------------
                    Distance matrix (angstroms):
                    1          2          3          4          5
     1  C    0.000000
     2  C    1.392182   0.000000
     3  C    2.414396   1.379809   0.000000
     4  C    2.784363   2.393166   1.390968   0.000000
     5  C    2.441907   2.810767   2.454388   1.424123   0.000000
     6  C    1.378655   2.391322   2.781029   2.412916   1.411796
     7  O    2.361984   3.629598   4.137622   3.653778   2.378902
     8  C    3.807984   4.277215   3.779195   2.491469   1.467490
     9  C    4.446130   5.265887   5.053190   3.884505   2.600284
    10  O    4.787083   4.986101   4.177314   2.786623   2.345178
    11  O    4.108719   3.578773   2.315338   1.325558   2.402410
    12  O    2.334077   1.351042   2.391382   3.646392   4.160487
    13  H    1.080665   2.139580   3.383723   3.864774   3.425537
    14  H    3.403677   2.156638   1.080611   2.130495   3.420877
    15  H    2.364518   3.749785   4.538810   4.313266   3.179276
    16  H    4.358909   5.305964   5.265537   4.228894   2.895683
    17  H    5.494842   6.229823   5.869459   4.595219   3.466105
    18  H    4.360102   5.306943   5.266144   4.229164   2.896158
    19  H    4.524927   4.263350   3.135411   1.870999   2.371782
    20  H    3.146570   1.903042   2.424252   3.804397   4.603430
                    6          7          8          9         10
     6  C    0.000000
     7  O    1.356607   0.000000
     8  C    2.547142   2.887582   0.000000
     9  C    3.067488   2.682870   1.502905   0.000000
    10  O    3.647544   4.117137   1.232095   2.341785   0.000000
    11  O    3.646013   4.776156   2.837058   4.339963   2.518120
    12  O    3.598503   4.696016   5.627520   6.575832   6.319795
    13  H    2.149641   2.621077   4.693799   5.096219   5.753751
    14  H    3.861448   5.218055   4.621720   5.986907   4.802126
    15  H    1.900549   0.961221   3.839648   3.592692   5.065422
    16  H    3.039872   2.422850   2.142685   1.087790   3.065690
    17  H    4.119487   3.756824   2.104197   1.085077   2.401475
    18  H    3.040972   2.424357   2.142679   1.087786   3.065998
    19  H    3.766300   4.687157   2.247302   3.704211   1.612289
    20  H    4.290631   5.486446   6.042986   7.135481   6.578668
                   11         12         13         14         15
    11  O    0.000000
    12  O    4.706423   0.000000
    13  H    5.188620   2.539649   0.000000
    14  H    2.518022   2.682648   4.286867   0.000000
    15  H    5.525532   4.596182   2.199398   5.605052   0.000000
    16  H    4.831143   6.557444   4.881384   6.242973   3.228182
    17  H    4.782545   7.560873   6.176111   6.725670   4.647547
    18  H    4.830821   6.558529   4.882769   6.243445   3.229798
    19  H    0.996432   5.490037   5.593279   3.487703   5.538943
    20  H    4.654678   0.961290   3.483072   2.299843   5.475887
                   16         17         18         19         20
    16  H    0.000000
    17  H    1.787349   0.000000
    18  H    1.744865   1.787347   0.000000
    19  H    4.293182   3.979453   4.292221   0.000000
    20  H    7.183649   8.064884   7.184606   5.540198   0.000000
 Stoichiometry    C8H8O4
 Framework group  C1[X(C8H8O4)]
 Deg. of freedom    54
 Full point group                 C1      NOp   1
 Largest Abelian subgroup         C1      NOp   1
 Largest concise Abelian subgroup C1      NOp   1
                         Standard orientation:                         
 ---------------------------------------------------------------------
 Center     Atomic      Atomic             Coordinates (Angstroms)
 Number     Number       Type             X           Y           Z
 ---------------------------------------------------------------------
      1          6           0        1.508167    1.248580    0.000039
      2          6           0        2.247050    0.068656   -0.000106
      3          6           0        1.625014   -1.162986   -0.000000
      4          6           0        0.235563   -1.227941    0.000257
      5          6           0       -0.561310   -0.047636    0.000232
      6          6           0        0.131086    1.182712    0.000191
      7          8           0       -0.591159    2.331079    0.000155
      8          6           0       -2.023137   -0.176423    0.000029
      9          6           0       -2.932106    1.020447    0.000073
     10          8           0       -2.550368   -1.290014   -0.001438
     11          8           0       -0.308488   -2.436706    0.000822
     12          8           0        3.591974    0.197077   -0.000284
     13          1           0        2.026478    2.196836   -0.000030
     14          1           0        2.185145   -2.087093    0.000016
     15          1           0        0.011978    3.079526    0.000034
     16          1           0       -2.744380    1.643087   -0.871917
     17          1           0       -3.954839    0.657944   -0.000770
     18          1           0       -2.745491    1.642173    0.872948
     19          1           0       -1.295882   -2.302796    0.001737
     20          1           0        3.999360   -0.673622   -0.000342
 ---------------------------------------------------------------------
 Rotational constants (GHZ):      1.5625811      0.7731854      0.5188751
 Standard basis: CC-pVTZ (5D, 7F)
 There are   540 symmetry adapted cartesian basis functions of A   symmetry.
 There are   472 symmetry adapted basis functions of A   symmetry.
   472 basis functions,   760 primitive gaussians,   540 cartesian basis functions
    44 alpha electrons       44 beta electrons
       nuclear repulsion energy       701.3606070320 Hartrees.
 NAtoms=   20 NActive=   20 NUniq=   20 SFac= 1.00D+00 NAtFMM=   60 NAOKFM=F Big=F
 Integral buffers will be    131072 words long.
 Raffenetti 2 integral format.
 Two-electron integral symmetry is turned on.
 One-electron integrals computed using PRISM.
 NBasis=   472 RedAO= T EigKep=  3.88D-05  NBF=   472
 NBsUse=   472 1.00D-06 EigRej= -1.00D+00 NBFU=   472
 Initial guess from the checkpoint file:  "ccpvTZdzTHAP.chk"
 B after Tr=    -0.000000    0.000000    0.000000
         Rot=    0.999999   -0.000021    0.000031   -0.001489 Ang=  -0.17 deg.
 ExpMin= 1.03D-01 ExpMax= 1.53D+04 ExpMxC= 5.22D+02 IAcc=1 IRadAn=         1 AccDes= 0.00D+00
 Harris functional with IExCor= 1009 and IRadAn=       1 diagonalized for initial guess.
 HarFok:  IExCor= 1009 AccDes= 0.00D+00 IRadAn=         1 IDoV= 1 UseB2=F ITyADJ=14
 ICtDFT=  3500011 ScaDFX=  1.000000  1.000000  1.000000  1.000000
 FoFCou: FMM=F IPFlag=           0 FMFlag=      100000 FMFlg1=           0
[...]
 4022750,-0.05750189,-0.00000214,-0.00189340,0.01687278,0.00000057,0.00
 560671,-0.00734301,-0.00000021,-0.01371354,0.00061791,0.00000021,0.026
 26037,0.01339376,0.00000043,-0.17556049,-0.06629628,-0.00000181,0.4631
 4187,-0.02328899,-0.01490765,-0.00000103,0.00299150,0.00589398,-0.0000
 0026,-0.00189562,-0.00531737,-0.00000004,0.00392814,-0.00127774,-0.000
 00010,-0.00968467,-0.04944447,-0.00000215,-0.12114748,-0.25344180,-0.0
 0000708,-0.11575435,0.63572485,-0.00000057,-0.00000103,0.01386162,0.00
 000010,-0.00000026,0.00945344,-0.00000016,-0.00000010,-0.00140786,0.00
 000015,-0.00000025,0.00408249,-0.00000026,-0.00000222,0.00541777,-0.00
 000489,-0.00000799,-0.04867403,-0.00001203,0.00003068,0.03089471,0.013
 61876,0.00660639,0.00000028,-0.01061630,-0.00706199,-0.00000022,0.0003
 3130,-0.00397604,0.00000003,-0.02493555,-0.04780929,-0.00000275,-0.199
 34113,-0.01185484,-0.00000379,-0.01774280,0.04121660,0.00000086,-0.007
 82886,-0.01668930,-0.00000061,0.59378169,-0.00191840,-0.00795573,-0.00
 000044,0.00273963,0.00022669,0.00000001,-0.00240828,-0.00676190,-0.000
 00042,-0.03554275,0.03773331,0.00000120,-0.03031495,-0.11425171,-0.000
 00195,0.03736131,-0.00045061,0.00000057,-0.00239121,0.00252258,0.00000
 021,-0.09651995,0.83548585,0.00000006,-0.00000049,0.00566220,0.0000001
 6,-0.00000023,-0.00120691,-0.00000022,-0.00000011,0.00438050,-0.000000
 16,0.00000099,0.00254040,-0.00000299,-0.00000130,-0.07180964,0.0000014
 1,0.00000018,-0.00502388,-0.00000004,0.00000037,-0.00300801,-0.0000052
 6,0.00001934,0.22925535,-0.00077836,-0.00032591,-0.00000001,0.00063427
 ,0.00024437,0.00000001,-0.00005196,-0.00160551,-0.00000018,-0.00528274
 ,0.00376825,0.00000031,-0.01218472,-0.02374351,0.00000105,0.00067326,-
 0.00024287,-0.00000015,-0.00853580,0.00670000,0.00000032,-0.15191280,-
 0.07004842,-0.00000003,0.56418383,-0.00088932,-0.00028490,0.,0.0007494
 6,0.00009818,0.,-0.00017875,0.00171513,0.00000009,0.00431622,-0.000521
 69,-0.00000006,-0.00353584,0.00905611,0.00000080,0.00002164,-0.0026814
 5,-0.00000011,0.00394885,-0.00013531,-0.00000019,-0.05327034,-0.139239
 42,0.00000068,-0.07022319,0.53611289,0.,-0.00000002,-0.00011500,-0.000
 00011,0.00000010,0.00021292,0.00000009,-0.00000006,-0.00161371,-0.0000
 0022,-0.00000024,0.00280171,-0.00000031,-0.00000013,0.01420524,-0.0000
 0002,0.00000028,-0.00037964,-0.00000020,-0.00000014,-0.00121532,0.0000
 0274,0.00000395,-0.08878011,0.00000160,0.00000045,0.53288265,-0.002734
 21,0.00174905,0.00000002,0.00419765,-0.00034155,-0.00000005,-0.0030841
 1,0.00391938,0.00000008,0.00971847,-0.00174502,-0.00000059,-0.03687318
 ,0.05681158,0.00000212,-0.00658991,-0.01467528,-0.00000044,0.00340231,
 0.00536956,0.00000022,-0.20176360,0.20830950,0.00000742,0.01870695,-0.
 01752472,0.00000009,0.26163960,0.00890563,0.00520455,0.00000025,-0.005
 01313,-0.00881550,-0.00000030,-0.00470882,0.00468529,0.00000026,0.0061
 5208,-0.04442607,-0.00000233,0.06743434,-0.01269866,-0.00000078,-0.009
 02633,0.01529083,0.00000015,0.00050894,-0.00296887,-0.00000018,0.16845
 849,-0.54886346,-0.00001771,0.01217295,-0.06472756,-0.00000216,-0.2257
 1647,0.63588679,0.00000066,0.00000049,-0.00141635,-0.00000026,-0.00000
 085,0.00027943,-0.00000068,0.00000065,0.00034038,0.00000067,-0.0000036
 7,-0.00293985,0.00000297,-0.00000066,0.01978849,-0.00000070,0.00000069
 ,0.00551137,0.00000005,-0.00000015,0.00024359,0.00000483,-0.00001843,-
 0.07207477,0.00000109,-0.00000060,0.02489895,-0.00000890,0.00001939,0.
 03501639,0.01119316,0.01106987,0.00000033,-0.00495963,-0.02387887,-0.0
 0000076,-0.04566390,0.06901416,0.00000451,-0.15424838,0.09909218,0.000
 00803,0.03752824,-0.00870645,0.00000035,-0.01702080,0.00502404,0.00000
 019,0.00341392,-0.00052109,-0.00000004,-0.03371931,0.02828941,0.000000
 21,0.00216873,-0.00414915,0.00000031,-0.03726760,-0.06245615,-0.000007
 06,0.57573620,-0.00177517,-0.00871310,-0.00000019,-0.00457107,0.011471
 53,-0.00000002,0.03529032,-0.01266624,-0.00000265,0.07345926,-0.323449
 86,-0.00001358,-0.00299508,-0.05320598,-0.00000413,-0.00240091,-0.0008
 0956,-0.00000057,0.00069394,-0.00192799,-0.00000003,0.02508073,-0.0099
 7098,0.00000006,-0.00057675,-0.00073537,0.00000010,-0.01954066,0.01453
 769,0.,-0.05633693,0.45174134,-0.00000057,-0.00000060,-0.00131762,-0.0
 0000003,0.00000107,0.00527061,0.00000303,-0.00000283,0.01078455,0.0000
 0710,-0.00001715,-0.05658738,-0.00000024,-0.00000307,0.01317174,0.0000
 0026,-0.00000059,0.00637514,-0.00000005,-0.00000022,0.00007405,0.00000
 230,-0.00000088,-0.00365136,-0.00000012,-0.00000004,-0.00064131,-0.000
 00170,0.00000115,0.00825206,-0.00002965,0.00002137,0.04577276,-0.05053
 340,-0.01404178,-0.00000029,-0.32622623,0.04916766,0.00000255,-0.04895
 771,0.01210694,0.00000047,0.01293811,0.00518665,0.00000015,-0.01591695
 ,-0.00118491,0.00000008,0.00914226,-0.00333880,-0.00000020,-0.00191065
 ,-0.00117573,-0.00000003,0.01287308,-0.00283219,-0.00000013,-0.0005873
 7,-0.00097140,0.00000012,-0.00481720,0.00498859,0.00000021,-0.00233491
 ,0.00095187,0.00000018,0.53111446,-0.05006011,0.00760139,0.00000014,-0
 .00136699,-0.11843430,-0.00000220,0.04860170,0.00169576,-0.00000051,-0
 .00932774,-0.00758613,-0.00000063,-0.00005090,0.00550301,0.00000022,0.
 00715187,-0.00983109,-0.00000049,-0.00347854,-0.00037882,0.,0.00070515
 ,0.00003969,0.00000005,0.00005502,0.00005241,-0.00000003,0.00011528,0.
 00128662,0.00000013,0.00450588,-0.00050771,-0.00000017,0.14915952,0.56
 820344,-0.00000137,0.00000016,0.00817335,0.00000079,-0.00000242,-0.050
 41077,0.00000206,-0.00000076,0.01321979,-0.00000038,-0.00000079,0.0094
 8535,0.00000011,0.00000031,-0.00150323,0.00000014,-0.00000044,0.004645
 34,-0.00000009,0.,-0.00034110,-0.00000006,0.00000002,-0.00030374,0.000
 00001,0.,0.00015586,0.00000006,0.00000003,-0.00007478,0.00000007,0.000
 00013,-0.00063919,0.00000302,0.00001683,0.03279020,-0.12235186,0.11908
 199,0.00000454,0.01217806,-0.01493969,-0.00000051,-0.00167183,-0.00306
 123,-0.00000008,-0.00139350,-0.00068881,-0.00000003,-0.00503677,-0.001
 70650,-0.00000010,-0.01007739,0.02773870,0.00000097,0.00293090,0.00115
 794,0.00000004,0.00089418,0.00120127,0.00000008,0.00000958,-0.00003548
 ,0.,-0.00080891,0.00050905,0.00000003,0.00059855,-0.00010853,-0.000000
 01,0.00090258,0.00102365,0.,0.12517769,0.11801105,-0.27433765,-0.00000
 807,0.01704574,-0.01943822,-0.00000081,-0.00416667,-0.00258229,-0.0000
 0019,-0.00136334,-0.00000529,0.00000005,-0.00010642,0.00159528,-0.0000
 0011,-0.00319633,-0.00042276,-0.00000004,-0.00101701,0.00326815,0.0000
 0030,-0.00054673,0.00004273,-0.00000005,0.00000786,0.00003598,0.,0.000
 23401,0.00004313,0.00000003,0.00032247,0.00012633,-0.00000002,0.000893
 83,0.00195959,0.00000016,-0.12799969,0.28995787,0.00000448,-0.00000807
 ,-0.02466214,0.00000051,-0.00000053,0.00282069,0.00000004,-0.00000033,
 0.00420496,-0.00000007,0.00000003,-0.00178002,-0.00000011,-0.00000006,
 0.00500165,-0.00000021,-0.00000023,0.00220850,0.00000002,0.00000045,-0
 .00520850,0.00000003,-0.00000008,0.00143895,0.,0.,-0.00018323,0.,0.000
 00004,-0.00055837,0.00000002,-0.00000002,0.00012002,0.00000006,0.00000
 015,-0.00333451,-0.00000480,0.00000881,0.01869668,-0.00068495,0.002955
 75,0.00000013,0.00876517,0.01345458,0.00000063,-0.13305811,-0.12430037
 ,-0.00000522,-0.01151091,-0.03023735,-0.00000129,-0.00502224,0.0019709
 1,0.00000004,-0.00135355,0.00120878,0.00000004,0.00032597,-0.00016503,
 -0.00000001,0.00022879,-0.00208772,-0.00000004,-0.00047986,0.00028893,
 0.,0.00021834,0.00074712,0.00000008,0.00339683,0.00034275,-0.00000010,
 0.00324965,0.00032577,-0.00000002,0.00054690,0.00067396,0.,0.13635228,
 0.00377627,-0.00257579,-0.00000030,-0.01793277,-0.01750046,-0.00000086
 ,-0.12621323,-0.26628036,-0.00000918,0.00162714,0.00369040,0.00000004,
 0.00040870,0.00083951,-0.00000015,0.00095888,-0.00009591,0.00000003,-0
 .00014762,0.00025588,0.00000001,0.00053221,-0.00004113,0.,0.00001191,-
 0.00001236,0.,-0.00009384,0.00026698,0.,0.00026133,0.00012285,0.000000
 16,-0.00051604,0.00280840,0.00000034,-0.00078370,-0.00088190,-0.000000
 05,0.13599762,0.28027258,-0.00000009,-0.00000038,0.00501109,-0.0000009
 3,-0.00000041,0.00186616,-0.00000487,-0.00000958,-0.02741419,-0.000000
 39,0.00000020,0.00402867,0.00000012,-0.00000014,0.00460883,0.00000032,
 -0.00000006,-0.00117412,-0.00000010,-0.00000004,-0.00019029,0.00000003
 ,0.00000001,0.00055469,0.,0.,-0.00012456,0.,0.00000004,-0.00007685,-0.
 00000003,0.00000019,-0.00389055,0.00000007,0.00000028,-0.00456653,-0.0
 0000003,-0.00000006,0.00076758,0.00000581,0.00001001,0.02048279,0.0001
 0987,-0.00591383,-0.00000023,-0.00109303,-0.00000912,-0.00000002,-0.00
 028837,0.00002707,0.00000001,0.00095676,-0.00099930,-0.00000005,-0.001
 69854,-0.00370125,-0.00000014,0.01571549,-0.02249538,-0.00000130,-0.25
 078820,0.26617080,0.00001737,-0.00047112,-0.00030522,-0.00000001,-0.00
 133643,0.00004493,-0.00000002,0.00011248,-0.00019721,-0.00000002,-0.00
 059335,0.00030696,0.00000002,0.00012585,0.00014308,0.,-0.00159226,0.00
 116650,0.00000005,-0.00009481,0.00015008,0.00000001,0.24112337,0.00290
 303,0.00549033,0.00000031,-0.00050925,-0.00229088,0.00000005,-0.000795
 42,0.00121189,0.00000004,0.00278487,-0.00095963,-0.00000012,-0.0064389
 7,-0.00147702,-0.00000021,0.02445872,-0.04274184,-0.00000219,0.2141192
 6,-0.31661339,-0.00001895,0.00099950,-0.00008841,0.00000002,-0.0004264
 8,0.00008357,0.00000004,-0.00055197,0.00048807,0.00000002,-0.00086204,
 0.00024636,0.00000003,0.00096827,0.00053440,0.,-0.00131209,0.00034734,
 -0.00000012,-0.00006449,0.00007057,0.,-0.23541824,0.35550317,0.0000001
 2,0.00000036,-0.00185311,0.,-0.00000005,-0.00102810,-0.00000007,0.0000
 0003,0.00001319,0.00000007,-0.00000003,0.00163924,-0.00000018,-0.00000
 015,0.00244230,0.00000110,-0.00000125,-0.00156587,0.00001475,-0.000020
 13,-0.00527666,0.00000003,0.,-0.00055483,-0.00000003,0.00000004,-0.000
 07425,-0.00000002,0.00000004,-0.00009561,-0.00000002,0.00000007,-0.000
 25008,0.00000005,0.00000004,-0.00004803,-0.00000007,-0.00000004,0.0010
 3223,0.,0.,0.00002931,-0.00001578,0.00002112,0.00504284,-0.00007750,0.
 00015279,0.00010482,0.00016711,-0.00014011,0.00003607,-0.00010440,0.00
 040349,-0.00025258,0.00059945,0.00025777,0.00038461,-0.00235159,0.0009
 0239,0.00209501,-0.00100544,-0.00287033,-0.00040568,-0.00163895,0.0019
 0638,-0.00073537,0.00777837,-0.00688812,-0.02074616,-0.05546186,0.0241
 6382,0.03822241,-0.00089517,-0.00334267,0.00250204,-0.00045640,-0.0001
 1042,-0.00001262,-0.00023947,0.00005673,0.00001897,-0.00004549,0.00002
 528,-0.00006033,0.00001001,-0.00000279,-0.00002268,-0.00015405,0.00018
 285,-0.00000051,0.05540245,0.00004393,0.00000143,-0.00017270,-0.000055
 23,-0.00010897,-0.00003913,-0.00013910,0.00003355,-0.00026239,0.000213
 46,-0.00052956,0.00046463,-0.00019998,0.00047103,0.00232363,-0.0003323
 2,0.00052743,-0.00035162,0.00115587,-0.00088326,0.00087182,0.00785032,
 -0.01505007,-0.02257511,0.02484363,-0.13016741,-0.13256483,-0.00382295
 ,-0.00481080,0.00308010,-0.00080854,0.00018003,-0.00010335,0.00005251,
 -0.00000281,0.00005018,0.00001223,-0.00000308,0.00000345,0.00001359,-0
 .00000069,-0.00001513,0.00029907,0.00005137,0.00025263,-0.02812747,0.1
 4425187,0.00045649,0.00039978,-0.00011924,-0.00007313,-0.00035051,-0.0
 0006204,-0.00013516,0.00015159,0.00004579,0.00008558,-0.00008056,0.000
 12385,-0.00028545,-0.00022879,0.00021838,-0.00071851,-0.00164165,-0.00
 006885,0.00174973,0.00027554,0.00043987,-0.00032033,0.00196296,0.00108
 779,0.03722401,-0.12845196,-0.21743663,-0.00024370,0.00123850,-0.00098
 454,-0.00012993,0.00018839,-0.00002769,0.00007134,0.00006466,0.0000070
 3,-0.00003205,0.00003058,0.00003232,-0.00001178,0.00000511,-0.00000585
 ,0.00039070,0.00002490,0.00011369,-0.04190913,0.13938214,0.23646610,-0
 .00016027,-0.00005167,0.,0.00024026,0.00005767,0.,-0.00009465,-0.00040
 811,-0.00000004,-0.00103784,0.00136817,0.00000010,-0.00028435,-0.00403
 615,0.00000004,0.00070080,-0.00007111,-0.00000002,-0.00007212,0.000483
 76,0.00000004,-0.02507477,0.00839345,0.00000025,-0.29232196,0.08753544
 ,0.00000269,0.00494395,0.00273167,0.00000003,0.00098947,-0.00035833,-0
 .00000003,-0.00023460,0.00000194,0.,-0.00000981,0.00001901,0.,-0.00012
 104,0.00000017,0.,-0.00005020,-0.00019801,0.,-0.00191510,0.00012563,-0
 .00010808,0.31729263,0.00027789,0.00034621,0.00000001,0.00003036,-0.00
 026351,0.,-0.00016578,-0.00028042,-0.00000003,-0.00117165,0.00063038,0
 .00000003,-0.00151177,-0.00448025,-0.00000002,-0.00037508,-0.00159709,
 -0.00000005,0.00198695,-0.00000188,-0.00000003,-0.02989525,0.00781862,
 0.00000033,0.09469936,-0.08075319,-0.00000080,0.00100892,0.00184131,0.
 00000009,0.00040807,0.00006787,0.,-0.00001990,0.00006276,0.,-0.0000469
 7,0.00003146,0.,-0.00013595,0.00001419,0.,0.00033803,0.00014031,0.,0.0
 1526910,-0.00506433,0.00263842,-0.09534666,0.08670364,0.,0.,-0.0001813
 3,0.,0.,-0.00000412,0.,0.00000003,-0.00014560,0.00000003,-0.00000001,0
 .00044007,-0.00000013,0.00000010,0.00151004,-0.00000002,-0.00000008,-0
 .00027304,0.00000022,-0.00000011,0.00103756,0.00000090,-0.00000021,-0.
 00126368,0.00000261,-0.00000077,-0.04982652,-0.00000013,-0.00000006,-0
 .00122250,0.,-0.00000002,-0.00003910,-0.00000001,0.,0.00001221,0.,0.,0
 .00002332,0.,0.,-0.00001297,0.00000003,0.,0.00015906,0.02442612,-0.006
 37763,0.00186247,-0.00000323,0.00000071,0.04604181,-0.00007758,0.00015
 273,-0.00010483,0.00016715,-0.00014008,-0.00003607,-0.00010441,0.00040
 347,0.00025262,0.00059948,0.00025791,-0.00038461,-0.00235152,0.0009022
 5,-0.00209502,-0.00100533,-0.00287016,0.00040559,-0.00163775,0.0019053
 7,0.00073571,0.00777829,-0.00688817,0.02074592,-0.05546344,0.02416714,
 -0.03822842,-0.00089532,-0.00334199,-0.00250214,-0.00045639,-0.0001104
 7,0.00001262,-0.00023952,0.00005673,-0.00001897,-0.00004549,0.00002528
 ,0.00006033,0.00001001,-0.00000279,0.00002269,-0.00015394,0.00018284,0
 .00000056,-0.00021014,-0.00205739,0.00388955,-0.00191616,0.01526815,-0
 .02442643,0.05540379,0.00004396,0.00000144,0.00017268,-0.00005523,-0.0
 0010902,0.00003912,-0.00013913,0.00003353,0.00026242,0.00021347,-0.000
 52947,-0.00046469,-0.00019981,0.00047097,-0.00232376,-0.00033229,0.000
 52745,0.00035164,0.00115482,-0.00088262,-0.00087185,0.00785073,-0.0150
 4952,0.02257472,0.02484748,-0.13016199,0.13256410,-0.00382289,-0.00481
 006,-0.00308057,-0.00080858,0.00018001,0.00010339,0.00005252,-0.000002
 80,-0.00005018,0.00001223,-0.00000308,-0.00000345,0.00001359,-0.000000
 69,0.00001513,0.00029895,0.00005138,-0.00025266,-0.00205819,0.01072894
 ,-0.01567079,0.00012588,-0.00506428,0.00637801,-0.02813041,0.14424437,
 -0.00045648,-0.00039976,-0.00011928,0.00007316,0.00035047,-0.00006201,
 0.00013513,-0.00015157,0.00004576,-0.00008555,0.00008065,0.00012392,0.
 00028528,0.00022867,0.00021854,0.00071859,0.00164161,-0.00006873,-0.00
 174924,-0.00027571,0.00043985,0.00031985,-0.00196321,0.00108671,-0.037
 23058,0.12845111,-0.21744163,0.00024370,-0.00123814,-0.00098449,0.0001
 2995,-0.00018842,-0.00002773,-0.00007137,-0.00006466,0.00000703,0.0000
 3205,-0.00003058,0.00003232,0.00001178,-0.00000511,-0.00000586,-0.0003
 9063,-0.00002493,0.00011367,-0.00389030,0.01566988,-0.02159639,0.00010
 833,-0.00263863,0.00186306,0.04191616,-0.13938002,0.23647131,-0.005031
 93,-0.00512854,-0.00000018,0.00016049,0.00874172,0.00000048,0.01043801
 ,-0.00572179,-0.00000018,-0.03575168,0.04212131,0.00000395,-0.01663585
 ,-0.00460563,-0.00000078,0.00337794,-0.00415132,-0.00000018,-0.0010398
 0,-0.00102762,0.,0.03712909,-0.02843446,-0.00000049,-0.00209501,0.0054
 5594,-0.00000074,-0.00778552,0.04134273,0.00000706,-0.33954555,-0.0465
 1204,0.00001971,-0.00051286,-0.00130772,-0.00000009,-0.00031045,-0.000
 12946,-0.00000002,-0.00053939,0.00007264,-0.00000004,0.00016528,0.0000
 1820,0.,0.00058777,0.00093218,0.00010389,-0.00091496,-0.00063163,0.000
 00001,0.00058785,0.00093233,-0.00010386,0.35818248,-0.00328382,-0.0023
 7889,-0.00000009,0.00258441,0.00508815,0.00000011,0.00493412,-0.009013
 08,-0.00000070,0.04544549,0.01280825,-0.00000183,-0.00849934,-0.002180
 99,0.00000003,0.00326183,-0.00326121,0.00000001,-0.00052608,0.00068510
 ,0.00000004,0.00949180,-0.02640516,-0.00000175,-0.00016294,0.00218148,
 -0.00000061,0.00997029,0.01316871,0.00000338,-0.05954665,-0.06650444,0
 .00000176,-0.00090653,-0.00110867,0.,-0.00022568,-0.00004826,0.,-0.000
 30170,0.00007230,0.00000001,0.00012429,-0.00001913,0.,0.00019318,0.000
 38142,0.00006565,-0.00038034,-0.00014706,0.,0.00019325,0.00038156,-0.0
 0006562,-0.00221687,0.07616303,-0.00000021,-0.00000024,-0.00016519,0.0
 0000014,0.00000031,0.00220628,0.00000023,-0.00000064,0.00308827,0.0000
 0296,0.00000196,0.00056678,-0.00000108,-0.00000020,-0.00286749,0.00000
 027,-0.00000014,-0.00055987,-0.00000007,0.00000010,-0.00008053,0.00000
 117,-0.00000267,0.00170358,0.00000008,0.00000054,0.00272096,0.00000183
 ,0.00000183,-0.01392063,0.00002350,-0.00000063,-0.02272748,-0.00000016
 ,-0.00000004,-0.00051829,-0.00000003,0.,0.00000532,-0.00000004,0.00000
 002,-0.00068975,0.00000002,0.,0.00006177,0.00025792,0.00036274,-0.0001
 0608,-0.00000008,-0.00000004,0.00001298,-0.00025786,-0.00036255,-0.000
 10607,-0.00002857,-0.00000039,0.03129517,-0.00543915,0.00371984,0.0000
 0015,-0.02886443,-0.04772952,-0.00000153,0.00368304,-0.00066619,-0.000
 00005,-0.00203466,0.00003839,0.00000003,0.00112629,0.00058074,0.000000
 02,-0.00027705,-0.00244195,-0.00000008,-0.00023498,0.00073642,0.000000
 02,-0.00100732,0.00028526,0.00000002,0.00011568,0.00008581,-0.00000002
 ,0.00057496,-0.00014883,0.00000001,0.00124111,-0.00072949,-0.00000008,
 -0.11783513,-0.14631032,-0.00000428,0.00010531,0.00010065,0.,-0.000239
 09,0.00189583,0.00000010,0.00000521,-0.00004056,0.,0.00001041,0.000000
 57,-0.00000404,0.00004074,0.00001379,0.,0.00001042,0.00000057,0.000004
 05,-0.00046591,-0.00014873,0.,0.14948454,0.00200814,0.00204752,-0.0000
 0003,0.00031682,0.00272193,0.00000018,0.00641224,0.00294653,0.00000019
 ,-0.00073741,-0.00123767,-0.00000002,0.00129297,0.00012194,-0.00000001
 ,-0.00053429,0.00039990,-0.00000005,0.00000291,-0.00016937,0.,-0.00116
 817,0.00025863,0.,0.00000474,0.00008488,0.,0.00034777,-0.00057899,-0.0
 0000003,0.00008706,-0.00018277,-0.00000001,-0.19854108,-0.45189515,-0.
 00001358,0.00017130,0.00031468,0.00000003,-0.00070075,-0.00102436,-0.0
 0000009,-0.00003021,-0.00002847,0.,0.00002632,-0.00000610,-0.00000398,
 0.00000758,-0.00000475,0.,0.00002632,-0.00000610,0.00000398,0.00025001
 ,0.00013689,0.00000002,0.19075772,0.44610084,0.00000014,-0.00000004,0.
 00291462,0.00000014,0.00000029,-0.00182857,0.00000020,0.00000024,-0.00
 196264,-0.00000003,0.00000002,-0.00088104,0.00000002,-0.00000002,-0.00
 004426,-0.00000002,-0.00000003,0.00218737,0.00000001,0.00000002,-0.000
 54265,-0.00000003,0.,-0.00003324,0.,0.,-0.00004637,0.,-0.00000002,0.00
 001809,0.00000002,-0.00000003,-0.00002144,-0.00000613,-0.00001377,-0.0
 0675599,0.,0.00000003,-0.00065778,-0.00000003,-0.00000010,0.00080240,0
 .,0.,0.00009924,-0.00001261,0.00000069,0.00001002,0.,0.,0.00000625,0.0
 0001261,-0.00000069,0.00001002,0.00000002,0.,0.00008024,0.00000568,0.0
 0001341,0.00664573\\0.00001676,0.00001070,0.00000026,-0.00006662,-0.00
 002695,-0.00000002,-0.00001203,0.00002759,-0.00000017,0.00003892,-0.00
 010771,0.00000166,0.00002922,0.00001702,-0.00000289,-0.00000126,0.0000
 5711,-0.00000169,-0.00000747,-0.00002430,0.00000008,-0.00001937,-0.000
 01502,0.00001280,-0.00001027,0.00000189,-0.00000593,0.00000447,-0.0000
 0213,-0.00000164,-0.00004400,0.00004924,0.00000143,0.00002523,-0.00000
 510,-0.00000006,-0.00000948,0.00001245,0.00000005,-0.00000465,-0.00002
 100,0.00000020,0.00000380,-0.00000839,0.00000009,-0.00000137,0.0000148
 0,0.00000724,0.00000991,0.00000053,0.00000013,0.00000056,0.00001630,-0
 .00000672,0.00003665,-0.00000284,-0.00000476,0.00001099,0.00000582,-0.
 00000005\\\@


 MUD THROWN IS GROUND LOST -- FROM A TEA BAG
 Job cpu time:       0 days  2 hours 15 minutes 52.6 seconds.
 File lengths (MBytes):  RWF=    347 Int=      0 D2E=      0 Chk=     17 Scr=      1
 Normal termination of Gaussian 09 at Thu Dec 19 22:19:12 2024.
