 Entering Gaussian System, Link 0=g09
 Input=pvdzDMANyang.gjf
 Output=pvdzDMANyang.log
 Initial command:
 /home/c612/g09E/g09/l1.exe "/mnt/ja_sm883/scratch/Gau-3912904.inp" -scrdir="/mnt/ja_sm883/scratch/"
 Default is to use a total of  18 processors:
                               18 via shared-memory
                                1 via Linda
 Entering Link 1 = /home/c612/g09E/g09/l1.exe PID=   3912906.
  
 Copyright (c) 1988,1990,1992,1993,1995,1998,2003,2009,2015,
            Gaussian, Inc.  All Rights Reserved.
  
 This is part of the Gaussian(R) 09 program.  It is based on
 the Gaussian(R) 03 system (copyright 2003, Gaussian, Inc.),
 the Gaussian(R) 98 system (copyright 1998, Gaussian, Inc.),
 the Gaussian(R) 94 system (copyright 1995, Gaussian, Inc.),
 the Gaussian 92(TM) system (copyright 1992, Gaussian, Inc.),
 the Gaussian 90(TM) system (copyright 1990, Gaussian, Inc.),
 the Gaussian 88(TM) system (copyright 1988, Gaussian, Inc.),
 the Gaussian 86(TM) system (copyright 1986, Carnegie Mellon
 University), and the Gaussian 82(TM) system (copyright 1983,
 Carnegie Mellon University). Gaussian is a federally registered
 trademark of Gaussian, Inc.
  
 This software contains proprietary and confidential information,
 including trade secrets, belonging to Gaussian, Inc.
  
 This software is provided under written license and may be
 used, copied, transmitted, or stored only in accord with that
 written license.
  
 The following legend is applicable only to US Government
 contracts under FAR:
  
                    RESTRICTED RIGHTS LEGEND
  
 Use, reproduction and disclosure by the US Government is
 subject to restrictions as set forth in subparagraphs (a)
 and (c) of the Commercial Computer Software - Restricted
 Rights clause in FAR 52.227-19.
  
 Gaussian, Inc.
 340 Quinnipiac St., Bldg. 40, Wallingford CT 06492
  
  
 ---------------------------------------------------------------
 Warning -- This program may not be used in any manner that
 competes with the business of Gaussian, Inc. or will provide
 assistance to any competitor of Gaussian, Inc.  The licensee
 of this program is prohibited from giving any competitor of
 Gaussian, Inc. access to this program.  By using this program,
 the user acknowledges that Gaussian, Inc. is engaged in the
 business of creating and licensing software in the field of
 computational chemistry and represents and warrants to the
 licensee that it is not a competitor of Gaussian, Inc. and that
 it will not use this program in any manner prohibited above.
 ---------------------------------------------------------------
  

 Cite this work as:
 Gaussian 09, Revision E.01,
 M. J. Frisch, G. W. Trucks, H. B. Schlegel, G. E. Scuseria, 
 M. A. Robb, J. R. Cheeseman, G. Scalmani, V. Barone, B. Mennucci, 
 G. A. Petersson, H. Nakatsuji, M. Caricato, X. Li, H. P. Hratchian, 
 A. F. Izmaylov, J. Bloino, G. Zheng, J. L. Sonnenberg, M. Hada, 
 M. Ehara, K. Toyota, R. Fukuda, J. Hasegawa, M. Ishida, T. Nakajima, 
 Y. Honda, O. Kitao, H. Nakai, T. Vreven, J. A. Montgomery, Jr., 
 J. E. Peralta, F. Ogliaro, M. Bearpark, J. J. Heyd, E. Brothers, 
 K. N. Kudin, V. N. Staroverov, T. Keith, R. Kobayashi, J. Normand, 
 K. Raghavachari, A. Rendell, J. C. Burant, S. S. Iyengar, J. Tomasi, 
 M. Cossi, N. Rega, J. M. Millam, M. Klene, J. E. Knox, J. B. Cross, 
 V. Bakken, C. Adamo, J. Jaramillo, R. Gomperts, R. E. Stratmann, 
 O. Yazyev, A. J. Austin, R. Cammi, C. Pomelli, J. W. Ochterski, 
 R. L. Martin, K. Morokuma, V. G. Zakrzewski, G. A. Voth, 
 P. Salvador, J. J. Dannenberg, S. Dapprich, A. D. Daniels, 
 O. Farkas, J. B. Foresman, J. V. Ortiz, J. Cioslowski, 
 and D. J. Fox, Gaussian, Inc., Wallingford CT, 2013.
 
 ******************************************
 Gaussian 09:  ES64L-G09RevE.01 30-Nov-2015
                15-Dec-2024 
 ******************************************
 %chk=pvdzDMANyang.chk
 ----------------------------
 # opt freq m062x/aug-cc-pvdz
 ----------------------------
 1/14=-1,18=20,19=15,26=3,38=1/1,3;
 2/9=110,12=2,17=6,18=5,40=1/2;
 3/5=16,7=10,11=2,16=1,25=1,30=1,71=1,74=-55/1,2,3;
 4//1;
 5/5=2,38=5/2;
 6/7=2,8=2,9=2,10=2,28=1/1;
 7//1,2,3,16;
 1/14=-1,18=20,19=15,26=3/3(2);
 2/9=110/2;
 99//99;
 2/9=110/2;
 3/5=16,7=10,11=2,16=1,25=1,30=1,71=1,74=-55/1,2,3;
 4/5=5,16=3,69=1/1;
 5/5=2,38=5/2;
 7//1,2,3,16;
 1/14=-1,18=20,19=15,26=3/3(-5);
 2/9=110/2;
 6/7=2,8=2,9=2,10=2,19=2,28=1/1;
 99/9=1/99;
 ----------
 [No Title]
 ----------
 Symbolic Z-matrix:
 Charge =  1 Multiplicity = 1
 C                    -0.76651  -2.42908  -0.00006 
 C                    -2.17813  -2.37922  -0.00003 
 C                    -2.814    -1.16497   0. 
 C                    -2.08035   0.05086   0.00002 
 C                    -0.65186   0.02027   0.00001 
 C                    -0.03806  -1.26864  -0.00004 
 C                    -2.75618   1.2989    0.00006 
 C                    -2.05636   2.47697   0.00008 
 C                    -0.64361   2.45568   0.00007 
 C                     0.04738   1.26913   0.00004 
 N                     1.43352  -1.33212  -0.00008 
 N                     1.50476   1.25677   0.00004 
 C                     1.98735  -1.95065   1.23471 
 C                     1.98728  -1.95053  -1.23496 
 C                     2.07354   1.86493  -1.21841 
 C                     2.07352   1.86477   1.21858 
 H                    -0.26464  -3.39285  -0.00009 
 H                    -2.74644  -3.30232  -0.00004 
 H                    -3.8986   -1.11385   0.00002 
 H                    -3.84188   1.3011    0.00007 
 H                    -2.57748   3.42798   0.00011 
 H                    -0.09723   3.3948    0.0001 
 H                     1.69839  -0.24267  -0.00004 
 H                     3.07267  -1.83474   1.22696 
 H                     1.55963  -1.44481   2.10092 
 H                     1.73045  -3.01106   1.26734 
 H                     3.07259  -1.83461  -1.22728 
 H                     1.55949  -1.44462  -2.1011 
 H                     1.73038  -3.01094  -1.26767 
 H                     1.63055   1.3968   -2.10011 
 H                     1.88036   2.94349  -1.26003 
 H                     3.15445   1.70279  -1.22486 
 H                     1.63052   1.39651   2.10021 
 H                     3.15443   1.70264   1.22503 
 H                     1.88032   2.94333   1.26034 
 

 GradGradGradGradGradGradGradGradGradGradGradGradGradGradGradGradGradGrad
 Berny optimization.
 Initialization pass.
                           ----------------------------
                           !    Initial Parameters    !
                           ! (Angstroms and Degrees)  !
 --------------------------                            --------------------------
 ! Name  Definition              Value          Derivative Info.                !
 --------------------------------------------------------------------------------
 ! R1    R(1,2)                  1.4125         estimate D2E/DX2                !
 ! R2    R(1,6)                  1.3701         estimate D2E/DX2                !
 ! R3    R(1,17)                 1.0866         estimate D2E/DX2                !
 ! R4    R(2,3)                  1.3707         estimate D2E/DX2                !
 ! R5    R(2,18)                 1.084          estimate D2E/DX2                !
 ! R6    R(3,4)                  1.42           estimate D2E/DX2                !
 ! R7    R(3,19)                 1.0858         estimate D2E/DX2                !
 ! R8    R(4,5)                  1.4288         estimate D2E/DX2                !
 ! R9    R(4,7)                  1.4193         estimate D2E/DX2                !
 ! R10   R(5,6)                  1.4276         estimate D2E/DX2                !
 ! R11   R(5,10)                 1.4313         estimate D2E/DX2                !
 ! R12   R(6,11)                 1.4729         estimate D2E/DX2                !
 ! R13   R(7,8)                  1.3703         estimate D2E/DX2                !
 ! R14   R(7,20)                 1.0857         estimate D2E/DX2                !
 ! R15   R(8,9)                  1.4129         estimate D2E/DX2                !
 ! R16   R(8,21)                 1.0844         estimate D2E/DX2                !
 ! R17   R(9,10)                 1.3731         estimate D2E/DX2                !
 ! R18   R(9,22)                 1.0865         estimate D2E/DX2                !
 ! R19   R(10,12)                1.4574         estimate D2E/DX2                !
 ! R20   R(11,13)                1.488          estimate D2E/DX2                !
 ! R21   R(11,14)                1.488          estimate D2E/DX2                !
 ! R22   R(11,23)                1.1212         estimate D2E/DX2                !
 ! R23   R(12,15)                1.4758         estimate D2E/DX2                !
 ! R24   R(12,16)                1.4758         estimate D2E/DX2                !
 ! R25   R(13,24)                1.0915         estimate D2E/DX2                !
 ! R26   R(13,25)                1.0905         estimate D2E/DX2                !
 ! R27   R(13,26)                1.0916         estimate D2E/DX2                !
 ! R28   R(14,27)                1.0915         estimate D2E/DX2                !
 ! R29   R(14,28)                1.0905         estimate D2E/DX2                !
 ! R30   R(14,29)                1.0916         estimate D2E/DX2                !
 ! R31   R(15,30)                1.0921         estimate D2E/DX2                !
 ! R32   R(15,31)                1.0965         estimate D2E/DX2                !
 ! R33   R(15,32)                1.093          estimate D2E/DX2                !
 ! R34   R(16,33)                1.0921         estimate D2E/DX2                !
 ! R35   R(16,34)                1.093          estimate D2E/DX2                !
 ! R36   R(16,35)                1.0965         estimate D2E/DX2                !
 ! A1    A(2,1,6)              120.0954         estimate D2E/DX2                !
 ! A2    A(2,1,17)             119.5301         estimate D2E/DX2                !
 ! A3    A(6,1,17)             120.3745         estimate D2E/DX2                !
 ! A4    A(1,2,3)              119.6622         estimate D2E/DX2                !
 ! A5    A(1,2,18)             119.5957         estimate D2E/DX2                !
 ! A6    A(3,2,18)             120.7421         estimate D2E/DX2                !
 ! A7    A(2,3,4)              121.2532         estimate D2E/DX2                !
 ! A8    A(2,3,19)             120.3377         estimate D2E/DX2                !
 ! A9    A(4,3,19)             118.4091         estimate D2E/DX2                !
 ! A10   A(3,4,5)              119.8806         estimate D2E/DX2                !
 ! A11   A(3,4,7)              120.4565         estimate D2E/DX2                !
 ! A12   A(5,4,7)              119.663          estimate D2E/DX2                !
 ! A13   A(4,5,6)              116.6913         estimate D2E/DX2                !
 ! A14   A(4,5,10)             118.0177         estimate D2E/DX2                !
 ! A15   A(6,5,10)             125.291          estimate D2E/DX2                !
 ! A16   A(1,6,5)              122.4174         estimate D2E/DX2                !
 ! A17   A(1,6,11)             119.6484         estimate D2E/DX2                !
 ! A18   A(5,6,11)             117.9343         estimate D2E/DX2                !
 ! A19   A(4,7,8)              120.8518         estimate D2E/DX2                !
 ! A20   A(4,7,20)             118.5527         estimate D2E/DX2                !
 ! A21   A(8,7,20)             120.5955         estimate D2E/DX2                !
 ! A22   A(7,8,9)              119.8485         estimate D2E/DX2                !
 ! A23   A(7,8,21)             120.5672         estimate D2E/DX2                !
 ! A24   A(9,8,21)             119.5843         estimate D2E/DX2                !
 ! A25   A(8,9,10)             121.078          estimate D2E/DX2                !
 ! A26   A(8,9,22)             119.3274         estimate D2E/DX2                !
 ! A27   A(10,9,22)            119.5946         estimate D2E/DX2                !
 ! A28   A(5,10,9)             120.541          estimate D2E/DX2                !
 ! A29   A(5,10,12)            118.7582         estimate D2E/DX2                !
 ! A30   A(9,10,12)            120.7008         estimate D2E/DX2                !
 ! A31   A(6,11,13)            112.9394         estimate D2E/DX2                !
 ! A32   A(6,11,14)            112.9389         estimate D2E/DX2                !
 ! A33   A(6,11,23)            101.1956         estimate D2E/DX2                !
 ! A34   A(13,11,14)           112.1737         estimate D2E/DX2                !
 ! A35   A(13,11,23)           108.4189         estimate D2E/DX2                !
 ! A36   A(14,11,23)           108.4187         estimate D2E/DX2                !
 ! A37   A(10,12,15)           112.4509         estimate D2E/DX2                !
 ! A38   A(10,12,16)           112.4504         estimate D2E/DX2                !
 ! A39   A(15,12,16)           111.3084         estimate D2E/DX2                !
 ! A40   A(11,13,24)           108.6671         estimate D2E/DX2                !
 ! A41   A(11,13,25)           108.685          estimate D2E/DX2                !
 ! A42   A(11,13,26)           109.9398         estimate D2E/DX2                !
 ! A43   A(24,13,25)           110.2664         estimate D2E/DX2                !
 ! A44   A(24,13,26)           109.7175         estimate D2E/DX2                !
 ! A45   A(25,13,26)           109.5462         estimate D2E/DX2                !
 ! A46   A(11,14,27)           108.6672         estimate D2E/DX2                !
 ! A47   A(11,14,28)           108.685          estimate D2E/DX2                !
 ! A48   A(11,14,29)           109.9397         estimate D2E/DX2                !
 ! A49   A(27,14,28)           110.2663         estimate D2E/DX2                !
 ! A50   A(27,14,29)           109.7176         estimate D2E/DX2                !
 ! A51   A(28,14,29)           109.5462         estimate D2E/DX2                !
 ! A52   A(12,15,30)           109.4853         estimate D2E/DX2                !
 ! A53   A(12,15,31)           111.6405         estimate D2E/DX2                !
 ! A54   A(12,15,32)           108.9583         estimate D2E/DX2                !
 ! A55   A(30,15,31)           108.6336         estimate D2E/DX2                !
 ! A56   A(30,15,32)           109.4368         estimate D2E/DX2                !
 ! A57   A(31,15,32)           108.6578         estimate D2E/DX2                !
 ! A58   A(12,16,33)           109.4852         estimate D2E/DX2                !
 ! A59   A(12,16,34)           108.9584         estimate D2E/DX2                !
 ! A60   A(12,16,35)           111.6403         estimate D2E/DX2                !
 ! A61   A(33,16,34)           109.4368         estimate D2E/DX2                !
 ! A62   A(33,16,35)           108.6334         estimate D2E/DX2                !
 ! A63   A(34,16,35)           108.6581         estimate D2E/DX2                !
 ! D1    D(6,1,2,3)              0.0004         estimate D2E/DX2                !
 ! D2    D(6,1,2,18)          -179.9998         estimate D2E/DX2                !
 ! D3    D(17,1,2,3)          -179.9995         estimate D2E/DX2                !
 ! D4    D(17,1,2,18)            0.0004         estimate D2E/DX2                !
 ! D5    D(2,1,6,5)              0.0001         estimate D2E/DX2                !
 ! D6    D(2,1,6,11)          -179.9993         estimate D2E/DX2                !
 ! D7    D(17,1,6,5)           179.9999         estimate D2E/DX2                !
 ! D8    D(17,1,6,11)            0.0005         estimate D2E/DX2                !
 ! D9    D(1,2,3,4)             -0.0004         estimate D2E/DX2                !
 ! D10   D(1,2,3,19)           179.9997         estimate D2E/DX2                !
 ! D11   D(18,2,3,4)           179.9997         estimate D2E/DX2                !
 ! D12   D(18,2,3,19)           -0.0002         estimate D2E/DX2                !
 ! D13   D(2,3,4,5)              0.0            estimate D2E/DX2                !
 ! D14   D(2,3,4,7)           -180.0            estimate D2E/DX2                !
 ! D15   D(19,3,4,5)           179.9999         estimate D2E/DX2                !
 ! D16   D(19,3,4,7)            -0.0001         estimate D2E/DX2                !
 ! D17   D(3,4,5,6)              0.0004         estimate D2E/DX2                !
 ! D18   D(3,4,5,10)          -179.9996         estimate D2E/DX2                !
 ! D19   D(7,4,5,6)           -179.9997         estimate D2E/DX2                !
 ! D20   D(7,4,5,10)             0.0004         estimate D2E/DX2                !
 ! D21   D(3,4,7,8)            179.9997         estimate D2E/DX2                !
 ! D22   D(3,4,7,20)             0.0001         estimate D2E/DX2                !
 ! D23   D(5,4,7,8)             -0.0003         estimate D2E/DX2                !
 ! D24   D(5,4,7,20)          -179.9999         estimate D2E/DX2                !
 ! D25   D(4,5,6,1)             -0.0004         estimate D2E/DX2                !
 ! D26   D(4,5,6,11)           179.999          estimate D2E/DX2                !
 ! D27   D(10,5,6,1)           179.9995         estimate D2E/DX2                !
 ! D28   D(10,5,6,11)           -0.0011         estimate D2E/DX2                !
 ! D29   D(4,5,10,9)            -0.0004         estimate D2E/DX2                !
 ! D30   D(4,5,10,12)          179.999          estimate D2E/DX2                !
 ! D31   D(6,5,10,9)           179.9997         estimate D2E/DX2                !
 ! D32   D(6,5,10,12)           -0.0009         estimate D2E/DX2                !
 ! D33   D(1,6,11,13)          -64.3083         estimate D2E/DX2                !
 ! D34   D(1,6,11,14)           64.3103         estimate D2E/DX2                !
 ! D35   D(1,6,11,23)         -179.9992         estimate D2E/DX2                !
 ! D36   D(5,6,11,13)          115.6923         estimate D2E/DX2                !
 ! D37   D(5,6,11,14)         -115.6891         estimate D2E/DX2                !
 ! D38   D(5,6,11,23)            0.0014         estimate D2E/DX2                !
 ! D39   D(4,7,8,9)              0.0            estimate D2E/DX2                !
 ! D40   D(4,7,8,21)          -179.9997         estimate D2E/DX2                !
 ! D41   D(20,7,8,9)           179.9997         estimate D2E/DX2                !
 ! D42   D(20,7,8,21)           -0.0001         estimate D2E/DX2                !
 ! D43   D(7,8,9,10)             0.0001         estimate D2E/DX2                !
 ! D44   D(7,8,9,22)          -179.9996         estimate D2E/DX2                !
 ! D45   D(21,8,9,10)          179.9998         estimate D2E/DX2                !
 ! D46   D(21,8,9,22)            0.0001         estimate D2E/DX2                !
 ! D47   D(8,9,10,5)             0.0001         estimate D2E/DX2                !
 ! D48   D(8,9,10,12)         -179.9993         estimate D2E/DX2                !
 ! D49   D(22,9,10,5)          179.9998         estimate D2E/DX2                !
 ! D50   D(22,9,10,12)           0.0004         estimate D2E/DX2                !
 ! D51   D(5,10,12,15)         116.7045         estimate D2E/DX2                !
 ! D52   D(5,10,12,16)        -116.6994         estimate D2E/DX2                !
 ! D53   D(9,10,12,15)         -63.2961         estimate D2E/DX2                !
 ! D54   D(9,10,12,16)          63.3            estimate D2E/DX2                !
 ! D55   D(6,11,13,24)        -172.043          estimate D2E/DX2                !
 ! D56   D(6,11,13,25)         -52.0287         estimate D2E/DX2                !
 ! D57   D(6,11,13,26)          67.8651         estimate D2E/DX2                !
 ! D58   D(14,11,13,24)         58.9434         estimate D2E/DX2                !
 ! D59   D(14,11,13,25)        178.9577         estimate D2E/DX2                !
 ! D60   D(14,11,13,26)        -61.1486         estimate D2E/DX2                !
 ! D61   D(23,11,13,24)        -60.7487         estimate D2E/DX2                !
 ! D62   D(23,11,13,25)         59.2656         estimate D2E/DX2                !
 ! D63   D(23,11,13,26)        179.1594         estimate D2E/DX2                !
 ! D64   D(6,11,14,27)         172.0419         estimate D2E/DX2                !
 ! D65   D(6,11,14,28)          52.0276         estimate D2E/DX2                !
 ! D66   D(6,11,14,29)         -67.866          estimate D2E/DX2                !
 ! D67   D(13,11,14,27)        -58.9442         estimate D2E/DX2                !
 ! D68   D(13,11,14,28)       -178.9584         estimate D2E/DX2                !
 ! D69   D(13,11,14,29)         61.1479         estimate D2E/DX2                !
 ! D70   D(23,11,14,27)         60.748          estimate D2E/DX2                !
 ! D71   D(23,11,14,28)        -59.2663         estimate D2E/DX2                !
 ! D72   D(23,11,14,29)       -179.1599         estimate D2E/DX2                !
 ! D73   D(10,12,15,30)        -52.5868         estimate D2E/DX2                !
 ! D74   D(10,12,15,31)         67.745          estimate D2E/DX2                !
 ! D75   D(10,12,15,32)       -172.2417         estimate D2E/DX2                !
 ! D76   D(16,12,15,30)       -179.7937         estimate D2E/DX2                !
 ! D77   D(16,12,15,31)        -59.4619         estimate D2E/DX2                !
 ! D78   D(16,12,15,32)         60.5514         estimate D2E/DX2                !
 ! D79   D(10,12,16,33)         52.5873         estimate D2E/DX2                !
 ! D80   D(10,12,16,34)        172.2422         estimate D2E/DX2                !
 ! D81   D(10,12,16,35)        -67.7442         estimate D2E/DX2                !
 ! D82   D(15,12,16,33)        179.7944         estimate D2E/DX2                !
 ! D83   D(15,12,16,34)        -60.5507         estimate D2E/DX2                !
 ! D84   D(15,12,16,35)         59.4629         estimate D2E/DX2                !
 --------------------------------------------------------------------------------
 Trust Radius=3.00D-01 FncErr=1.00D-07 GrdErr=1.00D-06
 Number of steps in this run=    193 maximum allowed number of steps=    210.
 GradGradGradGradGradGradGradGradGradGradGradGradGradGradGradGradGradGrad

                          Input orientation:                          
 ---------------------------------------------------------------------
 Center     Atomic      Atomic             Coordinates (Angstroms)
 Number     Number       Type             X           Y           Z
 ---------------------------------------------------------------------
      1          6           0       -0.766507   -2.429076   -0.000055
      2          6           0       -2.178133   -2.379221   -0.000031
      3          6           0       -2.813995   -1.164968    0.000002
      4          6           0       -2.080349    0.050860    0.000021
      5          6           0       -0.651861    0.020270    0.000005
      6          6           0       -0.038059   -1.268644   -0.000038
      7          6           0       -2.756180    1.298897    0.000056
      8          6           0       -2.056359    2.476968    0.000080
      9          6           0       -0.643609    2.455676    0.000070
     10          6           0        0.047378    1.269134    0.000035
     11          7           0        1.433515   -1.332115   -0.000079
     12          7           0        1.504760    1.256766    0.000041
     13          6           0        1.987352   -1.950651    1.234706
     14          6           0        1.987276   -1.950532   -1.234958
     15          6           0        2.073542    1.864930   -1.218407
     16          6           0        2.073520    1.864772    1.218578
     17          1           0       -0.264639   -3.392851   -0.000090
     18          1           0       -2.746437   -3.302322   -0.000041
     19          1           0       -3.898604   -1.113853    0.000016
     20          1           0       -3.841875    1.301104    0.000069
     21          1           0       -2.577475    3.427984    0.000111
     22          1           0       -0.097225    3.394801    0.000096
     23          1           0        1.698393   -0.242672   -0.000037
     24          1           0        3.072670   -1.834743    1.226963
     25          1           0        1.559626   -1.444814    2.100922
     26          1           0        1.730452   -3.011060    1.267335
     27          1           0        3.072594   -1.834613   -1.227279
     28          1           0        1.559486   -1.444620   -2.101098
     29          1           0        1.730383   -3.010940   -1.267666
     30          1           0        1.630551    1.396795   -2.100107
     31          1           0        1.880359    2.943493   -1.260028
     32          1           0        3.154450    1.702789   -1.224862
     33          1           0        1.630522    1.396513    2.100209
     34          1           0        3.154430    1.702642    1.225026
     35          1           0        1.880320    2.943326    1.260342
 ---------------------------------------------------------------------
                    Distance matrix (angstroms):
                    1          2          3          4          5
     1  C    0.000000
     2  C    1.412506   0.000000
     3  C    2.406278   1.370668   0.000000
     4  C    2.806468   2.432048   1.420026   0.000000
     5  C    2.452028   2.843776   2.465687   1.428815   0.000000
     6  C    1.370124   2.411078   2.777871   2.431469   1.427604
     7  C    4.225705   3.723263   2.464543   1.419276   2.462325
     8  C    5.072769   4.857716   3.719907   2.426227   2.829837
     9  C    4.886298   5.072573   4.221331   2.801314   2.435420
    10  C    3.786709   4.273569   3.756635   2.451818   1.431292
    11  N    2.458337   3.760377   4.250797   3.776223   2.485506
    12  N    4.329444   5.175336   4.951408   3.782488   2.485948
    13  C    3.055694   4.365720   5.019435   4.698583   3.517735
    14  C    3.055701   4.365713   5.019406   4.698544   3.517704
    15  C    5.290439   6.129763   5.878165   4.693637   3.509291
    16  C    5.290364   6.129685   5.878100   4.693590   3.509246
    17  H    1.086616   2.165388   3.385658   3.893064   3.435016
    18  H    2.163950   1.084013   2.138421   3.418699   3.927705
    19  H    3.397034   2.135691   1.085813   2.159307   3.439124
    20  H    4.834473   4.038914   2.671713   2.160112   3.437546
    21  H    6.130641   5.820920   4.599038   3.413517   3.914142
    22  H    5.862208   6.137549   5.307762   3.887766   3.419807
    23  H    3.294859   4.426318   4.605679   3.790126   2.364917
    24  H    4.074075   5.419677   6.050360   5.622676   4.338045
    25  H    3.285387   4.388389   4.860117   4.460969   3.383932
    26  H    2.860033   4.157219   5.066181   5.050113   4.058387
    27  H    4.074084   5.419674   6.050337   5.622641   4.338016
    28  H    3.285389   4.388366   4.860058   4.460892   3.383872
    29  H    2.860046   4.157218   5.066159   5.050082   4.058363
    30  H    4.979297   5.759747   5.543201   4.471337   3.393331
    31  H    6.120288   6.811038   6.364282   5.063818   4.067561
    32  H    5.826351   6.826380   6.733993   5.624262   4.338107
    33  H    4.979155   5.759603   5.543084   4.471257   3.393254
    34  H    5.826291   6.826317   6.733941   5.624227   4.338076
    35  H    6.120212   6.810953   6.364207   5.063760   4.067511
                    6          7          8          9         10
     6  C    0.000000
     7  C    3.739044   0.000000
     8  C    4.254779   1.370256   0.000000
     9  C    3.773228   2.408546   1.412910   0.000000
    10  C    2.539216   2.803716   2.425814   1.373079   0.000000
    11  N    1.472942   4.947299   5.166075   4.319931   2.947520
    12  N    2.959389   4.261148   3.764367   2.460259   1.457434
    13  C    2.468201   5.880903   6.122067   5.278447   3.956631
    14  C    2.468194   5.880852   6.122014   5.278401   3.956597
    15  C    3.970210   5.013109   4.349182   3.035882   2.438220
    16  C    3.970149   5.013084   4.349186   3.035905   2.438213
    17  H    2.136257   5.312276   6.137185   5.860792   4.672415
    18  H    3.386910   4.601229   5.820344   6.129961   5.357575
    19  H    3.863647   2.669550   4.035822   4.830790   4.609707
    20  H    4.590492   1.085697   2.137925   3.400286   3.889384
    21  H    5.339190   2.136574   1.084432   2.164537   3.398601
    22  H    4.663820   3.385684   2.163475   1.086504   2.130580
    23  H    2.016900   4.713773   4.636227   3.572962   2.238617
    24  H    3.391553   6.730564   6.811977   5.807210   4.504642
    25  H    2.645310   5.528813   5.733172   4.947893   3.750484
    26  H    2.787450   6.349141   6.787070   6.093220   4.770623
    27  H    3.391549   6.730516   6.811923   5.807162   4.504606
    28  H    2.645292   5.528717   5.733074   4.947812   3.750425
    29  H    2.787447   6.349099   6.787027   6.093183   4.770598
    30  H    3.781417   4.864533   4.378455   3.271663   2.633122
    31  H    4.796874   5.078386   4.159720   2.862905   2.784072
    32  H    4.530091   6.049719   5.408546   4.061102   3.367837
    33  H    3.781304   4.864496   4.378472   3.271709   2.633116
    34  H    4.530045   6.049700   5.408548   4.061118   3.367834
    35  H    4.796814   5.078346   4.159711   2.862919   2.784056
                   11         12         13         14         15
    11  N    0.000000
    12  N    2.589861   0.000000
    13  C    1.487957   3.470564   0.000000
    14  C    1.487957   3.470563   2.469664   0.000000
    15  C    3.480669   1.475802   4.536943   3.816473   0.000000
    16  C    3.480635   1.475802   3.816430   4.536940   2.436985
    17  H    2.670273   4.974908   2.945526   2.945557   5.881807
    18  H    4.621008   6.233615   5.075468   5.075470   7.170572
    19  H    5.336584   5.900523   6.071999   6.071966   6.784116
    20  H    5.896065   5.346819   6.788087   6.788036   6.065867
    21  H    6.224675   4.623725   7.161814   7.161758   5.055678
    22  H    4.968591   2.671619   5.868865   5.868823   2.921897
    23  H    1.121181   1.511889   2.127271   2.127268   2.463158
    24  H    2.108340   3.677106   1.091517   2.693054   4.545951
    25  H    2.107797   3.422754   1.090482   3.400990   4.715555
    26  H    2.124468   4.457725   1.091572   2.729862   5.483785
    27  H    2.108342   3.677097   2.693062   1.091518   3.832075
    28  H    2.107797   3.422757   3.400989   1.090481   3.463599
    29  H    2.124467   4.457724   2.729856   1.091572   4.888179
    30  H    3.449042   2.108567   4.738531   3.475677   1.092148
    31  H    4.479728   2.138667   5.494342   4.895257   1.096517
    32  H    3.697614   2.102570   4.556228   3.835251   1.093020
    33  H    3.448976   2.108566   3.475619   4.738494   3.380665
    34  H    3.697591   2.102571   3.835194   4.556254   2.676756
    35  H    4.479698   2.138665   4.895214   5.494343   2.710068
                   16         17         18         19         20
    16  C    0.000000
    17  H    5.881729   0.000000
    18  H    7.170487   2.483449   0.000000
    19  H    6.784052   4.289468   2.473234   0.000000
    20  H    6.065837   5.901680   4.731967   2.415623   0.000000
    21  H    5.055695   7.202291   6.732427   4.730081   2.474333
    22  H    2.921955   6.789716   7.202068   5.897325   4.290218
    23  H    2.463141   3.711755   5.396107   5.664392   5.751331
    24  H    3.832073   3.882137   6.125466   7.115036   7.690887
    25  H    3.463521   3.396622   5.138731   5.857953   6.413257
    26  H    4.888130   2.394268   4.661932   6.073859   7.159019
    27  H    4.545967   3.882167   6.125472   7.115009   7.690838
    28  H    4.715565   3.396656   5.138723   5.857886   6.413159
    29  H    5.483769   2.394309   4.661941   6.073833   7.158976
    30  H    3.380665   5.562601   6.756479   6.425374   5.862367
    31  H    2.710062   6.807181   7.874326   7.172599   6.085166
    32  H    2.676761   6.257458   7.834015   7.692813   7.114097
    33  H    1.092148   5.562454   6.756321   6.425261   5.862322
    34  H    1.093021   6.257395   7.833944   7.692762   7.114073
    35  H    1.096517   6.807105   7.874234   7.172523   6.085121
                   21         22         23         24         25
    21  H    0.000000
    22  H    2.480472   0.000000
    23  H    5.635314   4.056532   0.000000
    24  H    7.818286   6.237112   2.434924   0.000000
    25  H    6.728534   5.529964   2.424547   1.790294   0.000000
    26  H    7.850183   6.780955   3.044870   1.785189   1.782463
    27  H    7.818228   6.237064   2.434918   2.454242   3.676675
    28  H    6.728432   5.529892   2.424548   3.676671   4.202020
    29  H    7.850136   6.780921   3.044867   3.067303   3.718776
    30  H    5.122902   3.374625   2.665098   4.857153   5.072319
    31  H    4.657786   2.387976   3.431084   5.517089   5.536794
    32  H    6.109977   3.864818   2.721234   4.304912   4.848887
    33  H    5.122941   3.374721   2.665064   3.644635   2.842211
    34  H    6.109988   3.864857   2.721226   3.538330   3.635529
    35  H    4.657790   2.388040   3.431069   4.924709   4.479419
                   26         27         28         29         30
    26  H    0.000000
    27  H    3.067323   0.000000
    28  H    3.718777   1.790293   0.000000
    29  H    2.535001   1.785191   1.782463   0.000000
    30  H    5.547867   3.644628   2.842304   4.486764   0.000000
    31  H    6.470451   4.924713   4.479497   5.956326   1.777755
    32  H    5.518984   3.538350   3.635641   4.924331   1.783803
    33  H    4.486688   4.857152   5.072284   5.547810   4.200316
    34  H    4.924276   4.304959   4.848939   5.518993   3.670458
    35  H    5.956276   5.517108   5.536812   6.470440   3.707662
                   31         32         33         34         35
    31  H    0.000000
    32  H    1.778733   0.000000
    33  H    3.707662   3.670458   0.000000
    34  H    3.055890   2.449888   1.783804   0.000000
    35  H    2.520370   3.055909   1.777753   1.778736   0.000000
 Stoichiometry    C14H19N2(1+)
 Framework group  C1[X(C14H19N2)]
 Deg. of freedom    99
 Full point group                 C1      NOp   1
 Largest Abelian subgroup         C1      NOp   1
 Largest concise Abelian subgroup C1      NOp   1
                         Standard orientation:                         
 ---------------------------------------------------------------------
 Center     Atomic      Atomic             Coordinates (Angstroms)
 Number     Number       Type             X           Y           Z
 ---------------------------------------------------------------------
      1          6           0        0.766506   -2.429076    0.000055
      2          6           0        2.178132   -2.379222    0.000031
      3          6           0        2.813995   -1.164969   -0.000002
      4          6           0        2.080349    0.050859   -0.000021
      5          6           0        0.651861    0.020270   -0.000005
      6          6           0        0.038059   -1.268644    0.000038
      7          6           0        2.756180    1.298896   -0.000056
      8          6           0        2.056360    2.476967   -0.000080
      9          6           0        0.643610    2.455676   -0.000070
     10          6           0       -0.047378    1.269134   -0.000035
     11          7           0       -1.433515   -1.332115    0.000079
     12          7           0       -1.504760    1.256766   -0.000041
     13          6           0       -1.987353   -1.950650   -1.234706
     14          6           0       -1.987277   -1.950531    1.234958
     15          6           0       -2.073541    1.864931    1.218407
     16          6           0       -2.073519    1.864773   -1.218578
     17          1           0        0.264638   -3.392851    0.000090
     18          1           0        2.746436   -3.302323    0.000041
     19          1           0        3.898604   -1.113854   -0.000016
     20          1           0        3.841875    1.301103   -0.000069
     21          1           0        2.577476    3.427983   -0.000111
     22          1           0        0.097226    3.394801   -0.000096
     23          1           0       -1.698393   -0.242672    0.000037
     24          1           0       -3.072671   -1.834742   -1.226963
     25          1           0       -1.559626   -1.444814   -2.100922
     26          1           0       -1.730453   -3.011060   -1.267335
     27          1           0       -3.072595   -1.834612    1.227279
     28          1           0       -1.559486   -1.444620    2.101098
     29          1           0       -1.730384   -3.010940    1.267666
     30          1           0       -1.630551    1.396795    2.100107
     31          1           0       -1.880358    2.943493    1.260028
     32          1           0       -3.154449    1.702790    1.224862
     33          1           0       -1.630522    1.396513   -2.100209
     34          1           0       -3.154429    1.702643   -1.225026
     35          1           0       -1.880319    2.943326   -1.260342
 ---------------------------------------------------------------------
 Rotational constants (GHZ):      0.6399133      0.6067131      0.3564759
 Standard basis: Aug-CC-pVDZ (5D, 7F)
 There are   571 symmetry adapted cartesian basis functions of A   symmetry.
 There are   539 symmetry adapted basis functions of A   symmetry.
   539 basis functions,   897 primitive gaussians,   571 cartesian basis functions
    58 alpha electrons       58 beta electrons
       nuclear repulsion energy      1140.3326093149 Hartrees.
 NAtoms=   35 NActive=   35 NUniq=   35 SFac= 1.00D+00 NAtFMM=   60 NAOKFM=F Big=F
 Integral buffers will be    131072 words long.
 Raffenetti 2 integral format.
 Two-electron integral symmetry is turned on.
 One-electron integrals computed using PRISM.
 NBasis=   539 RedAO= T EigKep=  1.08D-06  NBF=   539
 NBsUse=   535 1.00D-06 EigRej=  8.46D-07 NBFU=   535
 ExpMin= 2.97D-02 ExpMax= 9.05D+03 ExpMxC= 3.09D+02 IAcc=3 IRadAn=         5 AccDes= 0.00D+00
 Harris functional with IExCor= 1009 and IRadAn=       5 diagonalized for initial guess.
 HarFok:  IExCor= 1009 AccDes= 0.00D+00 IRadAn=         5 IDoV= 1 UseB2=F ITyADJ=14
 ICtDFT=  3500011 ScaDFX=  1.000000  1.000000  1.000000  1.000000
 FoFCou: FMM=F IPFlag=           0 FMFlag=      100000 FMFlg1=           0
         NFxFlg=           0 DoJE=T BraDBF=F KetDBF=T FulRan=T
         wScrn=  0.000000 ICntrl=     500 IOpCl=  0 I1Cent=   200000004 NGrid=           0
         NMat0=    1 NMatS0=      1 NMatT0=    0 NMatD0=    1 NMtDS0=    0 NMtDT0=    0
 Petite list used in FoFCou.
 Requested convergence on RMS density matrix=1.00D-08 within 128 cycles.
 Requested convergence on MAX density matrix=1.00D-06.
 Requested convergence on             energy=1.00D-06.
 No special actions if energy rises.
 Restarting incremental Fock formation.
 SCF Done:  E(RM062X) =  -654.011175947     A.U. after   21 cycles
            NFock= 21  Conv=0.19D-08     -V/T= 2.0061

 **********************************************************************

            Population analysis using the SCF density.

 **********************************************************************

 Orbital symmetries:
       Occupied  (A) (A) (A) (A) (A) (A) (A) (A) (A) (A) (A) (A)
                 (A) (A) (A) (A) (A) (A) (A) (A) (A) (A) (A) (A)
                 (A) (A) (A) (A) (A) (A) (A) (A) (A) (A) (A) (A)
                 (A) (A) (A) (A) (A) (A) (A) (A) (A) (A) (A) (A)
                 (A) (A) (A) (A) (A) (A) (A) (A) (A) (A)
       Virtual   (A) (A) (A) (A) (A) (A) (A) (A) (A) (A) (A) (A)
                 (A) (A) (A) (A) (A) (A) (A) (A) (A) (A) (A) (A)
                 (A) (A) (A) (A) (A) (A) (A) (A) (A) (A) (A) (A)
                 (A) (A) (A) (A) (A) (A) (A) (A) (A) (A) (A) (A)
                 (A) (A) (A) (A) (A) (A) (A) (A) (A) (A) (A) (A)
                 (A) (A) (A) (A) (A) (A) (A) (A) (A) (A) (A) (A)
                 (A) (A) (A) (A) (A) (A) (A) (A) (A) (A) (A) (A)
                 (A) (A) (A) (A) (A) (A) (A) (A) (A) (A) (A) (A)
                 (A) (A) (A) (A) (A) (A) (A) (A) (A) (A) (A) (A)
                 (A) (A) (A) (A) (A) (A) (A) (A) (A) (A) (A) (A)
                 (A) (A) (A) (A) (A) (A) (A) (A) (A) (A) (A) (A)
                 (A) (A) (A) (A) (A) (A) (A) (A) (A) (A) (A) (A)
                 (A) (A) (A) (A) (A) (A) (A) (A) (A) (A) (A) (A)
                 (A) (A) (A) (A) (A) (A) (A) (A) (A) (A) (A) (A)
                 (A) (A) (A) (A) (A) (A) (A) (A) (A) (A) (A) (A)
                 (A) (A) (A) (A) (A) (A) (A) (A) (A) (A) (A) (A)
                 (A) (A) (A) (A) (A) (A) (A) (A) (A) (A) (A) (A)
                 (A) (A) (A) (A) (A) (A) (A) (A) (A) (A) (A) (A)
                 (A) (A) (A) (A) (A) (A) (A) (A) (A) (A) (A) (A)
                 (A) (A) (A) (A) (A) (A) (A) (A) (A) (A) (A) (A)
                 (A) (A) (A) (A) (A) (A) (A) (A) (A) (A) (A) (A)
                 (A) (A) (A) (A) (A) (A) (A) (A) (A) (A) (A) (A)
                 (A) (A) (A) (A) (A) (A) (A) (A) (A) (A) (A) (A)
                 (A) (A) (A) (A) (A) (A) (A) (A) (A) (A) (A) (A)
                 (A) (A) (A) (A) (A) (A) (A) (A) (A) (A) (A) (A)
                 (A) (A) (A) (A) (A) (A) (A) (A) (A) (A) (A) (A)
                 (A) (A) (A) (A) (A) (A) (A) (A) (A) (A) (A) (A)
                 (A) (A) (A) (A) (A) (A) (A) (A) (A) (A) (A) (A)
                 (A) (A) (A) (A) (A) (A) (A) (A) (A) (A) (A) (A)
                 (A) (A) (A) (A) (A) (A) (A) (A) (A) (A) (A) (A)
                 (A) (A) (A) (A) (A) (A) (A) (A) (A) (A) (A) (A)
                 (A) (A) (A) (A) (A) (A) (A) (A) (A) (A) (A) (A)
                 (A) (A) (A) (A) (A) (A) (A) (A) (A) (A) (A) (A)
                 (A) (A) (A) (A) (A) (A) (A) (A) (A) (A) (A) (A)
                 (A) (A) (A) (A) (A) (A) (A) (A) (A) (A) (A) (A)
                 (A) (A) (A) (A) (A) (A) (A) (A) (A) (A) (A) (A)
                 (A) (A) (A) (A) (A) (A) (A) (A) (A) (A) (A) (A)
                 (A) (A) (A) (A) (A) (A) (A) (A) (A) (A) (A) (A)
                 (A) (A) (A) (A) (A) (A) (A) (A) (A) (A) (A) (A)
                 (A) (A) (A) (A) (A) (A) (A) (A) (A)
 The electronic state is 1-A.
 Alpha  occ. eigenvalues --  -14.98848 -14.92807 -10.73892 -10.73411 -10.73410
 Alpha  occ. eigenvalues --  -10.72483 -10.70807 -10.70651 -10.70650 -10.69713
 Alpha  occ. eigenvalues --  -10.69574 -10.68609 -10.68398 -10.68303 -10.67925
 Alpha  occ. eigenvalues --  -10.67835  -1.25157  -1.19460  -1.11279  -1.05780
 Alpha  occ. eigenvalues --   -1.00914  -0.97894  -0.97528  -0.95622  -0.94344
 Alpha  occ. eigenvalues --   -0.91227  -0.87895  -0.84904  -0.82776  -0.79794
 Alpha  occ. eigenvalues --   -0.75628  -0.73834  -0.73101  -0.70625  -0.70098
 Alpha  occ. eigenvalues --   -0.69174  -0.66696  -0.66621  -0.65989  -0.63782
 Alpha  occ. eigenvalues --   -0.62987  -0.62721  -0.61367  -0.61044  -0.60321
 Alpha  occ. eigenvalues --   -0.60001  -0.59101  -0.58824  -0.58102  -0.57076
 Alpha  occ. eigenvalues --   -0.56605  -0.53685  -0.53024  -0.52582  -0.47742
 Alpha  occ. eigenvalues --   -0.44759  -0.43217  -0.39980
 Alpha virt. eigenvalues --   -0.15385  -0.12514  -0.11620  -0.09494  -0.09442
 Alpha virt. eigenvalues --   -0.09311  -0.08305  -0.08136  -0.07580  -0.07074
 Alpha virt. eigenvalues --   -0.06812  -0.06549  -0.06246  -0.05363  -0.05297
 Alpha virt. eigenvalues --   -0.04699  -0.04432  -0.04419  -0.03261  -0.03221
 Alpha virt. eigenvalues --   -0.02916  -0.02722  -0.02420  -0.01591  -0.01211
 Alpha virt. eigenvalues --   -0.00940  -0.00650  -0.00337  -0.00094   0.00632
 Alpha virt. eigenvalues --    0.00767   0.00811   0.00943   0.01165   0.01430
 Alpha virt. eigenvalues --    0.01777   0.01940   0.02423   0.02806   0.03365
 Alpha virt. eigenvalues --    0.03503   0.03543   0.03867   0.03930   0.04170
 Alpha virt. eigenvalues --    0.04284   0.04349   0.04422   0.04607   0.04759
 Alpha virt. eigenvalues --    0.05071   0.05181   0.05376   0.05611   0.06162
 Alpha virt. eigenvalues --    0.06344   0.07337   0.07429   0.07508   0.08064
 Alpha virt. eigenvalues --    0.08148   0.08622   0.08657   0.09365   0.09565
 Alpha virt. eigenvalues --    0.09781   0.09935   0.10872   0.10959   0.10983
 Alpha virt. eigenvalues --    0.11606   0.11751   0.12124   0.12777   0.12818
 Alpha virt. eigenvalues --    0.13223   0.13673   0.13701   0.14247   0.15348
 Alpha virt. eigenvalues --    0.15440   0.15476   0.15690   0.15952   0.16504
 Alpha virt. eigenvalues --    0.16636   0.16836   0.17218   0.17384   0.17665
 Alpha virt. eigenvalues --    0.17842   0.18479   0.18696   0.19055   0.19555
 Alpha virt. eigenvalues --    0.19728   0.20062   0.20383   0.20699   0.20889
 Alpha virt. eigenvalues --    0.21252   0.22070   0.22351   0.22541   0.23046
 Alpha virt. eigenvalues --    0.23165   0.23782   0.24291   0.24307   0.24494
 Alpha virt. eigenvalues --    0.25020   0.25191   0.25840   0.26387   0.26562
 Alpha virt. eigenvalues --    0.26938   0.27879   0.28027   0.28060   0.28228
 Alpha virt. eigenvalues --    0.28692   0.28943   0.29966   0.30347   0.30773
 Alpha virt. eigenvalues --    0.30898   0.31173   0.31532   0.32102   0.32789
 Alpha virt. eigenvalues --    0.32892   0.33384   0.33851   0.34487   0.34797
 Alpha virt. eigenvalues --    0.36096   0.36367   0.36407   0.37582   0.37652
 Alpha virt. eigenvalues --    0.37951   0.38046   0.38703   0.39086   0.39212
 Alpha virt. eigenvalues --    0.39597   0.39859   0.40183   0.40772   0.41007
 Alpha virt. eigenvalues --    0.41353   0.41850   0.42344   0.43127   0.43190
 Alpha virt. eigenvalues --    0.43520   0.43695   0.43911   0.44345   0.44413
 Alpha virt. eigenvalues --    0.45884   0.46003   0.46806   0.46910   0.47367
 Alpha virt. eigenvalues --    0.47711   0.48092   0.48241   0.48716   0.48905
 Alpha virt. eigenvalues --    0.49638   0.49817   0.50011   0.50433   0.50639
 Alpha virt. eigenvalues --    0.50860   0.51393   0.51510   0.52048   0.52637
 Alpha virt. eigenvalues --    0.52779   0.53328   0.53645   0.53915   0.54973
 Alpha virt. eigenvalues --    0.55527   0.55627   0.56356   0.56547   0.56841
 Alpha virt. eigenvalues --    0.56916   0.57464   0.57998   0.58655   0.58739
 Alpha virt. eigenvalues --    0.59134   0.59230   0.59803   0.60260   0.60434
 Alpha virt. eigenvalues --    0.61459   0.61786   0.61950   0.62877   0.63221
 Alpha virt. eigenvalues --    0.64520   0.64833   0.65156   0.66013   0.66835
 Alpha virt. eigenvalues --    0.67471   0.67738   0.67847   0.68040   0.68469
 Alpha virt. eigenvalues --    0.69009   0.69170   0.69675   0.69797   0.70562
 Alpha virt. eigenvalues --    0.70780   0.70786   0.71345   0.71647   0.71890
 Alpha virt. eigenvalues --    0.72173   0.73423   0.73647   0.73862   0.74276
 Alpha virt. eigenvalues --    0.75362   0.76090   0.76292   0.76993   0.77248
 Alpha virt. eigenvalues --    0.78069   0.79926   0.80127   0.80525   0.82054
 Alpha virt. eigenvalues --    0.82435   0.83871   0.84176   0.84663   0.85966
 Alpha virt. eigenvalues --    0.86433   0.86795   0.87096   0.88435   0.88615
 Alpha virt. eigenvalues --    0.90638   0.91401   0.92015   0.93205   0.93570
 Alpha virt. eigenvalues --    0.93765   0.94685   0.95148   0.96590   0.97691
 Alpha virt. eigenvalues --    0.98194   0.99726   1.00129   1.00524   1.03089
 Alpha virt. eigenvalues --    1.03488   1.04330   1.04960   1.05143   1.06499
 Alpha virt. eigenvalues --    1.07561   1.07818   1.08441   1.10589   1.11828
 Alpha virt. eigenvalues --    1.12771   1.13407   1.13694   1.15374   1.16129
 Alpha virt. eigenvalues --    1.16243   1.17059   1.20805   1.20832   1.21478
 Alpha virt. eigenvalues --    1.21942   1.23229   1.24917   1.25534   1.26600
 Alpha virt. eigenvalues --    1.26895   1.27065   1.27604   1.28510   1.29274
 Alpha virt. eigenvalues --    1.31300   1.31446   1.32560   1.33920   1.34346
 Alpha virt. eigenvalues --    1.35047   1.35272   1.36149   1.36816   1.38092
 Alpha virt. eigenvalues --    1.39005   1.39010   1.39494   1.39555   1.40690
 Alpha virt. eigenvalues --    1.41075   1.42767   1.43175   1.45234   1.45522
 Alpha virt. eigenvalues --    1.45549   1.47612   1.47998   1.48561   1.48710
 Alpha virt. eigenvalues --    1.49292   1.50384   1.52001   1.54431   1.54486
 Alpha virt. eigenvalues --    1.55587   1.56075   1.56101   1.56333   1.56997
 Alpha virt. eigenvalues --    1.57349   1.58843   1.58877   1.60082   1.61291
 Alpha virt. eigenvalues --    1.61814   1.62010   1.62788   1.63025   1.64327
 Alpha virt. eigenvalues --    1.65642   1.66316   1.67106   1.67290   1.68313
 Alpha virt. eigenvalues --    1.69856   1.70190   1.70501   1.70664   1.72081
 Alpha virt. eigenvalues --    1.72420   1.73142   1.74057   1.74639   1.76211
 Alpha virt. eigenvalues --    1.78438   1.78686   1.79256   1.79625   1.80338
 Alpha virt. eigenvalues --    1.80467   1.81500   1.81917   1.82139   1.83104
 Alpha virt. eigenvalues --    1.84019   1.84126   1.85225   1.86557   1.86843
 Alpha virt. eigenvalues --    1.87120   1.89485   1.89911   1.91275   1.91382
 Alpha virt. eigenvalues --    1.92119   1.93129   1.93359   1.93940   1.96000
 Alpha virt. eigenvalues --    1.96280   1.96379   1.96976   1.98369   1.99394
 Alpha virt. eigenvalues --    1.99755   2.00600   2.01318   2.01685   2.02412
 Alpha virt. eigenvalues --    2.03029   2.03782   2.04957   2.05727   2.06052
 Alpha virt. eigenvalues --    2.07637   2.09042   2.09786   2.10700   2.10835
 Alpha virt. eigenvalues --    2.11778   2.12775   2.15226   2.16240   2.17412
 Alpha virt. eigenvalues --    2.17499   2.18119   2.19429   2.19454   2.20947
 Alpha virt. eigenvalues --    2.21392   2.22273   2.23356   2.26447   2.26919
 Alpha virt. eigenvalues --    2.28018   2.28677   2.30956   2.33713   2.34610
 Alpha virt. eigenvalues --    2.34638   2.35129   2.38632   2.39924   2.39973
 Alpha virt. eigenvalues --    2.41866   2.44261   2.44512   2.45322   2.46327
 Alpha virt. eigenvalues --    2.47220   2.47495   2.49193   2.52047   2.52689
 Alpha virt. eigenvalues --    2.53052   2.53886   2.56404   2.57438   2.59004
 Alpha virt. eigenvalues --    2.59708   2.62620   2.64714   2.66578   2.66620
 Alpha virt. eigenvalues --    2.67738   2.69308   2.72129   2.73612   2.74324
 Alpha virt. eigenvalues --    2.74685   2.75280   2.76312   2.77592   2.79615
 Alpha virt. eigenvalues --    2.79840   2.81302   2.82395   2.86353   2.92138
 Alpha virt. eigenvalues --    2.94301   2.95095   3.00908   3.02358   3.05149
 Alpha virt. eigenvalues --    3.08996   3.10593   3.23679   3.27472   3.31230
 Alpha virt. eigenvalues --    3.34753   3.46563   3.50310   3.94426   4.06417
 Alpha virt. eigenvalues --    4.28009   4.80356
          Condensed to atoms (all electrons):
               1          2          3          4          5          6
     1  C   21.032546  -0.593760  -1.797162  -0.830859  -4.800413  -2.651367
     2  C   -0.593760  13.954876  -1.125390  -1.803920   1.110540  -4.423825
     3  C   -1.797162  -1.125390  21.870481  -4.758732  -3.425749  -0.172086
     4  C   -0.830859  -1.803920  -4.758732  27.055047  -5.993333   1.592740
     5  C   -4.800413   1.110540  -3.425749  -5.993333  32.855203  -4.930542
     6  C   -2.651367  -4.423825  -0.172086   1.592740  -4.930542  32.081251
     7  C    0.263727  -0.685080  -5.690979  -4.485508  -3.974916   1.655898
     8  C    0.467070  -0.722675  -0.584713  -2.061849   0.745527  -0.512983
     9  C   -0.396651   0.421730  -0.061385  -1.582700  -4.309748  -2.788719
    10  C   -2.551947  -0.368886   1.772559  -0.871026  -4.011450  -5.608414
    11  N   -2.162809   1.072218   0.075624  -1.424542   1.908636  -7.421473
    12  N    1.002483  -0.233176  -0.251164  -0.912030   1.543466   0.210601
    13  C    0.272801   0.227225  -0.024164  -0.231385   0.039290  -1.606460
    14  C    0.272783   0.227205  -0.024163  -0.231379   0.039320  -1.606380
    15  C    0.091762   0.009107  -0.018980  -0.243738   0.077066  -0.157824
    16  C    0.091762   0.009109  -0.018987  -0.243735   0.077095  -0.157801
    17  H   -2.716411   0.584941   0.234543  -0.401369   0.681409  -0.848701
    18  H    0.484942  -1.480461   0.507374   0.022419  -0.417308   0.429917
    19  H   -0.009701   0.048903  -2.955035   1.064018   0.227433  -0.282540
    20  H    0.067199   0.123926   0.939778   1.006364   0.281037  -0.213800
    21  H   -0.009758   0.003932  -0.025824   0.038902  -0.422154   0.056259
    22  H    0.010568  -0.004188   0.020163  -0.395636   0.730228   0.006805
    23  H   -0.146286  -0.170994   0.025322   0.606659  -1.162417   1.097189
    24  H   -0.312331  -0.077543  -0.006639   0.103703  -0.140192   1.157997
    25  H    0.118111  -0.003528  -0.009014  -0.077104   0.201972  -0.103314
    26  H    0.358396   0.117649   0.028092   0.007172  -0.191805  -0.396023
    27  H   -0.312381  -0.077557  -0.006638   0.103717  -0.140175   1.158074
    28  H    0.118114  -0.003526  -0.009013  -0.077105   0.201940  -0.103302
    29  H    0.358451   0.117676   0.028093   0.007163  -0.191798  -0.396112
    30  H    0.011263   0.012648  -0.012637  -0.078421   0.240634  -0.047695
    31  H   -0.000325   0.000283   0.007366  -0.009660  -0.239165  -0.129007
    32  H   -0.030662  -0.002521   0.003094   0.099873  -0.172181   0.159141
    33  H    0.011260   0.012654  -0.012642  -0.078424   0.240582  -0.047688
    34  H   -0.030663  -0.002523   0.003094   0.099886  -0.172168   0.159186
    35  H   -0.000325   0.000282   0.007369  -0.009667  -0.239146  -0.129043
               7          8          9         10         11         12
     1  C    0.263727   0.467070  -0.396651  -2.551947  -2.162809   1.002483
     2  C   -0.685080  -0.722675   0.421730  -0.368886   1.072218  -0.233176
     3  C   -5.690979  -0.584713  -0.061385   1.772559   0.075624  -0.251164
     4  C   -4.485508  -2.061849  -1.582700  -0.871026  -1.424542  -0.912030
     5  C   -3.974916   0.745527  -4.309748  -4.011450   1.908636   1.543466
     6  C    1.655898  -0.512983  -2.788719  -5.608414  -7.421473   0.210601
     7  C   22.595214  -0.827645  -2.108906  -0.565444  -0.367185   0.105351
     8  C   -0.827645  14.235345   0.014697  -4.813642  -0.216327   0.883958
     9  C   -2.108906   0.014697  20.948897  -2.116629   1.314172  -2.120673
    10  C   -0.565444  -4.813642  -2.116629  31.877628   0.460581  -5.418585
    11  N   -0.367185  -0.216327   1.314172   0.460581  15.117625  -1.742260
    12  N    0.105351   0.883958  -2.120673  -5.418585  -1.742260  14.114860
    13  C   -0.030501   0.023355   0.102417  -0.282309   1.089820   0.125612
    14  C   -0.030507   0.023357   0.102414  -0.282298   1.089787   0.125581
    15  C   -0.001707   0.151030   0.283795  -1.403368   0.121329   0.597214
    16  C   -0.001717   0.151017   0.283785  -1.403309   0.121305   0.597159
    17  H   -0.000029  -0.005419   0.016042   0.019319   0.965189  -0.024873
    18  H   -0.003390   0.007998  -0.010124   0.043355  -0.024660  -0.002103
    19  H    0.957421   0.151512   0.062822  -0.237247  -0.001875  -0.002348
    20  H   -2.977627   0.116676   0.010264  -0.305116  -0.005363  -0.004042
    21  H    0.516146  -1.489659   0.467348   0.458666  -0.000176  -0.016761
    22  H    0.209384   0.512461  -2.763793  -0.728511  -0.040515   0.901758
    23  H    0.023778  -0.130895  -0.377699   1.325763  -0.798558  -0.109159
    24  H    0.003082  -0.002042  -0.034211   0.125875  -0.837307   0.011501
    25  H   -0.012143   0.013071   0.014598  -0.066579   0.114623   0.113240
    26  H    0.007455   0.000767  -0.004802  -0.104063  -0.385994  -0.000157
    27  H    0.003082  -0.002042  -0.034213   0.125916  -0.837374   0.011505
    28  H   -0.012143   0.013072   0.014595  -0.066577   0.114643   0.113234
    29  H    0.007455   0.000766  -0.004801  -0.104086  -0.385977  -0.000160
    30  H   -0.008701  -0.006662   0.129284  -0.158304   0.150445  -0.021322
    31  H    0.041018   0.153033   0.491246  -0.637479   0.035308  -0.346328
    32  H   -0.007697  -0.079308  -0.323364   1.186444  -0.045960  -0.709290
    33  H   -0.008695  -0.006676   0.129290  -0.158266   0.150441  -0.021354
    34  H   -0.007698  -0.079318  -0.323417   1.186503  -0.045975  -0.709276
    35  H    0.041017   0.153070   0.491317  -0.637612   0.035321  -0.346331
              13         14         15         16         17         18
     1  C    0.272801   0.272783   0.091762   0.091762  -2.716411   0.484942
     2  C    0.227225   0.227205   0.009107   0.009109   0.584941  -1.480461
     3  C   -0.024164  -0.024163  -0.018980  -0.018987   0.234543   0.507374
     4  C   -0.231385  -0.231379  -0.243738  -0.243735  -0.401369   0.022419
     5  C    0.039290   0.039320   0.077066   0.077095   0.681409  -0.417308
     6  C   -1.606460  -1.606380  -0.157824  -0.157801  -0.848701   0.429917
     7  C   -0.030501  -0.030507  -0.001707  -0.001717  -0.000029  -0.003390
     8  C    0.023355   0.023357   0.151030   0.151017  -0.005419   0.007998
     9  C    0.102417   0.102414   0.283795   0.283785   0.016042  -0.010124
    10  C   -0.282309  -0.282298  -1.403368  -1.403309   0.019319   0.043355
    11  N    1.089820   1.089787   0.121329   0.121305   0.965189  -0.024660
    12  N    0.125612   0.125581   0.597214   0.597159  -0.024873  -0.002103
    13  C    4.753463   0.209126   0.049511   0.010979   0.059999  -0.005583
    14  C    0.209126   4.753411   0.010984   0.049498   0.060003  -0.005583
    15  C    0.049511   0.010984   4.764299   0.172278   0.001739   0.000049
    16  C    0.010979   0.049498   0.172278   4.764277   0.001738   0.000049
    17  H    0.059999   0.060003   0.001739   0.001738   4.021310  -0.312177
    18  H   -0.005583  -0.005583   0.000049   0.000049  -0.312177   2.660437
    19  H    0.002003   0.002003   0.000216   0.000216   0.024397  -0.204510
    20  H    0.000274   0.000274   0.002142   0.002143   0.000138  -0.000425
    21  H    0.000320   0.000320  -0.007912  -0.007914  -0.000905   0.001749
    22  H    0.002936   0.002936   0.054724   0.054730   0.001132  -0.000876
    23  H   -0.608539  -0.608500  -0.528482  -0.528453  -0.037352  -0.001174
    24  H   -0.291410  -0.079161  -0.039611  -0.033519   0.017283  -0.002459
    25  H    0.143707  -0.135868   0.023989   0.053640  -0.018373  -0.001023
    26  H    0.477372   0.170024   0.014818  -0.011574  -0.129492   0.012771
    27  H   -0.079177  -0.291433  -0.033532  -0.039614   0.017281  -0.002459
    28  H   -0.135870   0.143727   0.053644   0.023992  -0.018367  -0.001023
    29  H    0.170036   0.477359  -0.011572   0.014817  -0.129487   0.012770
    30  H    0.016526   0.046797   0.177219  -0.132742  -0.001131   0.000628
    31  H    0.013359  -0.012792   0.494348   0.192163   0.001809  -0.000275
    32  H   -0.040208  -0.039096  -0.283019  -0.072417  -0.001053   0.000137
    33  H    0.046809   0.016528  -0.132741   0.177250  -0.001132   0.000628
    34  H   -0.039107  -0.040206  -0.072437  -0.283045  -0.001052   0.000137
    35  H   -0.012796   0.013355   0.192181   0.494350   0.001809  -0.000275
              19         20         21         22         23         24
     1  C   -0.009701   0.067199  -0.009758   0.010568  -0.146286  -0.312331
     2  C    0.048903   0.123926   0.003932  -0.004188  -0.170994  -0.077543
     3  C   -2.955035   0.939778  -0.025824   0.020163   0.025322  -0.006639
     4  C    1.064018   1.006364   0.038902  -0.395636   0.606659   0.103703
     5  C    0.227433   0.281037  -0.422154   0.730228  -1.162417  -0.140192
     6  C   -0.282540  -0.213800   0.056259   0.006805   1.097189   1.157997
     7  C    0.957421  -2.977627   0.516146   0.209384   0.023778   0.003082
     8  C    0.151512   0.116676  -1.489659   0.512461  -0.130895  -0.002042
     9  C    0.062822   0.010264   0.467348  -2.763793  -0.377699  -0.034211
    10  C   -0.237247  -0.305116   0.458666  -0.728511   1.325763   0.125875
    11  N   -0.001875  -0.005363  -0.000176  -0.040515  -0.798558  -0.837307
    12  N   -0.002348  -0.004042  -0.016761   0.901758  -0.109159   0.011501
    13  C    0.002003   0.000274   0.000320   0.002936  -0.608539  -0.291410
    14  C    0.002003   0.000274   0.000320   0.002936  -0.608500  -0.079161
    15  C    0.000216   0.002142  -0.007912   0.054724  -0.528482  -0.039611
    16  C    0.000216   0.002143  -0.007914   0.054730  -0.528453  -0.033519
    17  H    0.024397   0.000138  -0.000905   0.001132  -0.037352   0.017283
    18  H   -0.204510  -0.000425   0.001749  -0.000876  -0.001174  -0.002459
    19  H    3.282914  -0.176665  -0.000254   0.000281   0.000249   0.000851
    20  H   -0.176665   3.263754  -0.203185   0.024130   0.000478  -0.000319
    21  H   -0.000254  -0.203185   2.645057  -0.312259  -0.000913   0.000156
    22  H    0.000281   0.024130  -0.312259   4.072317  -0.011826  -0.001199
    23  H    0.000249   0.000478  -0.000913  -0.011826   3.192243   0.264074
    24  H    0.000851  -0.000319   0.000156  -0.001199   0.264074   2.776074
    25  H    0.000358  -0.000425   0.000632  -0.001038  -0.073488  -0.682253
    26  H   -0.003721   0.000797  -0.000255   0.001886  -0.154724  -0.628634
    27  H    0.000852  -0.000319   0.000156  -0.001199   0.264104   0.011925
    28  H    0.000358  -0.000426   0.000632  -0.001039  -0.073514   0.034025
    29  H   -0.003721   0.000797  -0.000255   0.001886  -0.154709  -0.002079
    30  H   -0.000445   0.000243  -0.000654  -0.022271  -0.018812  -0.004510
    31  H    0.000794  -0.003682   0.012350  -0.131924  -0.162818   0.002818
    32  H   -0.000307   0.000866  -0.002638   0.016509   0.217806  -0.005321
    33  H   -0.000446   0.000244  -0.000655  -0.022256  -0.018833   0.006013
    34  H   -0.000307   0.000866  -0.002638   0.016505   0.217819  -0.025670
    35  H    0.000794  -0.003682   0.012350  -0.131919  -0.162802   0.006746
              25         26         27         28         29         30
     1  C    0.118111   0.358396  -0.312381   0.118114   0.358451   0.011263
     2  C   -0.003528   0.117649  -0.077557  -0.003526   0.117676   0.012648
     3  C   -0.009014   0.028092  -0.006638  -0.009013   0.028093  -0.012637
     4  C   -0.077104   0.007172   0.103717  -0.077105   0.007163  -0.078421
     5  C    0.201972  -0.191805  -0.140175   0.201940  -0.191798   0.240634
     6  C   -0.103314  -0.396023   1.158074  -0.103302  -0.396112  -0.047695
     7  C   -0.012143   0.007455   0.003082  -0.012143   0.007455  -0.008701
     8  C    0.013071   0.000767  -0.002042   0.013072   0.000766  -0.006662
     9  C    0.014598  -0.004802  -0.034213   0.014595  -0.004801   0.129284
    10  C   -0.066579  -0.104063   0.125916  -0.066577  -0.104086  -0.158304
    11  N    0.114623  -0.385994  -0.837374   0.114643  -0.385977   0.150445
    12  N    0.113240  -0.000157   0.011505   0.113234  -0.000160  -0.021322
    13  C    0.143707   0.477372  -0.079177  -0.135870   0.170036   0.016526
    14  C   -0.135868   0.170024  -0.291433   0.143727   0.477359   0.046797
    15  C    0.023989   0.014818  -0.033532   0.053644  -0.011572   0.177219
    16  C    0.053640  -0.011574  -0.039614   0.023992   0.014817  -0.132742
    17  H   -0.018373  -0.129492   0.017281  -0.018367  -0.129487  -0.001131
    18  H   -0.001023   0.012771  -0.002459  -0.001023   0.012770   0.000628
    19  H    0.000358  -0.003721   0.000852   0.000358  -0.003721  -0.000445
    20  H   -0.000425   0.000797  -0.000319  -0.000426   0.000797   0.000243
    21  H    0.000632  -0.000255   0.000156   0.000632  -0.000255  -0.000654
    22  H   -0.001038   0.001886  -0.001199  -0.001039   0.001886  -0.022271
    23  H   -0.073488  -0.154724   0.264104  -0.073514  -0.154709  -0.018812
    24  H   -0.682253  -0.628634   0.011925   0.034025  -0.002079  -0.004510
    25  H    2.189836  -0.540435   0.034023  -0.048548   0.017966   0.013519
    26  H   -0.540435   2.622145  -0.002079   0.017961   0.024891  -0.004988
    27  H    0.034023  -0.002079   2.776101  -0.682271  -0.628626   0.006014
    28  H   -0.048548   0.017961  -0.682271   2.189844  -0.540433  -0.066106
    29  H    0.017966   0.024891  -0.628626  -0.540433   2.622135   0.008884
    30  H    0.013519  -0.004988   0.006014  -0.066106   0.008884   2.374648
    31  H   -0.003924   0.001532   0.006744   0.010863  -0.006718  -0.562279
    32  H   -0.005364   0.002444  -0.025670   0.004767   0.006221  -0.747968
    33  H   -0.066111   0.008886  -0.004510   0.013520  -0.004988  -0.053181
    34  H    0.004764   0.006221  -0.005318  -0.005364   0.002443   0.038947
    35  H    0.010863  -0.006718   0.002816  -0.003923   0.001532   0.020607
              31         32         33         34         35
     1  C   -0.000325  -0.030662   0.011260  -0.030663  -0.000325
     2  C    0.000283  -0.002521   0.012654  -0.002523   0.000282
     3  C    0.007366   0.003094  -0.012642   0.003094   0.007369
     4  C   -0.009660   0.099873  -0.078424   0.099886  -0.009667
     5  C   -0.239165  -0.172181   0.240582  -0.172168  -0.239146
     6  C   -0.129007   0.159141  -0.047688   0.159186  -0.129043
     7  C    0.041018  -0.007697  -0.008695  -0.007698   0.041017
     8  C    0.153033  -0.079308  -0.006676  -0.079318   0.153070
     9  C    0.491246  -0.323364   0.129290  -0.323417   0.491317
    10  C   -0.637479   1.186444  -0.158266   1.186503  -0.637612
    11  N    0.035308  -0.045960   0.150441  -0.045975   0.035321
    12  N   -0.346328  -0.709290  -0.021354  -0.709276  -0.346331
    13  C    0.013359  -0.040208   0.046809  -0.039107  -0.012796
    14  C   -0.012792  -0.039096   0.016528  -0.040206   0.013355
    15  C    0.494348  -0.283019  -0.132741  -0.072437   0.192181
    16  C    0.192163  -0.072417   0.177250  -0.283045   0.494350
    17  H    0.001809  -0.001053  -0.001132  -0.001052   0.001809
    18  H   -0.000275   0.000137   0.000628   0.000137  -0.000275
    19  H    0.000794  -0.000307  -0.000446  -0.000307   0.000794
    20  H   -0.003682   0.000866   0.000244   0.000866  -0.003682
    21  H    0.012350  -0.002638  -0.000655  -0.002638   0.012350
    22  H   -0.131924   0.016509  -0.022256   0.016505  -0.131919
    23  H   -0.162818   0.217806  -0.018833   0.217819  -0.162802
    24  H    0.002818  -0.005321   0.006013  -0.025670   0.006746
    25  H   -0.003924  -0.005364  -0.066111   0.004764   0.010863
    26  H    0.001532   0.002444   0.008886   0.006221  -0.006718
    27  H    0.006744  -0.025670  -0.004510  -0.005318   0.002816
    28  H    0.010863   0.004767   0.013520  -0.005364  -0.003923
    29  H   -0.006718   0.006221  -0.004988   0.002443   0.001532
    30  H   -0.562279  -0.747968  -0.053181   0.038947   0.020607
    31  H    2.718370  -0.646459   0.020604  -0.010394   0.037847
    32  H   -0.646459   2.859577   0.038951   0.002951  -0.010388
    33  H    0.020604   0.038951   2.374691  -0.747978  -0.562294
    34  H   -0.010394   0.002951  -0.747978   2.859572  -0.646445
    35  H    0.037847  -0.010388  -0.562294  -0.646445   2.718387
 Mulliken charges:
               1
     1  C    0.320577
     2  C   -0.275356
     3  C    1.468144
     4  C    0.994461
     5  C   -0.266718
     6  C    0.970040
     7  C    1.378186
     8  C   -0.275926
     9  C    0.063122
    10  C    0.318535
    11  N   -0.192736
    12  N   -0.466136
    13  C    1.550569
    14  C    1.550575
    15  C    1.591478
    16  C    1.591471
    17  H   -1.062756
    18  H   -0.709470
    19  H   -0.949274
    20  H   -0.947315
    21  H   -0.710200
    22  H   -1.070889
    23  H   -0.194537
    24  H   -0.315714
    25  H   -0.220380
    26  H   -0.315817
    27  H   -0.315722
    28  H   -0.220380
    29  H   -0.315819
    30  H   -0.299478
    31  H   -0.338625
    32  H   -0.347889
    33  H   -0.299481
    34  H   -0.347893
    35  H   -0.338649
 Sum of Mulliken charges =   1.00000
 Mulliken charges with hydrogens summed into heavy atoms:
               1
     1  C   -0.742178
     2  C   -0.984826
     3  C    0.518870
     4  C    0.994461
     5  C   -0.266718
     6  C    0.970040
     7  C    0.430872
     8  C   -0.986126
     9  C   -1.007767
    10  C    0.318535
    11  N   -0.387273
    12  N   -0.466136
    13  C    0.698658
    14  C    0.698653
    15  C    0.605486
    16  C    0.605449
 Electronic spatial extent (au):  <R**2>=           3310.8041
 Charge=              1.0000 electrons
 Dipole moment (field-independent basis, Debye):
    X=             -3.9990    Y=             -1.6199    Z=              0.0001  Tot=              4.3146
 Quadrupole moment (field-independent basis, Debye-Ang):
   XX=            -62.8817   YY=            -64.0225   ZZ=            -91.8130
   XY=              3.0205   XZ=             -0.0004   YZ=             -0.0010
 Traceless Quadrupole moment (field-independent basis, Debye-Ang):
   XX=             10.0241   YY=              8.8832   ZZ=            -18.9073
   XY=              3.0205   XZ=             -0.0004   YZ=             -0.0010
 Octapole moment (field-independent basis, Debye-Ang**2):
  XXX=             -2.8801  YYY=             -9.6957  ZZZ=              0.0016  XYY=            -10.1066
  XXY=             -7.2607  XXZ=             -0.0004  XZZ=            -29.7259  YZZ=             -4.1762
  YYZ=              0.0002  XYZ=             -0.0001
 Hexadecapole moment (field-independent basis, Debye-Ang**3):
 XXXX=          -1743.0301 YYYY=          -1669.4690 ZZZZ=           -387.7786 XXXY=             16.2487
 XXXZ=              0.0035 YYYX=             19.0705 YYYZ=              0.0176 ZZZX=              0.0073
 ZZZY=              0.0247 XXYY=           -545.5380 XXZZ=           -414.0939 YYZZ=           -396.6037
 XXYZ=              0.0057 YYXZ=              0.0006 ZZXY=              7.2283
 N-N= 1.140332609315D+03 E-N=-3.779557938701D+03  KE= 6.500748100394D+02
 Calling FoFJK, ICntrl=      2127 FMM=F ISym2X=0 I1Cent= 0 IOpClX= 0 NMat=1 NMatS=1 NMatT=0.
 ***** Axes restored to original set *****
 -------------------------------------------------------------------
 Center     Atomic                   Forces (Hartrees/Bohr)
 Number     Number              X              Y              Z
 -------------------------------------------------------------------
      1        6          -0.000136610    0.001430226    0.000000141
      2        6           0.001240676    0.001395251    0.000000006
      3        6           0.001155401    0.000237143    0.000000110
      4        6           0.000573573    0.000030345   -0.000000278
      5        6           0.000224712    0.000058430    0.000000177
      6        6           0.001325085    0.000260622   -0.000000042
      7        6           0.001079526   -0.000318922    0.000000431
      8        6           0.001223451   -0.001471863   -0.000000208
      9        6          -0.000174952   -0.001417115    0.000000106
     10        6           0.001116965   -0.000497415    0.000000163
     11        7           0.001297273   -0.000720056   -0.000000243
     12        7           0.001198383    0.001259125   -0.000000639
     13        6          -0.001246994    0.001091310   -0.002413124
     14        6          -0.001245897    0.001091133    0.002413356
     15        6          -0.001245391   -0.000732058    0.002168657
     16        6          -0.001245132   -0.000732279   -0.002168399
     17        1           0.000958820   -0.001852530   -0.000000082
     18        1          -0.001436675   -0.002116878   -0.000000132
     19        1          -0.002197501    0.000099266    0.000000048
     20        1          -0.002169406    0.000025655   -0.000000095
     21        1          -0.001297484    0.002187450   -0.000000009
     22        1           0.001016351    0.001836268   -0.000000016
     23        1          -0.001074349   -0.001171922    0.000000211
     24        1           0.001754318    0.000368596   -0.000301500
     25        1          -0.000974062    0.001135603    0.001161568
     26        1          -0.000614473   -0.001771939   -0.000302330
     27        1           0.001753845    0.000368445    0.000301530
     28        1          -0.000974347    0.001135899   -0.001161680
     29        1          -0.000614481   -0.001772223    0.000302208
     30        1          -0.000926683   -0.000999903   -0.001204380
     31        1          -0.000424577    0.001679218    0.000183819
     32        1           0.001716008   -0.000397296    0.000213680
     33        1          -0.000926804   -0.001000031    0.001204222
     34        1           0.001715852   -0.000397125   -0.000213672
     35        1          -0.000424420    0.001679571   -0.000183603
 -------------------------------------------------------------------
 Cartesian Forces:  Max     0.002413356 RMS     0.001101422

 GradGradGradGradGradGradGradGradGradGradGradGradGradGradGradGradGradGrad
 Berny optimization.
 FormGI is forming the generalized inverse of G from B-inverse, IUseBI=4.
 Internal  Forces:  Max     0.002557968 RMS     0.000751571
 Search for a local minimum.
 Step number   1 out of a maximum of  193
 All quantities printed in internal units (Hartrees-Bohrs-Radians)
 Mixed Optimization -- En-DIIS/RFO-DIIS
 Second derivative matrix not updated -- first step.
 ITU=  0
     Eigenvalues ---    0.00528   0.00528   0.00689   0.00689   0.00727
     Eigenvalues ---    0.00932   0.01568   0.01703   0.01736   0.01753
     Eigenvalues ---    0.01781   0.01996   0.02054   0.02081   0.02093
     Eigenvalues ---    0.02184   0.02191   0.02210   0.02240   0.02312
     Eigenvalues ---    0.02331   0.02643   0.03476   0.04821   0.05922
     Eigenvalues ---    0.05922   0.06032   0.06032   0.06249   0.07253
     Eigenvalues ---    0.07253   0.07509   0.07509   0.16000   0.16000
     Eigenvalues ---    0.16000   0.16000   0.16000   0.16000   0.16000
     Eigenvalues ---    0.16000   0.16000   0.16000   0.16000   0.16000
     Eigenvalues ---    0.16000   0.16000   0.16000   0.16000   0.16000
     Eigenvalues ---    0.16000   0.17521   0.17680   0.18944   0.19172
     Eigenvalues ---    0.22061   0.22130   0.23309   0.23708   0.24874
     Eigenvalues ---    0.24944   0.25000   0.25000   0.31444   0.33674
     Eigenvalues ---    0.33674   0.34070   0.34070   0.34466   0.34466
     Eigenvalues ---    0.34566   0.34566   0.34632   0.34632   0.34638
     Eigenvalues ---    0.34638   0.34757   0.34757   0.35055   0.35055
     Eigenvalues ---    0.35207   0.35220   0.35301   0.35315   0.35390
     Eigenvalues ---    0.35464   0.35514   0.36862   0.37287   0.39256
     Eigenvalues ---    0.39667   0.41201   0.41832   0.42831   0.43056
     Eigenvalues ---    0.48671   0.48987   0.50079   0.50298
 RFO step:  Lambda=-3.31101553D-04 EMin= 5.28273629D-03
 Linear search not attempted -- first point.
 Iteration  1 RMS(Cart)=  0.00727486 RMS(Int)=  0.00002084
 Iteration  2 RMS(Cart)=  0.00003624 RMS(Int)=  0.00000351
 Iteration  3 RMS(Cart)=  0.00000000 RMS(Int)=  0.00000351
 Variable       Old X    -DE/DX   Delta X   Delta X   Delta X     New X
                                 (Linear)    (Quad)   (Total)
    R1        2.66925   0.00065   0.00000   0.00155   0.00155   2.67080
    R2        2.58916   0.00024   0.00000   0.00043   0.00043   2.58959
    R3        2.05341   0.00209   0.00000   0.00593   0.00593   2.05934
    R4        2.59019   0.00090   0.00000   0.00184   0.00184   2.59202
    R5        2.04849   0.00256   0.00000   0.00720   0.00720   2.05568
    R6        2.68346   0.00067   0.00000   0.00163   0.00163   2.68509
    R7        2.05189   0.00220   0.00000   0.00622   0.00622   2.05811
    R8        2.70007   0.00050   0.00000   0.00113   0.00113   2.70120
    R9        2.68204   0.00052   0.00000   0.00124   0.00124   2.68328
   R10        2.69778   0.00014   0.00000   0.00025   0.00025   2.69803
   R11        2.70475   0.00066   0.00000   0.00157   0.00157   2.70632
   R12        2.78346  -0.00189   0.00000  -0.00532  -0.00532   2.77813
   R13        2.58941   0.00084   0.00000   0.00169   0.00169   2.59110
   R14        2.05167   0.00217   0.00000   0.00615   0.00615   2.05782
   R15        2.67001   0.00068   0.00000   0.00159   0.00159   2.67160
   R16        2.04928   0.00254   0.00000   0.00715   0.00715   2.05643
   R17        2.59474   0.00035   0.00000   0.00068   0.00068   2.59542
   R18        2.05320   0.00209   0.00000   0.00594   0.00594   2.05913
   R19        2.75415  -0.00061   0.00000  -0.00163  -0.00163   2.75253
   R20        2.81183  -0.00228   0.00000  -0.00678  -0.00678   2.80505
   R21        2.81183  -0.00228   0.00000  -0.00678  -0.00678   2.80506
   R22        2.11872  -0.00139   0.00000  -0.00441  -0.00441   2.11431
   R23        2.78886  -0.00165   0.00000  -0.00470  -0.00470   2.78416
   R24        2.78886  -0.00165   0.00000  -0.00470  -0.00470   2.78416
   R25        2.06267   0.00179   0.00000   0.00516   0.00516   2.06783
   R26        2.06071   0.00183   0.00000   0.00526   0.00526   2.06598
   R27        2.06277   0.00185   0.00000   0.00534   0.00534   2.06811
   R28        2.06267   0.00179   0.00000   0.00516   0.00516   2.06783
   R29        2.06071   0.00183   0.00000   0.00527   0.00527   2.06598
   R30        2.06277   0.00185   0.00000   0.00534   0.00534   2.06812
   R31        2.06386   0.00178   0.00000   0.00514   0.00514   2.06900
   R32        2.07212   0.00172   0.00000   0.00506   0.00506   2.07717
   R33        2.06551   0.00175   0.00000   0.00507   0.00507   2.07058
   R34        2.06386   0.00178   0.00000   0.00514   0.00514   2.06900
   R35        2.06551   0.00175   0.00000   0.00507   0.00507   2.07058
   R36        2.07212   0.00172   0.00000   0.00506   0.00506   2.07717
    A1        2.09606  -0.00017   0.00000  -0.00077  -0.00077   2.09529
    A2        2.08619   0.00009   0.00000   0.00039   0.00039   2.08659
    A3        2.10093   0.00009   0.00000   0.00038   0.00038   2.10131
    A4        2.08850  -0.00009   0.00000  -0.00014  -0.00014   2.08836
    A5        2.08734   0.00015   0.00000   0.00073   0.00073   2.08806
    A6        2.10735  -0.00006   0.00000  -0.00059  -0.00059   2.10676
    A7        2.11627  -0.00014   0.00000  -0.00036  -0.00036   2.11591
    A8        2.10029   0.00006   0.00000   0.00009   0.00009   2.10038
    A9        2.06663   0.00008   0.00000   0.00027   0.00027   2.06690
   A10        2.09231   0.00015   0.00000   0.00063   0.00063   2.09294
   A11        2.10236  -0.00030   0.00000  -0.00119  -0.00119   2.10117
   A12        2.08851   0.00014   0.00000   0.00056   0.00056   2.08907
   A13        2.03665  -0.00026   0.00000  -0.00120  -0.00120   2.03544
   A14        2.05980   0.00004   0.00000   0.00014   0.00014   2.05993
   A15        2.18674   0.00022   0.00000   0.00107   0.00107   2.18781
   A16        2.13659   0.00051   0.00000   0.00184   0.00184   2.13842
   A17        2.08826  -0.00017   0.00000  -0.00058  -0.00058   2.08768
   A18        2.05834  -0.00034   0.00000  -0.00126  -0.00126   2.05708
   A19        2.10926  -0.00022   0.00000  -0.00088  -0.00088   2.10838
   A20        2.06913   0.00012   0.00000   0.00051   0.00051   2.06965
   A21        2.10479   0.00010   0.00000   0.00037   0.00037   2.10516
   A22        2.09175   0.00004   0.00000   0.00033   0.00033   2.09208
   A23        2.10429  -0.00012   0.00000  -0.00079  -0.00079   2.10351
   A24        2.08714   0.00008   0.00000   0.00046   0.00046   2.08760
   A25        2.11321   0.00006   0.00000   0.00026   0.00026   2.11347
   A26        2.08266  -0.00008   0.00000  -0.00046  -0.00046   2.08220
   A27        2.08732   0.00002   0.00000   0.00020   0.00020   2.08752
   A28        2.10384  -0.00007   0.00000  -0.00041  -0.00041   2.10343
   A29        2.07272   0.00115   0.00000   0.00465   0.00465   2.07737
   A30        2.10663  -0.00108   0.00000  -0.00424  -0.00424   2.10238
   A31        1.97116  -0.00006   0.00000  -0.00099  -0.00099   1.97017
   A32        1.97116  -0.00006   0.00000  -0.00099  -0.00099   1.97017
   A33        1.76620  -0.00031   0.00000  -0.00657  -0.00657   1.75963
[...]
 008907,0.00009338,0.00000836,-0.00003297,0.00009220,0.00002369,0.00002
 588,0.00005124,-0.00001664,0.00013318,0.00002753,-0.00002986,0.0003898
 2,0.00012961,-0.00001239,-0.00005733,0.00014280,-0.00002056,0.00000740
 ,0.00007120,0.00009730,0.00000226,-0.00024264,0.00003142,0.00034724,-0
 .00028149,0.00041546,-0.00207014,-0.00035468,0.00026349,0.00009811,0.0
 0126579,-0.00017632,-0.01071779,-0.00954194,-0.02580306,-0.00003948,0.
 00002694,-0.00003522,-0.00002179,-0.00019436,-0.00050446,-0.08725653,-
 0.09464311,-0.21702057,0.00367601,0.00351017,-0.00307645,-0.00000805,-
 0.00010022,0.00001392,-0.00001087,-0.00004318,-0.00003843,-0.00002224,
 -0.00003232,0.00001413,-0.00007698,0.00000965,-0.00004459,0.00003156,0
 .00003853,-0.00008214,0.00009394,0.00016247,-0.00006678,-0.00011508,-0
 .00172237,-0.00019486,0.00000236,-0.00001938,-0.00005465,-0.00004765,-
 0.00002040,0.00006614,0.00002792,-0.00000061,-0.00000856,-0.00002918,0
 .00001330,-0.00002441,0.00006383,0.00026726,0.00033942,0.00003109,-0.0
 0009006,0.00018749,0.09530796,0.10085938,0.24296549,-0.00008132,0.0001
 2700,0.00007351,0.00002170,0.00003718,0.00002297,-0.00009731,0.0000861
 3,0.00003278,0.00040742,-0.00030988,-0.00005699,-0.00058536,-0.0001990
 8,-0.00026850,0.00024360,0.00011604,-0.00000428,0.00005363,0.00023691,
 -0.00006181,-0.00015753,-0.00003102,-0.00011488,0.00045041,0.00009160,
 0.00012184,0.00222669,-0.00151631,-0.00106514,-0.00043938,-0.00114108,
 -0.00041657,0.00214180,-0.01752776,0.00543306,-0.00003676,0.00002159,-
 0.00011106,-0.00028278,0.00002804,0.00005267,-0.05842301,0.05413115,-0
 .00140215,-0.00023199,0.00076992,-0.00123947,-0.00000367,-0.00008028,0
 .00000894,-0.00000009,-0.00001925,-0.00000990,-0.00000225,-0.00003836,
 0.00000185,-0.00001903,0.00003546,0.00002983,0.00002231,0.00003301,0.0
 0008723,-0.00103328,0.00043364,0.00104903,-0.00021711,0.00146371,0.000
 83434,-0.00002460,0.00000497,0.00000826,-0.00002502,0.00004838,0.00000
 931,0.00002277,-0.00001719,0.00003464,0.00011959,-0.00012230,0.0000237
 8,-0.00002954,0.00003081,0.00001305,0.00013153,-0.00006578,-0.00004829
 ,0.00249879,-0.01336719,0.00000170,0.05755141,-0.00004216,-0.00001804,
 0.00000430,0.00003725,0.00008710,0.00002475,-0.00006774,-0.00000123,-0
 .00004281,0.00008370,-0.00014319,0.00001150,-0.00034028,-0.00005180,0.
 00001361,0.00051504,0.00013455,-0.00001720,0.00013092,0.00016708,0.000
 17690,-0.00037118,0.00028863,-0.00007114,-0.00049729,-0.00047321,-0.00
 055708,0.00274331,0.00100469,-0.00010981,-0.00022906,-0.00185821,-0.00
 032021,-0.00274297,-0.01587774,0.00869845,-0.00026309,0.00009379,-0.00
 022317,-0.00022092,-0.00033203,0.00006738,0.05125684,-0.30030344,0.000
 73531,-0.00076969,0.00171379,-0.00122228,0.00001618,0.00003956,0.00000
 805,-0.00003708,-0.00001157,-0.00003428,-0.00002063,0.00000084,0.00001
 748,-0.00001179,0.00003755,-0.00002065,-0.00004696,-0.00000968,-0.0001
 1267,0.00014666,0.00066700,0.00004746,-0.00014897,0.00389711,0.0004693
 6,0.00003174,0.00001997,-0.00002144,0.00005511,0.00000288,0.00001940,0
 .00004485,-0.00007325,0.00002571,-0.00005793,0.00005847,-0.00004157,0.
 00009926,0.00006455,0.00008610,0.00005355,-0.00008533,-0.00002723,0.00
 346093,-0.01113914,0.00026945,-0.05377152,0.32454145,0.00013360,0.0001
 5217,-0.00004575,-0.00006522,0.00007311,0.00003241,0.00002065,-0.00000
 767,-0.00006952,-0.00000535,0.00015508,0.00002818,0.00041921,0.0000070
 1,0.00042014,-0.00031993,-0.00018362,0.00003819,-0.00008827,-0.0001660
 3,0.00003852,0.00012544,-0.00029974,0.00002061,-0.00031758,0.00007948,
 -0.00009347,-0.00234613,-0.00020994,0.00033884,0.00011557,0.00287593,0
 .00044470,-0.00120040,0.03543744,-0.01155199,0.00014990,-0.00009982,0.
 00028227,0.00012773,-0.00004603,-0.00064189,-0.00067703,-0.00305251,-0
 .04634738,0.00050659,0.00328670,0.00371837,-0.00001116,-0.00007707,0.0
 0000135,0.00000663,-0.00002377,-0.00000383,0.00000341,-0.00002045,0.00
 000812,-0.00005475,-0.00002322,-0.00001643,0.00003710,0.00005941,-0.00
 002911,0.00077313,-0.00021928,-0.00022558,0.00069636,-0.00341326,-0.00
 160964,-0.00004771,-0.00000641,-0.00003935,-0.00003043,-0.00000656,0.0
 0003733,-0.00000934,0.00002985,-0.00007024,-0.00004903,0.00005888,-0.0
 0002843,0.00015106,0.00019838,0.00018415,-0.00003117,-0.00002109,0.000
 25879,0.00571358,-0.02408299,0.00156136,-0.00312619,-0.00870439,0.0529
 1838,0.00008837,-0.00016135,0.00003666,-0.00002870,-0.00006059,-0.0000
 3106,0.00004878,-0.00009478,0.00000561,-0.00024484,0.00022740,-0.00005
 652,-0.00003748,0.00052157,0.00019060,-0.00023264,0.00001792,-0.000103
 37,-0.00010869,-0.00010923,-0.00006303,0.00000172,0.00001073,-0.000052
 57,0.00024854,-0.00053040,0.00018117,0.00053795,-0.00040265,0.00219350
 ,-0.00015642,-0.00094100,0.00001836,-0.01206057,-0.00186316,0.00127013
 ,-0.00005176,0.00003024,-0.00009944,-0.00023212,0.00015488,0.00019513,
 -0.31305629,0.04237967,-0.00182162,0.00038096,0.00027421,-0.00116092,0
 .00000331,0.00008372,-0.00000617,0.00000608,0.00003249,0.00001460,0.00
 000849,0.00002913,-0.00001162,0.00007164,-0.00001238,0.00002275,-0.000
 04401,-0.00004043,0.00002636,-0.00009170,-0.00012596,-0.00005979,-0.00
 032943,0.00076767,0.00009087,0.00006172,-0.00003086,0.00006061,0.00002
 140,-0.00003629,-0.00003272,0.00000225,0.00001350,0.00002566,0.0001780
 1,-0.00015590,0.00004847,-0.00011244,-0.00002044,-0.00002557,0.0001114
 8,0.00002834,-0.00003569,-0.00898436,0.00263313,0.00072488,-0.00422837
 ,0.00036009,-0.00072550,0.33748808,0.00011108,-0.00000466,-0.00005649,
 0.00001867,0.00006111,0.00004993,-0.00004744,0.00007342,-0.00003013,0.
 00015671,-0.00010891,-0.00012005,-0.00039040,0.00016580,-0.00003021,-0
 .00017182,0.00015029,0.00004797,-0.00004829,0.00014488,0.00006680,-0.0
 0016838,0.00003131,-0.00037623,-0.00029541,-0.00020351,-0.00012844,0.0
 0010653,-0.00027673,0.00275608,0.00008552,-0.00036471,0.00012949,-0.01
 871285,0.00024580,0.00181196,0.00001700,-0.00004913,0.00000036,-0.0000
 8392,0.00021923,0.00005184,0.04647914,-0.05496548,-0.00010867,0.000011
 27,0.00006181,-0.00056434,-0.00001789,-0.00008015,0.00001280,0.0000007
 1,-0.00002586,-0.00001284,-0.00000826,-0.00003074,0.00000514,-0.000027
 09,0.00001658,0.00004329,-0.00003481,0.00001676,-0.00003657,0.00000984
 ,0.00038827,0.00044781,-0.00041359,0.00048681,0.00000517,0.00001255,-0
 .00002711,0.00003160,-0.00001330,0.00003991,-0.00000161,0.00001212,-0.
 00001237,0.00000555,0.00015148,-0.00039841,0.00006498,-0.00012986,0.00
 010345,-0.00004314,0.00010217,0.00004794,-0.00007874,-0.01388269,0.002
 23271,0.00096612,0.02993436,-0.00288446,0.00042829,-0.04318542,0.05500
 411,-0.00009114,0.00004626,0.00001969,0.00004178,-0.00000742,-0.000006
 73,0.00009440,0.00003094,0.00001916,0.00011617,0.00007403,0.00020331,0
 .00089349,-0.00034498,-0.00017959,0.00007765,0.00008445,-0.00011846,0.
 00021122,0.00011472,0.00003501,-0.00008397,-0.00015175,0.00039296,0.00
 059408,0.00027725,0.00037261,0.00080932,0.00143216,-0.00411235,0.00008
 151,0.00037146,-0.00003869,0.03180554,-0.00102974,-0.00477190,-0.00003
 345,-0.00001025,0.00008643,0.00001927,0.00004419,-0.00002521,-0.010361
 05,0.00017658,-0.04806008,0.00171593,0.00001712,0.00145257,0.00000353,
 -0.00001845,0.00001684,-0.00001698,-0.00001418,-0.00003682,-0.00001189
 ,0.00000936,0.00003031,-0.00004711,0.00000429,-0.00007666,0.00006143,0
 .00000556,-0.00010176,-0.00009445,-0.00010308,-0.00020499,0.00008277,-
 0.00069228,0.00020573,-0.00000316,0.00006175,-0.00002254,0.00003901,0.
 00002141,-0.00000630,0.00000141,-0.00002920,-0.00004082,-0.00000389,-0
 .00005717,0.00006786,-0.00011047,0.00005962,0.00000004,0.00000531,0.00
 003266,-0.00002773,-0.02359265,0.00561975,0.00213471,0.00010879,-0.000
 78386,0.00009835,-0.00150049,-0.00531041,0.05321509,-0.00002547,0.0000
 4866,-0.00002570,0.00000475,0.00003944,0.00001131,-0.00005421,0.000000
 29,-0.00000242,0.00003083,0.00001510,0.00004492,0.00009214,-0.00026743
 ,-0.00005458,0.00029437,-0.00010073,0.00002277,-0.00003467,0.00002489,
 -0.00004854,-0.00009960,0.00004214,0.00011867,0.00006488,-0.00005014,0
 .00005579,0.00088073,0.00095977,-0.00157992,-0.00013812,0.00003527,0.0
 0003405,0.00388287,0.00612085,-0.01501389,-0.00003985,-0.00021282,0.00
 026013,-0.00008998,0.00003833,-0.00000715,-0.00146438,-0.00112719,-0.0
 0188899,-0.09696005,-0.05236238,0.09624375,0.00000012,0.00000156,0.000
 00897,-0.00000431,-0.00000270,0.00000475,0.00001153,0.00000093,-0.0000
 0132,-0.00001147,0.00000298,-0.00000447,0.00000409,0.00000387,-0.00000
 132,0.00008973,0.00008221,-0.00008659,0.00011587,0.00035367,0.00034449
 ,-0.00012209,0.00013977,0.00009519,0.00030846,0.00015331,-0.00006158,-
 0.00001720,-0.00009682,-0.00014683,-0.00000477,-0.00001550,0.00001937,
 0.00000887,0.00000438,-0.00003229,0.00002437,-0.00000696,0.00000287,0.
 00084319,0.00016759,-0.00067312,-0.00006770,-0.00004699,0.00002852,0.0
 0046447,-0.00007570,-0.00019472,0.09850295,0.00001080,-0.00000882,0.00
 000691,-0.00000515,-0.00000923,0.00000544,0.00003633,0.00003513,-0.000
 02491,-0.00009270,0.00009433,0.00002979,0.00039402,0.00006376,0.000097
 98,-0.00015838,-0.00002728,0.00005987,0.00005155,-0.00010501,0.0000289
 0,0.00018704,0.00012121,-0.00005503,-0.00012237,-0.00045945,0.00005318
 ,0.00036370,0.00067496,-0.00035378,-0.00008458,0.00003452,0.00011215,0
 .00740489,0.00601309,-0.01568693,0.00021269,0.00002435,-0.00026898,0.0
 0010803,-0.00000009,-0.00003156,-0.00152366,-0.00075509,-0.00196090,-0
 .05248071,-0.10453249,0.10129323,-0.00001211,-0.00005448,-0.00000006,0
 .00000139,-0.00001326,-0.00000780,-0.00000729,-0.00001228,0.00000481,-
 0.00002102,0.00000194,0.00000159,-0.00001082,0.00000847,-0.00001267,-0
 .00008335,0.00005690,0.00008726,0.00024927,0.00066603,0.00011716,-0.00
 002137,0.00007362,0.00004522,-0.00018529,-0.00051313,0.00007309,0.0000
 1794,0.00005139,0.00012361,0.00000228,0.00000617,-0.00001388,-0.000008
 82,0.00002156,0.00004082,-0.00001914,-0.00000760,0.00001221,0.00016441
 ,0.00072244,-0.00076750,-0.00010369,0.00033077,-0.00054511,-0.00011416
 ,-0.00021600,0.00006510,0.05656194,0.10657811,-0.00004896,-0.00007002,
 0.00003913,0.00001288,-0.00004283,-0.00003059,0.00001549,-0.00005080,0
 .00001686,-0.00020025,-0.00000475,0.00003338,-0.00026254,-0.00012034,-
 0.00003199,0.00004194,-0.00014098,-0.00010938,0.00009718,-0.00008264,-
 0.00001345,0.00000085,0.00019672,-0.00004716,-0.00039941,0.00027537,0.
 00039810,0.00209111,0.00026443,0.00029813,-0.00010921,-0.00128463,-0.0
 0021029,0.01070709,0.00949295,-0.02571891,-0.00002240,0.00021927,-0.00
 050763,0.00001121,-0.00004003,-0.00002396,-0.00381991,-0.00351456,-0.0
 0316323,0.08724777,0.09468188,-0.21708545,0.00000699,0.00006888,-0.000
 01407,-0.00000735,0.00001897,-0.00000789,-0.00000264,0.00002341,-0.000
 00417,0.00002526,-0.00000476,-0.00000859,-0.00002080,-0.00002802,-0.00
 002454,-0.00011644,-0.00009382,-0.00001686,0.00014415,0.00175467,-0.00
 018951,0.00005912,-0.00003230,0.00002056,-0.00003564,-0.00026036,0.000
 33632,-0.00003270,0.00009826,0.00019368,-0.00002433,0.00004115,-0.0000
 2233,0.00004591,0.00004111,0.00004167,-0.00000246,-0.00001341,0.000008
 28,0.00068302,0.00077274,-0.00123356,-0.00006333,0.00005390,0.00006654
 ,0.00004410,-0.00006843,0.00029187,-0.09533389,-0.10092954,0.24299529,
 0.00006479,-0.00033573,0.00002423,-0.00000553,-0.00013624,-0.00007658,
 0.00009633,-0.00018748,0.00006049,-0.00042061,0.00034604,0.00018125,-0
 .00004988,0.00053805,-0.00023055,-0.00026956,0.00005392,-0.00007098,-0
 .00012302,-0.00013445,-0.00015401,-0.00000062,0.00011895,-0.00010080,0
 .00034295,-0.00059702,-0.00021356,0.00055335,-0.00024219,-0.00212751,-
 0.00007173,-0.00092612,-0.00008491,-0.01204698,-0.00178730,-0.00110364
 ,-0.00027983,0.00021278,-0.00016493,-0.00006479,0.00001278,0.00008619,
 0.00031523,0.00012718,0.00090100,-0.31284275,0.04228264,0.00173522,0.0
 0001461,0.00022533,-0.00004916,0.00000977,0.00007792,0.00004524,0.0000
 2213,0.00008106,-0.00002405,0.00015856,-0.00001764,0.00004764,-0.00006
 834,-0.00009595,0.00008618,-0.00018037,-0.00028953,0.00015666,-0.00040
 077,0.00074289,-0.00007935,0.00024108,-0.00018816,0.00003547,-0.000047
 35,-0.00007827,-0.00002076,0.00007476,0.00006224,0.00003844,0.00002129
 ,0.00001681,0.00000750,0.00002547,-0.00006676,0.00002388,0.00001822,0.
 00000374,0.00001705,0.00052498,-0.00002281,0.00004805,-0.00015695,0.00
 015964,-0.00011664,0.00047215,0.00023104,-0.00041940,-0.00901000,0.002
 62027,-0.00069540,0.33736317,0.00010178,-0.00004881,0.00004141,0.00002
 698,0.00003901,-0.00002367,-0.00003907,0.00004871,0.00001393,0.0001175
 4,-0.00007963,0.00008862,-0.00040231,0.00016890,0.00003887,-0.00018112
 ,0.00015814,-0.00000356,-0.00005870,0.00013736,-0.00001128,-0.00017006
 ,0.00006349,0.00041552,-0.00026755,-0.00022100,0.00013853,0.00010941,-
 0.00022767,-0.00277339,0.00010767,-0.00035984,-0.00011240,-0.01870275,
 0.00026830,-0.00185300,-0.00008716,0.00021445,-0.00004663,0.00000920,-
 0.00003485,-0.00000797,0.00007067,0.00003720,0.00058810,0.04646908,-0.
 05500637,0.00017340,-0.00001517,-0.00004231,0.00000107,0.00000289,-0.0
 0001244,-0.00000247,-0.00000331,-0.00001694,0.00000408,-0.00000148,0.0
 0001506,-0.00006135,-0.00004150,0.00000203,0.00000733,-0.00001071,0.00
 034189,-0.00047337,-0.00043407,0.00047902,-0.00000774,0.00014197,-0.00
 038645,-0.00008292,-0.00012850,0.00009471,0.00004379,0.00010597,0.0000
 4547,0.00006847,0.00002759,-0.00003540,-0.00005247,0.00000130,0.000024
 06,0.00001346,0.00000177,-0.00000357,-0.00000670,-0.00008097,-0.000217
 60,0.00006381,0.00025454,-0.00018882,-0.00017135,0.00019491,0.00034899
 ,0.00012419,-0.01387075,0.00225897,-0.00099132,-0.04319312,0.05501420,
 0.00010970,0.00005506,0.00001674,-0.00005716,0.00005553,-0.00000641,-0
 .00011712,0.00002227,0.00003157,-0.00002471,-0.00013868,0.00017609,-0.
 00087062,0.00033652,-0.00005738,-0.00005936,-0.00010446,-0.00015762,-0
 .00019050,-0.00010172,-0.00011920,0.00008508,0.00008554,0.00021659,-0.
 00065337,-0.00024214,0.00025905,-0.00081621,-0.00153048,-0.00404948,-0
 .00013064,-0.00038204,-0.00011361,-0.03181748,0.00098245,-0.00471876,0
 .00009484,-0.00007708,-0.00006352,-0.00005467,0.00002218,0.00007389,-0
 .00181688,0.00002527,0.00145660,0.01037372,-0.00008100,-0.04815048,-0.
 00001027,-0.00006521,0.00000301,0.00001280,-0.00001436,0.00001724,0.00
 000102,-0.00003984,0.00001007,-0.00000766,-0.00000089,0.00000108,-0.00
 004674,0.00002658,0.00003423,0.00014208,0.00020392,-0.00010317,-0.0000
 3957,0.00071019,0.00018429,-0.00005830,0.00005268,0.00010313,0.0000589
 5,-0.00004232,0.00001446,-0.00001574,-0.00000263,0.00000854,0.00005334
 ,-0.00006567,0.00002001,-0.00002326,0.00001398,-0.00001573,0.00002356,
 -0.00001509,-0.00002549,0.00017233,-0.00008519,0.00025252,0.00023148,0
 .00014749,-0.00027046,0.00048318,-0.00013047,-0.00053206,0.02359053,-0
 .00564938,0.00213647,0.00150974,0.00529667,0.05323749,-0.00009337,-0.0
 0005993,-0.00007673,0.00003901,-0.00002844,-0.00001957,-0.00002710,-0.
 00001723,-0.00002974,0.00018689,-0.00016974,0.00004135,-0.00055421,-0.
 00017710,0.00031863,0.00019922,0.00015771,-0.00000504,0.00007501,0.000
 20632,0.00000726,-0.00015699,0.00007031,0.00004893,0.00053556,0.000019
 78,-0.00016524,0.00225264,-0.00137599,0.00108739,-0.00034917,-0.001131
 39,0.00038858,0.00215212,-0.01746500,-0.00542084,-0.00028932,0.0000416
 8,-0.00004200,-0.00012400,0.00005630,0.00008039,-0.00019453,0.00062771
 ,0.00113967,-0.05835269,0.05400561,0.00149040,0.00000913,0.00006579,-0
 .00001262,-0.00000273,0.00002223,0.00002963,0.00000445,0.00001626,-0.0
 0000866,0.00005782,0.00003154,-0.00000086,-0.00000038,-0.00002403,-0.0
 0003641,-0.00114103,0.00027659,-0.00101219,-0.00028496,0.00144706,-0.0
 0084331,0.00010934,-0.00011180,0.00000018,-0.00000061,-0.00001581,-0.0
 0002850,0.00011826,-0.00003907,0.00003410,0.00001370,0.00001273,-0.000
 00630,0.00003196,0.00000799,0.00000911,0.00002135,-0.00001908,-0.00000
 100,-0.00005874,-0.00006845,0.00007697,0.00025141,0.00049120,0.0002133
 9,-0.00019555,0.00026694,-0.00019779,0.00251965,-0.01333194,-0.0000364
 0,-0.00427976,0.02994503,-0.00013208,0.05752761,-0.00003146,-0.0001711
 9,0.00001214,0.00004296,0.00005940,-0.00004489,0.00002174,-0.00010064,
 0.00003169,-0.00015713,0.00000163,0.00006114,-0.00023717,-0.00002570,-
 0.00024840,0.00046485,0.00017087,0.00005918,0.00021356,0.00012742,0.00
 007126,-0.00036935,0.00035625,0.00037183,-0.00045174,-0.00053953,0.000
 76314,0.00278042,0.00107489,0.00000283,-0.00015315,-0.00186136,0.00044
 775,-0.00274067,-0.01585078,-0.00876643,-0.00047837,-0.00025869,-0.000
 00391,-0.00013689,0.00007084,0.00025793,-0.00069448,0.00164614,0.00119
 077,0.05118703,-0.30046712,-0.00064913,0.00002746,0.00015357,0.0000077
 2,-0.00005069,0.00001235,-0.00005554,-0.00002931,0.00004570,0.00001395
 ,0.00002600,0.00003770,-0.00011129,-0.00005983,-0.00005392,-0.00012017
 ,0.00003467,0.00056354,-0.00021990,-0.00019321,0.00390278,-0.00042778,
 0.00007164,0.00006125,-0.00000375,0.00021484,0.00004764,-0.00010536,0.
 00008286,-0.00014106,-0.00004067,-0.00006626,0.00003569,-0.00005084,0.
 00003385,-0.00004285,-0.00001999,0.00001728,0.00000123,-0.00004534,-0.
 00001200,0.00035128,-0.00000659,0.00042626,0.00030138,-0.00146145,0.00
 012541,-0.00019099,-0.00012008,0.00343916,-0.01112349,-0.00023015,0.00
 038550,-0.00287823,0.00073232,-0.05373378,0.32468398,-0.00013129,-0.00
 004383,-0.00003153,0.00005769,-0.00004017,0.00000694,-0.00006762,0.000
 06878,-0.00005243,0.00014442,-0.00024083,0.00005407,-0.00045327,-0.000
 02167,0.00042772,0.00034746,0.00015837,-0.00000880,0.00006316,0.000185
 16,-0.00003487,-0.00012627,0.00024569,-0.00004037,0.00027348,-0.000037
 29,-0.00011658,0.00232930,0.00013881,0.00036275,-0.00016764,-0.0028788
 2,0.00041812,0.00119398,-0.03546804,-0.01151142,-0.00008514,0.00003674
 ,-0.00065477,-0.00012829,0.00007921,0.00029156,-0.00056908,-0.00321922
 ,0.00372212,0.00070349,0.00309773,-0.04644476,0.00000359,-0.00000575,-
 0.00001397,-0.00000285,0.00000217,0.00001808,-0.00000449,-0.00001086,-
 0.00000304,0.00001556,0.00002496,0.00001127,-0.00002498,-0.00002697,0.
 00001714,-0.00070695,0.00030471,-0.00018906,-0.00065974,0.00341833,-0.
 00161044,0.00004439,-0.00007388,-0.00001193,-0.00017547,-0.00017885,0.
 00018661,0.00002527,0.00002453,0.00028274,0.00003481,0.00001027,-0.000
 00827,0.00000093,0.00003513,0.00002246,0.00002114,-0.00004736,-0.00007
 581,-0.00002706,0.00054011,0.00006861,-0.00019052,0.00143319,0.0005464
 8,0.00015341,0.00017158,-0.00027986,-0.00572874,0.02404972,0.00158728,
 0.00072799,-0.00043966,0.00013031,0.00310931,0.00870801,0.05293365\\0.
 00002333,0.00000600,-0.00000026,0.00000480,-0.00002046,0.00000015,-0.0
 0001450,-0.00001701,0.00000010,0.00001321,0.00000368,-0.00000017,-0.00
 003797,-0.00000070,0.00000098,0.00001422,-0.00001003,0.00000029,-0.000
 01934,-0.00000743,0.00000001,-0.00001201,0.00000736,0.,0.00001068,0.00
 000501,-0.00000003,-0.00001906,-0.00002085,0.00000050,0.00005318,-0.00
 005223,-0.00000601,0.00005354,0.00005505,-0.00000436,-0.00003707,0.000
 04868,-0.00005689,-0.00003769,0.00004432,0.00005642,-0.00003276,-0.000
 03328,0.00004054,-0.00003207,-0.00003720,-0.00004014,0.00000371,0.0000
 0361,0.00000012,0.00001705,0.00000547,0.00000008,0.00001796,-0.0000137
 2,-0.00000015,0.00001199,-0.00001379,0.,-0.00000547,-0.00002474,-0.000
 00010,-0.00002477,-0.00000927,-0.00000005,-0.00001890,0.00000983,0.000
 01116,0.00000333,0.00000081,0.00000976,0.00001260,-0.00000509,-0.00000
 357,0.00001862,0.00000426,0.00001017,0.00000321,0.00000068,-0.00000959
 ,0.00001263,-0.00000539,0.00000370,0.00001987,0.00000429,-0.00001150,0
 .00000481,0.00001413,0.00000094,0.00000032,0.00000277,-0.00000903,-0.0
 0000624,0.00001915,-0.00001190,0.00000505,0.00001443,-0.00000120,-0.00
 000631,0.00001902,0.00001193,0.00000004,0.00000264,0.00000813\\\@


 ERROR IS A HARDY PLANT... IT FLOURISHETH IN EVERY SOIL.
            MARTIN FARQUHAR TUPPER
 Job cpu time:       0 days 15 hours 45 minutes  2.6 seconds.
 File lengths (MBytes):  RWF=   1875 Int=      0 D2E=      0 Chk=     22 Scr=      1
 Normal termination of Gaussian 09 at Sun Dec 15 07:22:31 2024.
