 Entering Gaussian System, Link 0=g09
 Input=B2PLYPD3BJDMAN.gjf
 Output=B2PLYPD3BJDMAN.log
 Initial command:
 /home/c612/g09E/g09/l1.exe "/mnt/ja_sm883/scratch/Gau-1869870.inp" -scrdir="/mnt/ja_sm883/scratch/"
 Default is to use a total of  18 processors:
                               18 via shared-memory
                                1 via Linda
 Entering Link 1 = /home/c612/g09E/g09/l1.exe PID=   1869872.
  
 Copyright (c) 1988,1990,1992,1993,1995,1998,2003,2009,2015,
            Gaussian, Inc.  All Rights Reserved.
  
 This is part of the Gaussian(R) 09 program.  It is based on
 the Gaussian(R) 03 system (copyright 2003, Gaussian, Inc.),
 the Gaussian(R) 98 system (copyright 1998, Gaussian, Inc.),
 the Gaussian(R) 94 system (copyright 1995, Gaussian, Inc.),
 the Gaussian 92(TM) system (copyright 1992, Gaussian, Inc.),
 the Gaussian 90(TM) system (copyright 1990, Gaussian, Inc.),
 the Gaussian 88(TM) system (copyright 1988, Gaussian, Inc.),
 the Gaussian 86(TM) system (copyright 1986, Carnegie Mellon
 University), and the Gaussian 82(TM) system (copyright 1983,
 Carnegie Mellon University). Gaussian is a federally registered
 trademark of Gaussian, Inc.
  
 This software contains proprietary and confidential information,
 including trade secrets, belonging to Gaussian, Inc.
  
 This software is provided under written license and may be
 used, copied, transmitted, or stored only in accord with that
 written license.
  
 The following legend is applicable only to US Government
 contracts under FAR:
  
                    RESTRICTED RIGHTS LEGEND
  
 Use, reproduction and disclosure by the US Government is
 subject to restrictions as set forth in subparagraphs (a)
 and (c) of the Commercial Computer Software - Restricted
 Rights clause in FAR 52.227-19.
  
 Gaussian, Inc.
 340 Quinnipiac St., Bldg. 40, Wallingford CT 06492
  
  
 ---------------------------------------------------------------
 Warning -- This program may not be used in any manner that
 competes with the business of Gaussian, Inc. or will provide
 assistance to any competitor of Gaussian, Inc.  The licensee
 of this program is prohibited from giving any competitor of
 Gaussian, Inc. access to this program.  By using this program,
 the user acknowledges that Gaussian, Inc. is engaged in the
 business of creating and licensing software in the field of
 computational chemistry and represents and warrants to the
 licensee that it is not a competitor of Gaussian, Inc. and that
 it will not use this program in any manner prohibited above.
 ---------------------------------------------------------------
  

 Cite this work as:
 Gaussian 09, Revision E.01,
 M. J. Frisch, G. W. Trucks, H. B. Schlegel, G. E. Scuseria, 
 M. A. Robb, J. R. Cheeseman, G. Scalmani, V. Barone, B. Mennucci, 
 G. A. Petersson, H. Nakatsuji, M. Caricato, X. Li, H. P. Hratchian, 
 A. F. Izmaylov, J. Bloino, G. Zheng, J. L. Sonnenberg, M. Hada, 
 M. Ehara, K. Toyota, R. Fukuda, J. Hasegawa, M. Ishida, T. Nakajima, 
 Y. Honda, O. Kitao, H. Nakai, T. Vreven, J. A. Montgomery, Jr., 
 J. E. Peralta, F. Ogliaro, M. Bearpark, J. J. Heyd, E. Brothers, 
 K. N. Kudin, V. N. Staroverov, T. Keith, R. Kobayashi, J. Normand, 
 K. Raghavachari, A. Rendell, J. C. Burant, S. S. Iyengar, J. Tomasi, 
 M. Cossi, N. Rega, J. M. Millam, M. Klene, J. E. Knox, J. B. Cross, 
 V. Bakken, C. Adamo, J. Jaramillo, R. Gomperts, R. E. Stratmann, 
 O. Yazyev, A. J. Austin, R. Cammi, C. Pomelli, J. W. Ochterski, 
 R. L. Martin, K. Morokuma, V. G. Zakrzewski, G. A. Voth, 
 P. Salvador, J. J. Dannenberg, S. Dapprich, A. D. Daniels, 
 O. Farkas, J. B. Foresman, J. V. Ortiz, J. Cioslowski, 
 and D. J. Fox, Gaussian, Inc., Wallingford CT, 2013.
 
 ******************************************
 Gaussian 09:  ES64L-G09RevE.01 30-Nov-2015
                18-Dec-2024 
 ******************************************
 %chk=B2PLYPD3BJDMAN.chk
 -------------------------------------------------------
 # opt freq B2PLYP/6-31+g(d,p) EmpiricalDispersion=GD3BJ
 -------------------------------------------------------
 1/18=20,19=15,38=1/1,3;
 2/9=110,12=2,17=6,18=5,40=1/2;
 3/5=1,6=6,7=111,11=9,16=1,25=1,30=1,71=1,74=-47,124=41/1,2,3;
 4//1;
 5/5=2,38=5/2;
 8/6=4,10=2/1;
 9/15=2,16=-3/6;
 10/5=1/2;
 6/7=2,8=2,9=2,10=2/1;
 7/12=2/1,2,3,16;
 1/18=20,19=15/3(2);
 2/9=110/2;
 99//99;
 2/9=110/2;
 3/5=1,6=6,7=111,11=9,16=1,25=1,30=1,71=1,74=-47,124=41/1,2,3;
 4/5=5,16=3,69=1/1;
 5/5=2,38=5/2;
 8/6=4,10=2/1;
 9/15=2,16=-3/6;
 10/5=1/2;
 7/12=2/1,2,3,16;
 1/18=20,19=15/3(-8);
 2/9=110/2;
 6/7=2,8=2,9=2,10=2/1;
 99//99;
 ----------
 [No Title]
 ----------
 Symbolic Z-matrix:
 Charge =  0 Multiplicity = 1
 C                     0.68179   2.43436   0.23277 
 C                     2.0813    2.39137   0.37759 
 C                     2.74936   1.20545   0.21114 
 C                     2.02994   0.0002    0. 
 C                     0.59207   0.00006   0. 
 C                    -0.06945   1.28941  -0.00738 
 C                     2.74959  -1.20492  -0.21114 
 C                     2.08176  -2.39097  -0.37759 
 C                     0.68226  -2.43423  -0.23277 
 C                    -0.0692   -1.28943   0.00738 
 N                    -1.44898   1.39117  -0.27144 
 N                    -1.44871  -1.39145   0.27144 
 C                    -1.89088   0.90343  -1.57118 
 C                    -2.11867   2.62062   0.09382 
 C                    -2.11816  -2.62103  -0.09382 
 C                    -1.89071  -0.90378   1.57117 
 H                     0.19219   3.40148   0.24579 
 H                     2.62705   3.31363   0.55855 
 H                     3.83484   1.16519   0.24297 
 H                     3.83507  -1.16445  -0.24296 
 H                     2.62769  -3.31312  -0.55855 
 H                     0.19285  -3.40144  -0.24579 
 H                    -1.33551   0.01158  -1.85542 
 H                    -2.95412   0.64353  -1.52848 
 H                    -1.74814   1.66924  -2.35444 
 H                    -1.87608   2.89594   1.12411 
 H                    -1.87322   3.4744   -0.56486 
 H                    -3.19993   2.45898   0.02984 
 H                    -1.87552  -2.89631  -1.1241 
 H                    -1.87254  -3.47477   0.56487 
 H                    -3.19945  -2.4596   -0.02983 
 H                    -1.33552  -0.01182   1.8554 
 H                    -2.95401  -0.6441    1.52846 
 H                    -1.74781  -1.66955   2.35444 
 

 GradGradGradGradGradGradGradGradGradGradGradGradGradGradGradGradGradGrad
 Berny optimization.
 Initialization pass.
                           ----------------------------
                           !    Initial Parameters    !
                           ! (Angstroms and Degrees)  !
 --------------------------                            --------------------------
 ! Name  Definition              Value          Derivative Info.                !
 --------------------------------------------------------------------------------
 ! R1    R(1,2)                  1.4076         estimate D2E/DX2                !
 ! R2    R(1,6)                  1.3903         estimate D2E/DX2                !
 ! R3    R(1,17)                 1.0841         estimate D2E/DX2                !
 ! R4    R(2,3)                  1.3713         estimate D2E/DX2                !
 ! R5    R(2,18)                 1.0868         estimate D2E/DX2                !
 ! R6    R(3,4)                  1.4194         estimate D2E/DX2                !
 ! R7    R(3,19)                 1.0867         estimate D2E/DX2                !
 ! R8    R(4,5)                  1.4379         estimate D2E/DX2                !
 ! R9    R(4,7)                  1.4194         estimate D2E/DX2                !
 ! R10   R(5,6)                  1.4492         estimate D2E/DX2                !
 ! R11   R(5,10)                 1.4492         estimate D2E/DX2                !
 ! R12   R(6,11)                 1.4083         estimate D2E/DX2                !
 ! R13   R(7,8)                  1.3713         estimate D2E/DX2                !
 ! R14   R(7,20)                 1.0867         estimate D2E/DX2                !
 ! R15   R(8,9)                  1.4076         estimate D2E/DX2                !
 ! R16   R(8,21)                 1.0868         estimate D2E/DX2                !
 ! R17   R(9,10)                 1.3903         estimate D2E/DX2                !
 ! R18   R(9,22)                 1.0841         estimate D2E/DX2                !
 ! R19   R(10,12)                1.4083         estimate D2E/DX2                !
 ! R20   R(11,13)                1.4569         estimate D2E/DX2                !
 ! R21   R(11,14)                1.4469         estimate D2E/DX2                !
 ! R22   R(12,15)                1.4469         estimate D2E/DX2                !
 ! R23   R(12,16)                1.4569         estimate D2E/DX2                !
 ! R24   R(13,23)                1.0884         estimate D2E/DX2                !
 ! R25   R(13,24)                1.0954         estimate D2E/DX2                !
 ! R26   R(13,25)                1.1047         estimate D2E/DX2                !
 ! R27   R(14,26)                1.0937         estimate D2E/DX2                !
 ! R28   R(14,27)                1.1059         estimate D2E/DX2                !
 ! R29   R(14,28)                1.0952         estimate D2E/DX2                !
 ! R30   R(15,29)                1.0937         estimate D2E/DX2                !
 ! R31   R(15,30)                1.1059         estimate D2E/DX2                !
 ! R32   R(15,31)                1.0952         estimate D2E/DX2                !
 ! R33   R(16,32)                1.0884         estimate D2E/DX2                !
 ! R34   R(16,33)                1.0954         estimate D2E/DX2                !
 ! R35   R(16,34)                1.1047         estimate D2E/DX2                !
 ! A1    A(2,1,6)              121.9951         estimate D2E/DX2                !
 ! A2    A(2,1,17)             118.3612         estimate D2E/DX2                !
 ! A3    A(6,1,17)             119.5199         estimate D2E/DX2                !
 ! A4    A(1,2,3)              119.8865         estimate D2E/DX2                !
 ! A5    A(1,2,18)             119.3722         estimate D2E/DX2                !
 ! A6    A(3,2,18)             120.6274         estimate D2E/DX2                !
 ! A7    A(2,3,4)              120.3628         estimate D2E/DX2                !
 ! A8    A(2,3,19)             121.0054         estimate D2E/DX2                !
 ! A9    A(4,3,19)             118.631          estimate D2E/DX2                !
 ! A10   A(3,4,5)              120.4585         estimate D2E/DX2                !
 ! A11   A(3,4,7)              119.0828         estimate D2E/DX2                !
 ! A12   A(5,4,7)              120.4586         estimate D2E/DX2                !
 ! A13   A(4,5,6)              117.1546         estimate D2E/DX2                !
 ! A14   A(4,5,10)             117.1545         estimate D2E/DX2                !
 ! A15   A(6,5,10)             125.6909         estimate D2E/DX2                !
 ! A16   A(1,6,5)              119.0238         estimate D2E/DX2                !
 ! A17   A(1,6,11)             120.1459         estimate D2E/DX2                !
 ! A18   A(5,6,11)             120.8245         estimate D2E/DX2                !
 ! A19   A(4,7,8)              120.3627         estimate D2E/DX2                !
 ! A20   A(4,7,20)             118.631          estimate D2E/DX2                !
 ! A21   A(8,7,20)             121.0054         estimate D2E/DX2                !
 ! A22   A(7,8,9)              119.8864         estimate D2E/DX2                !
 ! A23   A(7,8,21)             120.6274         estimate D2E/DX2                !
 ! A24   A(9,8,21)             119.3722         estimate D2E/DX2                !
 ! A25   A(8,9,10)             121.9951         estimate D2E/DX2                !
 ! A26   A(8,9,22)             118.3612         estimate D2E/DX2                !
 ! A27   A(10,9,22)            119.5198         estimate D2E/DX2                !
 ! A28   A(5,10,9)             119.0238         estimate D2E/DX2                !
 ! A29   A(5,10,12)            120.8245         estimate D2E/DX2                !
 ! A30   A(9,10,12)            120.1459         estimate D2E/DX2                !
 ! A31   A(6,11,13)            116.1185         estimate D2E/DX2                !
 ! A32   A(6,11,14)            117.8704         estimate D2E/DX2                !
 ! A33   A(13,11,14)           111.6728         estimate D2E/DX2                !
 ! A34   A(10,12,15)           117.8704         estimate D2E/DX2                !
 ! A35   A(10,12,16)           116.1185         estimate D2E/DX2                !
 ! A36   A(15,12,16)           111.6728         estimate D2E/DX2                !
 ! A37   A(11,13,23)           110.6427         estimate D2E/DX2                !
 ! A38   A(11,13,24)           109.8208         estimate D2E/DX2                !
 ! A39   A(11,13,25)           111.1787         estimate D2E/DX2                !
 ! A40   A(23,13,24)           108.1231         estimate D2E/DX2                !
 ! A41   A(23,13,25)           108.4778         estimate D2E/DX2                !
 ! A42   A(24,13,25)           108.5145         estimate D2E/DX2                !
 ! A43   A(11,14,26)           110.4301         estimate D2E/DX2                !
 ! A44   A(11,14,27)           113.7608         estimate D2E/DX2                !
 ! A45   A(11,14,28)           108.4708         estimate D2E/DX2                !
 ! A46   A(26,14,27)           108.5119         estimate D2E/DX2                !
 ! A47   A(26,14,28)           108.1307         estimate D2E/DX2                !
 ! A48   A(27,14,28)           107.3536         estimate D2E/DX2                !
 ! A49   A(12,15,29)           110.43           estimate D2E/DX2                !
 ! A50   A(12,15,30)           113.7608         estimate D2E/DX2                !
 ! A51   A(12,15,31)           108.4706         estimate D2E/DX2                !
 ! A52   A(29,15,30)           108.512          estimate D2E/DX2                !
 ! A53   A(29,15,31)           108.1308         estimate D2E/DX2                !
 ! A54   A(30,15,31)           107.3537         estimate D2E/DX2                !
 ! A55   A(12,16,32)           110.6428         estimate D2E/DX2                !
 ! A56   A(12,16,33)           109.8207         estimate D2E/DX2                !
 ! A57   A(12,16,34)           111.1787         estimate D2E/DX2                !
 ! A58   A(32,16,33)           108.123          estimate D2E/DX2                !
 ! A59   A(32,16,34)           108.4778         estimate D2E/DX2                !
 ! A60   A(33,16,34)           108.5145         estimate D2E/DX2                !
 ! D1    D(6,1,2,3)              3.4924         estimate D2E/DX2                !
 ! D2    D(6,1,2,18)           179.6371         estimate D2E/DX2                !
 ! D3    D(17,1,2,3)          -172.4402         estimate D2E/DX2                !
 ! D4    D(17,1,2,18)            3.7045         estimate D2E/DX2                !
 ! D5    D(2,1,6,5)              5.1451         estimate D2E/DX2                !
 ! D6    D(2,1,6,11)          -173.9853         estimate D2E/DX2                !
 ! D7    D(17,1,6,5)          -178.9682         estimate D2E/DX2                !
 ! D8    D(17,1,6,11)            1.9015         estimate D2E/DX2                !
 ! D9    D(1,2,3,4)             -5.0862         estimate D2E/DX2                !
 ! D10   D(1,2,3,19)           175.2525         estimate D2E/DX2                !
 ! D11   D(18,2,3,4)           178.8183         estimate D2E/DX2                !
 ! D12   D(18,2,3,19)           -0.8431         estimate D2E/DX2                !
 ! D13   D(2,3,4,5)             -1.9714         estimate D2E/DX2                !
 ! D14   D(2,3,4,7)            178.0287         estimate D2E/DX2                !
 ! D15   D(19,3,4,5)           177.6979         estimate D2E/DX2                !
 ! D16   D(19,3,4,7)            -2.302          estimate D2E/DX2                !
 ! D17   D(3,4,5,6)             10.2648         estimate D2E/DX2                !
 ! D18   D(3,4,5,10)          -169.7352         estimate D2E/DX2                !
 ! D19   D(7,4,5,6)           -169.7352         estimate D2E/DX2                !
 ! D20   D(7,4,5,10)            10.2648         estimate D2E/DX2                !
 ! D21   D(3,4,7,8)            178.0286         estimate D2E/DX2                !
 ! D22   D(3,4,7,20)            -2.3021         estimate D2E/DX2                !
 ! D23   D(5,4,7,8)             -1.9714         estimate D2E/DX2                !
 ! D24   D(5,4,7,20)           177.698          estimate D2E/DX2                !
 ! D25   D(4,5,6,1)            -11.7081         estimate D2E/DX2                !
 ! D26   D(4,5,6,11)           167.4162         estimate D2E/DX2                !
 ! D27   D(10,5,6,1)           168.2919         estimate D2E/DX2                !
 ! D28   D(10,5,6,11)          -12.5838         estimate D2E/DX2                !
 ! D29   D(4,5,10,9)           -11.7081         estimate D2E/DX2                !
 ! D30   D(4,5,10,12)          167.4163         estimate D2E/DX2                !
 ! D31   D(6,5,10,9)           168.2919         estimate D2E/DX2                !
 ! D32   D(6,5,10,12)          -12.5837         estimate D2E/DX2                !
 ! D33   D(1,6,11,13)          118.6793         estimate D2E/DX2                !
 ! D34   D(1,6,11,14)          -17.7519         estimate D2E/DX2                !
 ! D35   D(5,6,11,13)          -60.4352         estimate D2E/DX2                !
 ! D36   D(5,6,11,14)          163.1337         estimate D2E/DX2                !
 ! D37   D(4,7,8,9)             -5.0862         estimate D2E/DX2                !
 ! D38   D(4,7,8,21)           178.8183         estimate D2E/DX2                !
 ! D39   D(20,7,8,9)           175.2524         estimate D2E/DX2                !
 ! D40   D(20,7,8,21)           -0.8431         estimate D2E/DX2                !
 ! D41   D(7,8,9,10)             3.4924         estimate D2E/DX2                !
 ! D42   D(7,8,9,22)          -172.4401         estimate D2E/DX2                !
 ! D43   D(21,8,9,10)          179.6371         estimate D2E/DX2                !
 ! D44   D(21,8,9,22)            3.7045         estimate D2E/DX2                !
 ! D45   D(8,9,10,5)             5.145          estimate D2E/DX2                !
 ! D46   D(8,9,10,12)         -173.9854         estimate D2E/DX2                !
 ! D47   D(22,9,10,5)         -178.9682         estimate D2E/DX2                !
 ! D48   D(22,9,10,12)           1.9014         estimate D2E/DX2                !
 ! D49   D(5,10,12,15)         163.134          estimate D2E/DX2                !
 ! D50   D(5,10,12,16)         -60.4346         estimate D2E/DX2                !
 ! D51   D(9,10,12,15)         -17.7514         estimate D2E/DX2                !
 ! D52   D(9,10,12,16)         118.6799         estimate D2E/DX2                !
 ! D53   D(6,11,13,23)          37.6468         estimate D2E/DX2                !
 ! D54   D(6,11,13,24)         156.9294         estimate D2E/DX2                !
 ! D55   D(6,11,13,25)         -82.9621         estimate D2E/DX2                !
 ! D56   D(14,11,13,23)        176.6795         estimate D2E/DX2                !
 ! D57   D(14,11,13,24)        -64.0379         estimate D2E/DX2                !
 ! D58   D(14,11,13,25)         56.0706         estimate D2E/DX2                !
 ! D59   D(6,11,14,26)         -49.4178         estimate D2E/DX2                !
 ! D60   D(6,11,14,27)          72.8704         estimate D2E/DX2                !
 ! D61   D(6,11,14,28)        -167.7467         estimate D2E/DX2                !
 ! D62   D(13,11,14,26)        172.3352         estimate D2E/DX2                !
 ! D63   D(13,11,14,27)        -65.3766         estimate D2E/DX2                !
 ! D64   D(13,11,14,28)         54.0063         estimate D2E/DX2                !
 ! D65   D(10,12,15,29)        -49.4181         estimate D2E/DX2                !
 ! D66   D(10,12,15,30)         72.8701         estimate D2E/DX2                !
 ! D67   D(10,12,15,31)       -167.747          estimate D2E/DX2                !
 ! D68   D(16,12,15,29)        172.3347         estimate D2E/DX2                !
 ! D69   D(16,12,15,30)        -65.377          estimate D2E/DX2                !
 ! D70   D(16,12,15,31)         54.0058         estimate D2E/DX2                !
 ! D71   D(10,12,16,32)         37.6473         estimate D2E/DX2                !
 ! D72   D(10,12,16,33)        156.9298         estimate D2E/DX2                !
 ! D73   D(10,12,16,34)        -82.9618         estimate D2E/DX2                !
 ! D74   D(15,12,16,32)        176.6801         estimate D2E/DX2                !
 ! D75   D(15,12,16,33)        -64.0374         estimate D2E/DX2                !
 ! D76   D(15,12,16,34)         56.0711         estimate D2E/DX2                !
 --------------------------------------------------------------------------------
 Trust Radius=3.00D-01 FncErr=1.00D-07 GrdErr=1.00D-07
 Number of steps in this run=    181 maximum allowed number of steps=    204.
 GradGradGradGradGradGradGradGradGradGradGradGradGradGradGradGradGradGrad

                          Input orientation:                          
 ---------------------------------------------------------------------
 Center     Atomic      Atomic             Coordinates (Angstroms)
 Number     Number       Type             X           Y           Z
 ---------------------------------------------------------------------
      1          6           0        0.681787    2.434356    0.232772
      2          6           0        2.081296    2.391374    0.377594
      3          6           0        2.749356    1.205451    0.211140
      4          6           0        2.029943    0.000195    0.000000
      5          6           0        0.592068    0.000057    0.000000
      6          6           0       -0.069448    1.289413   -0.007378
      7          6           0        2.749590   -1.204921   -0.211139
      8          6           0        2.081759   -2.390974   -0.377593
      9          6           0        0.682259   -2.434226   -0.232771
     10          6           0       -0.069198   -1.289428    0.007378
     11          7           0       -1.448978    1.391169   -0.271439
     12          7           0       -1.448709   -1.391451    0.271437
     13          6           0       -1.890881    0.903425   -1.571175
     14          6           0       -2.118666    2.620615    0.093823
     15          6           0       -2.118156   -2.621030   -0.093817
     16          6           0       -1.890711   -0.903780    1.571167
     17          1           0        0.192189    3.401476    0.245792
     18          1           0        2.627048    3.313626    0.558547
     19          1           0        3.834841    1.165192    0.242965
     20          1           0        3.835067   -1.164452   -0.242963
     21          1           0        2.627689   -3.313121   -0.558545
     22          1           0        0.192847   -3.401440   -0.245790
     23          1           0       -1.335508    0.011584   -1.855416
     24          1           0       -2.954122    0.643530   -1.528475
     25          1           0       -1.748137    1.669235   -2.354440
     26          1           0       -1.876084    2.895937    1.124106
     27          1           0       -1.873221    3.474403   -0.564862
     28          1           0       -3.199932    2.458979    0.029838
     29          1           0       -1.875523   -2.896308   -1.124099
     30          1           0       -1.872542   -3.474766    0.564872
     31          1           0       -3.199453   -2.459603   -0.029829
     32          1           0       -1.335521   -0.011822    1.855399
     33          1           0       -2.954005   -0.644101    1.528462
     34          1           0       -1.747814   -1.669551    2.354442
 ---------------------------------------------------------------------
                    Distance matrix (angstroms):
                    1          2          3          4          5
     1  C    0.000000
     2  C    1.407639   0.000000
     3  C    2.405310   1.371286   0.000000
     4  C    2.792284   2.421353   1.419428   0.000000
     5  C    2.447048   2.842318   2.480211   1.437875   0.000000
     6  C    1.390295   2.447084   2.828508   2.463652   1.449171
     7  C    4.209181   3.704937   2.447083   1.419428   2.480212
     8  C    5.061252   4.841607   3.704938   2.421353   2.842320
     9  C    4.890789   5.061251   4.209180   2.792282   2.447049
    10  C    3.805437   4.279017   3.769640   2.463651   1.449172
    11  N    2.425413   3.726190   4.230057   3.756512   2.484903
    12  N    4.379190   5.175130   4.936728   3.756511   2.484903
    13  C    3.495225   4.667963   4.979926   4.319407   3.074036
    14  C    2.810078   4.215775   5.070906   4.907786   3.771499
    15  C    5.788201   6.556052   6.199002   4.907784   3.771500
    16  C    4.421787   5.297121   5.275296   4.319406   3.074033
    17  H    1.084065   2.146253   3.370880   3.873818   3.433652
    18  H    2.159464   1.086802   2.140106   3.412819   3.928468
    19  H    3.398916   2.143961   1.086697   2.161922   3.454294
    20  H    4.808422   4.013066   2.646019   2.161922   3.454295
    21  H    6.119331   5.806562   4.585271   3.412819   3.928470
    22  H    5.875764   6.124667   5.288475   3.873817   3.433653
    23  H    3.781512   4.724858   4.730971   3.843040   2.675491
    24  H    4.419150   5.660697   5.989297   5.252715   3.914812
    25  H    3.630924   4.759207   5.198532   4.754258   3.715656
    26  H    2.747770   4.058660   5.008587   4.990589   3.967557
    27  H    2.871582   4.207063   5.207546   5.255842   4.297418
    28  H    3.887098   5.293097   6.082617   5.779109   4.519563
    29  H    6.066046   6.772819   6.324302   4.990590   3.967560
    30  H    6.446131   7.076688   6.587222   5.255837   4.297415
    31  H    6.251705   7.182220   6.991353   5.779107   4.519563
    32  H    3.561774   4.431015   4.568540   3.843045   2.675490
    33  H    4.937073   5.991065   6.138771   5.252718   3.914814
    34  H    5.219818   5.921243   5.751862   4.754250   3.715647
                    6          7          8          9         10
     6  C    0.000000
     7  C    3.769641   0.000000
     8  C    4.279018   1.371287   0.000000
     9  C    3.805437   2.405310   1.407638   0.000000
    10  C    2.578883   2.828508   2.447084   1.390296   0.000000
    11  N    1.408256   4.936729   5.175131   4.379191   3.027727
    12  N    3.027727   4.230058   3.726190   2.425413   1.408257
    13  C    2.431474   5.275300   5.297129   4.421797   3.258675
    14  C    2.445738   6.199003   6.556053   5.788200   4.415453
    15  C    4.415455   5.070905   4.215773   2.810076   2.445738
    16  C    3.258665   4.979929   4.667968   3.495230   2.431475
    17  H    2.143212   5.288476   6.124668   5.875765   4.704226
    18  H    3.418889   4.585270   5.806562   6.119329   5.362988
    19  H    3.914278   2.646019   4.013067   4.808421   4.617595
    20  H    4.617596   1.086697   2.143961   3.398916   3.914278
    21  H    5.362989   2.140107   1.086802   2.159464   3.418889
    22  H    4.704226   3.370880   2.146253   1.084065   2.143212
    23  H    2.578953   4.568540   4.431022   3.561790   2.601187
    24  H    3.324492   6.138768   5.991063   4.937074   3.797099
    25  H    2.910492   5.751874   5.921260   5.219837   4.141341
    26  H    2.669290   6.324300   6.772817   6.066043   4.693527
    27  H    2.887658   6.587228   7.076693   6.446135   5.126016
    28  H    3.342035   6.991355   7.182221   6.251706   4.883908
    29  H    4.693531   5.008588   4.058659   2.747769   2.669291
    30  H    5.126014   5.207542   4.207059   2.871579   2.887655
    31  H    4.883908   6.082616   5.293095   3.887096   3.342034
    32  H    2.601171   4.730983   4.724872   3.781525   2.578960
    33  H    3.797098   5.989301   5.660700   4.419152   3.324493
    34  H    4.141325   5.198531   4.759212   3.630930   2.910490
                   11         12         13         14         15
    11  N    0.000000
    12  N    2.835082   0.000000
    13  C    1.456875   2.976103   0.000000
    14  C    1.446871   4.071494   2.402675   0.000000
    15  C    4.071497   1.446871   3.828319   5.245003   0.000000
    16  C    2.976091   1.456876   3.624956   3.828298   2.402676
    17  H    2.646184   5.066098   3.725696   2.443950   6.459381
    18  H    4.582434   6.231531   5.545851   4.818510   7.626446
    19  H    5.313607   5.869679   6.011948   6.130640   7.063078
    20  H    5.869680   5.313608   6.231111   7.063080   6.130638
    21  H    6.231532   4.582435   6.262759   7.626447   4.818507
    22  H    5.066098   2.646183   4.962905   6.459379   2.443946
    23  H    2.103595   2.550456   1.088399   3.349614   3.262886
    24  H    2.098705   3.105978   1.095377   2.690484   3.662572
    25  H    2.122666   4.043845   1.104692   2.652623   4.863507
    26  H    2.096257   4.392196   3.351845   1.093678   5.654985
    27  H    2.146146   4.955415   2.760961   1.105922   6.118511
    28  H    2.072879   4.236858   2.587780   1.095151   5.195385
    29  H    4.392201   2.096255   3.825975   5.654988   1.093677
    30  H    4.955416   2.146145   4.871508   6.118507   1.105922
    31  H    4.236860   2.072876   3.924037   5.195383   1.095151
    32  H    2.550431   2.103598   3.589918   3.262850   3.349616
    33  H    3.105974   2.098704   3.623923   3.662561   2.690480
    34  H    4.043830   2.122667   4.695864   4.863482   2.652628
                   16         17         18         19         20
    16  C    0.000000
    17  H    4.962894   0.000000
    18  H    6.262752   2.456435   0.000000
    19  H    6.231108   4.274329   2.484779   0.000000
    20  H    6.011951   5.861496   4.706900   2.379783   0.000000
    21  H    5.545858   7.187797   6.720243   4.706901   2.484780
    22  H    3.725702   6.820654   7.187795   5.861496   4.274329
    23  H    3.589932   4.270867   5.694958   5.697940   5.542374
    24  H    3.623919   4.544619   6.529512   7.035634   7.142438
    25  H    4.695862   3.677870   5.507428   6.178205   6.607593
    26  H    3.825954   2.303206   4.557688   6.032127   7.139530
    27  H    4.871490   2.219999   4.641155   6.210234   7.362550
    28  H    3.924016   3.527240   5.913007   7.155930   7.918010
    29  H    3.351844   6.768613   7.852880   7.139531   6.032128
    30  H    2.760965   7.186629   8.144238   7.362544   6.210229
    31  H    2.587775   6.777274   8.223410   7.918008   7.155929
    32  H    1.088399   4.071282   5.333140   5.542378   5.697952
    33  H    1.095377   5.283036   6.910318   7.142442   7.035639
    34  H    1.104692   5.824546   6.869986   6.607582   6.178203
                   21         22         23         24         25
    21  H    0.000000
    22  H    2.456435   0.000000
    23  H    5.333148   4.071302   0.000000
    24  H    6.910316   5.283037   1.768094   0.000000
    25  H    6.870005   5.824566   1.779633   1.785690   0.000000
    26  H    7.852878   6.768608   4.182017   3.643033   3.690725
    27  H    8.144244   7.186631   3.734405   3.179739   2.544969
    28  H    8.223412   6.777273   3.608324   2.405123   2.901066
    29  H    4.557686   2.303202   3.046683   3.722546   4.730132
    30  H    4.641150   2.219996   4.277948   4.744711   5.915962
    31  H    5.913004   3.527236   3.593581   3.454788   4.955546
    32  H    5.694974   4.270880   3.710889   3.807881   4.551807
    33  H    6.529516   4.544619   3.807898   3.317056   4.677881
    34  H    5.507435   3.677881   4.551826   4.677881   5.772440
                   26         27         28         29         30
    26  H    0.000000
    27  H    1.785285   0.000000
    28  H    1.772266   1.773391   0.000000
    29  H    6.213254   6.395210   5.636021   0.000000
    30  H    6.395202   7.040401   6.103897   1.785286   0.000000
    31  H    5.636016   6.103899   4.918944   1.772267   1.773392
    32  H    3.046647   4.277914   3.593544   4.182017   3.734412
    33  H    3.722538   4.744700   3.454773   3.643026   3.179738
    34  H    4.730102   5.915938   4.955521   3.690730   2.544979
                   31         32         33         34
    31  H    0.000000
    32  H    3.608318   0.000000
    33  H    2.405112   1.768094   0.000000
    34  H    2.901066   1.779633   1.785690   0.000000
 Stoichiometry    C14H18N2
 Framework group  C1[X(C14H18N2)]
 Deg. of freedom    96
 Full point group                 C1      NOp   1
 Largest Abelian subgroup         C1      NOp   1
 Largest concise Abelian subgroup C1      NOp   1
                         Standard orientation:                         
 ---------------------------------------------------------------------
 Center     Atomic      Atomic             Coordinates (Angstroms)
 Number     Number       Type             X           Y           Z
 ---------------------------------------------------------------------
      1          6           0        0.681780   -2.434358   -0.232772
      2          6           0        2.081289   -2.391380   -0.377594
      3          6           0        2.749352   -1.205459   -0.211140
      4          6           0        2.029943   -0.000201   -0.000000
      5          6           0        0.592068   -0.000059   -0.000000
      6          6           0       -0.069452   -1.289413    0.007378
      7          6           0        2.749594    1.204913    0.211139
      8          6           0        2.081766    2.390968    0.377593
      9          6           0        0.682266    2.434224    0.232771
     10          6           0       -0.069194    1.289428   -0.007378
     11          7           0       -1.448982   -1.391165    0.271439
     12          7           0       -1.448705    1.391455   -0.271437
     13          6           0       -1.890884   -0.903420    1.571175
     14          6           0       -2.118674   -2.620609   -0.093823
     15          6           0       -2.118148    2.621036    0.093817
     16          6           0       -1.890708    0.903785   -1.571167
     17          1           0        0.192179   -3.401477   -0.245792
     18          1           0        2.627038   -3.313634   -0.558547
     19          1           0        3.834838   -1.165203   -0.242965
     20          1           0        3.835070    1.164441    0.242963
     21          1           0        2.627699    3.313113    0.558545
     22          1           0        0.192857    3.401439    0.245790
     23          1           0       -1.335508   -0.011580    1.855416
     24          1           0       -2.954124   -0.643521    1.528475
     25          1           0       -1.748142   -1.669230    2.354440
     26          1           0       -1.876093   -2.895932   -1.124106
     27          1           0       -1.873231   -3.474398    0.564862
     28          1           0       -3.199939   -2.458970   -0.029838
     29          1           0       -1.875514    2.896313    1.124099
     30          1           0       -1.872532    3.474771   -0.564872
     31          1           0       -3.199446    2.459612    0.029829
     32          1           0       -1.335521    0.011826   -1.855399
     33          1           0       -2.954003    0.644110   -1.528462
     34          1           0       -1.747809    1.669556   -2.354442
 ---------------------------------------------------------------------
 Rotational constants (GHZ):      0.6355933      0.6302430      0.3587761
 Standard basis: 6-31+G(d,p) (6D, 7F)
 There are   394 symmetry adapted cartesian basis functions of A   symmetry.
 There are   394 symmetry adapted basis functions of A   symmetry.
   394 basis functions,   638 primitive gaussians,   394 cartesian basis functions
    58 alpha electrons       58 beta electrons
       nuclear repulsion energy      1123.7428048948 Hartrees.
 NAtoms=   34 NActive=   34 NUniq=   34 SFac= 1.00D+00 NAtFMM=   60 NAOKFM=F Big=F
 Integral buffers will be    131072 words long.
 Regular integral format.
 Two-electron integral symmetry is turned on.
 Nuclear repulsion after empirical dispersion term =     1123.6969759895 Hartrees.
 One-electron integrals computed using PRISM.
 NBasis=   394 RedAO= T EigKep=  1.16D-06  NBF=   394
 NBsUse=   391 1.00D-06 EigRej=  9.80D-07 NBFU=   391
 ExpMin= 4.38D-02 ExpMax= 4.17D+03 ExpMxC= 6.27D+02 IAcc=2 IRadAn=         4 AccDes= 0.00D+00
 Harris functional with IExCor=  419 and IRadAn=       4 diagonalized for initial guess.
 HarFok:  IExCor=  419 AccDes= 0.00D+00 IRadAn=         4 IDoV= 1 UseB2=F ITyADJ=14
 ICtDFT=  3500011 ScaDFX=  1.000000  1.000000  1.000000  1.000000
 FoFCou: FMM=F IPFlag=           0 FMFlag=      100000 FMFlg1=           0
         NFxFlg=           0 DoJE=T BraDBF=F KetDBF=T FulRan=T
         wScrn=  0.000000 ICntrl=     500 IOpCl=  0 I1Cent=   200000004 NGrid=           0
         NMat0=    1 NMatS0=      1 NMatT0=    0 NMatD0=    1 NMtDS0=    0 NMtDT0=    0
 Petite list used in FoFCou.
 Requested convergence on RMS density matrix=1.00D-08 within 128 cycles.
 Requested convergence on MAX density matrix=1.00D-06.
 Requested convergence on             energy=1.00D-06.
 No special actions if energy rises.
 SCF Done:  E(RB2PLYP) =  -652.430780530     A.U. after   16 cycles
            NFock= 16  Conv=0.22D-08     -V/T= 2.0068
 DoSCS=T DFT=T ScalE2(SS,OS)=  0.270000  0.270000
 ExpMin= 4.38D-02 ExpMax= 4.17D+03 ExpMxC= 6.27D+02 IAcc=3 IRadAn=         5 AccDes= 0.00D+00
 HarFok:  IExCor=  205 AccDes= 0.00D+00 IRadAn=         5 IDoV=-2 UseB2=F ITyADJ=14
 ICtDFT= 12500011 ScaDFX=  1.000000  1.000000  1.000000  1.000000
 Range of M.O.s used for correlation:    17   391
 NBasis=   394 NAE=    58 NBE=    58 NFC=    16 NFV=     0
 NROrb=    375 NOA=    42 NOB=    42 NVA=   333 NVB=   333

 **** Warning!!: The largest alpha MO coefficient is  0.17506288D+03

 DoSCS=T DFT=T ScalE2(SS,OS)=  0.270000  0.270000
 Disk-based method using ON**2 memory for 42 occupieds at a time.
 Estimated scratch disk usage=  4832676437 words.
 Actual    scratch disk usage=  4035837013 words.
 JobTyp=1 Pass  1:  I=  17 to  58 NPSUse= 18 ParTrn=T ParDer=T DoDerP=T.
 Spin components of T(2) and E(2):
     alpha-alpha T2 =       0.1729786617D+00 E2=     -0.9861918093D-01
     alpha-beta  T2 =       0.9046840127D+00 E2=     -0.5573431113D+00
     beta-beta   T2 =       0.1729786617D+00 E2=     -0.9861918093D-01
 E2(B2PLYP) =    -0.7545814732D+00 E(B2PLYP) =    -0.65318536200321D+03
          IDoAtm=1111111111111111111111111111111111
          Differentiating once with respect to electric field.
                with respect to dipole field.
          Differentiating once with respect to nuclear coordinates.
          There are     1 degrees of freedom in the 1st order CPHF.  IDoFFX=0 NUNeed=     1.
 LinEq1:  Iter=  0 NonCon=     1 RMS=1.20D-03 Max=5.37D-02 NDo=     1
 AX will form     1 AO Fock derivatives at one time.
 LinEq1:  Iter=  1 NonCon=     1 RMS=3.40D-04 Max=6.73D-03 NDo=     1
 LinEq1:  Iter=  2 NonCon=     1 RMS=1.66D-04 Max=7.49D-03 NDo=     1
 LinEq1:  Iter=  3 NonCon=     1 RMS=1.03D-04 Max=4.42D-03 NDo=     1
 LinEq1:  Iter=  4 NonCon=     1 RMS=4.17D-05 Max=2.88D-03 NDo=     1
 LinEq1:  Iter=  5 NonCon=     1 RMS=2.79D-05 Max=1.80D-03 NDo=     1
 LinEq1:  Iter=  6 NonCon=     1 RMS=1.16D-05 Max=6.87D-04 NDo=     1
 LinEq1:  Iter=  7 NonCon=     1 RMS=5.97D-06 Max=2.51D-04 NDo=     1
 LinEq1:  Iter=  8 NonCon=     1 RMS=3.13D-06 Max=1.01D-04 NDo=     1
 LinEq1:  Iter=  9 NonCon=     1 RMS=1.28D-06 Max=4.08D-05 NDo=     1
 LinEq1:  Iter= 10 NonCon=     1 RMS=4.79D-07 Max=1.49D-05 NDo=     1
 LinEq1:  Iter= 11 NonCon=     1 RMS=1.26D-07 Max=3.50D-06 NDo=     1
 LinEq1:  Iter= 12 NonCon=     1 RMS=5.10D-08 Max=1.23D-06 NDo=     1
 LinEq1:  Iter= 13 NonCon=     1 RMS=2.00D-08 Max=6.72D-07 NDo=     1
 LinEq1:  Iter= 14 NonCon=     1 RMS=4.78D-09 Max=1.01D-07 NDo=     1
 LinEq1:  Iter= 15 NonCon=     1 RMS=1.26D-09 Max=2.04D-08 NDo=     1
 LinEq1:  Iter= 16 NonCon=     1 RMS=4.83D-10 Max=7.32D-09 NDo=     1
 LinEq1:  Iter= 17 NonCon=     1 RMS=1.66D-10 Max=2.74D-09 NDo=     1
 LinEq1:  Iter= 18 NonCon=     0 RMS=4.12D-11 Max=6.44D-10 NDo=     1
 Linear equations converged to 1.000D-10 1.000D-09 after    18 iterations.
 End of Minotr F.D. properties file   721 does not exist.
 End of Minotr F.D. properties file   722 does not exist.
 End of Minotr F.D. properties file   788 does not exist.

 **********************************************************************

            Population analysis using the SCF density.

 **********************************************************************

 Orbital symmetries:
       Occupied  (A) (A) (A) (A) (A) (A) (A) (A) (A) (A) (A) (A)
                 (A) (A) (A) (A) (A) (A) (A) (A) (A) (A) (A) (A)
                 (A) (A) (A) (A) (A) (A) (A) (A) (A) (A) (A) (A)
                 (A) (A) (A) (A) (A) (A) (A) (A) (A) (A) (A) (A)
                 (A) (A) (A) (A) (A) (A) (A) (A) (A) (A)
       Virtual   (A) (A) (A) (A) (A) (A) (A) (A) (A) (A) (A) (A)
                 (A) (A) (A) (A) (A) (A) (A) (A) (A) (A) (A) (A)
                 (A) (A) (A) (A) (A) (A) (A) (A) (A) (A) (A) (A)
                 (A) (A) (A) (A) (A) (A) (A) (A) (A) (A) (A) (A)
                 (A) (A) (A) (A) (A) (A) (A) (A) (A) (A) (A) (A)
                 (A) (A) (A) (A) (A) (A) (A) (A) (A) (A) (A) (A)
                 (A) (A) (A) (A) (A) (A) (A) (A) (A) (A) (A) (A)
                 (A) (A) (A) (A) (A) (A) (A) (A) (A) (A) (A) (A)
                 (A) (A) (A) (A) (A) (A) (A) (A) (A) (A) (A) (A)
                 (A) (A) (A) (A) (A) (A) (A) (A) (A) (A) (A) (A)
                 (A) (A) (A) (A) (A) (A) (A) (A) (A) (A) (A) (A)
                 (A) (A) (A) (A) (A) (A) (A) (A) (A) (A) (A) (A)
                 (A) (A) (A) (A) (A) (A) (A) (A) (A) (A) (A) (A)
                 (A) (A) (A) (A) (A) (A) (A) (A) (A) (A) (A) (A)
                 (A) (A) (A) (A) (A) (A) (A) (A) (A) (A) (A) (A)
                 (A) (A) (A) (A) (A) (A) (A) (A) (A) (A) (A) (A)
                 (A) (A) (A) (A) (A) (A) (A) (A) (A) (A) (A) (A)
                 (A) (A) (A) (A) (A) (A) (A) (A) (A) (A) (A) (A)
                 (A) (A) (A) (A) (A) (A) (A) (A) (A) (A) (A) (A)
                 (A) (A) (A) (A) (A) (A) (A) (A) (A) (A) (A) (A)
                 (A) (A) (A) (A) (A) (A) (A) (A) (A) (A) (A) (A)
                 (A) (A) (A) (A) (A) (A) (A) (A) (A) (A) (A) (A)
                 (A) (A) (A) (A) (A) (A) (A) (A) (A) (A) (A) (A)
                 (A) (A) (A) (A) (A) (A) (A) (A) (A) (A) (A) (A)
                 (A) (A) (A) (A) (A) (A) (A) (A) (A) (A) (A) (A)
                 (A) (A) (A) (A) (A) (A) (A) (A) (A) (A) (A) (A)
                 (A) (A) (A) (A) (A) (A) (A) (A) (A) (A) (A) (A)
                 (A) (A) (A) (A) (A) (A) (A) (A) (A)
 The electronic state is 1-A.
 Alpha  occ. eigenvalues --  -14.85272 -14.85272 -10.66825 -10.66824 -10.64667
 Alpha  occ. eigenvalues --  -10.64667 -10.63992 -10.63992 -10.63811 -10.63664
 Alpha  occ. eigenvalues --  -10.62744 -10.62744 -10.62014 -10.62012 -10.61975
 Alpha  occ. eigenvalues --  -10.61974  -1.07833  -1.06103  -0.98364  -0.93201
 Alpha  occ. eigenvalues --   -0.87711  -0.85338  -0.83040  -0.81333  -0.81139
 Alpha  occ. eigenvalues --   -0.75129  -0.74878  -0.70395  -0.68823  -0.64252
 Alpha  occ. eigenvalues --   -0.59640  -0.58876  -0.57791  -0.55209  -0.54346
 Alpha  occ. eigenvalues --   -0.53362  -0.52685  -0.52221  -0.51190  -0.48894
 Alpha  occ. eigenvalues --   -0.47730  -0.47260  -0.45880  -0.45663  -0.45199
 Alpha  occ. eigenvalues --   -0.44279  -0.43918  -0.43356  -0.43049  -0.43040
 Alpha  occ. eigenvalues --   -0.40235  -0.39627  -0.37735  -0.33626  -0.30916
 Alpha  occ. eigenvalues --   -0.27448  -0.24858  -0.21832
 Alpha virt. eigenvalues --    0.01388   0.03095   0.03457   0.03844   0.04309
 Alpha virt. eigenvalues --    0.04941   0.05545   0.05666   0.06517   0.07306
 Alpha virt. eigenvalues --    0.07755   0.07919   0.07962   0.08319   0.08958
 Alpha virt. eigenvalues --    0.09363   0.10283   0.10516   0.10778   0.11656
 Alpha virt. eigenvalues --    0.12352   0.12474   0.13500   0.13619   0.14122
 Alpha virt. eigenvalues --    0.14587   0.15154   0.15386   0.15718   0.16206
 Alpha virt. eigenvalues --    0.17057   0.17515   0.18132   0.18552   0.19231
 Alpha virt. eigenvalues --    0.19325   0.20231   0.20554   0.21372   0.21429
 Alpha virt. eigenvalues --    0.22627   0.23088   0.23846   0.24166   0.24489
 Alpha virt. eigenvalues --    0.24735   0.25164   0.25225   0.25862   0.26128
 Alpha virt. eigenvalues --    0.26317   0.26747   0.28000   0.28576   0.28704
 Alpha virt. eigenvalues --    0.28912   0.28948   0.29777   0.29777   0.30835
 Alpha virt. eigenvalues --    0.31137   0.31850   0.31948   0.32578   0.32665
 Alpha virt. eigenvalues --    0.33018   0.33427   0.33634   0.33704   0.34230
 Alpha virt. eigenvalues --    0.35121   0.35616   0.36173   0.36456   0.36908
 Alpha virt. eigenvalues --    0.37724   0.38608   0.38679   0.39278   0.39742
 Alpha virt. eigenvalues --    0.40129   0.40432   0.40802   0.41806   0.42314
 Alpha virt. eigenvalues --    0.43493   0.44969   0.44983   0.47104   0.48011
 Alpha virt. eigenvalues --    0.48432   0.50627   0.51059   0.53202   0.53894
 Alpha virt. eigenvalues --    0.55652   0.55678   0.63628   0.65068   0.70584
 Alpha virt. eigenvalues --    0.74058   0.74272   0.76791   0.78270   0.78304
 Alpha virt. eigenvalues --    0.79378   0.80061   0.80118   0.80795   0.81438
 Alpha virt. eigenvalues --    0.82306   0.83659   0.83891   0.84589   0.85142
 Alpha virt. eigenvalues --    0.85417   0.86366   0.88711   0.88934   0.89443
 Alpha virt. eigenvalues --    0.89948   0.91027   0.92937   0.93098   0.94795
 Alpha virt. eigenvalues --    0.96260   0.96833   0.97931   0.98524   0.99285
 Alpha virt. eigenvalues --    1.00428   1.01330   1.01552   1.01974   1.04240
 Alpha virt. eigenvalues --    1.05188   1.05619   1.05733   1.07230   1.08532
 Alpha virt. eigenvalues --    1.09022   1.09758   1.10463   1.11164   1.14073
 Alpha virt. eigenvalues --    1.14425   1.14604   1.15585   1.16396   1.17191
 Alpha virt. eigenvalues --    1.18974   1.19020   1.19289   1.24074   1.24523
 Alpha virt. eigenvalues --    1.25248   1.25893   1.26379   1.26513   1.26941
 Alpha virt. eigenvalues --    1.27397   1.30059   1.32008   1.34795   1.35253
 Alpha virt. eigenvalues --    1.36632   1.37084   1.37288   1.39338   1.41363
 Alpha virt. eigenvalues --    1.41510   1.43846   1.44295   1.44930   1.46924
 Alpha virt. eigenvalues --    1.47246   1.48039   1.50546   1.50695   1.52867
 Alpha virt. eigenvalues --    1.52901   1.53705   1.55956   1.60919   1.60921
 Alpha virt. eigenvalues --    1.65988   1.66843   1.68109   1.72072   1.72860
 Alpha virt. eigenvalues --    1.75535   1.77039   1.85053   1.87029   1.88160
 Alpha virt. eigenvalues --    1.89771   1.91869   1.92949   1.95098   1.97355
 Alpha virt. eigenvalues --    1.98612   1.99289   2.00113   2.03233   2.04480
 Alpha virt. eigenvalues --    2.04544   2.05854   2.07290   2.07754   2.09832
 Alpha virt. eigenvalues --    2.10585   2.12207   2.12859   2.13157   2.14659
 Alpha virt. eigenvalues --    2.16064   2.16612   2.16919   2.17609   2.18332
 Alpha virt. eigenvalues --    2.18461   2.19447   2.20467   2.21105   2.22211
 Alpha virt. eigenvalues --    2.23590   2.25225   2.25331   2.25982   2.28731
 Alpha virt. eigenvalues --    2.29376   2.29450   2.30971   2.32445   2.33067
 Alpha virt. eigenvalues --    2.34604   2.37234   2.39119   2.40923   2.41007
 Alpha virt. eigenvalues --    2.43737   2.43820   2.46852   2.50981   2.51546
 Alpha virt. eigenvalues --    2.52613   2.53844   2.54446   2.55113   2.56762
 Alpha virt. eigenvalues --    2.58232   2.58248   2.61322   2.62582   2.62822
 Alpha virt. eigenvalues --    2.66190   2.66283   2.68195   2.70370   2.71344
 Alpha virt. eigenvalues --    2.71465   2.72286   2.74842   2.75531   2.77183
 Alpha virt. eigenvalues --    2.77654   2.79712   2.80903   2.81028   2.81562
 Alpha virt. eigenvalues --    2.84682   2.85633   2.86259   2.86643   2.87813
 Alpha virt. eigenvalues --    2.88497   2.89330   2.90535   2.92250   2.92821
 Alpha virt. eigenvalues --    2.93982   2.97566   2.99724   2.99747   3.00814
 Alpha virt. eigenvalues --    3.04061   3.07734   3.08511   3.10162   3.11634
 Alpha virt. eigenvalues --    3.18466   3.19201   3.26556   3.26759   3.28180
 Alpha virt. eigenvalues --    3.32065   3.35955   3.41087   3.41381   3.41937
 Alpha virt. eigenvalues --    3.43062   3.44467   3.44518   3.48395   3.53344
 Alpha virt. eigenvalues --    3.59310   3.59623   3.60068   3.60716   3.61626
 Alpha virt. eigenvalues --    3.62026   3.66428   3.66567   3.70556   3.72014
 Alpha virt. eigenvalues --    3.94439   3.99971   4.48840   4.49845   4.53009
 Alpha virt. eigenvalues --    4.53442   4.59181   4.61522   4.62108   4.68841
 Alpha virt. eigenvalues --    4.71073   4.76171   4.78458   4.80958   4.83726
 Alpha virt. eigenvalues --    4.84404   4.89146   5.10917
          Condensed to atoms (all electrons):
               1          2          3          4          5          6
     1  C   10.132286  -0.819287   0.448958   0.119306  -0.990345  -0.035004
     2  C   -0.819287   7.385301  -0.924162   0.062420  -0.256409   0.028745
     3  C    0.448958  -0.924162   9.274786  -1.518554  -0.055460  -0.391448
     4  C    0.119306   0.062420  -1.518554   7.994483  -0.029952   0.302749
     5  C   -0.990345  -0.256409  -0.055460  -0.029952  10.217267  -0.846094
     6  C   -0.035004   0.028745  -0.391448   0.302749  -0.846094   9.813521
     7  C   -0.126412  -0.220369   0.891196  -1.518532  -0.055544  -1.479557
     8  C    0.315381  -0.374685  -0.220379   0.062384  -0.256302   0.961823
     9  C   -1.020202   0.315393  -0.126415   0.119393  -0.990654  -2.157301
    10  C   -2.157306   0.961844  -1.479552   0.302802  -0.846246   0.487685
    11  N   -0.080725  -0.012448  -0.031188  -0.045668  -0.119823   0.318604
    12  N   -0.002798  -0.007083  -0.000745  -0.045668  -0.119827  -0.090897
    13  C    0.055893  -0.076261   0.057599  -0.010688   0.153945  -0.346535
    14  C    0.136120  -0.034572   0.026424  -0.007517  -0.091032  -0.182510
    15  C   -0.021848   0.006068  -0.018330  -0.007514  -0.091045  -0.086395
    16  C    0.029355  -0.027684   0.015974  -0.010688   0.153947  -0.172024
    17  H    0.127052   0.020256  -0.009993   0.000915   0.099065   0.088595
    18  H    0.059269   0.170754   0.100761   0.018047  -0.027061   0.010780
    19  H    0.010639   0.017027   0.262933   0.000889   0.009077  -0.002468
    20  H   -0.000139   0.012675   0.004234   0.000888   0.009077   0.002213
    21  H   -0.001619   0.002234   0.001886   0.018047  -0.027062  -0.008251
    22  H    0.004007  -0.001840   0.009168   0.000913   0.099072   0.024867
    23  H   -0.062445  -0.006897   0.006278   0.013302   0.081208  -0.095537
    24  H   -0.005236   0.002745  -0.000973  -0.001164  -0.029294   0.032443
    25  H    0.069905  -0.005096   0.002077  -0.000555  -0.025785  -0.025360
    26  H    0.057153   0.009003   0.003045  -0.006733  -0.017669  -0.063176
    27  H    0.069956   0.015496   0.002459   0.001990  -0.030540  -0.073665
    28  H   -0.052875  -0.008940  -0.000086   0.000844   0.016716   0.053393
    29  H   -0.000766   0.000114  -0.001230  -0.006733  -0.017671  -0.010107
    30  H   -0.001439   0.000305  -0.000067   0.001991  -0.030541  -0.005507
    31  H    0.001417  -0.000113   0.000184   0.000844   0.016717   0.005283
    32  H    0.054717  -0.014020   0.012918   0.013300   0.081215   0.007947
    33  H    0.000573   0.000554  -0.001668  -0.001164  -0.029293   0.030685
    34  H   -0.011522   0.001565   0.000547  -0.000554  -0.025789  -0.033273
               7          8          9         10         11         12
     1  C   -0.126412   0.315381  -1.020202  -2.157306  -0.080725  -0.002798
     2  C   -0.220369  -0.374685   0.315393   0.961844  -0.012448  -0.007083
     3  C    0.891196  -0.220379  -0.126415  -1.479552  -0.031188  -0.000745
     4  C   -1.518532   0.062384   0.119393   0.302802  -0.045668  -0.045668
     5  C   -0.055544  -0.256302  -0.990654  -0.846246  -0.119823  -0.119827
     6  C   -1.479557   0.961823  -2.157301   0.487685   0.318604  -0.090897
     7  C    9.274802  -0.924165   0.449006  -0.391459  -0.000745  -0.031188
     8  C   -0.924165   7.385303  -0.819298   0.028730  -0.007083  -0.012446
     9  C    0.449006  -0.819298  10.132458  -0.034980  -0.002805  -0.080742
    10  C   -0.391459   0.028730  -0.034980   9.813623  -0.090916   0.318604
    11  N   -0.000745  -0.007083  -0.002805  -0.090916   7.351034  -0.084841
    12  N   -0.031188  -0.012446  -0.080742   0.318604  -0.084841   7.351027
    13  C    0.015973  -0.027683   0.029351  -0.172028   0.163144  -0.014815
    14  C   -0.018330   0.006068  -0.021848  -0.086395   0.106621   0.004250
    15  C    0.026427  -0.034571   0.136130  -0.182510   0.004251   0.106621
    16  C    0.057597  -0.076259   0.055884  -0.346536  -0.014815   0.163145
    17  H    0.009169  -0.001840   0.004007   0.024866  -0.033180  -0.000205
    18  H    0.001885   0.002234  -0.001619  -0.008251  -0.001013   0.000067
    19  H    0.004235   0.012676  -0.000139   0.002212   0.000236   0.000054
    20  H    0.262932   0.017030   0.010638  -0.002468   0.000054   0.000236
    21  H    0.100761   0.170754   0.059271   0.010779   0.000067  -0.001013
    22  H   -0.009996   0.020257   0.127041   0.088603  -0.000205  -0.033180
    23  H    0.012918  -0.014019   0.054715   0.007948  -0.056205  -0.011580
    24  H   -0.001668   0.000554   0.000574   0.030688  -0.054380  -0.008284
    25  H    0.000547   0.001565  -0.011522  -0.033274  -0.079603   0.004934
    26  H   -0.001230   0.000114  -0.000766  -0.010106  -0.050139   0.000908
    27  H   -0.000067   0.000305  -0.001439  -0.005507  -0.051283  -0.001238
    28  H    0.000184  -0.000113   0.001417   0.005283  -0.087284   0.000642
    29  H    0.003045   0.009003   0.057157  -0.063179   0.000908  -0.050139
    30  H    0.002459   0.015496   0.069958  -0.073665  -0.001238  -0.051284
    31  H   -0.000086  -0.008940  -0.052877   0.053394   0.000641  -0.087285
    32  H    0.006278  -0.006897  -0.062447  -0.095543  -0.011580  -0.056204
    33  H   -0.000973   0.002745  -0.005234   0.032442  -0.008284  -0.054380
    34  H    0.002078  -0.005096   0.069905  -0.025357   0.004934  -0.079603
              13         14         15         16         17         18
     1  C    0.055893   0.136120  -0.021848   0.029355   0.127052   0.059269
     2  C   -0.076261  -0.034572   0.006068  -0.027684   0.020256   0.170754
     3  C    0.057599   0.026424  -0.018330   0.015974  -0.009993   0.100761
     4  C   -0.010688  -0.007517  -0.007514  -0.010688   0.000915   0.018047
     5  C    0.153945  -0.091032  -0.091045   0.153947   0.099065  -0.027061
     6  C   -0.346535  -0.182510  -0.086395  -0.172024   0.088595   0.010780
     7  C    0.015973  -0.018330   0.026427   0.057597   0.009169   0.001885
     8  C   -0.027683   0.006068  -0.034571  -0.076259  -0.001840   0.002234
     9  C    0.029351  -0.021848   0.136130   0.055884   0.004007  -0.001619
    10  C   -0.172028  -0.086395  -0.182510  -0.346536   0.024866  -0.008251
    11  N    0.163144   0.106621   0.004251  -0.014815  -0.033180  -0.001013
    12  N   -0.014815   0.004250   0.106621   0.163145  -0.000205   0.000067
    13  C    5.086760  -0.025722   0.000329   0.001569  -0.002132   0.000043
    14  C   -0.025722   5.102037   0.004510   0.000329  -0.004516   0.001314
    15  C    0.000329   0.004510   5.102037  -0.025722   0.000094  -0.000000
    16  C    0.001569   0.000329  -0.025722   5.086760  -0.000699   0.000073
    17  H   -0.002132  -0.004516   0.000094  -0.000699   0.551379  -0.003593
    18  H    0.000043   0.001314  -0.000000   0.000073  -0.003593   0.538358
    19  H   -0.000000   0.000115  -0.000015   0.000099  -0.000158  -0.003078
    20  H    0.000099  -0.000015   0.000115  -0.000000   0.000000  -0.000008
    21  H    0.000073  -0.000000   0.001314   0.000043  -0.000000  -0.000000
    22  H   -0.000699   0.000094  -0.004516  -0.002132  -0.000000  -0.000000
    23  H    0.435827  -0.000137   0.003887  -0.001032   0.000010   0.000000
    24  H    0.406220  -0.011369  -0.000891   0.002990  -0.000007  -0.000000
    25  H    0.434233   0.012464  -0.000174  -0.001016  -0.000040   0.000001
    26  H    0.002311   0.443277  -0.000171   0.001248  -0.002528  -0.000003
    27  H    0.004445   0.416236   0.000116  -0.000141  -0.001886   0.000008
    28  H   -0.003929   0.433198  -0.000360  -0.000169   0.000359  -0.000000
    29  H    0.001248  -0.000171   0.443277   0.002311   0.000000   0.000000
    30  H   -0.000141   0.000116   0.416236   0.004444   0.000000  -0.000000
    31  H   -0.000169  -0.000360   0.433198  -0.003929  -0.000000   0.000000
    32  H   -0.001031   0.003887  -0.000137   0.435828  -0.000014  -0.000000
    33  H    0.002990  -0.000891  -0.011369   0.406220   0.000000  -0.000000
    34  H   -0.001016  -0.000174   0.012464   0.434231   0.000000  -0.000000
              19         20         21         22         23         24
     1  C    0.010639  -0.000139  -0.001619   0.004007  -0.062445  -0.005236
     2  C    0.017027   0.012675   0.002234  -0.001840  -0.006897   0.002745
     3  C    0.262933   0.004234   0.001886   0.009168   0.006278  -0.000973
     4  C    0.000889   0.000888   0.018047   0.000913   0.013302  -0.001164
     5  C    0.009077   0.009077  -0.027062   0.099072   0.081208  -0.029294
     6  C   -0.002468   0.002213  -0.008251   0.024867  -0.095537   0.032443
     7  C    0.004235   0.262932   0.100761  -0.009996   0.012918  -0.001668
     8  C    0.012676   0.017030   0.170754   0.020257  -0.014019   0.000554
     9  C   -0.000139   0.010638   0.059271   0.127041   0.054715   0.000574
    10  C    0.002212  -0.002468   0.010779   0.088603   0.007948   0.030688
    11  N    0.000236   0.000054   0.000067  -0.000205  -0.056205  -0.054380
    12  N    0.000054   0.000236  -0.001013  -0.033180  -0.011580  -0.008284
    13  C   -0.000000   0.000099   0.000073  -0.000699   0.435827   0.406220
    14  C    0.000115  -0.000015  -0.000000   0.000094  -0.000137  -0.011369
    15  C   -0.000015   0.000115   0.001314  -0.004516   0.003887  -0.000891
    16  C    0.000099  -0.000000   0.000043  -0.002132  -0.001032   0.002990
    17  H   -0.000158   0.000000  -0.000000  -0.000000   0.000010  -0.000007
    18  H   -0.003078  -0.000008  -0.000000  -0.000000   0.000000  -0.000000
    19  H    0.543907   0.002077  -0.000008   0.000000   0.000000   0.000000
    20  H    0.002077   0.543906  -0.003078  -0.000158  -0.000000  -0.000000
    21  H   -0.000008  -0.003078   0.538358  -0.003593  -0.000000  -0.000000
    22  H    0.000000  -0.000158  -0.003593   0.551379  -0.000014   0.000000
    23  H    0.000000  -0.000000  -0.000000  -0.000014   0.537387  -0.022026
    24  H    0.000000  -0.000000  -0.000000   0.000000  -0.022026   0.573070
    25  H    0.000000   0.000000  -0.000000   0.000000  -0.031631  -0.043876
    26  H    0.000000  -0.000000   0.000000   0.000000  -0.000168   0.000227
    27  H    0.000000   0.000000  -0.000000   0.000000  -0.000134  -0.001279
    28  H   -0.000000   0.000000   0.000000  -0.000000   0.000245   0.003870
    29  H   -0.000000   0.000000  -0.000003  -0.002528   0.000416  -0.000061
    30  H    0.000000   0.000000   0.000008  -0.001886  -0.000028   0.000002
    31  H    0.000000  -0.000000  -0.000000   0.000359   0.000059   0.000078
    32  H   -0.000000   0.000000   0.000000   0.000010  -0.000033   0.000079
    33  H   -0.000000   0.000000  -0.000000  -0.000007   0.000079   0.000279
    34  H    0.000000   0.000000   0.000001  -0.000040  -0.000020  -0.000013
              25         26         27         28         29         30
     1  C    0.069905   0.057153   0.069956  -0.052875  -0.000766  -0.001439
     2  C   -0.005096   0.009003   0.015496  -0.008940   0.000114   0.000305
     3  C    0.002077   0.003045   0.002459  -0.000086  -0.001230  -0.000067
     4  C   -0.000555  -0.006733   0.001990   0.000844  -0.006733   0.001991
     5  C   -0.025785  -0.017669  -0.030540   0.016716  -0.017671  -0.030541
     6  C   -0.025360  -0.063176  -0.073665   0.053393  -0.010107  -0.005507
     7  C    0.000547  -0.001230  -0.000067   0.000184   0.003045   0.002459
     8  C    0.001565   0.000114   0.000305  -0.000113   0.009003   0.015496
     9  C   -0.011522  -0.000766  -0.001439   0.001417   0.057157   0.069958
    10  C   -0.033274  -0.010106  -0.005507   0.005283  -0.063179  -0.073665
    11  N   -0.079603  -0.050139  -0.051283  -0.087284   0.000908  -0.001238
    12  N    0.004934   0.000908  -0.001238   0.000642  -0.050139  -0.051284
    13  C    0.434233   0.002311   0.004445  -0.003929   0.001248  -0.000141
    14  C    0.012464   0.443277   0.416236   0.433198  -0.000171   0.000116
    15  C   -0.000174  -0.000171   0.000116  -0.000360   0.443277   0.416236
    16  C   -0.001016   0.001248  -0.000141  -0.000169   0.002311   0.004444
    17  H   -0.000040  -0.002528  -0.001886   0.000359   0.000000   0.000000
    18  H    0.000001  -0.000003   0.000008  -0.000000   0.000000  -0.000000
    19  H    0.000000   0.000000   0.000000  -0.000000  -0.000000   0.000000
    20  H    0.000000  -0.000000   0.000000   0.000000   0.000000   0.000000
    21  H   -0.000000   0.000000  -0.000000   0.000000  -0.000003   0.000008
    22  H    0.000000   0.000000   0.000000  -0.000000  -0.002528  -0.001886
    23  H   -0.031631  -0.000168  -0.000134   0.000245   0.000416  -0.000028
    24  H   -0.043876   0.000227  -0.001279   0.003870  -0.000061   0.000002
    25  H    0.607361  -0.000227   0.007707  -0.002158   0.000002   0.000000
    26  H   -0.000227   0.551148  -0.038969  -0.019217  -0.000000   0.000000
    27  H    0.007707  -0.038969   0.601155  -0.040678   0.000000  -0.000000
    28  H   -0.002158  -0.019217  -0.040678   0.566793   0.000000   0.000000
    29  H    0.000002  -0.000000   0.000000   0.000000   0.551148  -0.038969
    30  H    0.000000   0.000000  -0.000000   0.000000  -0.038969   0.601155
    31  H   -0.000001   0.000000   0.000000   0.000001  -0.019217  -0.040678
    32  H   -0.000020   0.000416  -0.000028   0.000059  -0.000168  -0.000134
    33  H   -0.000013  -0.000061   0.000002   0.000078   0.000227  -0.001279
    34  H    0.000001   0.000002   0.000000  -0.000001  -0.000227   0.007707
              31         32         33         34
     1  C    0.001417   0.054717   0.000573  -0.011522
     2  C   -0.000113  -0.014020   0.000554   0.001565
     3  C    0.000184   0.012918  -0.001668   0.000547
     4  C    0.000844   0.013300  -0.001164  -0.000554
     5  C    0.016717   0.081215  -0.029293  -0.025789
     6  C    0.005283   0.007947   0.030685  -0.033273
     7  C   -0.000086   0.006278  -0.000973   0.002078
     8  C   -0.008940  -0.006897   0.002745  -0.005096
     9  C   -0.052877  -0.062447  -0.005234   0.069905
    10  C    0.053394  -0.095543   0.032442  -0.025357
    11  N    0.000641  -0.011580  -0.008284   0.004934
    12  N   -0.087285  -0.056204  -0.054380  -0.079603
    13  C   -0.000169  -0.001031   0.002990  -0.001016
    14  C   -0.000360   0.003887  -0.000891  -0.000174
    15  C    0.433198  -0.000137  -0.011369   0.012464
    16  C   -0.003929   0.435828   0.406220   0.434231
    17  H   -0.000000  -0.000014   0.000000   0.000000
    18  H    0.000000  -0.000000  -0.000000  -0.000000
    19  H    0.000000  -0.000000  -0.000000   0.000000
    20  H   -0.000000   0.000000   0.000000   0.000000
    21  H   -0.000000   0.000000  -0.000000   0.000001
    22  H    0.000359   0.000010  -0.000007  -0.000040
    23  H    0.000059  -0.000033   0.000079  -0.000020
    24  H    0.000078   0.000079   0.000279  -0.000013
    25  H   -0.000001  -0.000020  -0.000013   0.000001
    26  H    0.000000   0.000416  -0.000061   0.000002
    27  H    0.000000  -0.000028   0.000002   0.000000
    28  H    0.000001   0.000059   0.000078  -0.000001
    29  H   -0.019217  -0.000168   0.000227  -0.000227
    30  H   -0.040678  -0.000134  -0.001279   0.007707
    31  H    0.566793   0.000245   0.003870  -0.002158
    32  H    0.000245   0.537388  -0.022026  -0.031631
    33  H    0.003870  -0.022026   0.573071  -0.043876
    34  H   -0.002158  -0.031631  -0.043876   0.607361
 Mulliken charges:
               1
     1  C   -0.302018
     2  C   -0.222631
     3  C   -0.341180
     4  C    0.176179
     5  C    0.072131
     6  C   -0.064225
     7  C   -0.341170
     8  C   -0.222646
     9  C   -0.302011
    10  C   -0.064225
    11  N   -0.025043
    12  N   -0.025043
    13  C   -0.169200
    14  C   -0.211504
    15  C   -0.211503
    16  C   -0.169201
    17  H    0.135022
    18  H    0.141033
    19  H    0.139691
    20  H    0.139691
    21  H    0.141033
    22  H    0.135022
    23  H    0.147626
    24  H    0.126702
    25  H    0.119552
    26  H    0.142311
    27  H    0.126977
    28  H    0.132730
    29  H    0.142312
    30  H    0.126977
    31  H    0.132730
    32  H    0.147626
    33  H    0.126702
    34  H    0.119552
 Sum of Mulliken charges =  -0.00000
 Mulliken charges with hydrogens summed into heavy atoms:
               1
     1  C   -0.166995
     2  C   -0.081598
     3  C   -0.201490
     4  C    0.176179
     5  C    0.072131
     6  C   -0.064225
     7  C   -0.201479
     8  C   -0.081614
     9  C   -0.166989
    10  C   -0.064225
    11  N   -0.025043
    12  N   -0.025043
    13  C    0.224681
    14  C    0.190515
    15  C    0.190515
    16  C    0.224679
 Electronic spatial extent (au):  <R**2>=           3318.3928
 Charge=             -0.0000 electrons
 Dipole moment (field-independent basis, Debye):
    X=             -1.5205    Y=              0.0001    Z=             -0.0000  Tot=              1.5205
 Quadrupole moment (field-independent basis, Debye-Ang):
   XX=            -91.0062   YY=            -90.0894   ZZ=           -102.2337
   XY=              0.0001   XZ=              0.0002   YZ=              1.7889
 Traceless Quadrupole moment (field-independent basis, Debye-Ang):
   XX=              3.4369   YY=              4.3537   ZZ=             -7.7906
   XY=              0.0001   XZ=              0.0002   YZ=              1.7889
 Octapole moment (field-independent basis, Debye-Ang**2):
  XXX=             -4.4772  YYY=              0.0017  ZZZ=              0.0001  XYY=             -5.4459
  XXY=             -0.0007  XXZ=              0.0006  XZZ=            -16.5646  YZZ=              0.0016
  YYZ=             -0.0006  XYZ=              3.0855
 Hexadecapole moment (field-independent basis, Debye-Ang**3):
 XXXX=          -1995.4761 YYYY=          -2018.1441 ZZZZ=           -430.9534 XXXY=             -0.0027
 XXXZ=              0.0039 YYYX=             -0.0008 YYYZ=             32.4450 ZZZX=             -0.0005
 ZZZY=             -4.1182 XXYY=           -672.2419 XXZZ=           -452.2987 YYZZ=           -448.0235
 XXYZ=             13.3895 YYXZ=              0.0005 ZZXY=              0.0002
 N-N= 1.123696975989D+03 E-N=-3.761249286836D+03  KE= 6.480537313070D+02
 Calling FoFJK, ICntrl=  10002127 FMM=F ISym2X=0 I1Cent= 0 IOpClX= 0 NMat=1 NMatS=1 NMatT=0.
 ***** Axes restored to original set *****
 -------------------------------------------------------------------
 Center     Atomic                   Forces (Hartrees/Bohr)
 Number     Number              X              Y              Z
 -------------------------------------------------------------------
      1        6          -0.002031256    0.003374994    0.000617454
      2        6           0.001556781    0.003487917    0.000469441
      3        6           0.003450949   -0.001014256    0.000297457
      4        6          -0.000148910   -0.000000155    0.000000459
      5        6          -0.001002126   -0.000002492   -0.000000559
      6        6           0.000924570   -0.000413347   -0.000790618
      7        6           0.003454436    0.001018314   -0.000297217
      8        6           0.001558641   -0.003486953   -0.000469270
      9        6          -0.002030588   -0.003381648   -0.000618092
     10        6           0.000926345    0.000418395    0.000790957
     11        7          -0.001628930   -0.003216186    0.002163378
     12        7          -0.001628650    0.003216862   -0.002163327
     13        6          -0.000544474   -0.002131800   -0.003913932
     14        6          -0.002413422    0.003801023    0.001419740
     15        6          -0.002413074   -0.003801073   -0.001419158
     16        6          -0.000545526    0.002131676    0.003914109
     17        1           0.000916032   -0.001802491   -0.000178352
     18        1          -0.000898381   -0.001546828   -0.000298461
     19        1          -0.001625764    0.000000695   -0.000066957
     20        1          -0.001625654   -0.000000986    0.000066943
     21        1          -0.000898677    0.001546777    0.000298464
     22        1           0.000915851    0.001802492    0.000178255
     23        1          -0.000724902    0.001456437    0.000875850
     24        1           0.001728302    0.000420254    0.000434064
     25        1          -0.000030963   -0.000772054    0.001342933
     26        1          -0.000008012   -0.000779524   -0.001799696
     27        1          -0.000016617   -0.001445510    0.000877549
     28        1           0.001918061   -0.000202631   -0.000111805
     29        1          -0.000008119    0.000779255    0.001799308
     30        1          -0.000017007    0.001445366   -0.000877563
     31        1           0.001917955    0.000202650    0.000111651
     32        1          -0.000724467   -0.001457109   -0.000876007
     33        1           0.001728630   -0.000419946   -0.000434051
     34        1          -0.000031036    0.000771884   -0.001342948
 -------------------------------------------------------------------
 Cartesian Forces:  Max     0.003914109 RMS     0.001631350

 GradGradGradGradGradGradGradGradGradGradGradGradGradGradGradGradGradGrad
 Berny optimization.
 FormGI is forming the generalized inverse of G from B-inverse, IUseBI=4.
 Internal  Forces:  Max     0.004609165 RMS     0.001225487
 Search for a local minimum.
 Step number   1 out of a maximum of  181
 All quantities printed in internal units (Hartrees-Bohrs-Radians)
 Mixed Optimization -- RFO/linear search
 Second derivative matrix not updated -- first step.
 ITU=  0
     Eigenvalues ---    0.00939   0.00939   0.01072   0.01072   0.01555
     Eigenvalues ---    0.01583   0.01583   0.01639   0.01705   0.01766
     Eigenvalues ---    0.01768   0.01926   0.01962   0.02086   0.02091
     Eigenvalues ---    0.02130   0.02145   0.02186   0.02186   0.02190
     Eigenvalues ---    0.02200   0.02288   0.02294   0.07135   0.07135
     Eigenvalues ---    0.07345   0.07345   0.07502   0.07502   0.07705
     Eigenvalues ---    0.07705   0.15953   0.15953   0.15974   0.15975
     Eigenvalues ---    0.16000   0.16000   0.16000   0.16000   0.16000
     Eigenvalues ---    0.16000   0.16000   0.16000   0.16000   0.16000
     Eigenvalues ---    0.16000   0.16000   0.16000   0.16000   0.19429
     Eigenvalues ---    0.19429   0.21341   0.21341   0.22050   0.22119
     Eigenvalues ---    0.23115   0.23617   0.24660   0.24848   0.24997
     Eigenvalues ---    0.24997   0.33036   0.33036   0.33169   0.33169
     Eigenvalues ---    0.34199   0.34199   0.34224   0.34224   0.34391
     Eigenvalues ---    0.34391   0.34998   0.34998   0.35185   0.35185
     Eigenvalues ---    0.35197   0.35197   0.35508   0.35508   0.35849
     Eigenvalues ---    0.37268   0.37358   0.37358   0.37374   0.38658
     Eigenvalues ---    0.38658   0.41011   0.41281   0.43352   0.43500
     Eigenvalues ---    0.44279   0.44279   0.46160   0.46247   0.49445
     Eigenvalues ---    0.49549
 RFO step:  Lambda=-1.12818156D-03 EMin= 9.39423649D-03
 Linear search not attempted -- first point.
 Iteration  1 RMS(Cart)=  0.06917568 RMS(Int)=  0.00060843
 Iteration  2 RMS(Cart)=  0.00125748 RMS(Int)=  0.00003414
 Iteration  3 RMS(Cart)=  0.00000039 RMS(Int)=  0.00003414
 Variable       Old X    -DE/DX   Delta X   Delta X   Delta X     New X
                                 (Linear)    (Quad)   (Total)
    R1        2.66005   0.00250   0.00000   0.00587   0.00589   2.66594
    R2        2.62728   0.00150   0.00000   0.00314   0.00315   2.63043
    R3        2.04859  -0.00202   0.00000  -0.00568  -0.00568   2.04290
    R4        2.59135   0.00323   0.00000   0.00660   0.00661   2.59797
    R5        2.05376  -0.00181   0.00000  -0.00514  -0.00514   2.04862
    R6        2.68233   0.00148   0.00000   0.00352   0.00351   2.68584
    R7        2.05356  -0.00163   0.00000  -0.00460  -0.00460   2.04896
    R8        2.71719  -0.00013   0.00000  -0.00086  -0.00088   2.71631
    R9        2.68233   0.00148   0.00000   0.00352   0.00351   2.68584
   R10        2.73854  -0.00247   0.00000  -0.00676  -0.00677   2.73176
   R11        2.73854  -0.00247   0.00000  -0.00677  -0.00678   2.73175
   R12        2.66122   0.00124   0.00000   0.00279   0.00279   2.66400
   R13        2.59136   0.00323   0.00000   0.00661   0.00662   2.59797
   R14        2.05356  -0.00163   0.00000  -0.00460  -0.00460   2.04896
   R15        2.66005   0.00251   0.00000   0.00588   0.00590   2.66595
   R16        2.05376  -0.00181   0.00000  -0.00514  -0.00514   2.04862
   R17        2.62728   0.00151   0.00000   0.00315   0.00316   2.63044
   R18        2.04859  -0.00202   0.00000  -0.00568  -0.00568   2.04290
   R19        2.66122   0.00124   0.00000   0.00279   0.00279   2.66401
   R20        2.75310   0.00134   0.00000   0.00357   0.00357   2.75667
   R21        2.73419   0.00150   0.00000   0.00388   0.00388   2.73807
   R22        2.73419   0.00151   0.00000   0.00388   0.00388   2.73807
   R23        2.75310   0.00134   0.00000   0.00358   0.00358   2.75667
   R24        2.05678  -0.00179   0.00000  -0.00510  -0.00510   2.05167
   R25        2.06996  -0.00176   0.00000  -0.00513  -0.00513   2.06483
   R26        2.08757  -0.00149   0.00000  -0.00448  -0.00448   2.08308
   R27        2.06675  -0.00189   0.00000  -0.00549  -0.00549   2.06126
   R28        2.08989  -0.00164   0.00000  -0.00495  -0.00495   2.08494
   R29        2.06954  -0.00186   0.00000  -0.00541  -0.00541   2.06413
   R30        2.06675  -0.00189   0.00000  -0.00549  -0.00549   2.06126
   R31        2.08989  -0.00164   0.00000  -0.00495  -0.00495   2.08493
   R32        2.06954  -0.00186   0.00000  -0.00541  -0.00541   2.06413
   R33        2.05678  -0.00179   0.00000  -0.00510  -0.00510   2.05167
   R34        2.06996  -0.00176   0.00000  -0.00513  -0.00513   2.06483
   R35        2.08757  -0.00149   0.00000  -0.00448  -0.00448   2.08308
    A1        2.12922  -0.00120   0.00000  -0.00419  -0.00421   2.12501
    A2        2.06579   0.00065   0.00000   0.00248   0.00249   2.06828
    A3        2.08602   0.00056   0.00000   0.00198   0.00198   2.08800
    A4        2.09241   0.00007   0.00000   0.00235   0.00232   2.09473
    A5        2.08344  -0.00001   0.00000  -0.00074  -0.00075   2.08269
    A6        2.10534  -0.00005   0.00000  -0.00092  -0.00093   2.10441
    A7        2.10073  -0.00044   0.00000  -0.00050  -0.00055   2.10018
    A8        2.11194   0.00028   0.00000   0.00065   0.00067   2.11261
    A9        2.07050   0.00016   0.00000  -0.00013  -0.00011   2.07039
   A10        2.10240  -0.00096   0.00000  -0.00365  -0.00369   2.09871
   A11        2.07839   0.00192   0.00000   0.00731   0.00737   2.08576
   A12        2.10240  -0.00096   0.00000  -0.00365  -0.00369   2.09871
   A13        2.04473   0.00220   0.00000   0.00861   0.00857   2.05331
   A14        2.04473   0.00220   0.00000   0.00861   0.00857   2.05331
   A15        2.19372  -0.00440   0.00000  -0.01722  -0.01715   2.17657
   A16        2.07736   0.00044   0.00000   0.00189   0.00179   2.07915
   A17        2.09694   0.00417   0.00000   0.01665   0.01663   2.11357
   A18        2.10879  -0.00460   0.00000  -0.01830  -0.01832   2.09046
   A19        2.10073  -0.00044   0.00000  -0.00050  -0.00055   2.10017
   A20        2.07050   0.00016   0.00000  -0.00013  -0.00011   2.07040
   A21        2.11194   0.00028   0.00000   0.00065   0.00067   2.11261
   A22        2.09241   0.00007   0.00000   0.00236   0.00232   2.09474
   A23        2.10535  -0.00005   0.00000  -0.00093  -0.00094   2.10441
   A24        2.08344  -0.00001   0.00000  -0.00074  -0.00076   2.08268
   A25        2.12922  -0.00121   0.00000  -0.00420  -0.00422   2.12500
   A26        2.06579   0.00065   0.00000   0.00249   0.00250   2.06829
   A27        2.08601   0.00057   0.00000   0.00198   0.00199   2.08800
   A28        2.07736   0.00044   0.00000   0.00189   0.00180   2.07915
   A29        2.10879  -0.00461   0.00000  -0.01832  -0.01834   2.09044
   A30        2.09694   0.00418   0.00000   0.01666   0.01665   2.11359
   A31        2.02665  -0.00129   0.00000  -0.00673  -0.00673   2.01992
   A32        2.05723   0.00028   0.00000   0.00124   0.00124   2.05847
   A33        1.94906   0.00100   0.00000   0.00422   0.00422   1.95328
   A34        2.05723   0.00029   0.00000   0.00126   0.00126   2.05849
   A35        2.02665  -0.00129   0.00000  -0.00673  -0.00673   2.01992
   A36        1.94906   0.00099   0.00000   0.00422   0.00422   1.95328
   A37        1.93108  -0.00046   0.00000  -0.00303  -0.00303   1.92805
   A38        1.91673  -0.00052   0.00000  -0.00335  -0.00336   1.91338
   A39        1.94043  -0.00036   0.00000  -0.00196  -0.00196   1.93847
   A40        1.88710   0.00040   0.00000   0.00196   0.00195   1.88905
   A41        1.89330   0.00047   0.00000   0.00315   0.00314   1.89644
   A42        1.89394   0.00052   0.00000   0.00354   0.00354   1.89747
   A43        1.92737  -0.00051   0.00000  -0.00337  -0.00337   1.92400
   A44        1.98550  -0.00032   0.00000  -0.00223  -0.00223   1.98327
   A45        1.89317  -0.00053   0.00000  -0.00288  -0.00288   1.89029
   A46        1.89389   0.00036   0.00000   0.00154   0.00154   1.89542
   A47        1.88724   0.00058   0.00000   0.00404   0.00404   1.89127
   A48        1.87367   0.00050   0.00000   0.00342   0.00342   1.87709
   A49        1.92737  -0.00051   0.00000  -0.00336  -0.00337   1.92400
   A50        1.98550  -0.00032   0.00000  -0.00222  -0.00223   1.98327
   A51        1.89317  -0.00053   0.00000  -0.00288  -0.00289   1.89028
   A52        1.89389   0.00036   0.00000   0.00154   0.00154   1.89543
   A53        1.88724   0.00058   0.00000   0.00404   0.00403   1.89127
   A54        1.87368   0.00050   0.00000   0.00342   0.00342   1.87709
   A55        1.93108  -0.00046   0.00000  -0.00303  -0.00304   1.92805
   A56        1.91673  -0.00052   0.00000  -0.00335  -0.00336   1.91338
   A57        1.94043  -0.00036   0.00000  -0.00196  -0.00196   1.93847
   A58        1.88710   0.00040   0.00000   0.00196   0.00195   1.88905
   A59        1.89330   0.00047   0.00000   0.00315   0.00314   1.89644
   A60        1.89394   0.00052   0.00000   0.00354   0.00354   1.89747
    D1        0.06095  -0.00021   0.00000  -0.00930  -0.00933   0.05163
    D2        3.13526   0.00010   0.00000   0.00234   0.00233   3.13759
    D3       -3.00965  -0.00032   0.00000  -0.01385  -0.01389  -3.02354
    D4        0.06466  -0.00002   0.00000  -0.00221  -0.00223   0.06242
    D5        0.08980  -0.00030   0.00000  -0.00963  -0.00958   0.08022
    D6       -3.03662  -0.00057   0.00000  -0.02656  -0.02669  -3.06330
    D7       -3.12358  -0.00018   0.00000  -0.00501  -0.00495  -3.12854
[...]
 044,-0.00051100,-0.00000484,-0.00000468,-0.00001383,0.00000234,-0.0000
 0257,-0.00000009,-0.00000058,0.00000552,-0.00000064,-0.00000917,-0.000
 00853,-0.00001622,-0.00000928,0.00000951,-0.00001003,0.00014967,-0.000
 02553,0.00016943,-0.00026226,-0.00014154,0.00006772,0.00010192,-0.0000
 4580,-0.00002973,-0.00000314,0.00009902,0.00007674,0.00000152,0.000051
 14,0.00003175,-0.00000531,-0.00001514,0.00000970,0.00001072,0.00000121
 ,-0.00002472,-0.01270954,0.07404246,-0.00000257,-0.00002609,-0.0000232
 0,0.00006279,0.00003528,0.00002808,-0.00004654,0.00003344,-0.00002093,
 0.00008263,-0.00001573,-0.00002388,-0.00039775,-0.00017418,0.00006382,
 0.00020594,0.00012723,0.00006354,-0.00002486,0.00003432,-0.00005703,0.
 00011410,0.00038663,0.00016469,0.00013494,-0.00048059,0.00057026,0.002
 05054,0.00000349,0.00013425,-0.00017508,-0.00010333,0.00023259,0.00065
 353,-0.00454038,-0.00678985,-0.00006852,-0.00013667,-0.00005501,0.0000
 0604,0.00002998,-0.00001692,0.05849014,-0.05931168,-0.29387276,-0.0023
 1528,-0.00169259,0.00053322,-0.00000031,0.00000875,-0.00000467,-0.0000
 0318,-0.00000226,0.00000372,-0.00000203,-0.00000063,-0.00000855,0.0000
 2722,0.00004167,0.00000735,-0.00003411,0.00000397,-0.00000907,-0.00009
 695,0.00073922,-0.00030232,-0.00000825,-0.00017293,0.00002067,0.000030
 83,-0.00001720,-0.00001370,0.00001140,-0.00002197,0.00000998,0.0000104
 9,0.00003176,0.00000555,-0.00000146,-0.00000804,0.00001542,-0.00000303
 ,0.00000802,-0.00001794,-0.06463836,0.06853100,0.31628927,-0.00015108,
 -0.00005427,0.00002376,0.00011231,-0.00004940,-0.00001591,-0.00006528,
 0.00011268,0.00007510,0.00037160,-0.00046000,-0.00021333,-0.00071581,-
 0.00037995,-0.00072832,0.00011935,0.00036289,0.00007009,0.00017960,0.0
 0057832,0.00004909,-0.00052986,-0.00016839,-0.00054975,0.00069653,0.00
 079161,0.00042425,0.00252980,-0.00106774,0.00059470,0.00012123,-0.0003
 4646,0.00012468,0.00458424,-0.01744734,0.01062318,-0.00024714,-0.00004
 793,-0.00015096,-0.00009787,0.00000377,0.00006365,-0.06774190,0.045852
 35,-0.03871018,-0.00019223,0.00025515,0.00156255,-0.00000026,-0.000000
 42,-0.00000724,0.00000410,0.00000484,-0.00000816,-0.00001351,-0.000008
 50,-0.00000046,-0.00000234,0.00000096,0.00012887,-0.00000558,-0.000002
 12,0.00004303,-0.00214960,-0.00047192,0.00142698,-0.00001661,0.0000297
 7,-0.00002772,0.00010344,-0.00006566,0.00001619,0.00006517,-0.00000163
 ,0.00001000,0.00000485,0.00000533,0.00000146,0.00002598,-0.00005246,-0
 .00000439,0.00002052,-0.00001041,-0.00000571,0.00188597,-0.00592072,0.
 00566218,0.06939508,0.00003108,-0.00013079,-0.00006368,0.00005541,0.00
 003558,0.00002637,-0.00011856,0.00004420,-0.00000682,0.00009457,-0.000
 14077,-0.00021887,-0.00132022,-0.00023201,-0.00009009,0.00050422,0.000
 51054,0.00001220,-0.00029699,-0.00013980,0.00008768,0.00030903,0.00056
 846,0.00012285,-0.00125169,0.00051155,0.00038532,0.00782134,-0.0000897
 5,-0.00137573,-0.00002824,-0.00094729,0.00010820,-0.00680992,-0.037272
 38,0.00958474,-0.00009946,0.00014976,-0.00040246,-0.00023013,0.0000705
 2,0.00022344,0.04691731,-0.17652523,0.10788141,-0.00106808,0.00086811,
 0.00599670,0.00000457,-0.00001960,0.00001141,-0.00001533,-0.00002896,-
 0.00000119,-0.00004201,-0.00002126,-0.00001677,0.00000171,0.00004136,0
 .00000371,-0.00012323,0.00003753,-0.00004467,-0.00029225,0.00077221,0.
 00025578,-0.00002006,-0.00001283,-0.00016582,0.00004515,0.00000335,-0.
 00002344,0.00001801,-0.00012401,0.00001793,-0.00000825,-0.00001515,-0.
 00000806,0.00005250,-0.00016823,0.00000552,0.00003938,0.00000408,-0.00
 000013,-0.00118339,0.00689596,-0.00437196,-0.04619348,0.20827978,0.000
 04361,0.00004518,0.00004664,-0.00004857,-0.00002492,-0.00001469,0.0000
 3709,-0.00001039,0.00002068,-0.00003034,-0.00002794,-0.00003733,0.0002
 1932,-0.00003046,-0.00024256,-0.00023611,-0.00006863,0.00000156,-0.000
 00291,0.00006415,0.00003004,-0.00010897,-0.00056291,-0.00019212,0.0002
 9414,0.00148105,-0.00031479,-0.00115762,-0.00027947,0.00078315,0.00014
 075,0.00003470,0.00019331,0.00600866,-0.00620063,0.00814661,-0.0000479
 2,-0.00030155,-0.00003150,0.00006171,-0.00000836,0.00002954,-0.0378402
 8,0.10560050,-0.14405609,0.00025241,-0.00199835,0.00378304,-0.00000342
 ,-0.00000732,-0.00000655,0.00000742,0.00000803,-0.00000516,0.00000513,
 0.00000362,-0.00000358,-0.00002958,-0.00005653,0.00000464,0.00005328,0
 .00000476,-0.00000890,0.00032362,-0.00052350,-0.00002528,-0.00014648,-
 0.00014238,0.00005443,0.00008937,-0.00006874,0.00000239,0.00001221,0.0
 0008155,0.00003330,-0.00000712,0.00000976,0.00001545,0.00000439,0.0000
 0547,-0.00001632,0.00001532,-0.00001670,-0.00000554,-0.00915150,0.0230
 0484,-0.01784608,0.04100465,-0.12020246,0.14781024,0.00017061,-0.00003
 822,0.00006144,-0.00009675,0.00000070,-0.00000307,0.00001346,-0.000038
 73,0.00000026,-0.00007910,-0.00012433,0.00015956,-0.00058909,0.0002961
 8,-0.00012549,-0.00043920,0.00013855,-0.00012854,-0.00018792,-0.000103
 69,-0.00003040,0.00021037,-0.00008373,-0.00013484,0.00008593,0.0000608
 5,0.00017850,0.00089622,-0.00145578,-0.00282441,0.00041605,-0.00006815
 ,0.00011021,-0.01930621,-0.00480269,0.00297266,-0.00033662,-0.00015417
 ,-0.00011291,-0.00006940,0.00005463,0.00008194,-0.30653888,0.04703245,
 0.01818454,0.00069653,0.00111058,0.00162377,-0.00000840,-0.00003813,0.
 00000231,-0.00000092,-0.00001873,-0.00000818,-0.00002430,-0.00002363,-
 0.00000561,-0.00002497,-0.00002955,0.00001957,-0.00004776,0.00002414,-
 0.00000427,0.00000529,-0.00026244,0.00014671,-0.00003745,-0.00000578,-
 0.00006058,0.00014030,-0.00009693,0.00003656,0.00007301,-0.00002757,0.
 00002774,-0.00001246,-0.00001070,0.00000305,0.00002052,-0.00003939,-0.
 00001529,0.00005551,-0.00002633,0.00000809,-0.00448307,0.00122362,-0.0
 0024025,-0.00794956,0.00273445,0.00085244,0.33677876,0.00005116,-0.000
 05996,0.00001197,0.00002546,-0.00000595,0.00001182,-0.00006611,0.00008
 120,-0.00000018,0.00009317,-0.00041920,0.00021799,-0.00143247,0.000166
 36,0.00016295,-0.00033461,0.00031105,-0.00007043,-0.00004345,0.0001073
 9,-0.00005580,-0.00007800,0.00042708,0.00012318,0.00028061,-0.00122814
 ,0.00022261,-0.00104083,-0.00430231,-0.00348551,0.00030138,0.00011335,
 -0.00005807,-0.03773696,-0.00178948,0.00241843,-0.00023108,-0.00001499
 ,-0.00008433,0.00000147,-0.00003311,0.00003176,0.05446357,-0.05651949,
 -0.00432867,-0.00176238,0.00105118,0.00076146,-0.00000959,-0.00001886,
 -0.00000490,0.00000495,-0.00000564,-0.00000076,-0.00002058,-0.00003308
 ,-0.00000134,0.00002448,0.00005207,0.00000964,-0.00005403,-0.00000211,
 0.00001572,0.00028523,0.00085430,-0.00000411,-0.00004725,0.00001640,-0
 .00000506,0.00012492,-0.00005729,0.00004300,0.00009206,0.00005280,0.00
 001550,0.00000129,0.00000122,0.00000803,0.00001041,0.00000403,-0.00001
 670,0.00002634,-0.00002979,0.00000052,0.00672062,-0.00148838,0.0008747
 4,0.02409890,-0.00382560,-0.00223626,-0.04484713,0.06702330,-0.0001593
 8,-0.00006324,-0.00003566,0.00010581,-0.00005721,0.00001627,-0.0000348
 1,0.00011169,-0.00002062,0.00028485,-0.00032995,0.00004043,-0.00052200
 ,-0.00038531,0.00028493,-0.00001852,0.00016737,0.00002889,0.00007738,0
 .00040389,-0.00006776,-0.00041959,-0.00014148,0.00029151,0.00081803,-0
 .00003147,0.00061213,0.00006347,-0.00120916,-0.00061187,-0.00006326,0.
 00000292,-0.00017449,-0.00904502,-0.00096977,0.00046677,0.00025203,0.0
 0002834,0.00013602,-0.00000832,0.00000587,0.00000257,0.02075782,-0.003
 59898,-0.05288652,-0.00177697,0.00022997,0.00026845,-0.00000152,0.0000
 0168,-0.00000338,0.00000053,0.00000182,0.00000334,-0.00000122,-0.00000
 807,-0.00000235,0.00000389,0.00001998,-0.00002101,0.00000270,-0.000016
 26,0.00003756,0.00024546,0.00027233,-0.00056943,0.00007537,-0.00001452
 ,0.00000092,-0.00014017,0.00009895,0.00000627,-0.00007701,-0.00002656,
 -0.00003058,-0.00000762,-0.00002470,-0.00001791,0.00000570,-0.00000013
 ,-0.00000552,-0.00000812,0.00000058,0.00001846,0.03008757,-0.00476857,
 0.00069163,-0.02093767,0.00498120,0.00146525,-0.01976276,0.00534533,0.
 04998213,-0.00053040,-0.00016131,-0.00037587,0.00028013,-0.00019203,-0
 .00008291,-0.00001253,0.00028510,0.00009660,0.00004853,-0.00014698,-0.
 00004686,-0.00080771,-0.00012896,0.00093363,0.00153746,-0.00063941,0.0
 0148466,-0.00005804,0.00025588,-0.00002170,-0.00024139,-0.00012626,0.0
 0010795,0.00034009,-0.00026462,-0.00001103,0.00033335,0.00149323,0.000
 77926,-0.00133651,-0.00085047,0.00180058,0.00514663,0.01040206,0.00429
 431,-0.00029974,-0.00012083,-0.00036029,-0.00018068,0.00040639,-0.0003
 8390,-0.00087105,0.00089506,0.00182923,-0.13386345,-0.12818922,-0.0410
 9151,0.00003377,0.00005423,0.00000058,0.00000250,0.00000580,0.00001725
 ,0.00001063,0.00001146,0.00003227,0.00000992,0.00000702,-0.00002083,0.
 00000724,-0.00001075,-0.00000583,0.00001837,0.00000222,-0.00006790,-0.
 00005819,0.00006624,0.00006618,0.00010836,0.00000324,0.00000793,0.0001
 0207,0.00006174,0.00012117,0.00012443,0.00026035,0.00000952,-0.0000165
 2,0.00002001,0.00014609,-0.00003683,0.00004640,-0.00007491,0.00069133,
 0.00037569,0.00034957,-0.00003080,-0.00019649,-0.00004222,0.00058235,0
 .00001559,0.00006765,0.13989587,0.00009248,0.00015125,-0.00020139,-0.0
 0014278,-0.00005969,-0.00008040,0.00014123,-0.00002210,0.00008012,0.00
 050808,-0.00003583,0.00001291,-0.00008429,0.00014861,0.00084889,-0.001
 09974,-0.00027188,0.00135467,0.00002168,0.00019945,-0.00000956,-0.0002
 8815,-0.00005793,-0.00004288,0.00042148,-0.00044478,-0.00000589,-0.001
 75636,0.00013475,0.00031423,-0.00021860,-0.00151032,0.00252021,-0.0042
 7035,-0.00996036,-0.00394947,0.00009879,-0.00009194,0.00010635,-0.0000
 0358,0.00009531,0.00040719,0.00189712,0.00016302,-0.00245498,-0.123721
 52,-0.23427218,-0.06224973,0.,-0.00004141,0.00001262,0.00001153,0.0000
 0599,-0.00000461,-0.00000058,-0.00001280,-0.00000019,0.00000137,0.0000
 1649,-0.00001253,-0.00000063,-0.00000772,-0.00000195,-0.00004941,0.000
 07643,-0.00000047,-0.00006619,-0.00001433,-0.00001374,0.00001735,-0.00
 002834,-0.00001357,0.00003099,0.00003818,0.00009219,-0.00000313,-0.000
 14246,-0.00016973,-0.00002962,-0.00001286,-0.00014174,0.00000510,0.000
 01730,-0.00001515,-0.00052169,-0.00040665,-0.00019583,-0.00003262,0.00
 031123,0.00020854,-0.00009033,0.00008585,0.00021014,0.13602428,0.25433
 276,0.00006197,-0.00004974,-0.00018361,-0.00007493,0.00010171,0.000051
 63,-0.00019660,-0.00014307,-0.00006606,0.00043633,0.00002670,0.0000963
 1,0.00021718,-0.00021645,0.00004130,0.00211777,0.00134199,-0.00121162,
 0.00003748,0.00023023,-0.00002456,-0.00029049,-0.00005956,-0.00010734,
 0.00048463,-0.00008043,-0.00006562,-0.00239710,-0.00106332,0.00082072,
 -0.00048349,0.00080660,-0.00038801,-0.01710395,-0.02747638,-0.01186445
 ,-0.00017944,-0.00028581,-0.00055531,-0.00024298,0.00058408,0.00005573
 ,0.00316396,-0.00069183,-0.00540051,-0.03260468,-0.05265480,-0.0649883
 9,0.00000208,-0.00001370,-0.00001902,-0.00003348,-0.00001969,0.0000118
 9,-0.00002103,0.00000319,-0.00000316,-0.00001830,0.00002530,0.00003682
 ,0.00001906,0.00000737,0.00000795,-0.00008796,0.00009308,0.00000676,-0
 .00006620,-0.00001387,0.00011162,0.00013524,-0.00001234,0.00003886,0.0
 0005154,0.00005407,0.00018939,-0.00002511,0.00006970,0.00002010,0.0000
 2771,-0.00016564,0.00005443,0.00006087,-0.00000553,0.00000126,-0.00070
 003,-0.00193020,-0.00040738,0.00010903,-0.00050975,0.00009254,0.000063
 29,0.00035809,0.00004542,0.03656333,0.06514312,0.07705226,0.00040503,0
 .00012940,0.00019543,-0.00020757,0.00001946,0.00003085,0.00011250,-0.0
 0011621,-0.00001676,0.00012221,0.00003124,0.00004608,0.00018901,0.0002
 1062,-0.00009647,-0.00121525,0.00027035,-0.00034305,-0.00009423,-0.000
 00524,0.00003457,0.00000701,0.00020911,-0.00009849,-0.00054934,-0.0004
 9709,0.00053536,0.00154589,0.00297486,0.00080512,0.00136745,0.00032109
 ,-0.00058804,-0.01031616,0.00056659,0.00653324,-0.00012846,-0.00020686
 ,0.00043026,-0.00013390,-0.00017476,0.00016951,0.00009022,-0.00105868,
 -0.00092022,-0.29895735,0.06367003,-0.01730793,-0.00001994,-0.00006269
 ,-0.00001603,0.00000279,-0.00001173,-0.00001369,-0.00001848,-0.0000157
 8,-0.00001681,-0.00002060,-0.00001171,0.00000524,-0.00010182,0.0000184
 1,-0.00004252,0.00005095,0.00005532,0.00001231,0.00010851,-0.00001752,
 -0.00013524,-0.00000554,-0.00001428,0.00018053,-0.00000643,-0.00006472
 ,-0.00002627,-0.00012128,-0.00010171,-0.00003085,0.00010333,-0.0000451
 3,-0.00008921,0.00014023,-0.00012443,0.00013928,0.00056696,-0.00001631
 ,0.00009457,-0.00023113,0.00039986,-0.00018197,0.00038731,0.00060446,0
 .00023858,-0.01448653,0.00556085,-0.00140457,0.32478052,0.00024064,0.0
 0014870,0.00017184,-0.00012377,0.00006605,0.00002099,0.00000435,-0.000
 12060,-0.00005612,0.00017338,0.00003419,0.00008199,-0.00015603,-0.0000
 0416,0.00030360,-0.00077590,0.00016083,-0.00020497,-0.00000140,-0.0000
 3886,-0.00000721,0.00004494,-0.00008432,0.00004659,0.00033997,0.000332
 19,0.00000829,-0.00035555,-0.00152550,-0.00100143,0.00072950,0.0004689
 9,-0.00062318,0.00966013,-0.00163392,-0.00469930,0.00006766,-0.0000048
 2,0.00022308,-0.00007700,-0.00019205,0.00008343,0.00205325,0.00049814,
 0.00032477,0.06298627,-0.06696894,0.00516208,-0.00001376,-0.00001886,-
 0.00001075,0.00000290,0.00000546,-0.00000728,0.00000054,-0.00000669,-0
 .00000494,0.00000162,0.00000871,-0.00000250,0.00004478,0.00000368,-0.0
 0002658,0.00000552,-0.00000825,0.00002982,-0.00000345,-0.00002844,-0.0
 0001196,0.00001505,-0.00003318,0.00005695,-0.00000467,0.00002936,-0.00
 002818,-0.00007028,-0.00004554,-0.00001761,0.00006557,0.00000343,-0.00
 006865,0.00009601,-0.00005454,0.00009832,-0.00019741,0.00013869,0.0001
 6376,-0.00005188,-0.00012649,0.00021982,-0.00056456,-0.00013715,-0.000
 33718,-0.02556870,0.00855325,-0.00091717,-0.07260177,0.06641272,-0.000
 13990,0.00001605,-0.00003301,0.00006669,0.00003230,-0.00000527,-0.0000
 2871,-0.00000379,0.00000198,0.00005001,0.00003142,0.00005137,-0.000057
 97,-0.00019619,0.00003637,0.00032484,-0.00010493,0.00004744,0.00007136
 ,-0.00000425,-0.00003262,0.00015527,-0.00047928,0.00017235,0.00181819,
 0.00073534,-0.00053767,0.00135668,-0.00529232,-0.00315210,-0.00038023,
 -0.00026068,0.00001373,0.03551010,-0.00756051,-0.00730362,0.00029649,0
 .00004355,-0.00006248,0.00001704,0.00016994,-0.00002138,0.00197322,0.0
 0119411,0.00079468,-0.02384340,0.00537919,-0.04875270,0.00000726,0.000
 02200,0.00000301,-0.00000716,0.00000355,0.00000401,0.00001175,0.000013
 79,-0.00000323,0.00001517,0.00002110,-0.00001771,0.00017856,-0.0000153
 9,0.00000592,-0.00006963,-0.00002775,-0.00011254,-0.00000775,-0.000013
 43,0.00003848,-0.00018259,0.00005590,-0.00008278,-0.00012501,-0.000018
 08,-0.00001309,-0.00003660,-0.00002960,-0.00001358,-0.00001615,-0.0000
 2337,0.00000242,-0.00003661,0.00004226,0.00000686,0.00006876,0.0003195
 6,0.00008224,-0.00051725,-0.00035709,-0.00023836,-0.00071562,-0.000167
 63,0.00021441,-0.00747773,0.00344600,-0.00028585,0.01286754,-0.0016268
 7,0.05942392,-0.00000574,0.00005002,0.00000101,0.00004703,-0.00007323,
 0.00000914,0.00000666,0.00007877,0.00003349,0.00029544,-0.00022285,-0.
 00009594,-0.00047055,-0.00062066,-0.00015583,-0.00005031,0.00031520,0.
 00004877,-0.00007539,0.00028108,0.00008881,-0.00027984,-0.00014404,-0.
 00017386,0.00029931,0.00056660,-0.00058830,0.00333225,-0.00106628,0.00
 033182,0.00033361,0.00004963,0.00011883,0.00165794,-0.00775656,0.01279
 125,-0.00020559,-0.00017522,0.00033035,-0.00015038,-0.00005893,0.00001
 183,-0.00007853,-0.00037980,-0.00086261,-0.05935214,0.02438058,-0.0236
 6898,-0.00000278,-0.00001478,-0.00003039,0.00000262,0.00000128,0.00000
 349,-0.00000527,-0.00000825,0.00000767,-0.00000123,0.00000622,0.000018
 67,0.00002237,-0.00000807,0.00002194,0.00004720,-0.00001244,0.00012940
 ,0.00010225,-0.00003119,-0.00005152,-0.00000645,0.00000479,0.00012505,
 0.00006138,-0.00006246,0.00003762,-0.00003002,0.00000307,-0.00001138,0
 .00006511,-0.00001792,-0.00001221,0.00007293,-0.00009188,0.00007692,-0
 .00014645,-0.00009376,0.00007163,-0.00007921,0.00026916,-0.00039053,-0
 .00030018,0.00047839,-0.00010290,0.00355736,-0.01245277,0.01237887,-0.
 00336591,0.02403407,-0.02114660,0.05470252,-0.00018326,-0.00007302,-0.
 00026781,0.00011432,-0.00000034,-0.00000908,-0.00013393,0.00001744,-0.
 00001520,0.00015697,-0.00001715,0.00004459,-0.00013690,-0.00015600,0.0
 0051620,0.00153330,0.00019433,0.00016600,-0.00008918,0.00012751,-0.000
 07731,-0.00013548,-0.00000503,0.00018239,-0.00029589,-0.00050661,0.000
 60895,-0.00184958,0.00081361,-0.00085722,-0.00122360,-0.00079033,0.001
 50885,-0.00057147,0.00926233,-0.01035060,-0.00010853,-0.00014794,-0.00
 045374,-0.00025547,0.00058263,0.00000530,-0.00054019,0.00363031,-0.002
 44219,0.02392483,-0.18248961,0.11587489,0.00001440,0.00000836,0.000010
 76,-0.00002916,-0.00002427,0.00002034,-0.00002391,0.00000328,0.0000179
 3,-0.00002514,0.00000505,-0.00000345,-0.00005217,0.00002077,0.00002797
 ,0.00002409,0.00003514,-0.00011537,-0.00006171,0.00003830,0.00005386,0
 .00006449,0.00002942,-0.00001818,0.00006231,-0.00001757,0.00021087,0.0
 0000697,0.00009869,-0.00002192,0.00000164,-0.00012383,0.00008154,0.000
 02745,0.00005277,-0.00002657,-0.00000774,0.00025350,0.00021878,0.00073
 671,0.00071593,0.00199552,0.00027454,-0.00037707,0.00010050,0.00590404
 ,-0.01693628,0.01746404,0.00010499,-0.00583209,0.00465508,-0.02722776,
 0.19160774,-0.00005164,0.00029194,0.00002374,-0.00003273,0.00000434,-0
 .00001415,-0.00009336,0.00001444,0.00001246,-0.00002184,-0.00006700,0.
 00008234,0.00099572,0.00082894,0.00016871,0.00064599,-0.00055532,0.000
 19068,0.00065101,0.00006258,-0.00008160,-0.00051984,0.00010284,0.00010
 820,0.00132858,-0.00137581,-0.00065300,-0.00860168,0.00050729,0.000518
 30,-0.00063039,-0.00040149,0.00063038,0.00800118,0.01188689,-0.0396217
 2,0.00013206,-0.00016874,-0.00039074,0.00002743,0.00008777,-0.00010436
 ,0.00197638,0.00417891,0.00152035,-0.02447085,0.11832349,-0.15154430,0
 .00001453,0.00003807,-0.00005092,0.00000233,0.00003152,0.00001050,0.00
 002238,0.00000395,0.00002236,0.00000895,0.00001753,-0.00001965,0.00004
 713,-0.00005378,0.00002191,-0.00000326,-0.00008357,-0.00013084,-0.0001
 2147,0.00009266,0.00018960,0.00002621,-0.00002830,-0.00001289,-0.00003
 788,0.00021133,0.00006455,0.00002499,0.00007672,0.00000996,-0.00001002
 ,0.00001785,0.00003332,-0.00002767,0.00001541,-0.00003056,0.00019469,-
 0.00045941,0.00055303,-0.00013639,-0.00184551,0.00053205,-0.00036042,-
 0.00011298,-0.00016624,0.00135574,-0.00519337,0.00683590,-0.00099033,0
 .00265655,-0.00023120,0.02065448,-0.12910574,0.18152382\\-0.00002601,-
 0.00000373,0.00000633,0.00001806,0.00001105,-0.00000061,0.00001052,0.0
 0000297,0.00000196,0.00000026,-0.00000138,0.00000076,0.00000716,0.0000
 1296,0.00000407,-0.00000204,0.00002034,-0.00003299,0.00001199,-0.00000
 546,-0.00000385,0.00001020,-0.00000639,0.00000206,-0.00002085,-0.00000
 676,-0.00001636,-0.00002624,-0.00001443,0.00003711,0.00002123,-0.00000
 147,0.00003469,0.00002848,0.00001651,-0.00005233,-0.00001109,-0.000014
 85,-0.00001965,0.00000151,0.00001015,-0.00002264,0.00000268,-0.0000083
 5,0.00002491,-0.00001158,0.00001274,0.00003366,0.00000459,-0.00000521,
 0.00000092,-0.00000541,-0.00000381,-0.00000207,-0.00000525,-0.00000322
 ,-0.00000158,-0.00000589,0.00000264,0.00000082,-0.00000601,0.00000386,
 0.00000227,0.00000999,0.00000125,-0.00000148,-0.00000501,-0.00000268,0
 .00000061,0.00000516,-0.00000099,-0.00000141,0.,-0.00000226,0.00000266
 ,-0.00000950,0.00000258,0.00000320,0.00000317,-0.00000331,0.00000585,0
 .00000743,0.00000168,0.00000119,-0.00001244,-0.00000049,-0.00000172,0.
 00000424,0.00000523,-0.00000545,0.00000846,-0.00000149,-0.00000197,-0.
 00001447,-0.00001873,0.00000601,0.00000639,0.00000258,0.00000045,0.000
 00029,-0.00000155,-0.00000542\\\@


 WE HAVE LEFT UNDONE THOSE THINGS WHICH WE OUGHT TO HAVE DONE,
 AND WE HAVE DONE THOSE THINGS WHICH WE OUGHT NOT TO HAVE DONE.
                   BOOK OF COMMON PRAYER                      
 Job cpu time:       1 days 19 hours 36 minutes 33.6 seconds.
 File lengths (MBytes):  RWF= 130703 Int=      0 D2E=      0 Chk=     16 Scr=      1
 Normal termination of Gaussian 09 at Wed Dec 18 05:30:40 2024.
