 Entering Gaussian System, Link 0=g09
 Input=B2PLYPDMAND3bjyang.gjf
 Output=B2PLYPDMAND3bjyang.log
 Initial command:
 /home/c612/g09E/g09/l1.exe "/mnt/ja_sm883/scratch/Gau-1934771.inp" -scrdir="/mnt/ja_sm883/scratch/"
 Default is to use a total of  18 processors:
                               18 via shared-memory
                                1 via Linda
 Entering Link 1 = /home/c612/g09E/g09/l1.exe PID=   1934773.
  
 Copyright (c) 1988,1990,1992,1993,1995,1998,2003,2009,2015,
            Gaussian, Inc.  All Rights Reserved.
  
 This is part of the Gaussian(R) 09 program.  It is based on
 the Gaussian(R) 03 system (copyright 2003, Gaussian, Inc.),
 the Gaussian(R) 98 system (copyright 1998, Gaussian, Inc.),
 the Gaussian(R) 94 system (copyright 1995, Gaussian, Inc.),
 the Gaussian 92(TM) system (copyright 1992, Gaussian, Inc.),
 the Gaussian 90(TM) system (copyright 1990, Gaussian, Inc.),
 the Gaussian 88(TM) system (copyright 1988, Gaussian, Inc.),
 the Gaussian 86(TM) system (copyright 1986, Carnegie Mellon
 University), and the Gaussian 82(TM) system (copyright 1983,
 Carnegie Mellon University). Gaussian is a federally registered
 trademark of Gaussian, Inc.
  
 This software contains proprietary and confidential information,
 including trade secrets, belonging to Gaussian, Inc.
  
 This software is provided under written license and may be
 used, copied, transmitted, or stored only in accord with that
 written license.
  
 The following legend is applicable only to US Government
 contracts under FAR:
  
                    RESTRICTED RIGHTS LEGEND
  
 Use, reproduction and disclosure by the US Government is
 subject to restrictions as set forth in subparagraphs (a)
 and (c) of the Commercial Computer Software - Restricted
 Rights clause in FAR 52.227-19.
  
 Gaussian, Inc.
 340 Quinnipiac St., Bldg. 40, Wallingford CT 06492
  
  
 ---------------------------------------------------------------
 Warning -- This program may not be used in any manner that
 competes with the business of Gaussian, Inc. or will provide
 assistance to any competitor of Gaussian, Inc.  The licensee
 of this program is prohibited from giving any competitor of
 Gaussian, Inc. access to this program.  By using this program,
 the user acknowledges that Gaussian, Inc. is engaged in the
 business of creating and licensing software in the field of
 computational chemistry and represents and warrants to the
 licensee that it is not a competitor of Gaussian, Inc. and that
 it will not use this program in any manner prohibited above.
 ---------------------------------------------------------------
  

 Cite this work as:
 Gaussian 09, Revision E.01,
 M. J. Frisch, G. W. Trucks, H. B. Schlegel, G. E. Scuseria, 
 M. A. Robb, J. R. Cheeseman, G. Scalmani, V. Barone, B. Mennucci, 
 G. A. Petersson, H. Nakatsuji, M. Caricato, X. Li, H. P. Hratchian, 
 A. F. Izmaylov, J. Bloino, G. Zheng, J. L. Sonnenberg, M. Hada, 
 M. Ehara, K. Toyota, R. Fukuda, J. Hasegawa, M. Ishida, T. Nakajima, 
 Y. Honda, O. Kitao, H. Nakai, T. Vreven, J. A. Montgomery, Jr., 
 J. E. Peralta, F. Ogliaro, M. Bearpark, J. J. Heyd, E. Brothers, 
 K. N. Kudin, V. N. Staroverov, T. Keith, R. Kobayashi, J. Normand, 
 K. Raghavachari, A. Rendell, J. C. Burant, S. S. Iyengar, J. Tomasi, 
 M. Cossi, N. Rega, J. M. Millam, M. Klene, J. E. Knox, J. B. Cross, 
 V. Bakken, C. Adamo, J. Jaramillo, R. Gomperts, R. E. Stratmann, 
 O. Yazyev, A. J. Austin, R. Cammi, C. Pomelli, J. W. Ochterski, 
 R. L. Martin, K. Morokuma, V. G. Zakrzewski, G. A. Voth, 
 P. Salvador, J. J. Dannenberg, S. Dapprich, A. D. Daniels, 
 O. Farkas, J. B. Foresman, J. V. Ortiz, J. Cioslowski, 
 and D. J. Fox, Gaussian, Inc., Wallingford CT, 2013.
 
 ******************************************
 Gaussian 09:  ES64L-G09RevE.01 30-Nov-2015
                19-Dec-2024 
 ******************************************
 %chk=B2PLYPDMAND3bjyang.chk
 -------------------------------------------------------
 # opt freq B2PLYP/6-31+g(d,p) EmpiricalDispersion=GD3BJ
 -------------------------------------------------------
 1/18=20,19=15,38=1/1,3;
 2/9=110,12=2,17=6,18=5,40=1/2;
 3/5=1,6=6,7=111,11=9,16=1,25=1,30=1,71=1,74=-47,124=41/1,2,3;
 4//1;
 5/5=2,38=5/2;
 8/6=4,10=2/1;
 9/15=2,16=-3/6;
 10/5=1/2;
 6/7=2,8=2,9=2,10=2/1;
 7/12=2/1,2,3,16;
 1/18=20,19=15/3(2);
 2/9=110/2;
 99//99;
 2/9=110/2;
 3/5=1,6=6,7=111,11=9,16=1,25=1,30=1,71=1,74=-47,124=41/1,2,3;
 4/5=5,16=3,69=1/1;
 5/5=2,38=5/2;
 8/6=4,10=2/1;
 9/15=2,16=-3/6;
 10/5=1/2;
 7/12=2/1,2,3,16;
 1/18=20,19=15/3(-8);
 2/9=110/2;
 6/7=2,8=2,9=2,10=2/1;
 99//99;
 ----------
 [No Title]
 ----------
 Symbolic Z-matrix:
 Charge =  1 Multiplicity = 1
 C                     0.75988  -2.4345    0.00011 
 C                     2.16894  -2.3914    0.00009 
 C                     2.81248  -1.17758   0.00003 
 C                     2.08644   0.04068  -0.00002 
 C                     0.64965   0.01714  -0.00001 
 C                     0.0313   -1.26886   0.00006 
 C                     2.76718   1.28422  -0.00009 
 C                     2.07197   2.46871  -0.00014 
 C                     0.66199   2.45507  -0.00013 
 C                    -0.04062   1.27005  -0.00006 
 N                    -1.44253  -1.32698   0.00008 
 N                    -1.49984   1.26805  -0.00005 
 C                    -2.00145  -1.94679  -1.23313 
 C                    -2.00142  -1.9467    1.23336 
 C                    -2.06852   1.87955   1.21836 
 C                    -2.06854   1.87949  -1.21849 
 H                     0.25805  -3.39797   0.00016 
 H                     2.73366  -3.31779   0.00013 
 H                     3.89781  -1.13423   0.00002 
 H                     3.85331   1.28322  -0.0001 
 H                     2.59908   3.41739  -0.00019 
 H                     0.12447   3.39904  -0.00017 
 H                    -1.6973   -0.22796   0.00005 
 H                    -3.08714  -1.82946  -1.2259 
 H                    -1.57834  -1.44703  -2.10502 
 H                    -1.75115  -3.00874  -1.26858 
 H                    -3.08711  -1.82938   1.22614 
 H                    -1.57829  -1.44688   2.1052 
 H                    -1.75111  -3.00865   1.26888 
 H                    -1.63295   1.41157   2.10387 
 H                    -1.8736    2.95787   1.26454 
 H                    -3.15099   1.72385   1.22488 
 H                    -1.63297   1.41148  -2.10398 
 H                    -3.151     1.72378  -1.22499 
 H                    -1.87363   2.95781  -1.26472 
 

 GradGradGradGradGradGradGradGradGradGradGradGradGradGradGradGradGradGrad
 Berny optimization.
 Initialization pass.
                           ----------------------------
                           !    Initial Parameters    !
                           ! (Angstroms and Degrees)  !
 --------------------------                            --------------------------
 ! Name  Definition              Value          Derivative Info.                !
 --------------------------------------------------------------------------------
 ! R1    R(1,2)                  1.4097         estimate D2E/DX2                !
 ! R2    R(1,6)                  1.3746         estimate D2E/DX2                !
 ! R3    R(1,17)                 1.0863         estimate D2E/DX2                !
 ! R4    R(2,3)                  1.3739         estimate D2E/DX2                !
 ! R5    R(2,18)                 1.0849         estimate D2E/DX2                !
 ! R6    R(3,4)                  1.4182         estimate D2E/DX2                !
 ! R7    R(3,19)                 1.0862         estimate D2E/DX2                !
 ! R8    R(4,5)                  1.437          estimate D2E/DX2                !
 ! R9    R(4,7)                  1.4177         estimate D2E/DX2                !
 ! R10   R(5,6)                  1.4269         estimate D2E/DX2                !
 ! R11   R(5,10)                 1.4305         estimate D2E/DX2                !
 ! R12   R(6,11)                 1.475          estimate D2E/DX2                !
 ! R13   R(7,8)                  1.3734         estimate D2E/DX2                !
 ! R14   R(7,20)                 1.0861         estimate D2E/DX2                !
 ! R15   R(8,9)                  1.41           estimate D2E/DX2                !
 ! R16   R(8,21)                 1.0853         estimate D2E/DX2                !
 ! R17   R(9,10)                 1.3776         estimate D2E/DX2                !
 ! R18   R(9,22)                 1.0863         estimate D2E/DX2                !
 ! R19   R(10,12)                1.4592         estimate D2E/DX2                !
 ! R20   R(11,13)                1.4891         estimate D2E/DX2                !
 ! R21   R(11,14)                1.4891         estimate D2E/DX2                !
 ! R22   R(11,23)                1.1282         estimate D2E/DX2                !
 ! R23   R(12,15)                1.4771         estimate D2E/DX2                !
 ! R24   R(12,16)                1.4771         estimate D2E/DX2                !
 ! R25   R(13,24)                1.092          estimate D2E/DX2                !
 ! R26   R(13,25)                1.0904         estimate D2E/DX2                !
 ! R27   R(13,26)                1.0916         estimate D2E/DX2                !
 ! R28   R(14,27)                1.092          estimate D2E/DX2                !
 ! R29   R(14,28)                1.0904         estimate D2E/DX2                !
 ! R30   R(14,29)                1.0916         estimate D2E/DX2                !
 ! R31   R(15,30)                1.0922         estimate D2E/DX2                !
 ! R32   R(15,31)                1.0968         estimate D2E/DX2                !
 ! R33   R(15,32)                1.0936         estimate D2E/DX2                !
 ! R34   R(16,33)                1.0922         estimate D2E/DX2                !
 ! R35   R(16,34)                1.0936         estimate D2E/DX2                !
 ! R36   R(16,35)                1.0968         estimate D2E/DX2                !
 ! A1    A(2,1,6)              120.2555         estimate D2E/DX2                !
 ! A2    A(2,1,17)             119.265          estimate D2E/DX2                !
 ! A3    A(6,1,17)             120.4794         estimate D2E/DX2                !
 ! A4    A(1,2,3)              119.6833         estimate D2E/DX2                !
 ! A5    A(1,2,18)             119.6139         estimate D2E/DX2                !
 ! A6    A(3,2,18)             120.7028         estimate D2E/DX2                !
 ! A7    A(2,3,4)              121.2753         estimate D2E/DX2                !
 ! A8    A(2,3,19)             120.2187         estimate D2E/DX2                !
 ! A9    A(4,3,19)             118.506          estimate D2E/DX2                !
 ! A10   A(3,4,5)              119.8548         estimate D2E/DX2                !
 ! A11   A(3,4,7)              120.5095         estimate D2E/DX2                !
 ! A12   A(5,4,7)              119.6357         estimate D2E/DX2                !
 ! A13   A(4,5,6)              116.6184         estimate D2E/DX2                !
 ! A14   A(4,5,10)             117.9131         estimate D2E/DX2                !
 ! A15   A(6,5,10)             125.4685         estimate D2E/DX2                !
 ! A16   A(1,6,5)              122.3127         estimate D2E/DX2                !
 ! A17   A(1,6,11)             119.7492         estimate D2E/DX2                !
 ! A18   A(5,6,11)             117.9381         estimate D2E/DX2                !
 ! A19   A(4,7,8)              120.8928         estimate D2E/DX2                !
 ! A20   A(4,7,20)             118.6442         estimate D2E/DX2                !
 ! A21   A(8,7,20)             120.463          estimate D2E/DX2                !
 ! A22   A(7,8,9)              119.8554         estimate D2E/DX2                !
 ! A23   A(7,8,21)             120.532          estimate D2E/DX2                !
 ! A24   A(9,8,21)             119.6125         estimate D2E/DX2                !
 ! A25   A(8,9,10)             121.2186         estimate D2E/DX2                !
 ! A26   A(8,9,22)             119.1033         estimate D2E/DX2                !
 ! A27   A(10,9,22)            119.6781         estimate D2E/DX2                !
 ! A28   A(5,10,9)             120.4843         estimate D2E/DX2                !
 ! A29   A(5,10,12)            118.7731         estimate D2E/DX2                !
 ! A30   A(9,10,12)            120.7426         estimate D2E/DX2                !
 ! A31   A(6,11,13)            113.0443         estimate D2E/DX2                !
 ! A32   A(6,11,14)            113.0444         estimate D2E/DX2                !
 ! A33   A(6,11,23)            100.7934         estimate D2E/DX2                !
 ! A34   A(13,11,14)           111.826          estimate D2E/DX2                !
 ! A35   A(13,11,23)           108.7051         estimate D2E/DX2                !
 ! A36   A(14,11,23)           108.7047         estimate D2E/DX2                !
 ! A37   A(10,12,15)           112.6085         estimate D2E/DX2                !
 ! A38   A(10,12,16)           112.6085         estimate D2E/DX2                !
 ! A39   A(15,12,16)           111.1507         estimate D2E/DX2                !
 ! A40   A(11,13,24)           108.8417         estimate D2E/DX2                !
 ! A41   A(11,13,25)           109.0137         estimate D2E/DX2                !
 ! A42   A(11,13,26)           110.2278         estimate D2E/DX2                !
 ! A43   A(24,13,25)           109.9885         estimate D2E/DX2                !
 ! A44   A(24,13,26)           109.4323         estimate D2E/DX2                !
 ! A45   A(25,13,26)           109.3251         estimate D2E/DX2                !
 ! A46   A(11,14,27)           108.8418         estimate D2E/DX2                !
 ! A47   A(11,14,28)           109.0136         estimate D2E/DX2                !
 ! A48   A(11,14,29)           110.2277         estimate D2E/DX2                !
 ! A49   A(27,14,28)           109.9884         estimate D2E/DX2                !
 ! A50   A(27,14,29)           109.4324         estimate D2E/DX2                !
 ! A51   A(28,14,29)           109.325          estimate D2E/DX2                !
 ! A52   A(12,15,30)           109.7461         estimate D2E/DX2                !
 ! A53   A(12,15,31)           111.9209         estimate D2E/DX2                !
 ! A54   A(12,15,32)           109.0895         estimate D2E/DX2                !
 ! A55   A(30,15,31)           108.4368         estimate D2E/DX2                !
 ! A56   A(30,15,32)           109.2026         estimate D2E/DX2                !
 ! A57   A(31,15,32)           108.399          estimate D2E/DX2                !
 ! A58   A(12,16,33)           109.7461         estimate D2E/DX2                !
 ! A59   A(12,16,34)           109.0895         estimate D2E/DX2                !
 ! A60   A(12,16,35)           111.9209         estimate D2E/DX2                !
 ! A61   A(33,16,34)           109.2027         estimate D2E/DX2                !
 ! A62   A(33,16,35)           108.4368         estimate D2E/DX2                !
 ! A63   A(34,16,35)           108.3989         estimate D2E/DX2                !
 ! D1    D(6,1,2,3)              0.0            estimate D2E/DX2                !
 ! D2    D(6,1,2,18)           179.9999         estimate D2E/DX2                !
 ! D3    D(17,1,2,3)          -179.9999         estimate D2E/DX2                !
 ! D4    D(17,1,2,18)            0.0            estimate D2E/DX2                !
 ! D5    D(2,1,6,5)              0.0            estimate D2E/DX2                !
 ! D6    D(2,1,6,11)          -179.9998         estimate D2E/DX2                !
 ! D7    D(17,1,6,5)           179.9999         estimate D2E/DX2                !
 ! D8    D(17,1,6,11)            0.0001         estimate D2E/DX2                !
 ! D9    D(1,2,3,4)             -0.0001         estimate D2E/DX2                !
 ! D10   D(1,2,3,19)          -180.0            estimate D2E/DX2                !
 ! D11   D(18,2,3,4)          -179.9999         estimate D2E/DX2                !
 ! D12   D(18,2,3,19)            0.0002         estimate D2E/DX2                !
 ! D13   D(2,3,4,5)              0.0            estimate D2E/DX2                !
 ! D14   D(2,3,4,7)           -180.0            estimate D2E/DX2                !
 ! D15   D(19,3,4,5)           179.9999         estimate D2E/DX2                !
 ! D16   D(19,3,4,7)            -0.0001         estimate D2E/DX2                !
 ! D17   D(3,4,5,6)              0.0001         estimate D2E/DX2                !
 ! D18   D(3,4,5,10)          -180.0            estimate D2E/DX2                !
 ! D19   D(7,4,5,6)           -179.9999         estimate D2E/DX2                !
 ! D20   D(7,4,5,10)             0.0            estimate D2E/DX2                !
 ! D21   D(3,4,7,8)            179.9999         estimate D2E/DX2                !
 ! D22   D(3,4,7,20)             0.0            estimate D2E/DX2                !
 ! D23   D(5,4,7,8)             -0.0001         estimate D2E/DX2                !
 ! D24   D(5,4,7,20)          -180.0            estimate D2E/DX2                !
 ! D25   D(4,5,6,1)             -0.0001         estimate D2E/DX2                !
 ! D26   D(4,5,6,11)           179.9997         estimate D2E/DX2                !
 ! D27   D(10,5,6,1)           179.9999         estimate D2E/DX2                !
 ! D28   D(10,5,6,11)           -0.0002         estimate D2E/DX2                !
 ! D29   D(4,5,10,9)            -0.0001         estimate D2E/DX2                !
 ! D30   D(4,5,10,12)          179.9999         estimate D2E/DX2                !
 ! D31   D(6,5,10,9)           179.9999         estimate D2E/DX2                !
 ! D32   D(6,5,10,12)           -0.0002         estimate D2E/DX2                !
 ! D33   D(1,6,11,13)          -64.1597         estimate D2E/DX2                !
 ! D34   D(1,6,11,14)           64.158          estimate D2E/DX2                !
 ! D35   D(1,6,11,23)          179.9989         estimate D2E/DX2                !
 ! D36   D(5,6,11,13)          115.8404         estimate D2E/DX2                !
 ! D37   D(5,6,11,14)         -115.8418         estimate D2E/DX2                !
 ! D38   D(5,6,11,23)           -0.0009         estimate D2E/DX2                !
 ! D39   D(4,7,8,9)              0.0001         estimate D2E/DX2                !
 ! D40   D(4,7,8,21)          -180.0            estimate D2E/DX2                !
 ! D41   D(20,7,8,9)          -180.0            estimate D2E/DX2                !
 ! D42   D(20,7,8,21)            0.0            estimate D2E/DX2                !
 ! D43   D(7,8,9,10)            -0.0001         estimate D2E/DX2                !
 ! D44   D(7,8,9,22)          -179.9999         estimate D2E/DX2                !
 ! D45   D(21,8,9,10)          179.9999         estimate D2E/DX2                !
 ! D46   D(21,8,9,22)            0.0001         estimate D2E/DX2                !
 ! D47   D(8,9,10,5)             0.0001         estimate D2E/DX2                !
 ! D48   D(8,9,10,12)         -179.9998         estimate D2E/DX2                !
 ! D49   D(22,9,10,5)          179.9999         estimate D2E/DX2                !
 ! D50   D(22,9,10,12)           0.0            estimate D2E/DX2                !
 ! D51   D(5,10,12,15)         116.6776         estimate D2E/DX2                !
 ! D52   D(5,10,12,16)        -116.6804         estimate D2E/DX2                !
 ! D53   D(9,10,12,15)         -63.3224         estimate D2E/DX2                !
 ! D54   D(9,10,12,16)          63.3195         estimate D2E/DX2                !
 ! D55   D(6,11,13,24)        -172.1663         estimate D2E/DX2                !
 ! D56   D(6,11,13,25)         -52.1916         estimate D2E/DX2                !
 ! D57   D(6,11,13,26)          67.8088         estimate D2E/DX2                !
 ! D58   D(14,11,13,24)         58.8865         estimate D2E/DX2                !
 ! D59   D(14,11,13,25)        178.8612         estimate D2E/DX2                !
 ! D60   D(14,11,13,26)        -61.1383         estimate D2E/DX2                !
 ! D61   D(23,11,13,24)        -61.1346         estimate D2E/DX2                !
 ! D62   D(23,11,13,25)         58.8401         estimate D2E/DX2                !
 ! D63   D(23,11,13,26)        178.8405         estimate D2E/DX2                !
 ! D64   D(6,11,14,27)         172.1666         estimate D2E/DX2                !
 ! D65   D(6,11,14,28)          52.1919         estimate D2E/DX2                !
 ! D66   D(6,11,14,29)         -67.8084         estimate D2E/DX2                !
 ! D67   D(13,11,14,27)        -58.8863         estimate D2E/DX2                !
 ! D68   D(13,11,14,28)       -178.8609         estimate D2E/DX2                !
 ! D69   D(13,11,14,29)         61.1387         estimate D2E/DX2                !
 ! D70   D(23,11,14,27)         61.1351         estimate D2E/DX2                !
 ! D71   D(23,11,14,28)        -58.8396         estimate D2E/DX2                !
 ! D72   D(23,11,14,29)       -178.8399         estimate D2E/DX2                !
 ! D73   D(10,12,15,30)        -52.5693         estimate D2E/DX2                !
 ! D74   D(10,12,15,31)         67.872          estimate D2E/DX2                !
 ! D75   D(10,12,15,32)       -172.1745         estimate D2E/DX2                !
 ! D76   D(16,12,15,30)       -179.9873         estimate D2E/DX2                !
 ! D77   D(16,12,15,31)        -59.546          estimate D2E/DX2                !
 ! D78   D(16,12,15,32)         60.4075         estimate D2E/DX2                !
 ! D79   D(10,12,16,33)         52.5687         estimate D2E/DX2                !
 ! D80   D(10,12,16,34)        172.174          estimate D2E/DX2                !
 ! D81   D(10,12,16,35)        -67.8726         estimate D2E/DX2                !
 ! D82   D(15,12,16,33)        179.9868         estimate D2E/DX2                !
 ! D83   D(15,12,16,34)        -60.408          estimate D2E/DX2                !
 ! D84   D(15,12,16,35)         59.5454         estimate D2E/DX2                !
 --------------------------------------------------------------------------------
 Trust Radius=3.00D-01 FncErr=1.00D-07 GrdErr=1.00D-07
 Number of steps in this run=    193 maximum allowed number of steps=    210.
 GradGradGradGradGradGradGradGradGradGradGradGradGradGradGradGradGradGrad

                          Input orientation:                          
 ---------------------------------------------------------------------
 Center     Atomic      Atomic             Coordinates (Angstroms)
 Number     Number       Type             X           Y           Z
 ---------------------------------------------------------------------
      1          6           0        0.759884   -2.434495    0.000109
      2          6           0        2.168943   -2.391396    0.000093
      3          6           0        2.812478   -1.177577    0.000029
      4          6           0        2.086443    0.040679   -0.000023
      5          6           0        0.649649    0.017141   -0.000009
      6          6           0        0.031299   -1.268855    0.000060
      7          6           0        2.767183    1.284224   -0.000089
      8          6           0        2.071967    2.468714   -0.000141
      9          6           0        0.661986    2.455065   -0.000127
     10          6           0       -0.040617    1.270052   -0.000064
     11          7           0       -1.442525   -1.326975    0.000082
     12          7           0       -1.499842    1.268051   -0.000054
     13          6           0       -2.001447   -1.946790   -1.233134
     14          6           0       -2.001415   -1.946702    1.233356
     15          6           0       -2.068522    1.879546    1.218361
     16          6           0       -2.068539    1.879488   -1.218490
     17          1           0        0.258049   -3.397974    0.000162
     18          1           0        2.733658   -3.317788    0.000134
     19          1           0        3.897810   -1.134226    0.000016
     20          1           0        3.853308    1.283221   -0.000099
     21          1           0        2.599081    3.417390   -0.000192
     22          1           0        0.124472    3.399039   -0.000170
     23          1           0       -1.697297   -0.227962    0.000051
     24          1           0       -3.087138   -1.829462   -1.225896
     25          1           0       -1.578342   -1.447034   -2.105025
     26          1           0       -1.751147   -3.008739   -1.268583
     27          1           0       -3.087106   -1.829379    1.226137
     28          1           0       -1.578291   -1.446880    2.105201
     29          1           0       -1.751108   -3.008647    1.268877
     30          1           0       -1.632947    1.411568    2.103869
     31          1           0       -1.873601    2.957866    1.264541
     32          1           0       -3.150988    1.723849    1.224878
     33          1           0       -1.632969    1.411475   -2.103981
     34          1           0       -3.151004    1.723783   -1.224989
     35          1           0       -1.873627    2.957807   -1.264719
 ---------------------------------------------------------------------
                    Distance matrix (angstroms):
                    1          2          3          4          5
     1  C    0.000000
     2  C    1.409718   0.000000
     3  C    2.406862   1.373861   0.000000
     4  C    2.808246   2.433474   1.418194   0.000000
     5  C    2.454113   2.847684   2.470866   1.436987   0.000000
     6  C    1.374610   2.414461   2.782676   2.436903   1.426935
     7  C    4.225887   3.723986   2.462218   1.417678   2.467681
     8  C    5.075729   4.861077   3.720725   2.428078   2.834290
     9  C    4.890540   5.075343   4.221458   2.803273   2.437955
    10  C    3.790049   4.276489   3.759127   2.456775   1.430473
    11  N    2.465199   3.765062   4.257625   3.784718   2.486733
    12  N    4.337650   5.181847   4.957540   3.790499   2.486984
    13  C    3.063281   4.371576   5.028544   4.709718   3.522206
    14  C    3.063268   4.371565   5.028540   4.709723   3.522216
    15  C    5.300469   6.138504   5.886807   4.704214   3.513037
    16  C    5.300510   6.138538   5.886830   4.704227   3.513058
    17  H    1.086338   2.159795   3.384564   3.894529   3.437493
    18  H    2.162404   1.084945   2.141662   3.420261   3.932537
    19  H    3.396657   2.137629   1.086197   2.159040   3.446186
    20  H    4.836392   4.042264   2.671863   2.160028   3.444763
    21  H    6.134102   5.824690   4.599920   3.415403   3.919436
    22  H    5.868038   6.140765   5.307616   3.889462   3.422433
    23  H    3.302503   4.430379   4.608670   3.793265   2.359710
    24  H    4.082736   5.426344   6.060802   5.636145   4.344689
    25  H    3.297570   4.400623   4.876798   4.480510   3.396887
    26  H    2.871343   4.166264   5.078307   5.063131   4.065594
    27  H    4.082725   5.426334   6.060798   5.636151   4.344699
    28  H    3.297553   4.400608   4.876795   4.480522   3.396908
    29  H    2.871324   4.166247   5.078298   5.063131   4.065599
    30  H    4.994362   5.774320   5.558023   4.487712   3.403083
    31  H    6.132829   6.823166   6.376536   5.078489   4.075996
    32  H    5.838391   6.836447   6.743994   5.635967   4.342585
    33  H    4.994439   5.774382   5.558061   4.487733   3.403118
    34  H    5.838423   6.836473   6.744010   5.635977   4.342599
    35  H    6.132870   6.823203   6.376564   5.078508   4.076019
                    6          7          8          9         10
     6  C    0.000000
     7  C    3.742095   0.000000
     8  C    4.258374   1.373442   0.000000
     9  C    3.776949   2.408884   1.410047   0.000000
    10  C    2.539925   2.807836   2.428951   1.377645   0.000000
    11  N    1.474970   4.953787   5.172901   4.328140   2.951253
    12  N    2.963155   4.267056   3.768211   2.466273   1.459226
    13  C    2.472331   5.890644   6.132671   5.290606   3.964012
    14  C    2.472331   5.890653   6.132687   5.290627   3.964033
    15  C    3.975668   5.022258   4.356089   3.044932   2.443039
    16  C    3.975707   5.022255   4.356071   3.044908   2.443039
    17  H    2.141159   5.312131   6.140711   5.866961   4.677571
    18  H    3.391293   4.602134   5.824212   6.133323   5.361425
    19  H    3.868854   2.669685   4.039168   4.832553   4.614300
    20  H    4.595742   1.086125   2.139759   3.399670   3.893947
    21  H    5.343631   2.139779   1.085281   2.162962   3.402803
    22  H    4.668824   3.384725   2.158296   1.086282   2.135378
    23  H    2.017796   4.713628   4.634589   3.572793   2.233525
    24  H    3.397337   6.743198   6.825918   5.823711   4.515633
    25  H    2.655951   5.547442   5.752250   4.967499   3.765371
    26  H    2.795311   6.360339   6.799091   6.106173   4.779446
    27  H    3.397337   6.743208   6.825935   5.823734   4.515655
    28  H    2.655954   5.547461   5.752280   4.967537   3.765409
    29  H    2.795308   6.360344   6.799102   6.106189   4.779462
    30  H    3.792149   4.878934   4.389852   3.283657   2.642362
    31  H    4.805489   5.092862   4.172073   2.877741   2.794239
    32  H    4.536894   6.059584   5.416157   4.071128   3.373547
    33  H    3.792222   4.878923   4.389812   3.283611   2.642357
    34  H    4.536924   6.059582   5.416143   4.071112   3.373547
    35  H    4.805526   5.092866   4.172060   2.877721   2.794243
                   11         12         13         14         15
    11  N    0.000000
    12  N    2.595659   0.000000
    13  C    1.489089   3.479554   0.000000
    14  C    1.489088   3.479585   2.466490   0.000000
    15  C    3.486811   1.477111   4.544796   3.826866   0.000000
    16  C    3.486863   1.477111   3.826894   4.544864   2.436851
    17  H    2.679737   4.986178   2.955043   2.955019   5.894842
    18  H    4.626429   6.241189   5.081516   5.081499   7.180341
    19  H    5.343812   5.908095   6.081295   6.081291   6.794432
    20  H    5.904149   5.353171   6.799375   6.799382   6.075222
    21  H    6.232462   4.628264   7.173523   7.173541   5.063235
    22  H    4.979025   2.679460   5.883674   5.883700   2.933070
    23  H    1.128157   1.508988   2.137200   2.137194   2.462453
    24  H    2.111934   3.690093   1.092036   2.690810   4.557270
    25  H    2.112898   3.436386   1.090398   3.401977   4.727717
    26  H    2.129105   4.468026   1.091624   2.729516   5.493719
    27  H    2.111934   3.690125   2.690809   1.092036   3.846258
    28  H    2.112897   3.436438   3.401978   1.090399   3.477344
    29  H    2.129104   4.468049   2.729518   1.091624   4.898748
    30  H    3.458583   2.113009   4.748679   3.488773   1.092178
    31  H    4.488268   2.143448   5.505486   4.906332   1.096768
    32  H    3.704929   2.105824   4.564741   3.846366   1.093625
    33  H    3.458679   2.113008   3.488853   4.748781   3.383305
    34  H    3.704973   2.105824   3.846382   4.564808   2.676936
    35  H    4.488310   2.143448   4.906364   5.505535   2.714096
                   16         17         18         19         20
    16  C    0.000000
    17  H    5.894890   0.000000
    18  H    7.180377   2.476907   0.000000
    19  H    6.794450   4.286306   2.474509   0.000000
    20  H    6.075219   5.902497   4.735282   2.417857   0.000000
    21  H    5.063207   7.206221   6.736522   4.733276   2.475432
    22  H    2.933025   6.798325   7.205804   5.898184   4.287296
    23  H    2.462521   3.724561   5.401887   5.668028   5.752642
    24  H    3.846285   3.892778   6.131878   7.125708   7.704620
    25  H    3.477353   3.407391   5.150219   5.875141   6.433337
    26  H    4.898776   2.407922   4.671042   6.085545   7.172161
    27  H    4.557343   3.892758   6.131863   7.125704   7.704627
    28  H    4.727789   3.407360   5.150195   5.875137   6.433351
    29  H    5.493780   2.407888   4.671017   6.085535   7.172162
    30  H    3.383306   5.579708   6.771983   6.441781   5.877257
    31  H    2.714101   6.821971   7.887293   7.187032   6.099282
    32  H    2.676932   6.273319   7.845200   7.704183   7.124246
    33  H    1.092178   5.579800   6.772050   6.441810   5.877245
    34  H    1.093626   6.273359   7.845229   7.704196   7.124243
    35  H    1.096768   6.822017   7.887333   7.187056   6.099286
                   21         22         23         24         25
    21  H    0.000000
    22  H    2.474677   0.000000
    23  H    5.634488   4.058815   0.000000
    24  H    7.833575   6.257321   2.449369   0.000000
    25  H    6.748615   5.551073   2.435494   1.787620   0.000000
    26  H    7.863106   6.796060   3.056968   1.782523   1.780005
    27  H    7.833594   6.257349   2.449366   2.452033   3.676846
    28  H    6.748647   5.551119   2.435484   3.676846   4.210226
    29  H    7.863118   6.796081   3.056963   3.065835   3.721787
    30  H    5.134243   3.386081   2.668005   4.868910   5.088160
    31  H    4.670717   2.405499   3.432130   5.531135   5.553764
    32  H    6.118184   3.877582   2.724516   4.316988   4.859626
    33  H    5.134186   3.386005   2.668116   3.659141   2.859031
    34  H    6.118162   3.877552   2.724573   3.553819   3.647165
    35  H    4.670692   2.405446   3.432180   4.938832   4.493988
                   26         27         28         29         30
    26  H    0.000000
    27  H    3.065828   0.000000
    28  H    3.721787   1.787619   0.000000
    29  H    2.537460   1.782524   1.780006   0.000000
    30  H    5.561162   3.659061   2.858971   4.499942   0.000000
    31  H    6.483216   4.938804   4.493963   5.967772   1.775788
    32  H    5.529402   3.553802   3.647172   4.935394   1.781739
    33  H    4.500016   4.869018   5.088261   5.561259   4.207850
    34  H    4.935409   4.317066   4.859701   5.529464   3.671957
    35  H    5.967804   5.531188   5.553814   6.483263   3.714319
                   31         32         33         34         35
    31  H    0.000000
    32  H    1.776538   0.000000
    33  H    3.714320   3.671956   0.000000
    34  H    3.058182   2.449867   1.781739   0.000000
    35  H    2.529260   3.058169   1.775787   1.776538   0.000000
 Stoichiometry    C14H19N2(1+)
 Framework group  C1[X(C14H19N2)]
 Deg. of freedom    99
 Full point group                 C1      NOp   1
 Largest Abelian subgroup         C1      NOp   1
 Largest concise Abelian subgroup C1      NOp   1
                         Standard orientation:                         
 ---------------------------------------------------------------------
 Center     Atomic      Atomic             Coordinates (Angstroms)
 Number     Number       Type             X           Y           Z
 ---------------------------------------------------------------------
      1          6           0        0.759885   -2.434495    0.000109
      2          6           0        2.168944   -2.391395    0.000093
      3          6           0        2.812478   -1.177576    0.000029
      4          6           0        2.086443    0.040680   -0.000023
      5          6           0        0.649649    0.017141   -0.000009
      6          6           0        0.031299   -1.268855    0.000060
      7          6           0        2.767183    1.284225   -0.000089
      8          6           0        2.071966    2.468715   -0.000141
      9          6           0        0.661985    2.455065   -0.000127
     10          6           0       -0.040617    1.270052   -0.000064
     11          7           0       -1.442525   -1.326975    0.000082
     12          7           0       -1.499842    1.268051   -0.000054
     13          6           0       -2.001446   -1.946791   -1.233134
     14          6           0       -2.001414   -1.946703    1.233356
     15          6           0       -2.068523    1.879545    1.218361
     16          6           0       -2.068540    1.879487   -1.218490
     17          1           0        0.258050   -3.397974    0.000162
     18          1           0        2.733659   -3.317787    0.000134
     19          1           0        3.897810   -1.134225    0.000016
     20          1           0        3.853308    1.283222   -0.000099
     21          1           0        2.599080    3.417391   -0.000192
     22          1           0        0.124471    3.399039   -0.000170
     23          1           0       -1.697297   -0.227963    0.000051
     24          1           0       -3.087137   -1.829463   -1.225896
     25          1           0       -1.578342   -1.447034   -2.105025
     26          1           0       -1.751146   -3.008740   -1.268583
     27          1           0       -3.087105   -1.829380    1.226137
     28          1           0       -1.578291   -1.446880    2.105201
     29          1           0       -1.751107   -3.008648    1.268877
     30          1           0       -1.632947    1.411568    2.103869
     31          1           0       -1.873602    2.957865    1.264541
     32          1           0       -3.150988    1.723848    1.224878
     33          1           0       -1.632969    1.411475   -2.103981
     34          1           0       -3.151004    1.723782   -1.224989
     35          1           0       -1.873628    2.957806   -1.264719
 ---------------------------------------------------------------------
 Rotational constants (GHZ):      0.6382957      0.6046595      0.3552615
 Standard basis: 6-31+G(d,p) (6D, 7F)
 There are   399 symmetry adapted cartesian basis functions of A   symmetry.
 There are   399 symmetry adapted basis functions of A   symmetry.
   399 basis functions,   645 primitive gaussians,   399 cartesian basis functions
    58 alpha electrons       58 beta electrons
       nuclear repulsion energy      1138.7788830633 Hartrees.
 NAtoms=   35 NActive=   35 NUniq=   35 SFac= 1.00D+00 NAtFMM=   60 NAOKFM=F Big=F
 Integral buffers will be    131072 words long.
 Regular integral format.
 Two-electron integral symmetry is turned on.
 Nuclear repulsion after empirical dispersion term =     1138.7316311653 Hartrees.
 One-electron integrals computed using PRISM.
 NBasis=   399 RedAO= T EigKep=  1.57D-06  NBF=   399
 NBsUse=   395 1.00D-06 EigRej=  8.29D-07 NBFU=   395
 ExpMin= 4.38D-02 ExpMax= 4.17D+03 ExpMxC= 6.27D+02 IAcc=2 IRadAn=         4 AccDes= 0.00D+00
 Harris functional with IExCor=  419 and IRadAn=       4 diagonalized for initial guess.
 HarFok:  IExCor=  419 AccDes= 0.00D+00 IRadAn=         4 IDoV= 1 UseB2=F ITyADJ=14
 ICtDFT=  3500011 ScaDFX=  1.000000  1.000000  1.000000  1.000000
 FoFCou: FMM=F IPFlag=           0 FMFlag=      100000 FMFlg1=           0
         NFxFlg=           0 DoJE=T BraDBF=F KetDBF=T FulRan=T
         wScrn=  0.000000 ICntrl=     500 IOpCl=  0 I1Cent=   200000004 NGrid=           0
         NMat0=    1 NMatS0=      1 NMatT0=    0 NMatD0=    1 NMtDS0=    0 NMtDT0=    0
 Petite list used in FoFCou.
 Requested convergence on RMS density matrix=1.00D-08 within 128 cycles.
 Requested convergence on MAX density matrix=1.00D-06.
 Requested convergence on             energy=1.00D-06.
 No special actions if energy rises.
 SCF Done:  E(RB2PLYP) =  -652.839647851     A.U. after   15 cycles
            NFock= 15  Conv=0.48D-08     -V/T= 2.0067
 DoSCS=T DFT=T ScalE2(SS,OS)=  0.270000  0.270000
 ExpMin= 4.38D-02 ExpMax= 4.17D+03 ExpMxC= 6.27D+02 IAcc=3 IRadAn=         5 AccDes= 0.00D+00
 HarFok:  IExCor=  205 AccDes= 0.00D+00 IRadAn=         5 IDoV=-2 UseB2=F ITyADJ=14
 ICtDFT= 12500011 ScaDFX=  1.000000  1.000000  1.000000  1.000000
 Range of M.O.s used for correlation:    17   395
 NBasis=   399 NAE=    58 NBE=    58 NFC=    16 NFV=     0
 NROrb=    379 NOA=    42 NOB=    42 NVA=   337 NVB=   337

 **** Warning!!: The largest alpha MO coefficient is  0.20866250D+03

 DoSCS=T DFT=T ScalE2(SS,OS)=  0.270000  0.270000
 Disk-based method using ON**2 memory for 42 occupieds at a time.
 Estimated scratch disk usage=  4978866230 words.
 Actual    scratch disk usage=  4182416950 words.
 JobTyp=1 Pass  1:  I=  17 to  58 NPSUse= 18 ParTrn=T ParDer=T DoDerP=T.
 Spin components of T(2) and E(2):
     alpha-alpha T2 =       0.1693105576D+00 E2=     -0.9763630146D-01
     alpha-beta  T2 =       0.8974476804D+00 E2=     -0.5575790008D+00
     beta-beta   T2 =       0.1693105576D+00 E2=     -0.9763630146D-01
 E2(B2PLYP) =    -0.7528516037D+00 E(B2PLYP) =    -0.65359249945503D+03
          IDoAtm=11111111111111111111111111111111111
          Differentiating once with respect to electric field.
                with respect to dipole field.
          Differentiating once with respect to nuclear coordinates.
          There are     1 degrees of freedom in the 1st order CPHF.  IDoFFX=0 NUNeed=     1.
 LinEq1:  Iter=  0 NonCon=     1 RMS=1.00D-03 Max=2.23D-02 NDo=     1
 AX will form     1 AO Fock derivatives at one time.
 LinEq1:  Iter=  1 NonCon=     1 RMS=2.54D-04 Max=7.20D-03 NDo=     1
 LinEq1:  Iter=  2 NonCon=     1 RMS=9.77D-05 Max=6.51D-03 NDo=     1
 LinEq1:  Iter=  3 NonCon=     1 RMS=6.13D-05 Max=3.05D-03 NDo=     1
 LinEq1:  Iter=  4 NonCon=     1 RMS=2.30D-05 Max=1.38D-03 NDo=     1
 LinEq1:  Iter=  5 NonCon=     1 RMS=1.39D-05 Max=6.01D-04 NDo=     1
 LinEq1:  Iter=  6 NonCon=     1 RMS=6.16D-06 Max=3.70D-04 NDo=     1
 LinEq1:  Iter=  7 NonCon=     1 RMS=3.22D-06 Max=2.80D-04 NDo=     1
 LinEq1:  Iter=  8 NonCon=     1 RMS=1.72D-06 Max=1.34D-04 NDo=     1
 LinEq1:  Iter=  9 NonCon=     1 RMS=7.17D-07 Max=3.25D-05 NDo=     1
 LinEq1:  Iter= 10 NonCon=     1 RMS=3.57D-07 Max=1.49D-05 NDo=     1
 LinEq1:  Iter= 11 NonCon=     1 RMS=1.59D-07 Max=5.06D-06 NDo=     1
 LinEq1:  Iter= 12 NonCon=     1 RMS=6.81D-08 Max=1.89D-06 NDo=     1
 LinEq1:  Iter= 13 NonCon=     1 RMS=2.68D-08 Max=7.01D-07 NDo=     1
 LinEq1:  Iter= 14 NonCon=     1 RMS=9.27D-09 Max=1.84D-07 NDo=     1
 LinEq1:  Iter= 15 NonCon=     1 RMS=3.77D-09 Max=9.61D-08 NDo=     1
 LinEq1:  Iter= 16 NonCon=     1 RMS=1.37D-09 Max=4.35D-08 NDo=     1
 LinEq1:  Iter= 17 NonCon=     1 RMS=7.39D-10 Max=4.71D-08 NDo=     1
 LinEq1:  Iter= 18 NonCon=     1 RMS=2.59D-10 Max=9.35D-09 NDo=     1
 LinEq1:  Iter= 19 NonCon=     1 RMS=1.15D-10 Max=6.52D-09 NDo=     1
 LinEq1:  Iter= 20 NonCon=     1 RMS=5.20D-11 Max=3.06D-09 NDo=     1
 LinEq1:  Iter= 21 NonCon=     0 RMS=1.93D-11 Max=9.61D-10 NDo=     1
 Linear equations converged to 1.000D-10 1.000D-09 after    21 iterations.
 End of Minotr F.D. properties file   721 does not exist.
 End of Minotr F.D. properties file   722 does not exist.
 End of Minotr F.D. properties file   788 does not exist.

 **********************************************************************

            Population analysis using the SCF density.

 **********************************************************************

 Orbital symmetries:
       Occupied  (A) (A) (A) (A) (A) (A) (A) (A) (A) (A) (A) (A)
                 (A) (A) (A) (A) (A) (A) (A) (A) (A) (A) (A) (A)
                 (A) (A) (A) (A) (A) (A) (A) (A) (A) (A) (A) (A)
                 (A) (A) (A) (A) (A) (A) (A) (A) (A) (A) (A) (A)
                 (A) (A) (A) (A) (A) (A) (A) (A) (A) (A)
       Virtual   (A) (A) (A) (A) (A) (A) (A) (A) (A) (A) (A) (A)
                 (A) (A) (A) (A) (A) (A) (A) (A) (A) (A) (A) (A)
                 (A) (A) (A) (A) (A) (A) (A) (A) (A) (A) (A) (A)
                 (A) (A) (A) (A) (A) (A) (A) (A) (A) (A) (A) (A)
                 (A) (A) (A) (A) (A) (A) (A) (A) (A) (A) (A) (A)
                 (A) (A) (A) (A) (A) (A) (A) (A) (A) (A) (A) (A)
                 (A) (A) (A) (A) (A) (A) (A) (A) (A) (A) (A) (A)
                 (A) (A) (A) (A) (A) (A) (A) (A) (A) (A) (A) (A)
                 (A) (A) (A) (A) (A) (A) (A) (A) (A) (A) (A) (A)
                 (A) (A) (A) (A) (A) (A) (A) (A) (A) (A) (A) (A)
                 (A) (A) (A) (A) (A) (A) (A) (A) (A) (A) (A) (A)
                 (A) (A) (A) (A) (A) (A) (A) (A) (A) (A) (A) (A)
                 (A) (A) (A) (A) (A) (A) (A) (A) (A) (A) (A) (A)
                 (A) (A) (A) (A) (A) (A) (A) (A) (A) (A) (A) (A)
                 (A) (A) (A) (A) (A) (A) (A) (A) (A) (A) (A) (A)
                 (A) (A) (A) (A) (A) (A) (A) (A) (A) (A) (A) (A)
                 (A) (A) (A) (A) (A) (A) (A) (A) (A) (A) (A) (A)
                 (A) (A) (A) (A) (A) (A) (A) (A) (A) (A) (A) (A)
                 (A) (A) (A) (A) (A) (A) (A) (A) (A) (A) (A) (A)
                 (A) (A) (A) (A) (A) (A) (A) (A) (A) (A) (A) (A)
                 (A) (A) (A) (A) (A) (A) (A) (A) (A) (A) (A) (A)
                 (A) (A) (A) (A) (A) (A) (A) (A) (A) (A) (A) (A)
                 (A) (A) (A) (A) (A) (A) (A) (A) (A) (A) (A) (A)
                 (A) (A) (A) (A) (A) (A) (A) (A) (A) (A) (A) (A)
                 (A) (A) (A) (A) (A) (A) (A) (A) (A) (A) (A) (A)
                 (A) (A) (A) (A) (A) (A) (A) (A) (A) (A) (A) (A)
                 (A) (A) (A) (A) (A) (A) (A) (A) (A) (A) (A) (A)
                 (A) (A) (A) (A) (A) (A) (A) (A) (A) (A) (A) (A)
                 (A)
 The electronic state is 1-A.
 Alpha  occ. eigenvalues --  -15.08676 -15.02252 -10.81807 -10.81277 -10.81277
 Alpha  occ. eigenvalues --  -10.80404 -10.78865 -10.78474 -10.78474 -10.77767
 Alpha  occ. eigenvalues --  -10.77568 -10.76607 -10.76390 -10.76265 -10.75896
 Alpha  occ. eigenvalues --  -10.75780  -1.27430  -1.21558  -1.13277  -1.07647
 Alpha  occ. eigenvalues --   -1.02687  -0.99630  -0.98795  -0.97162  -0.95547
 Alpha  occ. eigenvalues --   -0.92500  -0.89131  -0.85983  -0.83892  -0.80609
 Alpha  occ. eigenvalues --   -0.76190  -0.74190  -0.73848  -0.71149  -0.70218
 Alpha  occ. eigenvalues --   -0.69652  -0.67007  -0.66702  -0.66411  -0.64297
 Alpha  occ. eigenvalues --   -0.63377  -0.63143  -0.61812  -0.61467  -0.60459
 Alpha  occ. eigenvalues --   -0.60077  -0.59179  -0.58530  -0.58164  -0.57252
 Alpha  occ. eigenvalues --   -0.57221  -0.54451  -0.53645  -0.51174  -0.46301
 Alpha  occ. eigenvalues --   -0.44839  -0.41411  -0.38217
 Alpha virt. eigenvalues --   -0.13219  -0.09981  -0.08873  -0.06804  -0.06646
 Alpha virt. eigenvalues --   -0.06280  -0.05549  -0.05109  -0.04621  -0.04214
 Alpha virt. eigenvalues --   -0.03876  -0.03781  -0.02653  -0.02309  -0.01957
 Alpha virt. eigenvalues --   -0.01343  -0.00666  -0.00606   0.00166   0.00451
 Alpha virt. eigenvalues --    0.00716   0.00938   0.01062   0.01223   0.02743
 Alpha virt. eigenvalues --    0.03460   0.03983   0.04349   0.04728   0.05233
 Alpha virt. eigenvalues --    0.05649   0.05806   0.06484   0.06858   0.07414
 Alpha virt. eigenvalues --    0.07947   0.08011   0.08670   0.08782   0.09774
 Alpha virt. eigenvalues --    0.10172   0.10474   0.10709   0.10914   0.11723
 Alpha virt. eigenvalues --    0.11846   0.12456   0.12698   0.12975   0.13399
 Alpha virt. eigenvalues --    0.13702   0.14375   0.14679   0.14984   0.15257
 Alpha virt. eigenvalues --    0.16767   0.17284   0.17395   0.17821   0.18253
 Alpha virt. eigenvalues --    0.18610   0.18867   0.19314   0.19950   0.20041
 Alpha virt. eigenvalues --    0.20435   0.20650   0.20762   0.21202   0.21583
 Alpha virt. eigenvalues --    0.22009   0.22023   0.22293   0.22615   0.23095
 Alpha virt. eigenvalues --    0.24102   0.24523   0.25825   0.26024   0.27434
 Alpha virt. eigenvalues --    0.27847   0.28384   0.28696   0.29251   0.29602
 Alpha virt. eigenvalues --    0.31470   0.32893   0.33357   0.33422   0.34524
 Alpha virt. eigenvalues --    0.35282   0.35449   0.38425   0.40025   0.40119
 Alpha virt. eigenvalues --    0.42577   0.48667   0.48959   0.51788   0.58673
 Alpha virt. eigenvalues --    0.60587   0.60679   0.62222   0.62254   0.63495
 Alpha virt. eigenvalues --    0.63872   0.65125   0.65799   0.67585   0.67832
 Alpha virt. eigenvalues --    0.68359   0.69396   0.70116   0.70661   0.71428
 Alpha virt. eigenvalues --    0.72730   0.73812   0.74054   0.74730   0.75014
 Alpha virt. eigenvalues --    0.75401   0.76220   0.76440   0.77686   0.78368
 Alpha virt. eigenvalues --    0.80250   0.81128   0.83051   0.83602   0.84159
 Alpha virt. eigenvalues --    0.85142   0.86503   0.87602   0.88369   0.89084
 Alpha virt. eigenvalues --    0.90831   0.91815   0.92119   0.93722   0.94283
 Alpha virt. eigenvalues --    0.94488   0.95001   0.96099   0.97112   0.97522
 Alpha virt. eigenvalues --    0.98959   0.99340   1.00640   1.01040   1.01478
 Alpha virt. eigenvalues --    1.02143   1.03332   1.04545   1.07729   1.08316
 Alpha virt. eigenvalues --    1.09208   1.11083   1.11836   1.13198   1.13630
 Alpha virt. eigenvalues --    1.14274   1.15527   1.15877   1.16519   1.19090
 Alpha virt. eigenvalues --    1.19181   1.20920   1.23372   1.24400   1.24513
 Alpha virt. eigenvalues --    1.24946   1.28082   1.28546   1.29199   1.32091
 Alpha virt. eigenvalues --    1.32614   1.35840   1.38085   1.39214   1.39871
 Alpha virt. eigenvalues --    1.40200   1.40657   1.42906   1.44635   1.47160
 Alpha virt. eigenvalues --    1.47754   1.51224   1.51261   1.52590   1.52921
 Alpha virt. eigenvalues --    1.55095   1.57120   1.57384   1.66754   1.72767
 Alpha virt. eigenvalues --    1.75534   1.76093   1.77145   1.79831   1.80737
 Alpha virt. eigenvalues --    1.82645   1.84767   1.86595   1.88959   1.89065
 Alpha virt. eigenvalues --    1.90199   1.90994   1.91692   1.91802   1.93183
 Alpha virt. eigenvalues --    1.93492   1.95009   1.97261   1.98764   1.98867
 Alpha virt. eigenvalues --    1.99480   1.99890   2.00415   2.01363   2.01937
 Alpha virt. eigenvalues --    2.02426   2.03159   2.03212   2.04413   2.07912
 Alpha virt. eigenvalues --    2.07922   2.08867   2.09291   2.09826   2.11748
 Alpha virt. eigenvalues --    2.12443   2.12740   2.14096   2.14949   2.15892
 Alpha virt. eigenvalues --    2.16956   2.17217   2.23095   2.24426   2.25532
 Alpha virt. eigenvalues --    2.28399   2.28601   2.30381   2.32945   2.34674
 Alpha virt. eigenvalues --    2.35552   2.37609   2.38563   2.38978   2.40247
 Alpha virt. eigenvalues --    2.40770   2.41265   2.42621   2.43056   2.45576
 Alpha virt. eigenvalues --    2.46666   2.50647   2.51056   2.52028   2.52729
 Alpha virt. eigenvalues --    2.56769   2.57620   2.58134   2.59888   2.60010
 Alpha virt. eigenvalues --    2.60891   2.61530   2.62856   2.63945   2.66013
 Alpha virt. eigenvalues --    2.66352   2.69384   2.69412   2.70880   2.71739
 Alpha virt. eigenvalues --    2.72364   2.73487   2.74628   2.75169   2.75425
 Alpha virt. eigenvalues --    2.76840   2.78615   2.80541   2.81523   2.86134
 Alpha virt. eigenvalues --    2.86508   2.87183   2.87957   2.90304   2.90678
 Alpha virt. eigenvalues --    2.91263   2.94288   2.95720   3.00202   3.03187
 Alpha virt. eigenvalues --    3.07902   3.11544   3.13833   3.19871   3.22268
 Alpha virt. eigenvalues --    3.27774   3.28057   3.28315   3.29513   3.29856
 Alpha virt. eigenvalues --    3.31219   3.34884   3.39223   3.40498   3.42193
 Alpha virt. eigenvalues --    3.45673   3.45813   3.46397   3.47415   3.48439
 Alpha virt. eigenvalues --    3.50717   3.52774   3.56558   3.66395   3.80404
 Alpha virt. eigenvalues --    3.88733   4.33471   4.37408   4.38733   4.44325
 Alpha virt. eigenvalues --    4.47592   4.50758   4.52314   4.57142   4.58898
 Alpha virt. eigenvalues --    4.59593   4.63034   4.69470   4.72862   4.76175
 Alpha virt. eigenvalues --    4.77520   4.98841
          Condensed to atoms (all electrons):
               1          2          3          4          5          6
     1  C    7.012312   0.339137  -0.788788   0.366931  -0.848555  -1.345496
     2  C    0.339137   6.092811  -0.299245  -0.361397   0.656792  -0.248937
     3  C   -0.788788  -0.299245   9.745099  -1.343449  -2.193854   1.278374
     4  C    0.366931  -0.361397  -1.343449   8.318691   1.107925  -0.064425
     5  C   -0.848555   0.656792  -2.193854   1.107925   8.223873   0.785703
     6  C   -1.345496  -0.248937   1.278374  -0.064425   0.785703   9.326408
     7  C    0.431664  -0.103836  -0.051492  -1.226696  -1.943940  -0.848098
     8  C   -0.204863  -0.097788  -0.220539  -0.375291   0.821616   0.014850
     9  C    0.343199  -0.186994   0.578399   0.501490  -1.013420   0.066242
    10  C    0.015810   0.005970  -0.853883  -0.155728   1.038931  -0.970863
    11  N   -0.013288   0.038557   0.066836  -0.129814  -0.097622  -0.485923
    12  N    0.030068   0.010968  -0.101133  -0.117504  -0.090268  -0.041910
    13  C    0.171431   0.009834   0.047879  -0.080153  -0.126050  -0.642031
    14  C    0.171428   0.009833   0.047877  -0.080151  -0.126047  -0.642022
    15  C    0.043917  -0.000390  -0.050828  -0.067252  -0.103872   0.017711
    16  C    0.043916  -0.000389  -0.050828  -0.067249  -0.103871   0.017714
    17  H    0.217792   0.091816   0.055161  -0.033074  -0.005528  -0.046388
    18  H    0.019652   0.217336   0.081014  -0.010769  -0.020815   0.047759
    19  H   -0.000683   0.043026   0.218544   0.017277   0.049462  -0.011196
    20  H   -0.000073   0.010037  -0.006973   0.017626   0.052245   0.002301
    21  H    0.000769   0.000696   0.000119  -0.004125  -0.021953   0.000819
    22  H   -0.001372   0.000804  -0.002121  -0.029834   0.000890  -0.008009
    23  H    0.001299  -0.008003   0.016782   0.037210  -0.040596  -0.030822
    24  H   -0.025880   0.001883  -0.001522  -0.000130   0.012318   0.117732
    25  H    0.028534  -0.001555   0.000519  -0.003982  -0.007819  -0.082989
    26  H    0.033436  -0.006191   0.003572  -0.003802  -0.014055  -0.078723
    27  H   -0.025881   0.001883  -0.001522  -0.000130   0.012319   0.117731
    28  H    0.028540  -0.001555   0.000519  -0.003979  -0.007823  -0.082995
    29  H    0.033433  -0.006192   0.003572  -0.003803  -0.014054  -0.078720
    30  H    0.008019  -0.000408   0.000050   0.000113  -0.016863   0.002157
    31  H    0.000179  -0.000142  -0.000343  -0.001320  -0.008775   0.000753
    32  H   -0.002547   0.000263   0.000045  -0.001580   0.012740  -0.010772
    33  H    0.008019  -0.000408   0.000051   0.000116  -0.016867   0.002159
    34  H   -0.002546   0.000263   0.000045  -0.001580   0.012740  -0.010772
    35  H    0.000179  -0.000142  -0.000343  -0.001321  -0.008775   0.000753
               7          8          9         10         11         12
     1  C    0.431664  -0.204863   0.343199   0.015810  -0.013288   0.030068
     2  C   -0.103836  -0.097788  -0.186994   0.005970   0.038557   0.010968
     3  C   -0.051492  -0.220539   0.578399  -0.853883   0.066836  -0.101133
     4  C   -1.226696  -0.375291   0.501490  -0.155728  -0.129814  -0.117504
     5  C   -1.943940   0.821616  -1.013420   1.038931  -0.097622  -0.090268
     6  C   -0.848098   0.014850   0.066242  -0.970863  -0.485923  -0.041910
     7  C    9.689433  -0.384032  -0.802976   1.148655  -0.112401   0.082507
     8  C   -0.384032   6.181863   0.191691  -0.155971   0.012675   0.048069
     9  C   -0.802976   0.191691   7.098732  -1.378607   0.043017  -0.050703
    10  C    1.148655  -0.155971  -1.378607   9.114246  -0.038804  -0.459532
    11  N   -0.112401   0.012675   0.043017  -0.038804   7.693422  -0.236369
    12  N    0.082507   0.048069  -0.050703  -0.459532  -0.236369   7.963565
    13  C   -0.053782   0.000040   0.053794   0.013597   0.314951  -0.013674
    14  C   -0.053781   0.000040   0.053793   0.013598   0.314948  -0.013674
    15  C    0.052939   0.007655   0.140914  -0.601211  -0.017511   0.299022
    16  C    0.052936   0.007653   0.140914  -0.601192  -0.017516   0.299021
    17  H   -0.002360   0.000979  -0.001528  -0.008227   0.031936  -0.000078
    18  H   -0.002612   0.000652   0.000937   0.000652   0.000456  -0.000026
    19  H   -0.004423   0.010708  -0.000095   0.001568  -0.000035   0.000184
    20  H    0.211687   0.050898  -0.002581  -0.010856   0.000188  -0.000035
    21  H    0.073311   0.217287   0.025886   0.041065  -0.000025   0.000075
    22  H    0.048431   0.082874   0.222595  -0.043240   0.000026   0.027055
    23  H    0.001599  -0.005806   0.005913   0.025272   0.200737   0.075593
    24  H    0.000303   0.000248  -0.002970  -0.014258  -0.071126   0.003292
    25  H   -0.000363   0.000010   0.006141   0.002864  -0.016894   0.001989
    26  H   -0.000786  -0.000234   0.000915   0.002686  -0.010039  -0.002208
    27  H    0.000303   0.000248  -0.002970  -0.014258  -0.071126   0.003292
    28  H   -0.000363   0.000009   0.006141   0.002864  -0.016894   0.001989
    29  H   -0.000786  -0.000234   0.000915   0.002686  -0.010039  -0.002208
    30  H    0.003384  -0.002984   0.043178  -0.098425   0.002304  -0.021598
    31  H    0.000757  -0.005355   0.018550  -0.044672  -0.002589  -0.032021
    32  H   -0.001612   0.001776  -0.028290   0.109759   0.004915  -0.081165
    33  H    0.003383  -0.002984   0.043186  -0.098429   0.002302  -0.021600
    34  H   -0.001612   0.001777  -0.028290   0.109754   0.004916  -0.081164
    35  H    0.000757  -0.005357   0.018545  -0.044670  -0.002589  -0.032018
              13         14         15         16         17         18
     1  C    0.171431   0.171428   0.043917   0.043916   0.217792   0.019652
     2  C    0.009834   0.009833  -0.000390  -0.000389   0.091816   0.217336
     3  C    0.047879   0.047877  -0.050828  -0.050828   0.055161   0.081014
     4  C   -0.080153  -0.080151  -0.067252  -0.067249  -0.033074  -0.010769
     5  C   -0.126050  -0.126047  -0.103872  -0.103871  -0.005528  -0.020815
     6  C   -0.642031  -0.642022   0.017711   0.017714  -0.046388   0.047759
     7  C   -0.053782  -0.053781   0.052939   0.052936  -0.002360  -0.002612
     8  C    0.000040   0.000040   0.007655   0.007653   0.000979   0.000652
     9  C    0.053794   0.053793   0.140914   0.140914  -0.001528   0.000937
    10  C    0.013597   0.013598  -0.601211  -0.601192  -0.008227   0.000652
    11  N    0.314951   0.314948  -0.017511  -0.017516   0.031936   0.000456
    12  N   -0.013674  -0.013674   0.299022   0.299021  -0.000078  -0.000026
    13  C    5.260854   0.003155  -0.032959  -0.018214   0.012979   0.000498
    14  C    0.003155   5.260851  -0.018215  -0.032958   0.012979   0.000498
    15  C   -0.032959  -0.018215   5.212207   0.010368  -0.000234  -0.000009
    16  C   -0.018214  -0.032958   0.010368   5.212191  -0.000234  -0.000009
    17  H    0.012979   0.012979  -0.000234  -0.000234   0.516689  -0.002827
    18  H    0.000498   0.000498  -0.000009  -0.000009  -0.002827   0.488945
    19  H   -0.000026  -0.000026   0.000048   0.000048  -0.000140  -0.002765
    20  H    0.000047   0.000047  -0.000041  -0.000041   0.000000  -0.000006
    21  H   -0.000001  -0.000001   0.000412   0.000412  -0.000000  -0.000000
    22  H   -0.000180  -0.000180   0.014357   0.014356  -0.000000  -0.000000
    23  H   -0.016586  -0.016588  -0.024538  -0.024537  -0.000038   0.000002
    24  H    0.369105  -0.026997   0.002745   0.005261   0.000028  -0.000000
    25  H    0.428185   0.017780  -0.000169  -0.003360   0.000117  -0.000000
    26  H    0.439996   0.000507  -0.000363  -0.001692  -0.000615   0.000005
    27  H   -0.026997   0.369107   0.005260   0.002746   0.000028  -0.000000
    28  H    0.017780   0.428186  -0.003361  -0.000169   0.000117  -0.000000
    29  H    0.000508   0.439994  -0.001691  -0.000363  -0.000615   0.000005
    30  H   -0.000332  -0.004290   0.434184   0.017989   0.000000  -0.000000
    31  H    0.000102  -0.000782   0.436163  -0.002185  -0.000000  -0.000000
    32  H    0.001862   0.003910   0.384661  -0.026391   0.000000   0.000000
    33  H   -0.004289  -0.000333   0.017987   0.434185   0.000000  -0.000000
    34  H    0.003910   0.001863  -0.026390   0.384664   0.000000   0.000000
    35  H   -0.000782   0.000102  -0.002182   0.436163  -0.000000  -0.000000
              19         20         21         22         23         24
     1  C   -0.000683  -0.000073   0.000769  -0.001372   0.001299  -0.025880
     2  C    0.043026   0.010037   0.000696   0.000804  -0.008003   0.001883
     3  C    0.218544  -0.006973   0.000119  -0.002121   0.016782  -0.001522
     4  C    0.017277   0.017626  -0.004125  -0.029834   0.037210  -0.000130
     5  C    0.049462   0.052245  -0.021953   0.000890  -0.040596   0.012318
     6  C   -0.011196   0.002301   0.000819  -0.008009  -0.030822   0.117732
     7  C   -0.004423   0.211687   0.073311   0.048431   0.001599   0.000303
     8  C    0.010708   0.050898   0.217287   0.082874  -0.005806   0.000248
     9  C   -0.000095  -0.002581   0.025886   0.222595   0.005913  -0.002970
    10  C    0.001568  -0.010856   0.041065  -0.043240   0.025272  -0.014258
    11  N   -0.000035   0.000188  -0.000025   0.000026   0.200737  -0.071126
    12  N    0.000184  -0.000035   0.000075   0.027055   0.075593   0.003292
    13  C   -0.000026   0.000047  -0.000001  -0.000180  -0.016586   0.369105
    14  C   -0.000026   0.000047  -0.000001  -0.000180  -0.016588  -0.026997
    15  C    0.000048  -0.000041   0.000412   0.014357  -0.024538   0.002745
    16  C    0.000048  -0.000041   0.000412   0.014356  -0.024537   0.005261
    17  H   -0.000140   0.000000  -0.000000  -0.000000  -0.000038   0.000028
    18  H   -0.002765  -0.000006  -0.000000  -0.000000   0.000002  -0.000000
    19  H    0.498305   0.001943  -0.000006   0.000000  -0.000000   0.000000
    20  H    0.001943   0.500281  -0.002738  -0.000139  -0.000000   0.000000
    21  H   -0.000006  -0.002738   0.490985  -0.002866   0.000001   0.000000
    22  H    0.000000  -0.000139  -0.002866   0.514948  -0.000009   0.000000
    23  H   -0.000000  -0.000000   0.000001  -0.000009   0.299900  -0.003577
    24  H    0.000000   0.000000   0.000000   0.000000  -0.003577   0.499311
    25  H    0.000000  -0.000000  -0.000000   0.000000  -0.003026  -0.022134
    26  H   -0.000000  -0.000000  -0.000000  -0.000000   0.002988  -0.025805
    27  H    0.000000   0.000000   0.000000   0.000000  -0.003577   0.001373
    28  H    0.000000  -0.000000  -0.000000   0.000000  -0.003026   0.000101
    29  H   -0.000000  -0.000000  -0.000000  -0.000000   0.002988  -0.000274
    30  H    0.000000   0.000000  -0.000000   0.000109  -0.001916   0.000000
    31  H   -0.000000  -0.000000   0.000007  -0.000184   0.001177   0.000000
    32  H    0.000000   0.000000  -0.000000   0.000013  -0.002044   0.000001
    33  H    0.000000   0.000000  -0.000000   0.000109  -0.001916  -0.000015
    34  H    0.000000   0.000000  -0.000000   0.000013  -0.002044  -0.000030
    35  H   -0.000000  -0.000000   0.000007  -0.000184   0.001177   0.000005
              25         26         27         28         29         30
     1  C    0.028534   0.033436  -0.025881   0.028540   0.033433   0.008019
     2  C   -0.001555  -0.006191   0.001883  -0.001555  -0.006192  -0.000408
     3  C    0.000519   0.003572  -0.001522   0.000519   0.003572   0.000050
     4  C   -0.003982  -0.003802  -0.000130  -0.003979  -0.003803   0.000113
     5  C   -0.007819  -0.014055   0.012319  -0.007823  -0.014054  -0.016863
     6  C   -0.082989  -0.078723   0.117731  -0.082995  -0.078720   0.002157
     7  C   -0.000363  -0.000786   0.000303  -0.000363  -0.000786   0.003384
     8  C    0.000010  -0.000234   0.000248   0.000009  -0.000234  -0.002984
     9  C    0.006141   0.000915  -0.002970   0.006141   0.000915   0.043178
    10  C    0.002864   0.002686  -0.014258   0.002864   0.002686  -0.098425
    11  N   -0.016894  -0.010039  -0.071126  -0.016894  -0.010039   0.002304
    12  N    0.001989  -0.002208   0.003292   0.001989  -0.002208  -0.021598
    13  C    0.428185   0.439996  -0.026997   0.017780   0.000508  -0.000332
    14  C    0.017780   0.000507   0.369107   0.428186   0.439994  -0.004290
    15  C   -0.000169  -0.000363   0.005260  -0.003361  -0.001691   0.434184
    16  C   -0.003360  -0.001692   0.002746  -0.000169  -0.000363   0.017989
    17  H    0.000117  -0.000615   0.000028   0.000117  -0.000615   0.000000
    18  H   -0.000000   0.000005  -0.000000  -0.000000   0.000005  -0.000000
    19  H    0.000000  -0.000000   0.000000   0.000000  -0.000000   0.000000
    20  H   -0.000000  -0.000000   0.000000  -0.000000  -0.000000   0.000000
    21  H   -0.000000  -0.000000   0.000000  -0.000000  -0.000000  -0.000000
    22  H    0.000000  -0.000000   0.000000   0.000000  -0.000000   0.000109
    23  H   -0.003026   0.002988  -0.003577  -0.003026   0.002988  -0.001916
    24  H   -0.022134  -0.025805   0.001373   0.000101  -0.000274   0.000000
    25  H    0.494680  -0.021548   0.000101  -0.000159  -0.000024  -0.000001
    26  H   -0.021548   0.496320  -0.000274  -0.000024   0.002617   0.000000
    27  H    0.000101  -0.000274   0.499311  -0.022134  -0.025805  -0.000015
    28  H   -0.000159  -0.000024  -0.022134   0.494681  -0.021548  -0.000029
    29  H   -0.000024   0.002617  -0.025805  -0.021548   0.496322   0.000010
    30  H   -0.000001   0.000000  -0.000015  -0.000029   0.000010   0.527384
    31  H    0.000000  -0.000000   0.000005   0.000012  -0.000000  -0.026183
    32  H    0.000000   0.000000  -0.000030  -0.000026   0.000004  -0.023417
    33  H   -0.000029   0.000010   0.000000  -0.000001   0.000000  -0.000169
    34  H   -0.000026   0.000004   0.000001   0.000000   0.000000   0.000145
    35  H    0.000012  -0.000000   0.000000   0.000000  -0.000000  -0.000092
              31         32         33         34         35
     1  C    0.000179  -0.002547   0.008019  -0.002546   0.000179
     2  C   -0.000142   0.000263  -0.000408   0.000263  -0.000142
     3  C   -0.000343   0.000045   0.000051   0.000045  -0.000343
     4  C   -0.001320  -0.001580   0.000116  -0.001580  -0.001321
     5  C   -0.008775   0.012740  -0.016867   0.012740  -0.008775
     6  C    0.000753  -0.010772   0.002159  -0.010772   0.000753
     7  C    0.000757  -0.001612   0.003383  -0.001612   0.000757
     8  C   -0.005355   0.001776  -0.002984   0.001777  -0.005357
     9  C    0.018550  -0.028290   0.043186  -0.028290   0.018545
    10  C   -0.044672   0.109759  -0.098429   0.109754  -0.044670
    11  N   -0.002589   0.004915   0.002302   0.004916  -0.002589
    12  N   -0.032021  -0.081165  -0.021600  -0.081164  -0.032018
    13  C    0.000102   0.001862  -0.004289   0.003910  -0.000782
    14  C   -0.000782   0.003910  -0.000333   0.001863   0.000102
    15  C    0.436163   0.384661   0.017987  -0.026390  -0.002182
    16  C   -0.002185  -0.026391   0.434185   0.384664   0.436163
    17  H   -0.000000   0.000000   0.000000   0.000000  -0.000000
    18  H   -0.000000   0.000000  -0.000000   0.000000  -0.000000
    19  H   -0.000000   0.000000   0.000000   0.000000  -0.000000
    20  H   -0.000000   0.000000   0.000000   0.000000  -0.000000
    21  H    0.000007  -0.000000  -0.000000  -0.000000   0.000007
    22  H   -0.000184   0.000013   0.000109   0.000013  -0.000184
    23  H    0.001177  -0.002044  -0.001916  -0.002044   0.001177
    24  H    0.000000   0.000001  -0.000015  -0.000030   0.000005
    25  H    0.000000   0.000000  -0.000029  -0.000026   0.000012
    26  H   -0.000000   0.000000   0.000010   0.000004  -0.000000
    27  H    0.000005  -0.000030   0.000000   0.000001   0.000000
    28  H    0.000012  -0.000026  -0.000001   0.000000   0.000000
    29  H   -0.000000   0.000004   0.000000   0.000000  -0.000000
    30  H   -0.026183  -0.023417  -0.000169   0.000145  -0.000092
    31  H    0.528950  -0.030162  -0.000092  -0.000665   0.004599
    32  H   -0.030162   0.524910   0.000145   0.002096  -0.000665
    33  H   -0.000092   0.000145   0.527381  -0.023416  -0.026184
    34  H   -0.000665   0.002096  -0.023416   0.524911  -0.030162
    35  H    0.004599  -0.000665  -0.026184  -0.030162   0.528953
 Mulliken charges:
               1
     1  C   -0.089692
     2  C   -0.208337
     3  C   -0.177591
     4  C   -0.198843
     5  C    0.043867
     6  C   -0.068075
     7  C   -0.206098
     8  C   -0.192182
     9  C   -0.105661
    10  C   -0.057148
    11  N   -0.381581
    12  N   -0.447801
    13  C   -0.134451
    14  C   -0.134447
    15  C   -0.129335
    16  C   -0.129339
    17  H    0.161267
    18  H    0.181429
    19  H    0.178281
    20  H    0.176184
    21  H    0.179866
    22  H    0.161738
    23  H    0.516014
    24  H    0.181010
    25  H    0.183146
    26  H    0.183303
    27  H    0.181010
    28  H    0.183146
    29  H    0.183302
    30  H    0.157697
    31  H    0.164216
    32  H    0.161598
    33  H    0.157699
    34  H    0.161597
    35  H    0.164214
 Sum of Mulliken charges =   1.00000
 Mulliken charges with hydrogens summed into heavy atoms:
               1
     1  C    0.071575
     2  C   -0.026908
     3  C    0.000690
     4  C   -0.198843
     5  C    0.043867
     6  C   -0.068075
     7  C   -0.029915
     8  C   -0.012317
     9  C    0.056077
    10  C   -0.057148
    11  N    0.134433
    12  N   -0.447801
    13  C    0.413008
    14  C    0.413010
    15  C    0.354176
    16  C    0.354171
 Electronic spatial extent (au):  <R**2>=           3323.3341
 Charge=              1.0000 electrons
 Dipole moment (field-independent basis, Debye):
    X=             -4.0076    Y=             -1.6398    Z=              0.0001  Tot=              4.3301
 Quadrupole moment (field-independent basis, Debye-Ang):
   XX=            -63.8028   YY=            -64.9822   ZZ=            -92.7547
   XY=              3.1053   XZ=             -0.0005   YZ=             -0.0015
 Traceless Quadrupole moment (field-independent basis, Debye-Ang):
   XX=             10.0438   YY=              8.8644   ZZ=            -18.9081
   XY=              3.1053   XZ=             -0.0005   YZ=             -0.0015
 Octapole moment (field-independent basis, Debye-Ang**2):
  XXX=             -2.3457  YYY=             -9.7782  ZZZ=              0.0013  XYY=            -10.7687
  XXY=             -7.5027  XXZ=             -0.0001  XZZ=            -29.5587  YZZ=             -4.0123
  YYZ=              0.0000  XYZ=             -0.0008
 Hexadecapole moment (field-independent basis, Debye-Ang**3):
 XXXX=          -1769.2460 YYYY=          -1689.9968 ZZZZ=           -393.4250 XXXY=             17.0928
 XXXZ=              0.0047 YYYX=             19.2007 YYYZ=              0.0245 ZZZX=              0.0081
 ZZZY=              0.0409 XXYY=           -554.6985 XXZZ=           -420.0146 YYZZ=           -402.7807
 XXYZ=              0.0070 YYXZ=              0.0017 ZZXY=              7.2244
 N-N= 1.138731631165D+03 E-N=-3.774441202951D+03  KE= 6.484756495401D+02
 Calling FoFJK, ICntrl=  10002127 FMM=F ISym2X=0 I1Cent= 0 IOpClX= 0 NMat=1 NMatS=1 NMatT=0.
 ***** Axes restored to original set *****
 -------------------------------------------------------------------
 Center     Atomic                   Forces (Hartrees/Bohr)
 Number     Number              X              Y              Z
 -------------------------------------------------------------------
      1        6          -0.001929054   -0.003873790    0.000000242
      2        6           0.001289914   -0.003414110    0.000000232
      3        6           0.003982415    0.000959652   -0.000000201
      4        6          -0.000526556   -0.000046944   -0.000000025
      5        6          -0.000432770    0.000018716    0.000000111
      6        6          -0.000265006    0.000830037    0.000000122
      7        6           0.003943263   -0.000805783   -0.000000088
      8        6           0.001153569    0.003523408   -0.000000029
      9        6          -0.002027551    0.003757962   -0.000000355
     10        6          -0.000134510   -0.000785497    0.000000030
     11        7           0.000008839    0.003860865    0.000001460
     12        7           0.000007464   -0.001817006    0.000001699
     13        6          -0.001654914   -0.001641560   -0.003774421
     14        6          -0.001653683   -0.001642346    0.003775424
     15        6          -0.001755745    0.001818609    0.003710124
     16        6          -0.001756398    0.001816787   -0.003709819
     17        1           0.000595958    0.001660122   -0.000000128
     18        1          -0.000975078    0.001571006   -0.000000158
     19        1          -0.001679392    0.000049102    0.000000086
     20        1          -0.001676953   -0.000115123    0.000000025
     21        1          -0.000912247   -0.001605266    0.000000081
     22        1           0.000712647   -0.001607533    0.000000159
     23        1          -0.000168307   -0.002777849   -0.000003961
     24        1           0.001785463    0.000123104    0.000422268
     25        1          -0.000287036   -0.000253583    0.001830510
     26        1          -0.000106067    0.001830632    0.000492427
     27        1           0.001785074    0.000123044   -0.000422555
     28        1          -0.000287191   -0.000254051   -0.001830902
     29        1          -0.000106511    0.001830540   -0.000492284
     30        1          -0.000237362    0.000186505   -0.001812496
     31        1           0.000001699   -0.001723868   -0.000439756
     32        1           0.001770773   -0.000029237   -0.000415164
     33        1          -0.000237369    0.000186280    0.001812201
     34        1           0.001770897   -0.000029229    0.000415103
     35        1           0.000001728   -0.001723597    0.000440035
 -------------------------------------------------------------------
 Cartesian Forces:  Max     0.003982415 RMS     0.001585152

 GradGradGradGradGradGradGradGradGradGradGradGradGradGradGradGradGradGrad
 Berny optimization.
 FormGI is forming the generalized inverse of G from B-inverse, IUseBI=4.
 GSVD:  received Info=                   1 from GESDD.
 Internal  Forces:  Max     0.003073086 RMS     0.000872052
 Search for a local minimum.
 Step number   1 out of a maximum of  193
 All quantities printed in internal units (Hartrees-Bohrs-Radians)
 Mixed Optimization -- En-DIIS/RFO-DIIS
 Second derivative matrix not updated -- first step.
 ITU=  0
     Eigenvalues ---    0.00513   0.00513   0.00672   0.00672   0.00700
     Eigenvalues ---    0.00908   0.01541   0.01676   0.01720   0.01736
     Eigenvalues ---    0.01769   0.01996   0.02045   0.02083   0.02094
     Eigenvalues ---    0.02175   0.02183   0.02194   0.02219   0.02286
     Eigenvalues ---    0.02301   0.02611   0.03477   0.04797   0.05862
     Eigenvalues ---    0.05862   0.05977   0.05977   0.06231   0.07191
     Eigenvalues ---    0.07191   0.07463   0.07463   0.16000   0.16000
     Eigenvalues ---    0.16000   0.16000   0.16000   0.16000   0.16000
     Eigenvalues ---    0.16000   0.16000   0.16000   0.16000   0.16000
     Eigenvalues ---    0.16000   0.16000   0.16000   0.16000   0.16000
     Eigenvalues ---    0.16000   0.17515   0.17605   0.18941   0.19220
     Eigenvalues ---    0.22061   0.22129   0.23305   0.23705   0.24873
     Eigenvalues ---    0.24943   0.25000   0.25000   0.30751   0.33550
     Eigenvalues ---    0.33550   0.34042   0.34042   0.34397   0.34397
     Eigenvalues ---    0.34562   0.34562   0.34578   0.34578   0.34626
     Eigenvalues ---    0.34626   0.34767   0.34767   0.34902   0.34902
     Eigenvalues ---    0.35152   0.35239   0.35246   0.35256   0.35264
     Eigenvalues ---    0.35364   0.35403   0.36265   0.37061   0.39340
     Eigenvalues ---    0.39770   0.41445   0.41813   0.43204   0.43322
     Eigenvalues ---    0.48015   0.48358   0.49428   0.49600
 RFO step:  Lambda=-4.51488022D-04 EMin= 5.13303230D-03
 Linear search not attempted -- first point.
 Iteration  1 RMS(Cart)=  0.01805143 RMS(Int)=  0.00004194
 Iteration  2 RMS(Cart)=  0.00007712 RMS(Int)=  0.00000386
 Iteration  3 RMS(Cart)=  0.00000000 RMS(Int)=  0.00000386
 Variable       Old X    -DE/DX   Delta X   Delta X   Delta X     New X
                                 (Linear)    (Quad)   (Total)
    R1        2.66398   0.00205   0.00000   0.00496   0.00496   2.66894
    R2        2.59764   0.00165   0.00000   0.00329   0.00329   2.60093
    R3        2.05288  -0.00175   0.00000  -0.00495  -0.00495   2.04793
    R4        2.59622   0.00305   0.00000   0.00635   0.00635   2.60257
    R5        2.05025  -0.00185   0.00000  -0.00522  -0.00522   2.04503
    R6        2.68000   0.00162   0.00000   0.00380   0.00380   2.68380
    R7        2.05262  -0.00168   0.00000  -0.00475  -0.00475   2.04787
    R8        2.71551   0.00056   0.00000   0.00070   0.00070   2.71621
    R9        2.67902   0.00164   0.00000   0.00385   0.00385   2.68287
   R10        2.69652  -0.00035   0.00000  -0.00118  -0.00118   2.69533
   R11        2.70320  -0.00055   0.00000  -0.00169  -0.00169   2.70151
   R12        2.78729   0.00064   0.00000   0.00182   0.00182   2.78910
   R13        2.59543   0.00307   0.00000   0.00639   0.00639   2.60182
   R14        2.05248  -0.00168   0.00000  -0.00475  -0.00475   2.04773
   R15        2.66460   0.00201   0.00000   0.00488   0.00488   2.66948
   R16        2.05088  -0.00185   0.00000  -0.00521  -0.00521   2.04567
   R17        2.60337   0.00168   0.00000   0.00340   0.00340   2.60677
   R18        2.05278  -0.00175   0.00000  -0.00496  -0.00496   2.04782
   R19        2.75754   0.00043   0.00000   0.00117   0.00117   2.75871
   R20        2.81397   0.00093   0.00000   0.00276   0.00276   2.81673
   R21        2.81397   0.00093   0.00000   0.00276   0.00276   2.81673
   R22        2.13191  -0.00267   0.00000  -0.00866  -0.00866   2.12324
   R23        2.79134   0.00105   0.00000   0.00300   0.00300   2.79434
   R24        2.79134   0.00105   0.00000   0.00300   0.00300   2.79434
   R25        2.06365  -0.00176   0.00000  -0.00508  -0.00508   2.05857
   R26        2.06055  -0.00169   0.00000  -0.00486  -0.00486   2.05570
   R27        2.06287  -0.00182   0.00000  -0.00525  -0.00525   2.05762
   R28        2.06365  -0.00176   0.00000  -0.00508  -0.00508   2.05857
   R29        2.06056  -0.00169   0.00000  -0.00486  -0.00486   2.05570
   R30        2.06287  -0.00182   0.00000  -0.00525  -0.00525   2.05762
   R31        2.06392  -0.00164   0.00000  -0.00475  -0.00475   2.05917
   R32        2.07259  -0.00171   0.00000  -0.00502  -0.00502   2.06757
   R33        2.06665  -0.00175   0.00000  -0.00508  -0.00508   2.06157
   R34        2.06392  -0.00164   0.00000  -0.00475  -0.00475   2.05917
   R35        2.06665  -0.00175   0.00000  -0.00509  -0.00509   2.06157
   R36        2.07259  -0.00171   0.00000  -0.00502  -0.00502   2.06757
    A1        2.09886  -0.00084   0.00000  -0.00333  -0.00333   2.09552
    A2        2.08157   0.00067   0.00000   0.00319   0.00319   2.08476
    A3        2.10276   0.00018   0.00000   0.00014   0.00014   2.10290
    A4        2.08887   0.00011   0.00000   0.00167   0.00167   2.09054
    A5        2.08766  -0.00007   0.00000  -0.00094  -0.00094   2.08672
    A6        2.10666  -0.00004   0.00000  -0.00074  -0.00074   2.10592
    A7        2.11665  -0.00039   0.00000  -0.00119  -0.00119   2.11547
    A8        2.09821   0.00031   0.00000   0.00133   0.00133   2.09954
    A9        2.06832   0.00007   0.00000  -0.00015  -0.00014   2.06818
   A10        2.09186  -0.00040   0.00000  -0.00190  -0.00190   2.08996
   A11        2.10329   0.00082   0.00000   0.00393   0.00393   2.10722
   A12        2.08804  -0.00042   0.00000  -0.00203  -0.00203   2.08600
   A13        2.03537   0.00105   0.00000   0.00357   0.00357   2.03894
   A14        2.05797   0.00099   0.00000   0.00329   0.00329   2.06127
   A15        2.18984  -0.00204   0.00000  -0.00686  -0.00686   2.18298
   A16        2.13476   0.00047   0.00000   0.00118   0.00118   2.13594
   A17        2.09002   0.00093   0.00000   0.00407   0.00407   2.09409
   A18        2.05841  -0.00140   0.00000  -0.00525  -0.00525   2.05316
   A19        2.10998  -0.00031   0.00000  -0.00083  -0.00083   2.10915
   A20        2.07073   0.00004   0.00000  -0.00034  -0.00034   2.07040
   A21        2.10248   0.00028   0.00000   0.00116   0.00116   2.10364
   A22        2.09187   0.00005   0.00000   0.00144   0.00144   2.09332
   A23        2.10368  -0.00001   0.00000  -0.00061  -0.00061   2.10307
   A24        2.08763  -0.00004   0.00000  -0.00083  -0.00083   2.08680
[...]
 ,0.00005497,0.00001472,0.00002815,-0.00000592,-0.00001660,0.00000081,0
 .00003393,0.00001561,0.00000248,0.00005837,-0.00008572,-0.00001534,0.0
 0025600,-0.00017500,0.00013601,-0.00012320,-0.00011780,-0.00005591,-0.
 00005401,-0.00002889,-0.00006474,0.00002308,0.00013549,0.00001486,0.00
 047238,0.00027073,0.00030340,-0.00202231,0.00044390,0.00031313,0.00021
 751,-0.00132718,-0.00018485,-0.01048249,0.00948312,-0.02686225,-0.0000
 2639,-0.00002654,-0.00002664,-0.00003430,0.00016803,-0.00048855,-0.087
 48058,0.09774794,-0.22092092,0.00393045,-0.00360469,-0.00336516,-0.000
 00070,0.00000089,-0.00001173,0.00000135,0.00000262,-0.00000265,-0.0000
 0026,-0.00000491,-0.00000231,0.00000167,-0.00000167,0.00000400,0.00001
 889,-0.00000270,-0.00000350,-0.00003385,-0.00004563,-0.00003935,-0.000
 21064,0.00174634,-0.00030305,0.00001280,0.00003367,-0.00001232,-0.0000
 3090,0.00004835,0.00003808,0.00000061,-0.00002533,0.00000194,-0.000049
 59,-0.00006196,-0.00001853,0.00012825,-0.00009654,0.00031391,0.0000187
 5,0.00008015,0.00019708,0.09539270,-0.10422641,0.24761632,-0.00008696,
 -0.00001602,0.00006687,0.00003090,-0.00000483,0.00001510,-0.00004969,-
 0.00001527,0.00001535,0.00022604,0.00015337,0.00008064,-0.00050962,0.0
 0021259,-0.00046918,0.00025149,-0.00016822,-0.00000314,0.00008432,-0.0
 0019450,-0.00009518,-0.00018464,-0.00003351,0.00003360,0.00024983,-0.0
 0001529,0.00019826,0.00198763,0.00168515,-0.00075123,-0.00032052,0.001
 22316,-0.00038186,0.00244890,0.01780992,0.00560841,-0.00012220,-0.0000
 5016,-0.00009647,-0.00025846,-0.00000199,0.00007391,-0.06335040,-0.055
 65600,-0.00207279,-0.00021184,-0.00069799,-0.00124106,0.00000403,-0.00
 000819,0.00000293,-0.00000596,-0.00000182,-0.00001696,-0.00000423,0.00
 000453,-0.00000063,0.00000874,-0.00003490,0.00001091,0.00000891,-0.000
 00101,0.00005990,-0.00099729,-0.00031153,0.00088318,-0.00031730,-0.001
 52348,0.00090295,0.00001234,0.00000173,0.00002079,0.00002030,-0.000019
 86,-0.00000646,0.00002577,0.00002374,0.00001355,0.00007657,0.00007424,
 0.00001537,-0.00002335,-0.00000168,0.00000564,0.00011337,0.00005733,-0
 .00004049,0.00300061,0.01416823,0.00008058,0.06277899,0.00007352,0.000
 03029,0.00000992,-0.00001213,0.00005042,-0.00000351,0.00009893,0.00000
 424,0.00002441,-0.00013117,-0.00011935,0.00000170,0.00056112,-0.000075
 37,-0.00007734,-0.00062397,0.00015161,-0.00002620,-0.00004818,0.000139
 53,-0.00006463,0.00036614,0.00031896,0.00014028,0.00046487,-0.00039202
 ,0.00074363,-0.00259236,0.00063591,-0.00005968,0.00023134,-0.00215077,
 0.00036878,0.00236224,-0.01601499,-0.00908174,0.00019796,0.00007752,0.
 00026915,0.00025567,-0.00022898,-0.00010246,-0.05326905,-0.30428157,-0
 .00185291,0.00083085,0.00164194,0.00141031,-0.00001734,0.00002915,0.00
 000190,0.00001904,-0.00000071,-0.00000289,0.00000913,-0.00000906,-0.00
 000367,-0.00000940,0.00003417,-0.00002370,0.00006029,-0.00000754,0.000
 02246,-0.00037724,0.00063685,-0.00017075,0.00021622,0.00417407,-0.0005
 3042,0.00000761,0.00001834,0.00000033,-0.00002118,0.00001261,-0.000010
 79,-0.00003181,-0.00006407,-0.00006176,0.00002808,0.00004423,0.0000031
 9,-0.00006834,0.00003180,-0.00006486,-0.00006701,-0.00010023,0.0000523
 5,-0.00415745,-0.01237289,-0.00043910,0.05630658,0.33033309,0.00012660
 ,-0.00002889,-0.00004110,-0.00004572,-0.00003509,0.00000317,0.00004426
 ,0.00006194,-0.00004513,-0.00008721,-0.00020504,0.00003349,0.00048973,
 -0.00001011,0.00038314,-0.00042919,0.00018832,0.00003735,-0.00008569,0
 .00016855,0.00004175,0.00013511,0.00019056,-0.00004011,-0.00007684,-0.
 00015139,-0.00013145,-0.00255292,0.00008075,0.00032783,0.00015114,-0.0
 0305217,0.00047905,-0.00105049,-0.03619839,-0.01169183,0.00013240,0.00
 007569,0.00032162,0.00018229,-0.00004510,-0.00067385,-0.00136003,0.000
 99211,-0.05015428,0.00042311,-0.00326879,0.00353663,-0.00000668,-0.000
 00204,-0.00001138,0.00000986,-0.00000209,0.00000844,0.00001148,-0.0000
 0815,0.00000035,-0.00000425,0.00002931,-0.00000742,0.00003168,-0.00000
 547,-0.00000236,0.00076620,0.00031152,-0.00019692,0.00067913,0.0037459
 7,-0.00173308,-0.00002378,0.00001007,-0.00001716,-0.00000634,0.0000397
 9,0.00002591,-0.00002094,-0.00004662,-0.00008468,-0.00008277,-0.000077
 98,-0.00002961,0.00015550,-0.00011427,0.00017387,-0.00003832,-0.000013
 00,0.00028292,0.00609744,0.02576326,0.00213109,-0.00272459,0.01009519,
 0.05621348,0.00010672,0.00002901,0.00000994,-0.00004835,0.00000576,0.0
 0000064,0.00002658,0.00001633,-0.00001882,-0.00014606,-0.00005511,-0.0
 0010570,-0.00012195,-0.00055393,0.00029168,-0.00020461,0.00002178,-0.0
 0003893,-0.00008278,0.00004310,0.00001735,-0.00000574,0.00009965,-0.00
 005068,0.00020779,0.00049287,0.00017696,0.00029534,0.00056803,0.002587
 56,-0.00021073,0.00091133,0.00003685,-0.01240912,0.00176986,0.00126967
 ,-0.00003261,0.00000863,-0.00012181,-0.00020166,-0.00015717,0.00026042
 ,-0.31817991,-0.04159857,-0.00407281,0.00027116,-0.00029713,-0.0012336
 8,-0.00000442,0.00002994,0.00000982,0.00000376,0.00000735,-0.00000142,
 -0.00000679,0.00001017,-0.00000759,0.00000068,0.00001266,0.00000159,-0
 .00002628,-0.00000040,-0.00001084,0.00000233,0.00002400,-0.00010833,-0
 .00021614,-0.00073670,0.00012402,0.00003980,0.00003366,0.00004204,-0.0
 0001807,0.00000099,-0.00001512,0.00001773,-0.00000101,0.00003097,0.000
 16785,0.00012340,0.00002539,-0.00012718,0.00003124,-0.00004484,0.00008
 671,-0.00002627,-0.00007960,-0.00955887,-0.00279451,0.00053928,-0.0049
 2313,-0.00015473,-0.00091637,0.34447225,-0.00008653,-0.00006541,0.0000
 4351,-0.00001959,0.00001331,-0.00000952,0.00001525,0.00003759,-0.00000
 221,-0.00003101,-0.00006236,0.00013912,0.00041050,0.00024267,-0.000007
 87,0.00015078,0.00017384,-0.00001273,0.00005579,0.00011255,-0.00003939
 ,0.00019266,0.00010224,0.00041793,0.00019736,-0.00032881,0.00010926,0.
 00018476,-0.00027373,-0.00301947,-0.00018020,-0.00023355,-0.00008838,0
 .01883192,0.00036365,-0.00180856,0.00000216,-0.00003747,-0.00002829,0.
 00008866,0.00004493,-0.00008731,-0.04492695,-0.05820427,0.00031372,-0.
 00014678,0.00009586,0.00068189,0.00000943,-0.00002173,-0.00000418,-0.0
 0000641,-0.00000495,-0.00000305,0.00000594,-0.00000982,0.00000708,-0.0
 0001260,0.00001537,-0.00005779,0.00004485,-0.00000053,0.00001092,0.000
 08208,0.00032330,-0.00049382,0.00052718,0.00044131,0.00000501,-0.00003
 241,-0.00001868,-0.00003742,-0.00000330,0.00000751,0.00001982,-0.00000
 613,0.00000187,-0.00000138,-0.00009304,-0.00018161,-0.00003522,0.00011
 399,0.00001310,0.00005836,-0.00006388,0.00002978,0.00007087,0.01509562
 ,0.00245668,-0.00070527,-0.03240739,-0.00299711,-0.00061305,0.04226955
 ,0.05798256,-0.00010647,-0.00003152,0.00000247,0.00004166,0.00003177,-
 0.00000695,0.00006235,-0.00000667,0.00003731,0.00016709,-0.00008095,0.
 00022507,0.00081181,0.00037452,-0.00022885,0.00007518,-0.00003144,-0.0
 0011659,0.00009246,-0.00010113,-0.00007690,-0.00002718,0.00012426,0.00
 027544,0.00060305,-0.00034437,0.00030478,0.00116551,-0.00171049,-0.004
 30942,0.00009117,-0.00031330,-0.00010946,0.03264123,0.00054316,-0.0042
 9868,0.00005215,0.00001425,0.00006272,-0.00001839,-0.00004686,-0.00001
 283,-0.01180076,0.00015174,-0.05124145,0.00186553,0.00023829,0.0013268
 5,-0.00000065,-0.00000957,0.00000425,-0.00000124,-0.00000566,-0.000001
 95,0.00001237,-0.00002004,0.00001380,-0.00000180,0.00000056,-0.0000336
 5,0.00005387,0.00000697,-0.00001085,-0.00009888,0.00016082,-0.00015938
 ,0.00006364,0.00062757,0.00024636,-0.00003500,-0.00004075,-0.00000805,
 0.00002088,-0.00001511,-0.00001142,-0.00001908,-0.00000009,-0.00001523
 ,0.00001399,0.00003061,0.00011087,-0.00009540,-0.00003340,-0.00002153,
 0.00000545,-0.00000638,-0.00002571,-0.02537462,-0.00552300,0.00222831,
 -0.00017751,0.00101842,0.00060721,0.00077488,0.00511776,0.05564425,-0.
 00004314,-0.00002577,-0.00001600,0.00000308,-0.00002147,-0.00000228,-0
 .00002482,0.00001797,-0.00000652,0.00001785,-0.00003637,0.00008269,0.0
 0024156,0.00026425,-0.00007490,0.00020482,0.00008894,0.00002364,0.0000
 3454,-0.00001084,-0.00006945,-0.00011121,-0.00005912,0.00012326,-0.000
 00214,0.00000469,0.00009392,0.00087607,-0.00097057,-0.00125484,-0.0000
 6000,-0.00009894,-0.00003100,0.00442254,-0.00608649,-0.01534653,-0.000
 06753,0.00013629,0.00032665,-0.00008826,-0.00003575,-0.00002061,-0.001
 54862,0.00117019,-0.00208457,-0.09920743,0.05328674,0.09514647,0.00000
 976,-0.00002756,0.00000560,-0.00000540,-0.00000373,0.00000172,0.000004
 69,-0.00000923,0.00000028,0.,-0.00000317,-0.00001400,-0.00000398,-0.00
 000040,-0.00000901,0.00012065,-0.00001409,-0.00007668,0.00013026,-0.00
 023376,0.00034941,-0.00010854,-0.00011675,0.00009174,0.00031306,-0.000
 06130,-0.00011009,-0.00001277,0.00006553,-0.00015057,-0.00001752,0.000
 00864,0.00002036,0.00001444,0.00000172,-0.00003111,0.00001737,0.000007
 94,0.00000248,0.00086219,-0.00018283,-0.00074252,-0.00008724,0.0000095
 4,0.00005688,0.00048027,0.00011170,-0.00016562,0.10019565,-0.00002226,
 -0.00002677,0.00000319,-0.00000494,-0.00002699,-0.00000631,-0.00003919
 ,0.00001893,0.00001950,0.00010623,0.00008053,-0.00003901,-0.00034479,0
 .00011600,-0.00004544,0.00015814,-0.00000725,-0.00002904,-0.00003085,-
 0.00010120,-0.00000933,-0.00017793,0.00015580,0.00011563,0.00016919,-0
 .00049654,-0.00000869,-0.00050162,0.00081439,0.00029973,0.00012259,0.0
 0006585,-0.00014573,-0.00724762,0.00667120,0.01589911,-0.00009388,-0.0
 0020882,0.00014695,-0.00009966,-0.00000196,0.00004832,0.00150630,-0.00
 094703,0.00214254,0.05330074,-0.11009843,-0.10357567,0.00001047,-0.000
 01776,0.00000157,-0.00000397,0.00000148,-0.00000167,-0.00000469,0.0000
 0181,0.00000232,-0.00000825,0.00000242,-0.00001659,0.00001332,-0.00001
 074,-0.00002360,0.00012898,0.00004720,-0.00011601,-0.00023035,0.000439
 08,0.00016868,-0.00003288,0.00000167,-0.00002424,0.00004779,-0.0003698
 5,-0.00001045,-0.00000818,0.00000884,-0.00007259,-0.00000476,0.0000048
 8,0.00001096,0.00000433,0.00000971,-0.00002974,0.00001462,0.00000266,-
 0.00002721,-0.00018265,0.00077488,0.00083242,0.00011216,0.00031796,0.0
 0053945,0.00008877,-0.00020940,-0.00009134,-0.05812187,0.11291225,-0.0
 0005494,-0.00001476,0.00002816,0.00000588,0.00001661,0.00000083,-0.000
 03388,-0.00001560,0.00000244,-0.00005883,0.00008558,-0.00001519,-0.000
 25577,0.00017458,0.00013601,0.00012326,0.00011828,-0.00005603,0.000054
 01,0.00002923,-0.00006479,-0.00002273,-0.00013569,0.00001468,-0.000472
 87,-0.00027044,0.00030352,0.00202246,-0.00044441,0.00031271,-0.0002175
 8,0.00132766,-0.00018489,0.01049053,-0.00949833,-0.02686508,0.00003432
 ,-0.00016821,-0.00048870,0.00002648,0.00002654,-0.00002667,-0.00393108
 ,0.00360382,-0.00336848,0.08747473,-0.09778701,-0.22080606,0.00000069,
 -0.00000088,-0.00001172,-0.00000135,-0.00000262,-0.00000264,0.00000026
 ,0.00000491,-0.00000231,-0.00000167,0.00000169,0.00000401,-0.00001891,
 0.00000270,-0.00000348,0.00003388,0.00004570,-0.00003921,0.00021096,-0
 .00174722,-0.00030336,0.00004957,0.00006195,-0.00001853,-0.00012805,0.
 00009664,0.00031426,-0.00001878,-0.00008019,0.00019722,-0.00001281,-0.
 00003368,-0.00001231,0.00003092,-0.00004833,0.00003808,-0.00000062,0.0
 0002533,0.00000194,0.00074299,-0.00083334,-0.00139063,-0.00008362,-0.0
 0005160,0.00011806,0.00002750,0.00008371,0.00032052,-0.09538905,0.1042
 7566,0.24749741,0.00010672,0.00002901,-0.00000995,-0.00004834,0.000005
 77,-0.00000060,0.00002662,0.00001633,0.00001878,-0.00014599,-0.0000552
 1,0.00010566,-0.00012153,-0.00055391,-0.00029158,-0.00020466,0.0000217
 4,0.00003907,-0.00008277,0.00004302,-0.00001736,-0.00000585,0.00009969
 ,0.00005080,0.00020793,0.00049303,-0.00017725,0.00029543,0.00056676,-0
 .00258730,-0.00021066,0.00091131,-0.00003688,-0.01240289,0.00176933,-0
 .00127131,-0.00020171,-0.00015729,-0.00026051,-0.00003251,0.00000868,0
 .00012177,0.00027135,-0.00029666,0.00123363,-0.31818482,-0.04158759,0.
 00404612,-0.00000443,0.00002995,-0.00000983,0.00000377,0.00000735,0.00
 000142,-0.00000679,0.00001016,0.00000759,0.00000068,0.00001266,-0.0000
 0160,-0.00002628,-0.00000040,0.00001085,0.00000226,0.00002395,0.000108
 24,-0.00021615,-0.00073671,-0.00012402,0.00016794,0.00012350,-0.000025
 51,-0.00012730,0.00003129,0.00004492,0.00008675,-0.00002631,0.00007966
 ,0.00003978,0.00003364,-0.00004205,-0.00001807,0.00000098,0.00001515,0
 .00001770,-0.00000101,-0.00003097,0.00048022,0.00008874,-0.00002751,-0
 .00017381,-0.00009344,-0.00009359,0.00051920,-0.00012939,-0.00050610,-
 0.00956253,-0.00279522,-0.00054001,0.34447506,-0.00008640,-0.00006544,
 -0.00004351,-0.00001969,0.00001325,0.00000953,0.00001520,0.00003766,0.
 00000224,-0.00003128,-0.00006239,-0.00013899,0.00040997,0.00024221,0.0
 0000775,0.00015079,0.00017403,0.00001258,0.00005582,0.00011284,0.00003
 935,0.00019300,0.00010192,-0.00041787,0.00019721,-0.00032820,-0.000109
 13,0.00018382,-0.00027115,0.00301754,-0.00018021,-0.00023355,0.0000883
 9,0.01881772,0.00036340,0.00180958,0.00008864,0.00004501,0.00008742,0.
 00000207,-0.00003747,0.00002830,-0.00014746,0.00009559,-0.00068153,-0.
 04491262,-0.05820213,-0.00031787,0.00000944,-0.00002174,0.00000418,-0.
 00000641,-0.00000495,0.00000305,0.00000593,-0.00000981,-0.00000707,-0.
 00001258,0.00001534,0.00005779,0.00004484,-0.00000053,-0.00001093,0.00
 008198,0.00032291,0.00049385,0.00052701,0.00044135,-0.00000501,-0.0000
 9309,-0.00018168,0.00003536,0.00011419,0.00001310,-0.00005849,-0.00006
 391,0.00002980,-0.00007096,-0.00003238,-0.00001864,0.00003742,-0.00000
 330,0.00000752,-0.00001984,-0.00000611,0.00000187,0.00000138,0.0001117
 7,-0.00020945,-0.00008350,-0.00024458,-0.00014478,0.00015510,-0.000129
 17,0.00033609,-0.00013152,0.01510655,0.00245897,0.00070738,0.04226008,
 0.05797444,0.00010661,0.00003149,0.00000243,-0.00004176,-0.00003180,-0
 .00000694,-0.00006227,0.00000676,0.00003730,-0.00016728,0.00008063,0.0
 0022517,-0.00081137,-0.00037479,-0.00022900,-0.00007523,0.00003170,-0.
 00011651,-0.00009254,0.00010130,-0.00007690,0.00002729,-0.00012437,0.0
 0027582,-0.00060370,0.00034439,0.00030438,-0.00116525,0.00170873,-0.00
 431189,-0.00009114,0.00031362,-0.00010950,-0.03264957,-0.00054377,-0.0
 0430449,0.00001820,0.00004683,-0.00001286,-0.00005216,-0.00001422,0.00
 006270,-0.00186570,-0.00023792,0.00132721,0.01177529,-0.00015584,-0.05
 123843,0.00000065,0.00000957,0.00000424,0.00000125,0.00000567,-0.00000
 196,-0.00001237,0.00002003,0.00001380,0.00000180,-0.00000054,-0.000033
 71,-0.00005390,-0.00000697,-0.00001087,0.00009876,-0.00016082,-0.00015
 958,-0.00006383,-0.00062788,0.00024650,-0.00001391,-0.00003051,0.00011
 092,0.00009548,0.00003344,-0.00002152,-0.00000540,0.00000637,-0.000025
 70,0.00003501,0.00004074,-0.00000809,-0.00002087,0.00001509,-0.0000114
 0,0.00001907,0.00000009,-0.00001522,0.00016560,0.00009158,0.00032054,0
 .00018560,-0.00010298,-0.00024890,0.00050635,0.00013121,-0.00047242,0.
 02536672,0.00552133,0.00222979,-0.00074537,-0.00511130,0.05564735,-0.0
 0008699,-0.00001599,-0.00006689,0.00003092,-0.00000480,-0.00001512,-0.
 00004965,-0.00001526,-0.00001530,0.00022614,0.00015346,-0.00008070,-0.
 00050971,0.00021293,0.00046922,0.00025125,-0.00016826,0.00000302,0.000
 08427,-0.00019466,0.00009516,-0.00018490,-0.00003324,-0.00003340,0.000
 25085,-0.00001608,-0.00019778,0.00198856,0.00168602,0.00075071,-0.0003
 2050,0.00122230,0.00038192,0.00244902,0.01780199,-0.00561383,-0.000258
 45,-0.00000207,-0.00007373,-0.00012209,-0.00005015,0.00009641,-0.00021
 207,-0.00069820,0.00124055,-0.06335557,-0.05566608,0.00209374,0.000004
 03,-0.00000818,-0.00000293,-0.00000595,-0.00000182,0.00001696,-0.00000
 423,0.00000453,0.00000063,0.00000873,-0.00003488,-0.00001094,0.0000089
 5,-0.00000101,-0.00005991,-0.00099500,-0.00031125,-0.00088273,-0.00031
 707,-0.00152259,-0.00090267,0.00007662,0.00007427,-0.00001543,-0.00002
 341,-0.00000169,-0.00000566,0.00011342,0.00005732,0.00004040,0.0000123
 2,0.00000172,-0.00002078,0.00002031,-0.00001986,0.00000646,0.00002573,
 0.00002371,-0.00001352,-0.00008725,0.00011233,0.00008359,0.00029793,-0
 .00042432,0.00011292,-0.00017377,-0.00024459,-0.00018555,0.00300234,0.
 01417191,-0.00008592,-0.00492432,-0.03240685,0.00018992,0.06277955,0.0
 0007351,0.00003025,-0.00000995,-0.00001216,0.00005040,0.00000354,0.000
 09883,0.00000428,-0.00002447,-0.00013111,-0.00011932,-0.00000162,0.000
 56085,-0.00007574,0.00007759,-0.00062369,0.00015159,0.00002633,-0.0000
 4800,0.00013958,0.00006459,0.00036628,0.00031846,-0.00014009,0.0004654
 0,-0.00039140,-0.00074322,-0.00259057,0.00063663,0.00005857,0.00023130
 ,-0.00214907,-0.00036872,0.00236043,-0.01599724,0.00908369,0.00025566,
 -0.00022904,0.00010195,0.00019781,0.00007754,-0.00026902,0.00083072,0.
 00164246,-0.00140912,-0.05328011,-0.30427664,0.00194861,-0.00001733,0.
 00002915,-0.00000190,0.00001903,-0.00000071,0.00000290,0.00000913,-0.0
 0000906,0.00000367,-0.00000938,0.00003412,0.00002367,0.00006026,-0.000
 00752,-0.00002246,-0.00037642,0.00063633,0.00017081,0.00021584,0.00417
 238,0.00052919,0.00002810,0.00004426,-0.00000321,-0.00006841,0.0000318
 5,0.00006503,-0.00006705,-0.00010025,-0.00005215,0.00000762,0.00001833
 ,-0.00000034,-0.00002118,0.00001259,0.00001081,-0.00003177,-0.00006403
 ,0.00006171,0.00000950,0.00031776,0.00005149,-0.00042450,0.00027675,0.
 00143005,-0.00009340,-0.00014477,0.00010289,-0.00416069,-0.01238377,0.
 00044433,-0.00015382,-0.00299537,-0.00101685,0.05631935,0.33031919,-0.
 00012675,0.00002898,-0.00004113,0.00004582,0.00003512,0.00000311,-0.00
 004426,-0.00006204,-0.00004506,0.00008730,0.00020517,0.00003339,-0.000
 49006,0.00001023,0.00038353,0.00042936,-0.00018841,0.00003730,0.000085
 70,-0.00016880,0.00004173,-0.00013547,-0.00019060,-0.00003996,0.000077
 06,0.00015194,-0.00013099,0.00255525,-0.00008055,0.00032821,-0.0001512
 7,0.00305286,0.00047907,0.00105160,0.03620307,-0.01171178,-0.00018241,
 0.00004500,-0.00067406,-0.00013233,-0.00007571,0.00032169,-0.00042418,
 0.00326952,0.00353596,0.00137993,-0.00089686,-0.05015205,0.00000667,0.
 00000204,-0.00001139,-0.00000986,0.00000209,0.00000844,-0.00001148,0.0
 0000816,0.00000036,0.00000426,-0.00002934,-0.00000744,-0.00003171,0.00
 000548,-0.00000234,-0.00076561,-0.00031194,-0.00019777,-0.00067895,-0.
 00374803,-0.00173325,0.00008275,0.00007797,-0.00002962,-0.00015549,0.0
 0011439,0.00017401,0.00003836,0.00001302,0.00028303,0.00002377,-0.0000
 1010,-0.00001717,0.00000636,-0.00003982,0.00002595,0.00002092,0.000046
 63,-0.00008467,-0.00005691,-0.00053952,0.00011828,-0.00011236,-0.00143
 101,0.00038389,0.00009361,-0.00015523,-0.00024887,-0.00609646,-0.02575
 469,0.00214043,0.00091564,0.00060930,0.00060772,0.00270121,-0.01019830
 ,0.05622146\\0.00001126,0.00000138,-0.00000057,-0.00000657,-0.00000667
 ,0.00000042,0.00000117,0.00000547,-0.00000008,0.00001314,0.00000373,0.
 ,-0.00000203,-0.00000223,0.00000237,-0.00005847,-0.00001459,0.00000089
 ,0.00000036,-0.00000835,-0.00000017,-0.00000592,0.00000517,0.00000014,
 -0.00000227,0.00000095,-0.00000027,0.00002027,0.00001562,0.00000079,0.
 00006321,-0.00003894,-0.00000580,0.00001423,-0.00003828,-0.00000261,-0
 .00000838,-0.00001223,-0.00002093,-0.00000887,-0.00000986,0.00002235,-
 0.00002427,0.00003056,0.00006686,-0.00002505,0.00003126,-0.00006760,-0
 .00000358,-0.00000002,0.00000009,-0.00000045,0.00000221,-0.00000023,-0
 .00000019,-0.00000112,-0.00000012,-0.00000003,0.00000030,-0.00000018,0
 .00000020,-0.00000320,0.00000001,0.00000438,0.00000014,0.00000013,0.00
 000151,0.00005841,0.00000587,0.00000489,0.00000159,0.00000372,-0.00000
 238,-0.00000131,-0.00000205,-0.00000216,0.00000091,0.00000028,0.000004
 80,0.00000190,-0.00000357,-0.00000232,-0.00000181,0.00000188,-0.000000
 71,0.00000098,-0.00000145,-0.00000374,0.00000002,-0.00000004,0.0000013
 5,-0.00000814,-0.00000816,0.00000987,-0.00000265,-0.00000886,-0.000003
 90,-0.00000059,0.00000037,0.00001001,-0.00000245,0.00000862,0.00000062
 ,-0.00000814,0.00000790\\\@


 It takes a long time to grow an old friend.
                            -- John Leonard
 Job cpu time:       1 days 14 hours 16 minutes 52.2 seconds.
 File lengths (MBytes):  RWF= 134881 Int=      0 D2E=      0 Chk=     18 Scr=      1
 Normal termination of Gaussian 09 at Thu Dec 19 03:50:18 2024.
