 Entering Gaussian System, Link 0=g09
 Input=B3LYPDMAN.gjf
 Output=B3LYPDMAN.log
 Initial command:
 /home/phzd/g09E/g09/l1.exe "/home/phzd/g09E/scratch/Gau-615435.inp" -scrdir="/home/phzd/g09E/scratch/"
 Default is to use a total of  18 processors:
                               18 via shared-memory
                                1 via Linda
 Entering Link 1 = /home/phzd/g09E/g09/l1.exe PID=    615437.
  
 Copyright (c) 1988,1990,1992,1993,1995,1998,2003,2009,2015,
            Gaussian, Inc.  All Rights Reserved.
  
 This is part of the Gaussian(R) 09 program.  It is based on
 the Gaussian(R) 03 system (copyright 2003, Gaussian, Inc.),
 the Gaussian(R) 98 system (copyright 1998, Gaussian, Inc.),
 the Gaussian(R) 94 system (copyright 1995, Gaussian, Inc.),
 the Gaussian 92(TM) system (copyright 1992, Gaussian, Inc.),
 the Gaussian 90(TM) system (copyright 1990, Gaussian, Inc.),
 the Gaussian 88(TM) system (copyright 1988, Gaussian, Inc.),
 the Gaussian 86(TM) system (copyright 1986, Carnegie Mellon
 University), and the Gaussian 82(TM) system (copyright 1983,
 Carnegie Mellon University). Gaussian is a federally registered
 trademark of Gaussian, Inc.
  
 This software contains proprietary and confidential information,
 including trade secrets, belonging to Gaussian, Inc.
  
 This software is provided under written license and may be
 used, copied, transmitted, or stored only in accord with that
 written license.
  
 The following legend is applicable only to US Government
 contracts under FAR:
  
                    RESTRICTED RIGHTS LEGEND
  
 Use, reproduction and disclosure by the US Government is
 subject to restrictions as set forth in subparagraphs (a)
 and (c) of the Commercial Computer Software - Restricted
 Rights clause in FAR 52.227-19.
  
 Gaussian, Inc.
 340 Quinnipiac St., Bldg. 40, Wallingford CT 06492
  
  
 ---------------------------------------------------------------
 Warning -- This program may not be used in any manner that
 competes with the business of Gaussian, Inc. or will provide
 assistance to any competitor of Gaussian, Inc.  The licensee
 of this program is prohibited from giving any competitor of
 Gaussian, Inc. access to this program.  By using this program,
 the user acknowledges that Gaussian, Inc. is engaged in the
 business of creating and licensing software in the field of
 computational chemistry and represents and warrants to the
 licensee that it is not a competitor of Gaussian, Inc. and that
 it will not use this program in any manner prohibited above.
 ---------------------------------------------------------------
  

 Cite this work as:
 Gaussian 09, Revision E.01,
 M. J. Frisch, G. W. Trucks, H. B. Schlegel, G. E. Scuseria, 
 M. A. Robb, J. R. Cheeseman, G. Scalmani, V. Barone, B. Mennucci, 
 G. A. Petersson, H. Nakatsuji, M. Caricato, X. Li, H. P. Hratchian, 
 A. F. Izmaylov, J. Bloino, G. Zheng, J. L. Sonnenberg, M. Hada, 
 M. Ehara, K. Toyota, R. Fukuda, J. Hasegawa, M. Ishida, T. Nakajima, 
 Y. Honda, O. Kitao, H. Nakai, T. Vreven, J. A. Montgomery, Jr., 
 J. E. Peralta, F. Ogliaro, M. Bearpark, J. J. Heyd, E. Brothers, 
 K. N. Kudin, V. N. Staroverov, T. Keith, R. Kobayashi, J. Normand, 
 K. Raghavachari, A. Rendell, J. C. Burant, S. S. Iyengar, J. Tomasi, 
 M. Cossi, N. Rega, J. M. Millam, M. Klene, J. E. Knox, J. B. Cross, 
 V. Bakken, C. Adamo, J. Jaramillo, R. Gomperts, R. E. Stratmann, 
 O. Yazyev, A. J. Austin, R. Cammi, C. Pomelli, J. W. Ochterski, 
 R. L. Martin, K. Morokuma, V. G. Zakrzewski, G. A. Voth, 
 P. Salvador, J. J. Dannenberg, S. Dapprich, A. D. Daniels, 
 O. Farkas, J. B. Foresman, J. V. Ortiz, J. Cioslowski, 
 and D. J. Fox, Gaussian, Inc., Wallingford CT, 2013.
 
 ******************************************
 Gaussian 09:  ES64L-G09RevE.01 30-Nov-2015
                11-Jun-2024 
 ******************************************
 %chk=B3LYPDMAN.chk
 -------------------------------------
 # opt freq b3lyp/6-31+g(d,p) em=gd3bj
 -------------------------------------
 1/14=-1,18=20,19=15,26=3,38=1/1,3;
 2/9=110,12=2,17=6,18=5,40=1/2;
 3/5=1,6=6,7=111,11=2,16=1,25=1,30=1,71=1,74=-5,124=41/1,2,3;
 4//1;
 5/5=2,38=5/2;
 6/7=2,8=2,9=2,10=2,28=1/1;
 7//1,2,3,16;
 1/14=-1,18=20,19=15,26=3/3(2);
 2/9=110/2;
 99//99;
 2/9=110/2;
 3/5=1,6=6,7=111,11=2,16=1,25=1,30=1,71=1,74=-5,124=41/1,2,3;
 4/5=5,16=3,69=1/1;
 5/5=2,38=5/2;
 7//1,2,3,16;
 1/14=-1,18=20,19=15,26=3/3(-5);
 2/9=110/2;
 6/7=2,8=2,9=2,10=2,19=2,28=1/1;
 99/9=1/99;
 ----------
 [No Title]
 ----------
 Symbolic Z-matrix:
 Charge =  0 Multiplicity = 1
 C                    -2.00786  -0.94257  -1.14498 
 C                    -1.87654  -2.26045  -1.33668 
 C                    -0.9124   -2.90382  -0.67422 
 C                     0.01144  -2.19963   0.00014 
 C                     0.0044   -0.84399   0.00005 
 C                    -1.15466  -0.22688  -0.37716 
 C                     0.94258  -2.89406   0.67459 
 C                     1.89996  -2.24063   1.33696 
 C                     2.01756  -0.92146   1.14509 
 C                     1.15696  -0.2148    0.37719 
 N                    -1.49649   0.97053  -0.05081 
 N                     1.48631   0.98606   0.05069 
 C                    -0.92866   1.59098   1.18894 
 C                    -2.68602   1.63313  -0.65135 
 C                     2.66888   1.66108   0.65114 
 C                     0.91205   1.60041  -1.18914 
 H                    -2.93528  -0.53461  -1.57551 
 H                    -2.62784  -2.82784  -1.91209 
 H                    -0.88918  -4.00606  -0.72103 
 H                     0.93083  -3.9965    0.72154 
 H                     2.65714  -2.8001    1.91245 
 H                     2.94068  -0.50383   1.57557 
 H                    -0.40344   0.88943   1.87086 
 H                    -0.33053   2.50744   1.00554 
 H                    -1.78435   1.93745   1.81294 
 H                    -2.64498   1.63789  -1.76427 
 H                    -3.63711   1.19634  -0.26991 
 H                    -2.69497   2.70959  -0.36637 
 H                     2.62779   1.66555   1.76406 
 H                     3.62446   1.23417   0.26976 
 H                     2.66663   2.73755   0.36602 
 H                     0.39416   0.89334  -1.87096 
 H                     0.30441   2.51062  -1.00587 
 H                     1.76408   1.95568  -1.81319 
 

 GradGradGradGradGradGradGradGradGradGradGradGradGradGradGradGradGradGrad
 Berny optimization.
 Initialization pass.
                           ----------------------------
                           !    Initial Parameters    !
                           ! (Angstroms and Degrees)  !
 --------------------------                            --------------------------
 ! Name  Definition              Value          Derivative Info.                !
 --------------------------------------------------------------------------------
 ! R1    R(1,2)                  1.3382         estimate D2E/DX2                !
 ! R2    R(1,6)                  1.3527         estimate D2E/DX2                !
 ! R3    R(1,17)                 1.1009         estimate D2E/DX2                !
 ! R4    R(2,3)                  1.335          estimate D2E/DX2                !
 ! R5    R(2,18)                 1.1034         estimate D2E/DX2                !
 ! R6    R(3,4)                  1.3432         estimate D2E/DX2                !
 ! R7    R(3,19)                 1.1035         estimate D2E/DX2                !
 ! R8    R(4,5)                  1.3557         estimate D2E/DX2                !
 ! R9    R(4,7)                  1.3432         estimate D2E/DX2                !
 ! R10   R(5,6)                  1.3662         estimate D2E/DX2                !
 ! R11   R(5,10)                 1.3662         estimate D2E/DX2                !
 ! R12   R(6,11)                 1.2873         estimate D2E/DX2                !
 ! R13   R(7,8)                  1.335          estimate D2E/DX2                !
 ! R14   R(7,20)                 1.1035         estimate D2E/DX2                !
 ! R15   R(8,9)                  1.3382         estimate D2E/DX2                !
 ! R16   R(8,21)                 1.1034         estimate D2E/DX2                !
 ! R17   R(9,10)                 1.3527         estimate D2E/DX2                !
 ! R18   R(9,22)                 1.1008         estimate D2E/DX2                !
 ! R19   R(10,12)                1.2873         estimate D2E/DX2                !
 ! R20   R(11,13)                1.4981         estimate D2E/DX2                !
 ! R21   R(11,14)                1.4882         estimate D2E/DX2                !
 ! R22   R(12,15)                1.4882         estimate D2E/DX2                !
 ! R23   R(12,16)                1.4981         estimate D2E/DX2                !
 ! R24   R(13,23)                1.1104         estimate D2E/DX2                !
 ! R25   R(13,24)                1.1096         estimate D2E/DX2                !
 ! R26   R(13,25)                1.1143         estimate D2E/DX2                !
 ! R27   R(14,26)                1.1137         estimate D2E/DX2                !
 ! R28   R(14,27)                1.1139         estimate D2E/DX2                !
 ! R29   R(14,28)                1.1136         estimate D2E/DX2                !
 ! R30   R(15,29)                1.1137         estimate D2E/DX2                !
 ! R31   R(15,30)                1.1139         estimate D2E/DX2                !
 ! R32   R(15,31)                1.1136         estimate D2E/DX2                !
 ! R33   R(16,32)                1.1104         estimate D2E/DX2                !
 ! R34   R(16,33)                1.1096         estimate D2E/DX2                !
 ! R35   R(16,34)                1.1143         estimate D2E/DX2                !
 ! A1    A(2,1,6)              122.7162         estimate D2E/DX2                !
 ! A2    A(2,1,17)             113.0543         estimate D2E/DX2                !
 ! A3    A(6,1,17)             123.8688         estimate D2E/DX2                !
 ! A4    A(1,2,3)              118.3187         estimate D2E/DX2                !
 ! A5    A(1,2,18)             120.9509         estimate D2E/DX2                !
 ! A6    A(3,2,18)             120.1777         estimate D2E/DX2                !
 ! A7    A(2,3,4)              119.5507         estimate D2E/DX2                !
 ! A8    A(2,3,19)             118.3927         estimate D2E/DX2                !
 ! A9    A(4,3,19)             122.0399         estimate D2E/DX2                !
 ! A10   A(3,4,5)              121.3763         estimate D2E/DX2                !
 ! A11   A(3,4,7)              117.2489         estimate D2E/DX2                !
 ! A12   A(5,4,7)              121.3747         estimate D2E/DX2                !
 ! A13   A(4,5,6)              117.1368         estimate D2E/DX2                !
 ! A14   A(4,5,10)             117.1379         estimate D2E/DX2                !
 ! A15   A(6,5,10)             125.7253         estimate D2E/DX2                !
 ! A16   A(1,6,5)              116.9264         estimate D2E/DX2                !
 ! A17   A(1,6,11)             117.9414         estimate D2E/DX2                !
 ! A18   A(5,6,11)             125.13           estimate D2E/DX2                !
 ! A19   A(4,7,8)              119.5522         estimate D2E/DX2                !
 ! A20   A(4,7,20)             122.0389         estimate D2E/DX2                !
 ! A21   A(8,7,20)             118.3922         estimate D2E/DX2                !
 ! A22   A(7,8,9)              118.3181         estimate D2E/DX2                !
 ! A23   A(7,8,21)             120.1789         estimate D2E/DX2                !
 ! A24   A(9,8,21)             120.9502         estimate D2E/DX2                !
 ! A25   A(8,9,10)             122.7154         estimate D2E/DX2                !
 ! A26   A(8,9,22)             113.0537         estimate D2E/DX2                !
 ! A27   A(10,9,22)            123.8702         estimate D2E/DX2                !
 ! A28   A(5,10,9)             116.927          estimate D2E/DX2                !
 ! A29   A(5,10,12)            125.1304         estimate D2E/DX2                !
 ! A30   A(9,10,12)            117.9405         estimate D2E/DX2                !
 ! A31   A(6,11,13)            119.629          estimate D2E/DX2                !
 ! A32   A(6,11,14)            121.6075         estimate D2E/DX2                !
 ! A33   A(13,11,14)           116.9049         estimate D2E/DX2                !
 ! A34   A(10,12,15)           121.6078         estimate D2E/DX2                !
 ! A35   A(10,12,16)           119.6286         estimate D2E/DX2                !
 ! A36   A(15,12,16)           116.9049         estimate D2E/DX2                !
 ! A37   A(11,13,23)           115.2022         estimate D2E/DX2                !
 ! A38   A(11,13,24)           114.1791         estimate D2E/DX2                !
 ! A39   A(11,13,25)           107.5255         estimate D2E/DX2                !
 ! A40   A(23,13,24)           111.613          estimate D2E/DX2                !
 ! A41   A(23,13,25)           102.4609         estimate D2E/DX2                !
 ! A42   A(24,13,25)           104.459          estimate D2E/DX2                !
 ! A43   A(11,14,26)           112.0678         estimate D2E/DX2                !
 ! A44   A(11,14,27)           111.6972         estimate D2E/DX2                !
 ! A45   A(11,14,28)           109.4845         estimate D2E/DX2                !
 ! A46   A(26,14,27)           112.045          estimate D2E/DX2                !
 ! A47   A(26,14,28)           104.5903         estimate D2E/DX2                !
 ! A48   A(27,14,28)           106.5319         estimate D2E/DX2                !
 ! A49   A(12,15,29)           112.0679         estimate D2E/DX2                !
 ! A50   A(12,15,30)           111.6973         estimate D2E/DX2                !
 ! A51   A(12,15,31)           109.4849         estimate D2E/DX2                !
 ! A52   A(29,15,30)           112.0445         estimate D2E/DX2                !
 ! A53   A(29,15,31)           104.5901         estimate D2E/DX2                !
 ! A54   A(30,15,31)           106.5318         estimate D2E/DX2                !
 ! A55   A(12,16,32)           115.2022         estimate D2E/DX2                !
 ! A56   A(12,16,33)           114.1793         estimate D2E/DX2                !
 ! A57   A(12,16,34)           107.5258         estimate D2E/DX2                !
 ! A58   A(32,16,33)           111.6127         estimate D2E/DX2                !
 ! A59   A(32,16,34)           102.4607         estimate D2E/DX2                !
 ! A60   A(33,16,34)           104.459          estimate D2E/DX2                !
 ! D1    D(6,1,2,3)              4.2908         estimate D2E/DX2                !
 ! D2    D(6,1,2,18)           175.7786         estimate D2E/DX2                !
 ! D3    D(17,1,2,3)          -169.0543         estimate D2E/DX2                !
 ! D4    D(17,1,2,18)            2.4335         estimate D2E/DX2                !
 ! D5    D(2,1,6,5)             12.1689         estimate D2E/DX2                !
 ! D6    D(2,1,6,11)          -167.3249         estimate D2E/DX2                !
 ! D7    D(17,1,6,5)          -175.2097         estimate D2E/DX2                !
 ! D8    D(17,1,6,11)            5.2966         estimate D2E/DX2                !
 ! D9    D(1,2,3,4)             -9.776          estimate D2E/DX2                !
 ! D10   D(1,2,3,19)           171.6788         estimate D2E/DX2                !
 ! D11   D(18,2,3,4)           178.6682         estimate D2E/DX2                !
 ! D12   D(18,2,3,19)            0.123          estimate D2E/DX2                !
 ! D13   D(2,3,4,5)             -1.4441         estimate D2E/DX2                !
 ! D14   D(2,3,4,7)            178.5563         estimate D2E/DX2                !
 ! D15   D(19,3,4,5)           177.0462         estimate D2E/DX2                !
 ! D16   D(19,3,4,7)            -2.9535         estimate D2E/DX2                !
 ! D17   D(3,4,5,6)             17.9489         estimate D2E/DX2                !
 ! D18   D(3,4,5,10)          -162.0512         estimate D2E/DX2                !
 ! D19   D(7,4,5,6)           -162.0515         estimate D2E/DX2                !
 ! D20   D(7,4,5,10)            17.9484         estimate D2E/DX2                !
 ! D21   D(3,4,7,8)            178.5563         estimate D2E/DX2                !
 ! D22   D(3,4,7,20)            -2.9542         estimate D2E/DX2                !
 ! D23   D(5,4,7,8)             -1.4434         estimate D2E/DX2                !
 ! D24   D(5,4,7,20)           177.0462         estimate D2E/DX2                !
 ! D25   D(4,5,6,1)            -22.6345         estimate D2E/DX2                !
 ! D26   D(4,5,6,11)           156.8187         estimate D2E/DX2                !
 ! D27   D(10,5,6,1)           157.3656         estimate D2E/DX2                !
 ! D28   D(10,5,6,11)          -23.1812         estimate D2E/DX2                !
 ! D29   D(4,5,10,9)           -22.6346         estimate D2E/DX2                !
 ! D30   D(4,5,10,12)          156.8187         estimate D2E/DX2                !
 ! D31   D(6,5,10,9)           157.3653         estimate D2E/DX2                !
 ! D32   D(6,5,10,12)          -23.1814         estimate D2E/DX2                !
 ! D33   D(1,6,11,13)          155.0559         estimate D2E/DX2                !
 ! D34   D(1,6,11,14)           -8.942          estimate D2E/DX2                !
 ! D35   D(5,6,11,13)          -24.3923         estimate D2E/DX2                !
 ! D36   D(5,6,11,14)          171.6099         estimate D2E/DX2                !
 ! D37   D(4,7,8,9)             -9.7762         estimate D2E/DX2                !
 ! D38   D(4,7,8,21)           178.6681         estimate D2E/DX2                !
 ! D39   D(20,7,8,9)           171.6792         estimate D2E/DX2                !
 ! D40   D(20,7,8,21)            0.1235         estimate D2E/DX2                !
 ! D41   D(7,8,9,10)             4.2908         estimate D2E/DX2                !
 ! D42   D(7,8,9,22)          -169.0542         estimate D2E/DX2                !
 ! D43   D(21,8,9,10)          175.7786         estimate D2E/DX2                !
 ! D44   D(21,8,9,22)            2.4336         estimate D2E/DX2                !
 ! D45   D(8,9,10,5)            12.1688         estimate D2E/DX2                !
 ! D46   D(8,9,10,12)         -167.325          estimate D2E/DX2                !
 ! D47   D(22,9,10,5)         -175.21           estimate D2E/DX2                !
 ! D48   D(22,9,10,12)           5.2961         estimate D2E/DX2                !
 ! D49   D(5,10,12,15)         171.6103         estimate D2E/DX2                !
 ! D50   D(5,10,12,16)         -24.3923         estimate D2E/DX2                !
 ! D51   D(9,10,12,15)          -8.9415         estimate D2E/DX2                !
 ! D52   D(9,10,12,16)         155.0559         estimate D2E/DX2                !
 ! D53   D(6,11,13,23)         -12.4199         estimate D2E/DX2                !
 ! D54   D(6,11,13,24)         118.6918         estimate D2E/DX2                !
 ! D55   D(6,11,13,25)        -125.9165         estimate D2E/DX2                !
 ! D56   D(14,11,13,23)        152.3155         estimate D2E/DX2                !
 ! D57   D(14,11,13,24)        -76.5728         estimate D2E/DX2                !
 ! D58   D(14,11,13,25)         38.8189         estimate D2E/DX2                !
 ! D59   D(6,11,14,26)         -54.7019         estimate D2E/DX2                !
 ! D60   D(6,11,14,27)          71.9673         estimate D2E/DX2                !
 ! D61   D(6,11,14,28)        -170.2817         estimate D2E/DX2                !
 ! D62   D(13,11,14,26)        140.8859         estimate D2E/DX2                !
 ! D63   D(13,11,14,27)        -92.445          estimate D2E/DX2                !
 ! D64   D(13,11,14,28)         25.306          estimate D2E/DX2                !
 ! D65   D(10,12,15,29)        -54.7019         estimate D2E/DX2                !
 ! D66   D(10,12,15,30)         71.9669         estimate D2E/DX2                !
 ! D67   D(10,12,15,31)       -170.2818         estimate D2E/DX2                !
 ! D68   D(16,12,15,29)        140.8863         estimate D2E/DX2                !
 ! D69   D(16,12,15,30)        -92.4449         estimate D2E/DX2                !
 ! D70   D(16,12,15,31)         25.3064         estimate D2E/DX2                !
 ! D71   D(10,12,16,32)        -12.4196         estimate D2E/DX2                !
 ! D72   D(10,12,16,33)        118.6919         estimate D2E/DX2                !
 ! D73   D(10,12,16,34)       -125.9162         estimate D2E/DX2                !
 ! D74   D(15,12,16,32)        152.3154         estimate D2E/DX2                !
 ! D75   D(15,12,16,33)        -76.5731         estimate D2E/DX2                !
 ! D76   D(15,12,16,34)         38.8189         estimate D2E/DX2                !
 --------------------------------------------------------------------------------
 Trust Radius=3.00D-01 FncErr=1.00D-07 GrdErr=1.00D-06
 Number of steps in this run=    181 maximum allowed number of steps=    204.
 GradGradGradGradGradGradGradGradGradGradGradGradGradGradGradGradGradGrad

                          Input orientation:                          
 ---------------------------------------------------------------------
 Center     Atomic      Atomic             Coordinates (Angstroms)
 Number     Number       Type             X           Y           Z
 ---------------------------------------------------------------------
      1          6           0       -2.007861   -0.942573   -1.144976
      2          6           0       -1.876540   -2.260446   -1.336676
      3          6           0       -0.912398   -2.903817   -0.674216
      4          6           0        0.011442   -2.199633    0.000137
      5          6           0        0.004396   -0.843994    0.000054
      6          6           0       -1.154663   -0.226879   -0.377163
      7          6           0        0.942577   -2.894064    0.674585
      8          6           0        1.899963   -2.240628    1.336963
      9          6           0        2.017563   -0.921463    1.145095
     10          6           0        1.156956   -0.214801    0.377190
     11          7           0       -1.496490    0.970530   -0.050810
     12          7           0        1.486305    0.986062    0.050688
     13          6           0       -0.928662    1.590981    1.188940
     14          6           0       -2.686023    1.633129   -0.651350
     15          6           0        2.668879    1.661084    0.651138
     16          6           0        0.912051    1.600405   -1.189142
     17          1           0       -2.935278   -0.534611   -1.575507
     18          1           0       -2.627838   -2.827844   -1.912086
     19          1           0       -0.889180   -4.006063   -0.721030
     20          1           0        0.930828   -3.996497    0.721542
     21          1           0        2.657138   -2.800097    1.912451
     22          1           0        2.940677   -0.503833    1.575572
     23          1           0       -0.403438    0.889430    1.870856
     24          1           0       -0.330531    2.507444    1.005545
     25          1           0       -1.784349    1.937450    1.812935
     26          1           0       -2.644976    1.637885   -1.764266
     27          1           0       -3.637108    1.196344   -0.269911
     28          1           0       -2.694971    2.709593   -0.366369
     29          1           0        2.627791    1.665554    1.764055
     30          1           0        3.624460    1.234171    0.269755
     31          1           0        2.666628    2.737549    0.366023
     32          1           0        0.394158    0.893337   -1.870963
     33          1           0        0.304410    2.510616   -1.005872
     34          1           0        1.764082    1.955679   -1.813189
 ---------------------------------------------------------------------
                    Distance matrix (angstroms):
                    1          2          3          4          5
     1  C    0.000000
     2  C    1.338202   0.000000
     3  C    2.295241   1.335047   0.000000
     4  C    2.639899   2.314140   1.343171   0.000000
     5  C    2.317324   2.707601   2.353300   1.355657   0.000000
     6  C    1.352665   2.361602   2.704243   2.322480   1.366214
     7  C    3.977965   3.520520   2.293533   1.343178   2.353288
     8  C    4.807916   4.627171   3.520516   2.314151   2.707598
     9  C    4.631297   4.807921   3.977976   2.639918   2.317318
    10  C    3.586462   4.040309   3.552251   2.322483   1.366203
    11  N    2.262446   3.498156   3.967413   3.510896   2.355365
    12  N    4.166346   4.875789   4.627140   3.510901   2.355360
    13  C    3.609810   4.702201   4.865678   4.082377   2.865859
    14  C    2.708839   4.035450   4.871360   4.731894   3.714676
    15  C    5.645968   6.323815   5.951506   4.731903   3.714673
    16  C    3.872283   4.764890   4.886899   4.082373   2.865853
    17  H    1.100860   2.038743   3.243070   3.733378   3.349596
    18  H    2.127693   1.103397   2.116797   3.319193   3.810590
    19  H    3.288791   2.097875   1.103484   2.143453   3.364093
    20  H    4.631008   3.889916   2.557259   2.143459   3.364089
    21  H    5.878815   5.603774   4.409443   3.319218   3.810596
    22  H    5.664089   5.896818   5.066326   3.733383   3.349584
    23  H    3.876293   4.730752   4.596211   3.635110   2.582825
    24  H    4.397817   5.532533   5.695780   4.825388   3.515014
    25  H    4.134456   5.248893   5.512176   4.860716   3.771283
    26  H    2.729139   3.996287   4.981676   4.989611   4.036300
    27  H    2.827570   4.023305   4.939517   4.991743   4.182871
    28  H    3.796928   5.129582   5.897687   5.617784   4.477592
    29  H    6.062512   6.731791   6.273536   4.989625   4.036302
    30  H    6.201832   6.712225   6.212657   4.991753   4.182866
    31  H    6.138181   6.965595   6.761400   5.617798   4.477596
    32  H    3.109231   3.922739   4.190187   3.635100   2.582816
    33  H    4.158180   5.256330   5.559380   4.825384   3.515011
    34  H    4.803533   5.590787   5.663524   4.860711   3.771275
                    6          7          8          9         10
     6  C    0.000000
     7  C    3.552248   0.000000
     8  C    4.040316   1.335032   0.000000
     9  C    3.586465   2.295241   1.338222   0.000000
    10  C    2.431620   2.704229   2.361609   1.352662   0.000000
    11  N    1.287300   4.627130   4.875791   4.166341   2.937511
    12  N    2.937515   3.967400   3.498163   2.262435   1.287302
    13  C    2.410056   4.886893   4.764899   3.872278   2.875689
    14  C    2.424845   5.951497   6.323816   5.645961   4.386482
    15  C    4.386488   4.871349   4.035461   2.708829   2.424851
    16  C    2.875688   4.865661   4.702203   3.609797   2.410051
    17  H    2.168252   5.066329   5.896824   5.664094   4.545512
    18  H    3.360246   4.409435   5.603760   5.878809   5.137455
    19  H    3.804071   2.557267   3.889912   4.631019   4.445945
    20  H    4.445947   1.103495   2.097866   3.288803   3.804068
    21  H    5.137471   2.116805   1.103407   2.127712   3.360257
    22  H    4.545513   3.243052   2.038744   1.100847   2.168253
    23  H    2.619938   4.190185   3.922749   3.109230   2.425942
    24  H    3.172948   5.559373   5.256342   4.158175   3.165133
    25  H    3.142826   5.663523   5.590800   4.803533   3.917247
    26  H    2.760875   6.273523   6.731787   6.062501   4.740566
    27  H    2.863494   6.212650   6.712226   6.201827   5.039159
    28  H    3.315951   6.761384   6.965590   6.138165   4.893087
    29  H    4.740578   4.981667   3.996298   2.729129   2.760885
    30  H    5.039165   4.939505   4.023313   2.827560   2.863501
    31  H    4.893100   5.897680   5.129595   3.796921   3.315962
    32  H    2.425937   4.596192   4.730748   3.876280   2.619928
    33  H    3.165130   5.695767   5.532539   4.397808   3.172947
    34  H    3.917244   5.512159   5.248896   4.134446   3.142824
                   11         12         13         14         15
    11  N    0.000000
    12  N    2.984562   0.000000
    13  C    1.498122   2.737446   0.000000
    14  C    1.488178   4.280172   2.544948   0.000000
    15  C    4.280175   1.488179   3.638193   5.511101   0.000000
    16  C    2.737446   1.498120   3.007256   3.638190   2.544947
    17  H    2.580748   4.950490   4.023284   2.369661   6.417601
    18  H    4.378578   5.943445   5.659468   4.636067   7.401068
    19  H    5.058112   5.582095   5.914089   5.918951   6.830753
    20  H    5.582093   5.058112   5.907290   6.830749   5.918953
    21  H    5.943454   4.378586   5.715155   7.401077   4.636074
    22  H    4.950486   2.580747   4.416958   6.417596   2.369666
    23  H    2.212270   2.625543   1.110425   3.482069   3.394450
    24  H    2.199421   2.554848   1.109639   3.009663   3.136621
    25  H    2.119279   3.835079   1.114276   2.641652   4.610574
    26  H    2.168021   4.559212   3.416044   1.113683   5.837103
    27  H    2.163618   5.137739   3.101558   1.113930   6.389819
    28  H    2.135480   4.541758   2.605787   1.113584   5.559279
    29  H    4.559220   2.168024   3.603426   5.837110   1.113684
    30  H    5.137742   2.163621   4.658662   6.389820   1.113931
    31  H    4.541768   2.135487   3.862372   5.559286   1.113585
    32  H    2.625541   2.212267   3.405814   3.394446   3.482066
    33  H    2.554848   2.199423   2.680186   3.136616   3.009668
    34  H    3.835079   2.119282   4.049278   4.610569   2.641657
                   16         17         18         19         20
    16  C    0.000000
    17  H    4.416957   0.000000
    18  H    5.715142   2.338102   0.000000
    19  H    5.907287   4.119178   2.414487   0.000000
    20  H    5.914083   5.675197   4.578848   2.322398   0.000000
    21  H    5.659472   6.969462   6.523712   4.578859   2.414494
    22  H    4.023280   6.667615   6.969444   5.675192   4.119170
    23  H    3.405816   4.507275   5.751237   5.560546   5.193599
    24  H    2.680183   4.764518   6.500422   6.761577   6.631209
    25  H    4.049276   4.349398   6.106986   6.522856   6.616272
    26  H    3.603417   2.199919   4.468208   6.002109   7.121227
    27  H    4.658658   2.278893   4.462001   5.900818   6.986746
    28  H    3.862365   3.470536   5.749518   6.963239   7.700754
    29  H    3.416048   6.851360   7.831109   7.121234   6.002111
    30  H    3.101559   7.040152   7.768631   6.986748   5.900818
    31  H    2.605796   6.771848   8.012163   7.700763   6.963244
    32  H    1.110423   3.634759   4.793886   5.193594   5.560537
    33  H    1.109639   4.482574   6.157796   6.631206   6.761574
    34  H    1.114276   5.323723   6.494677   6.616266   6.522850
                   21         22         23         24         25
    21  H    0.000000
    22  H    2.338100   0.000000
    23  H    4.793899   3.634760   0.000000
    24  H    6.157811   4.482580   1.836314   0.000000
    25  H    6.494695   5.323728   1.734536   1.757942   0.000000
    26  H    7.831114   6.851350   4.335757   3.712767   3.691448
    27  H    7.768641   7.040147   3.890206   3.778786   2.884476
    28  H    8.012164   6.771837   3.683652   2.741093   2.484915
    29  H    4.468212   2.199924   3.130834   3.167931   4.420780
    30  H    4.462004   2.278898   4.348141   4.219546   5.668441
    31  H    5.749526   3.470543   3.886563   3.073255   4.748148
    32  H    5.751239   4.507266   3.825883   3.377101   4.405357
    33  H    6.500432   4.764521   3.377108   2.109255   3.554871
    34  H    6.106992   4.349400   4.405362   3.554871   5.073507
                   26         27         28         29         30
    26  H    0.000000
    27  H    1.847263   0.000000
    28  H    1.762150   1.785175   0.000000
    29  H    6.344437   6.603494   5.827565   0.000000
    30  H    6.603488   7.281692   6.520486   1.847261   0.000000
    31  H    5.827566   6.520492   5.411462   1.762151   1.785176
    32  H    3.130826   4.348136   3.886555   4.335757   3.890205
    33  H    3.167917   4.219540   3.073246   3.712779   3.778792
    34  H    4.420767   5.668435   4.748139   3.691455   2.884482
                   31         32         33         34
    31  H    0.000000
    32  H    3.683659   0.000000
    33  H    2.741107   1.836308   0.000000
    34  H    2.484930   1.734532   1.757941   0.000000
 Stoichiometry    C14H18N2
 Framework group  C1[X(C14H18N2)]
 Deg. of freedom    96
 Full point group                 C1      NOp   1
 Largest Abelian subgroup         C1      NOp   1
 Largest concise Abelian subgroup C1      NOp   1
                         Standard orientation:                         
 ---------------------------------------------------------------------
 Center     Atomic      Atomic             Coordinates (Angstroms)
 Number     Number       Type             X           Y           Z
 ---------------------------------------------------------------------
      1          6           0       -2.287733    0.638258    0.358536
      2          6           0       -2.239228    1.956785    0.581957
      3          6           0       -1.106195    2.605224    0.302471
      4          6           0       -0.000036    1.905918    0.000000
      5          6           0       -0.000005    0.550261    0.000001
      6          6           0       -1.214506   -0.072921   -0.056327
      7          6           0        1.106120    2.605245   -0.302471
      8          6           0        2.239166    1.956860   -0.581959
      9          6           0        2.287715    0.638314   -0.358537
     10          6           0        1.214503   -0.072883    0.056326
     11          7           0       -1.412820   -1.272075   -0.480403
     12          7           0        1.412859   -1.272033    0.480401
     13          6           0       -0.439920   -1.889469   -1.437826
     14          6           0       -2.734641   -1.940914   -0.338568
     15          6           0        2.734702   -1.940833    0.338572
     16          6           0        0.439978   -1.889450    1.437825
     17          1           0       -3.305485    0.225432    0.433684
     18          1           0       -3.148326    2.520215    0.853201
     19          1           0       -1.106457    3.707573    0.352507
     20          1           0        1.106343    3.707605   -0.352512
     21          1           0        3.148261    2.520313   -0.853205
     22          1           0        3.305473    0.225537   -0.433685
     23          1           0        0.289213   -1.185139   -1.890959
     24          1           0        0.059072   -2.802810   -1.052971
     25          1           0       -1.017653   -2.240356   -2.323666
     26          1           0       -3.090129   -1.945533    0.716845
     27          1           0       -3.491288   -1.509073   -1.032714
     28          1           0       -2.636865   -3.017391   -0.606350
     29          1           0        3.090197   -1.945441   -0.716840
     30          1           0        3.491336   -1.508965    1.032717
     31          1           0        2.636965   -3.017315    0.606353
     32          1           0       -0.289175   -1.185141    1.890953
     33          1           0       -0.058992   -2.802807    1.052978
     34          1           0        1.017716   -2.240316    2.323671
 ---------------------------------------------------------------------
 Rotational constants (GHZ):      0.6911234      0.6702888      0.3924099
 Standard basis: 6-31+G(d,p) (6D, 7F)
 There are   394 symmetry adapted cartesian basis functions of A   symmetry.
 There are   394 symmetry adapted basis functions of A   symmetry.
   394 basis functions,   638 primitive gaussians,   394 cartesian basis functions
    58 alpha electrons       58 beta electrons
       nuclear repulsion energy      1163.3355463277 Hartrees.
 NAtoms=   34 NActive=   34 NUniq=   34 SFac= 1.00D+00 NAtFMM=   60 NAOKFM=F Big=F
 Integral buffers will be    131072 words long.
 Raffenetti 2 integral format.
 Two-electron integral symmetry is turned on.
 Nuclear repulsion after empirical dispersion term =     1163.2590579387 Hartrees.
 One-electron integrals computed using PRISM.
 NBasis=   394 RedAO= T EigKep=  1.26D-06  NBF=   394
 NBsUse=   390 1.00D-06 EigRej=  8.73D-07 NBFU=   390
 ExpMin= 4.38D-02 ExpMax= 4.17D+03 ExpMxC= 6.27D+02 IAcc=2 IRadAn=         4 AccDes= 0.00D+00
 Harris functional with IExCor=  402 and IRadAn=       4 diagonalized for initial guess.
 HarFok:  IExCor=  402 AccDes= 0.00D+00 IRadAn=         4 IDoV= 1 UseB2=F ITyADJ=14
 ICtDFT=  3500011 ScaDFX=  1.000000  1.000000  1.000000  1.000000
 FoFCou: FMM=F IPFlag=           0 FMFlag=      100000 FMFlg1=           0
         NFxFlg=           0 DoJE=T BraDBF=F KetDBF=T FulRan=T
         wScrn=  0.000000 ICntrl=     500 IOpCl=  0 I1Cent=   200000004 NGrid=           0
         NMat0=    1 NMatS0=      1 NMatT0=    0 NMatD0=    1 NMtDS0=    0 NMtDT0=    0
 Petite list used in FoFCou.
 Requested convergence on RMS density matrix=1.00D-08 within 128 cycles.
 Requested convergence on MAX density matrix=1.00D-06.
 Requested convergence on             energy=1.00D-06.
 No special actions if energy rises.
 SCF Done:  E(RB3LYP) =  -653.824027417     A.U. after   16 cycles
            NFock= 16  Conv=0.58D-08     -V/T= 2.0068

 **********************************************************************

            Population analysis using the SCF density.

 **********************************************************************

 Orbital symmetries:
       Occupied  (A) (A) (A) (A) (A) (A) (A) (A) (A) (A) (A) (A)
                 (A) (A) (A) (A) (A) (A) (A) (A) (A) (A) (A) (A)
                 (A) (A) (A) (A) (A) (A) (A) (A) (A) (A) (A) (A)
                 (A) (A) (A) (A) (A) (A) (A) (A) (A) (A) (A) (A)
                 (A) (A) (A) (A) (A) (A) (A) (A) (A) (A)
       Virtual   (A) (A) (A) (A) (A) (A) (A) (A) (A) (A) (A) (A)
                 (A) (A) (A) (A) (A) (A) (A) (A) (A) (A) (A) (A)
                 (A) (A) (A) (A) (A) (A) (A) (A) (A) (A) (A) (A)
                 (A) (A) (A) (A) (A) (A) (A) (A) (A) (A) (A) (A)
                 (A) (A) (A) (A) (A) (A) (A) (A) (A) (A) (A) (A)
                 (A) (A) (A) (A) (A) (A) (A) (A) (A) (A) (A) (A)
                 (A) (A) (A) (A) (A) (A) (A) (A) (A) (A) (A) (A)
                 (A) (A) (A) (A) (A) (A) (A) (A) (A) (A) (A) (A)
                 (A) (A) (A) (A) (A) (A) (A) (A) (A) (A) (A) (A)
                 (A) (A) (A) (A) (A) (A) (A) (A) (A) (A) (A) (A)
                 (A) (A) (A) (A) (A) (A) (A) (A) (A) (A) (A) (A)
                 (A) (A) (A) (A) (A) (A) (A) (A) (A) (A) (A) (A)
                 (A) (A) (A) (A) (A) (A) (A) (A) (A) (A) (A) (A)
                 (A) (A) (A) (A) (A) (A) (A) (A) (A) (A) (A) (A)
                 (A) (A) (A) (A) (A) (A) (A) (A) (A) (A) (A) (A)
                 (A) (A) (A) (A) (A) (A) (A) (A) (A) (A) (A) (A)
                 (A) (A) (A) (A) (A) (A) (A) (A) (A) (A) (A) (A)
                 (A) (A) (A) (A) (A) (A) (A) (A) (A) (A) (A) (A)
                 (A) (A) (A) (A) (A) (A) (A) (A) (A) (A) (A) (A)
                 (A) (A) (A) (A) (A) (A) (A) (A) (A) (A) (A) (A)
                 (A) (A) (A) (A) (A) (A) (A) (A) (A) (A) (A) (A)
                 (A) (A) (A) (A) (A) (A) (A) (A) (A) (A) (A) (A)
                 (A) (A) (A) (A) (A) (A) (A) (A) (A) (A) (A) (A)
                 (A) (A) (A) (A) (A) (A) (A) (A) (A) (A) (A) (A)
                 (A) (A) (A) (A) (A) (A) (A) (A) (A) (A) (A) (A)
                 (A) (A) (A) (A) (A) (A) (A) (A) (A) (A) (A) (A)
                 (A) (A) (A) (A) (A) (A) (A) (A) (A) (A) (A) (A)
                 (A) (A) (A) (A) (A) (A) (A) (A)
 The electronic state is 1-A.
 Alpha  occ. eigenvalues --  -14.36069 -14.36069 -10.23362 -10.23362 -10.22564
 Alpha  occ. eigenvalues --  -10.22563 -10.20612 -10.20612 -10.16192 -10.15882
 Alpha  occ. eigenvalues --  -10.15882 -10.15649 -10.14939 -10.14939 -10.14359
 Alpha  occ. eigenvalues --  -10.14357  -0.98281  -0.95949  -0.87980  -0.82230
 Alpha  occ. eigenvalues --   -0.77377  -0.75153  -0.73253  -0.72209  -0.71855
 Alpha  occ. eigenvalues --   -0.67959  -0.65636  -0.60663  -0.60658  -0.56230
 Alpha  occ. eigenvalues --   -0.53020  -0.51350  -0.50884  -0.48567  -0.48247
 Alpha  occ. eigenvalues --   -0.46918  -0.45968  -0.45455  -0.43926  -0.42411
 Alpha  occ. eigenvalues --   -0.41459  -0.41294  -0.40783  -0.40691  -0.39134
 Alpha  occ. eigenvalues --   -0.38969  -0.38637  -0.37737  -0.36377  -0.34961
 Alpha  occ. eigenvalues --   -0.34622  -0.32668  -0.31781  -0.30566  -0.27404
 Alpha  occ. eigenvalues --   -0.23553  -0.20474  -0.15488
 Alpha virt. eigenvalues --   -0.01193  -0.00400   0.00306   0.00845   0.01620
 Alpha virt. eigenvalues --    0.01777   0.02694   0.02997   0.03657   0.03986
 Alpha virt. eigenvalues --    0.04701   0.04836   0.05362   0.05710   0.05757
 Alpha virt. eigenvalues --    0.06010   0.07122   0.07151   0.08049   0.08768
 Alpha virt. eigenvalues --    0.09452   0.09484   0.10034   0.10382   0.10678
 Alpha virt. eigenvalues --    0.11265   0.11337   0.12252   0.12401   0.13122
 Alpha virt. eigenvalues --    0.14017   0.14378   0.14737   0.15000   0.15538
 Alpha virt. eigenvalues --    0.16236   0.16740   0.17540   0.17663   0.18080
 Alpha virt. eigenvalues --    0.18236   0.18661   0.18668   0.19577   0.20058
 Alpha virt. eigenvalues --    0.20224   0.20359   0.20544   0.21239   0.21342
 Alpha virt. eigenvalues --    0.22383   0.22531   0.22861   0.23082   0.23228
 Alpha virt. eigenvalues --    0.23495   0.24364   0.24481   0.25906   0.26019
 Alpha virt. eigenvalues --    0.26264   0.26328   0.26493   0.27605   0.27867
 Alpha virt. eigenvalues --    0.27941   0.28129   0.28956   0.29459   0.29720
 Alpha virt. eigenvalues --    0.30090   0.30404   0.31303   0.31767   0.32555
 Alpha virt. eigenvalues --    0.32590   0.33404   0.33777   0.34398   0.34731
 Alpha virt. eigenvalues --    0.36628   0.36900   0.37372   0.37644   0.40046
 Alpha virt. eigenvalues --    0.40503   0.41176   0.41564   0.43014   0.43107
 Alpha virt. eigenvalues --    0.45550   0.45908   0.47649   0.48794   0.50552
 Alpha virt. eigenvalues --    0.53676   0.58435   0.61187   0.64725   0.65696
 Alpha virt. eigenvalues --    0.66835   0.68734   0.68856   0.70810   0.70872
 Alpha virt. eigenvalues --    0.72679   0.72762   0.73619   0.75298   0.75385
 Alpha virt. eigenvalues --    0.75448   0.76138   0.77444   0.78069   0.78518
 Alpha virt. eigenvalues --    0.79546   0.79620   0.80778   0.81583   0.81585
 Alpha virt. eigenvalues --    0.82087   0.82154   0.83146   0.85447   0.86522
 Alpha virt. eigenvalues --    0.88010   0.88840   0.90117   0.90801   0.90965
 Alpha virt. eigenvalues --    0.91462   0.92914   0.93452   0.94106   0.94634
 Alpha virt. eigenvalues --    0.95111   0.95689   0.96555   0.97953   0.98187
 Alpha virt. eigenvalues --    0.99354   0.99993   1.01726   1.01962   1.03768
 Alpha virt. eigenvalues --    1.03969   1.05093   1.06665   1.07853   1.08792
 Alpha virt. eigenvalues --    1.09654   1.10115   1.11193   1.13757   1.13776
 Alpha virt. eigenvalues --    1.14357   1.17472   1.18634   1.18683   1.21175
 Alpha virt. eigenvalues --    1.21460   1.22257   1.23099   1.24850   1.26869
 Alpha virt. eigenvalues --    1.27402   1.29563   1.30587   1.30949   1.31309
 Alpha virt. eigenvalues --    1.35057   1.37075   1.37651   1.39650   1.40112
 Alpha virt. eigenvalues --    1.41703   1.44066   1.44140   1.46936   1.47259
 Alpha virt. eigenvalues --    1.51693   1.52566   1.52702   1.55357   1.58585
 Alpha virt. eigenvalues --    1.59024   1.63329   1.64227   1.66889   1.68734
 Alpha virt. eigenvalues --    1.70816   1.74534   1.75152   1.75358   1.79527
 Alpha virt. eigenvalues --    1.79756   1.80083   1.84588   1.86195   1.86251
 Alpha virt. eigenvalues --    1.88444   1.90348   1.91248   1.91681   1.91865
 Alpha virt. eigenvalues --    1.92249   1.95242   1.95890   1.96927   1.97376
 Alpha virt. eigenvalues --    1.99231   1.99460   2.00469   2.01078   2.04662
 Alpha virt. eigenvalues --    2.05638   2.07528   2.07878   2.08776   2.09598
 Alpha virt. eigenvalues --    2.09677   2.10270   2.10741   2.12189   2.12572
 Alpha virt. eigenvalues --    2.14336   2.14697   2.15787   2.19246   2.21760
 Alpha virt. eigenvalues --    2.21904   2.24096   2.24705   2.26653   2.27821
 Alpha virt. eigenvalues --    2.27904   2.32107   2.33258   2.35092   2.35954
 Alpha virt. eigenvalues --    2.36586   2.38616   2.40523   2.41158   2.42339
 Alpha virt. eigenvalues --    2.44179   2.45049   2.45054   2.48266   2.48590
 Alpha virt. eigenvalues --    2.48796   2.49020   2.50680   2.53373   2.53926
 Alpha virt. eigenvalues --    2.55277   2.55582   2.57960   2.59896   2.61008
 Alpha virt. eigenvalues --    2.61694   2.62142   2.64134   2.64722   2.66058
 Alpha virt. eigenvalues --    2.67852   2.69280   2.70548   2.70861   2.72246
 Alpha virt. eigenvalues --    2.73282   2.73893   2.75114   2.75468   2.77959
 Alpha virt. eigenvalues --    2.78552   2.79244   2.79459   2.80963   2.83612
 Alpha virt. eigenvalues --    2.84549   2.84645   2.86199   2.87827   2.88418
 Alpha virt. eigenvalues --    2.92475   2.94688   2.98910   2.99318   3.10497
 Alpha virt. eigenvalues --    3.11359   3.15900   3.16681   3.17556   3.21803
 Alpha virt. eigenvalues --    3.21880   3.23339   3.25411   3.27437   3.27928
 Alpha virt. eigenvalues --    3.30807   3.31312   3.40395   3.40739   3.41111
 Alpha virt. eigenvalues --    3.42405   3.46347   3.47265   3.48114   3.49740
 Alpha virt. eigenvalues --    3.50135   3.53669   3.54660   3.61630   3.94081
 Alpha virt. eigenvalues --    3.97786   4.34908   4.37163   4.37260   4.44094
 Alpha virt. eigenvalues --    4.45326   4.46796   4.50896   4.56311   4.58336
 Alpha virt. eigenvalues --    4.61006   4.61094   4.66621   4.69017   4.75520
 Alpha virt. eigenvalues --    4.82152   5.07387
          Condensed to atoms (all electrons):
               1          2          3          4          5          6
     1  C   12.589664  -0.361551  -4.682476   0.793317  -1.100524  -0.831625
     2  C   -0.361551   8.690412   0.328610  -0.684756  -1.390023  -0.440224
     3  C   -4.682476   0.328610  13.002059  -2.758196   1.535434  -1.213879
     4  C    0.793317  -0.684756  -2.758196  10.660442   3.531053  -1.391080
     5  C   -1.100524  -1.390023   1.535434   3.531053  19.203936  -6.335866
     6  C   -0.831625  -0.440224  -1.213879  -1.391080  -6.335866  12.942378
     7  C   -0.752591  -0.154799   2.989848  -2.758201   1.535553  -2.275023
     8  C   -0.206351  -0.236935  -0.155013  -0.684578  -1.389893   0.378910
     9  C   -0.021116  -0.206410  -0.752156   0.793283  -1.099204   0.738256
    10  C    0.738872   0.378549  -2.274273  -1.390894  -6.334443   4.695866
    11  N    0.156563   0.092463  -0.188148  -0.045208  -0.875408  -0.017408
    12  N   -0.017180   0.060594   0.023496  -0.045239  -0.875516  -0.017525
    13  C   -0.194583   0.019063   0.091818  -0.009417  -0.099003  -0.184636
    14  C    0.067021   0.016142  -0.095164  -0.057448  -0.354218  -0.018904
    15  C    0.039222   0.011779  -0.053848  -0.057440  -0.354141   0.140439
    16  C   -0.016186   0.054779  -0.015745  -0.009413  -0.098994  -0.291853
    17  H    0.096281   0.151513   0.144272   0.039544   0.046094  -0.104462
    18  H    0.039341   0.263390  -0.040402   0.028682   0.017268   0.015049
    19  H    0.086857   0.039617   0.226598  -0.004844   0.026166   0.012558
    20  H   -0.006208   0.001693  -0.105510  -0.004852   0.026168   0.010235
    21  H    0.000893  -0.001398  -0.022391   0.028677   0.017269   0.006682
    22  H   -0.001693   0.000302   0.027654   0.039544   0.046065  -0.036874
    23  H   -0.042529  -0.008208   0.013170   0.032596   0.064437  -0.046527
    24  H   -0.025514  -0.006995   0.005344   0.024113   0.200556  -0.083060
    25  H    0.031800   0.007320  -0.009141  -0.026794  -0.164076   0.062751
    26  H    0.036942  -0.021155  -0.010769   0.000883   0.014158  -0.026372
    27  H    0.091909   0.064550  -0.003462  -0.006294  -0.062342  -0.149554
    28  H   -0.089685  -0.021664   0.002575   0.000589   0.024645   0.103822
    29  H   -0.000949  -0.000332  -0.000063   0.000884   0.014166  -0.004877
    30  H    0.000656   0.000175  -0.000971  -0.006295  -0.062335   0.009758
    31  H    0.001136   0.000221  -0.000427   0.000589   0.024640   0.003635
    32  H    0.019220  -0.006701  -0.014435   0.032590   0.064403  -0.043835
    33  H   -0.012889  -0.006302   0.004792   0.024114   0.200555  -0.056921
    34  H    0.003266   0.005995  -0.002759  -0.026794  -0.164063   0.071677
               7          8          9         10         11         12
     1  C   -0.752591  -0.206351  -0.021116   0.738872   0.156563  -0.017180
     2  C   -0.154799  -0.236935  -0.206410   0.378549   0.092463   0.060594
     3  C    2.989848  -0.155013  -0.752156  -2.274273  -0.188148   0.023496
     4  C   -2.758201  -0.684578   0.793283  -1.390894  -0.045208  -0.045239
     5  C    1.535553  -1.389893  -1.099204  -6.334443  -0.875408  -0.875516
     6  C   -2.275023   0.378910   0.738256   4.695866  -0.017408  -0.017525
     7  C   13.002970   0.327972  -4.682052  -1.213655   0.023492  -0.188167
     8  C    0.327972   8.690057  -0.361367  -0.439983   0.060582   0.092477
     9  C   -4.682052  -0.361367  12.588936  -0.832485  -0.017190   0.156528
    10  C   -1.213655  -0.439983  -0.832485  12.940177  -0.017632  -0.017352
    11  N    0.023492   0.060582  -0.017190  -0.017632   7.776876   0.041471
    12  N   -0.188167   0.092477   0.156528  -0.017352   0.041471   7.776874
    13  C   -0.015742   0.054781  -0.016174  -0.291848   0.171811   0.186298
    14  C   -0.053860   0.011781   0.039213   0.140423   0.135086   0.016675
    15  C   -0.095171   0.016134   0.066950  -0.018913   0.016669   0.135078
    16  C    0.091809   0.019063  -0.194572  -0.184632   0.186302   0.171815
    17  H    0.027657   0.000302  -0.001692  -0.036874  -0.046877  -0.000037
    18  H   -0.022396  -0.001398   0.000893   0.006684  -0.001781   0.000020
    19  H   -0.105517   0.001693  -0.006210   0.010232   0.000256  -0.000081
    20  H    0.226580   0.039637   0.086854   0.012552  -0.000081   0.000256
    21  H   -0.040389   0.263385   0.039334   0.015049   0.000020  -0.001782
    22  H    0.144282   0.151505   0.096319  -0.104468  -0.000037  -0.046877
    23  H   -0.014430  -0.006703   0.019223  -0.043846  -0.044453  -0.009197
    24  H    0.004793  -0.006302  -0.012879  -0.056907  -0.062005  -0.020978
    25  H   -0.002760   0.005996   0.003260   0.071664  -0.066470  -0.000423
    26  H   -0.000064  -0.000332  -0.000949  -0.004873  -0.052721  -0.001156
    27  H   -0.000971   0.000175   0.000656   0.009754  -0.040508   0.000352
    28  H   -0.000427   0.000221   0.001136   0.003635  -0.076835  -0.000278
    29  H   -0.010768  -0.021158   0.036935  -0.026369  -0.001156  -0.052721
    30  H   -0.003464   0.064545   0.091897  -0.149545   0.000352  -0.040508
    31  H    0.002575  -0.021662  -0.089679   0.103818  -0.000278  -0.076834
    32  H    0.013168  -0.008207  -0.042521  -0.046498  -0.009197  -0.044455
    33  H    0.005345  -0.006995  -0.025505  -0.083039  -0.020977  -0.062008
    34  H   -0.009142   0.007320   0.031785   0.062732  -0.000424  -0.066467
              13         14         15         16         17         18
     1  C   -0.194583   0.067021   0.039222  -0.016186   0.096281   0.039341
     2  C    0.019063   0.016142   0.011779   0.054779   0.151513   0.263390
     3  C    0.091818  -0.095164  -0.053848  -0.015745   0.144272  -0.040402
     4  C   -0.009417  -0.057448  -0.057440  -0.009413   0.039544   0.028682
     5  C   -0.099003  -0.354218  -0.354141  -0.098994   0.046094   0.017268
     6  C   -0.184636  -0.018904   0.140439  -0.291853  -0.104462   0.015049
     7  C   -0.015742  -0.053860  -0.095171   0.091809   0.027657  -0.022396
     8  C    0.054781   0.011781   0.016134   0.019063   0.000302  -0.001398
     9  C   -0.016174   0.039213   0.066950  -0.194572  -0.001692   0.000893
    10  C   -0.291848   0.140423  -0.018913  -0.184632  -0.036874   0.006684
    11  N    0.171811   0.135086   0.016669   0.186302  -0.046877  -0.001781
    12  N    0.186298   0.016675   0.135078   0.171815  -0.000037   0.000020
    13  C    5.368398  -0.039121   0.004949  -0.043613  -0.005063   0.000296
    14  C   -0.039121   5.204580   0.002585   0.004950  -0.014556  -0.000545
    15  C    0.004949   0.002585   5.204567  -0.039124  -0.000148   0.000019
    16  C   -0.043613   0.004950  -0.039124   5.368403  -0.000670  -0.000301
    17  H   -0.005063  -0.014556  -0.000148  -0.000670   0.615744  -0.008472
    18  H    0.000296  -0.000545   0.000019  -0.000301  -0.008472   0.600364
    19  H   -0.000412   0.000532  -0.000054   0.000060  -0.000320  -0.005942
    20  H    0.000060  -0.000054   0.000531  -0.000412   0.000000  -0.000019
    21  H   -0.000301   0.000019  -0.000545   0.000296  -0.000000  -0.000000
    22  H   -0.000670  -0.000148  -0.014554  -0.005064  -0.000000  -0.000000
    23  H    0.436892   0.003911   0.000498   0.000422   0.000000   0.000000
    24  H    0.396962  -0.006893  -0.005502  -0.006109  -0.000007  -0.000000
    25  H    0.420603   0.007302   0.000104  -0.000465  -0.000012  -0.000000
    26  H   -0.001160   0.422446  -0.000115  -0.001193  -0.003897  -0.000002
    27  H    0.006699   0.433008   0.000285   0.003003  -0.003208   0.000006
    28  H    0.001270   0.407178  -0.000569  -0.004991   0.000782  -0.000000
    29  H   -0.001192  -0.000115   0.422445  -0.001160  -0.000000   0.000000
    30  H    0.003003   0.000285   0.433006   0.006700   0.000000  -0.000000
    31  H   -0.004991  -0.000569   0.407179   0.001269  -0.000000   0.000000
    32  H    0.000422   0.000498   0.003911   0.436889  -0.000081  -0.000002
    33  H   -0.006108  -0.005503  -0.006891   0.396959  -0.000008   0.000000
    34  H   -0.000466   0.000104   0.007300   0.420606   0.000002  -0.000000
              19         20         21         22         23         24
     1  C    0.086857  -0.006208   0.000893  -0.001693  -0.042529  -0.025514
     2  C    0.039617   0.001693  -0.001398   0.000302  -0.008208  -0.006995
     3  C    0.226598  -0.105510  -0.022391   0.027654   0.013170   0.005344
     4  C   -0.004844  -0.004852   0.028677   0.039544   0.032596   0.024113
     5  C    0.026166   0.026168   0.017269   0.046065   0.064437   0.200556
     6  C    0.012558   0.010235   0.006682  -0.036874  -0.046527  -0.083060
     7  C   -0.105517   0.226580  -0.040389   0.144282  -0.014430   0.004793
     8  C    0.001693   0.039637   0.263385   0.151505  -0.006703  -0.006302
     9  C   -0.006210   0.086854   0.039334   0.096319   0.019223  -0.012879
    10  C    0.010232   0.012552   0.015049  -0.104468  -0.043846  -0.056907
    11  N    0.000256  -0.000081   0.000020  -0.000037  -0.044453  -0.062005
    12  N   -0.000081   0.000256  -0.001782  -0.046877  -0.009197  -0.020978
    13  C   -0.000412   0.000060  -0.000301  -0.000670   0.436892   0.396962
    14  C    0.000532  -0.000054   0.000019  -0.000148   0.003911  -0.006893
    15  C   -0.000054   0.000531  -0.000545  -0.014554   0.000498  -0.005502
    16  C    0.000060  -0.000412   0.000296  -0.005064   0.000422  -0.006109
    17  H   -0.000320   0.000000  -0.000000  -0.000000   0.000000  -0.000007
    18  H   -0.005942  -0.000019  -0.000000  -0.000000   0.000000  -0.000000
    19  H    0.607364   0.002113  -0.000019   0.000000  -0.000000  -0.000000
    20  H    0.002113   0.607368  -0.005942  -0.000320  -0.000001  -0.000000
    21  H   -0.000019  -0.005942   0.600362  -0.008471  -0.000002   0.000000
    22  H    0.000000  -0.000320  -0.008471   0.615742  -0.000081  -0.000008
    23  H   -0.000000  -0.000001  -0.000002  -0.000081   0.525181  -0.027769
    24  H   -0.000000  -0.000000   0.000000  -0.000008  -0.027769   0.582848
    25  H    0.000000   0.000000  -0.000000   0.000002  -0.026968  -0.046855
    26  H    0.000000  -0.000000   0.000000  -0.000000  -0.000150   0.000403
    27  H    0.000000   0.000000  -0.000000   0.000000   0.000002  -0.000539
    28  H   -0.000000   0.000000   0.000000  -0.000000   0.000253   0.001558
    29  H   -0.000000   0.000000  -0.000002  -0.003897   0.000699   0.000217
    30  H    0.000000   0.000000   0.000006  -0.003208  -0.000073  -0.000048
    31  H    0.000000  -0.000000  -0.000000   0.000782   0.000030   0.000378
    32  H   -0.000001  -0.000000   0.000000   0.000000  -0.000136   0.000707
    33  H   -0.000000  -0.000000  -0.000000  -0.000007   0.000707   0.006901
    34  H    0.000000   0.000000  -0.000000  -0.000012  -0.000049  -0.000415
              25         26         27         28         29         30
     1  C    0.031800   0.036942   0.091909  -0.089685  -0.000949   0.000656
     2  C    0.007320  -0.021155   0.064550  -0.021664  -0.000332   0.000175
     3  C   -0.009141  -0.010769  -0.003462   0.002575  -0.000063  -0.000971
     4  C   -0.026794   0.000883  -0.006294   0.000589   0.000884  -0.006295
     5  C   -0.164076   0.014158  -0.062342   0.024645   0.014166  -0.062335
     6  C    0.062751  -0.026372  -0.149554   0.103822  -0.004877   0.009758
     7  C   -0.002760  -0.000064  -0.000971  -0.000427  -0.010768  -0.003464
     8  C    0.005996  -0.000332   0.000175   0.000221  -0.021158   0.064545
     9  C    0.003260  -0.000949   0.000656   0.001136   0.036935   0.091897
    10  C    0.071664  -0.004873   0.009754   0.003635  -0.026369  -0.149545
    11  N   -0.066470  -0.052721  -0.040508  -0.076835  -0.001156   0.000352
    12  N   -0.000423  -0.001156   0.000352  -0.000278  -0.052721  -0.040508
    13  C    0.420603  -0.001160   0.006699   0.001270  -0.001192   0.003003
    14  C    0.007302   0.422446   0.433008   0.407178  -0.000115   0.000285
    15  C    0.000104  -0.000115   0.000285  -0.000569   0.422445   0.433006
    16  C   -0.000465  -0.001193   0.003003  -0.004991  -0.001160   0.006700
    17  H   -0.000012  -0.003897  -0.003208   0.000782  -0.000000   0.000000
    18  H   -0.000000  -0.000002   0.000006  -0.000000   0.000000  -0.000000
    19  H    0.000000   0.000000   0.000000  -0.000000  -0.000000   0.000000
    20  H    0.000000  -0.000000   0.000000   0.000000   0.000000   0.000000
    21  H   -0.000000   0.000000  -0.000000   0.000000  -0.000002   0.000006
    22  H    0.000002  -0.000000   0.000000  -0.000000  -0.003897  -0.003208
    23  H   -0.026968  -0.000150   0.000002   0.000253   0.000699  -0.000073
    24  H   -0.046855   0.000403  -0.000539   0.001558   0.000217  -0.000048
    25  H    0.605375  -0.000069   0.002495  -0.002055  -0.000009   0.000001
    26  H   -0.000069   0.549938  -0.033957  -0.026944  -0.000000   0.000000
    27  H    0.002495  -0.033957   0.563191  -0.033017   0.000000  -0.000000
    28  H   -0.002055  -0.026944  -0.033017   0.566871  -0.000000   0.000000
    29  H   -0.000009  -0.000000   0.000000  -0.000000   0.549939  -0.033957
    30  H    0.000001   0.000000  -0.000000   0.000000  -0.033957   0.563193
    31  H    0.000001  -0.000000   0.000000   0.000000  -0.026944  -0.033017
    32  H   -0.000049   0.000699  -0.000073   0.000030  -0.000150   0.000002
    33  H   -0.000415   0.000217  -0.000048   0.000378   0.000403  -0.000539
    34  H    0.000007  -0.000009   0.000001   0.000001  -0.000069   0.002495
              31         32         33         34
     1  C    0.001136   0.019220  -0.012889   0.003266
     2  C    0.000221  -0.006701  -0.006302   0.005995
     3  C   -0.000427  -0.014435   0.004792  -0.002759
     4  C    0.000589   0.032590   0.024114  -0.026794
     5  C    0.024640   0.064403   0.200555  -0.164063
     6  C    0.003635  -0.043835  -0.056921   0.071677
     7  C    0.002575   0.013168   0.005345  -0.009142
     8  C   -0.021662  -0.008207  -0.006995   0.007320
     9  C   -0.089679  -0.042521  -0.025505   0.031785
    10  C    0.103818  -0.046498  -0.083039   0.062732
    11  N   -0.000278  -0.009197  -0.020977  -0.000424
    12  N   -0.076834  -0.044455  -0.062008  -0.066467
    13  C   -0.004991   0.000422  -0.006108  -0.000466
    14  C   -0.000569   0.000498  -0.005503   0.000104
    15  C    0.407179   0.003911  -0.006891   0.007300
    16  C    0.001269   0.436889   0.396959   0.420606
    17  H   -0.000000  -0.000081  -0.000008   0.000002
    18  H    0.000000  -0.000002   0.000000  -0.000000
    19  H    0.000000  -0.000001  -0.000000   0.000000
    20  H   -0.000000  -0.000000  -0.000000   0.000000
    21  H   -0.000000   0.000000  -0.000000  -0.000000
    22  H    0.000782   0.000000  -0.000007  -0.000012
    23  H    0.000030  -0.000136   0.000707  -0.000049
    24  H    0.000378   0.000707   0.006901  -0.000415
    25  H    0.000001  -0.000049  -0.000415   0.000007
    26  H   -0.000000   0.000699   0.000217  -0.000009
    27  H    0.000000  -0.000073  -0.000048   0.000001
    28  H    0.000000   0.000030   0.000378   0.000001
    29  H   -0.026944  -0.000150   0.000403  -0.000069
    30  H   -0.033017   0.000002  -0.000539   0.002495
    31  H    0.566871   0.000253   0.001558  -0.002055
    32  H    0.000253   0.525182  -0.027770  -0.026968
    33  H    0.001558  -0.027770   0.582851  -0.046855
    34  H   -0.002055  -0.026968  -0.046855   0.605375
 Mulliken charges:
               1
     1  C   -0.429310
     2  C   -0.639715
     3  C    0.003556
     4  C   -0.063159
     5  C    0.167485
     6  C    0.378492
     7  C    0.003545
     8  C   -0.639659
     9  C   -0.429299
    10  C    0.378522
    11  N   -0.077150
    12  N   -0.077152
    13  C   -0.248823
    14  C   -0.266640
    15  C   -0.266632
    16  C   -0.248830
    17  H    0.104190
    18  H    0.109249
    19  H    0.109353
    20  H    0.109351
    21  H    0.109249
    22  H    0.104191
    23  H    0.173103
    24  H    0.144003
    25  H    0.127881
    26  H    0.160202
    27  H    0.157887
    28  H    0.141520
    29  H    0.160201
    30  H    0.157886
    31  H    0.141520
    32  H    0.173102
    33  H    0.144001
    34  H    0.127881
 Sum of Mulliken charges =  -0.00000
 Mulliken charges with hydrogens summed into heavy atoms:
               1
     1  C   -0.325119
     2  C   -0.530466
     3  C    0.112910
     4  C   -0.063159
     5  C    0.167485
     6  C    0.378492
     7  C    0.112896
     8  C   -0.530409
     9  C   -0.325109
    10  C    0.378522
    11  N   -0.077150
    12  N   -0.077152
    13  C    0.196164
    14  C    0.192969
    15  C    0.192974
    16  C    0.196154
 Electronic spatial extent (au):  <R**2>=           3093.5345
 Charge=             -0.0000 electrons
 Dipole moment (field-independent basis, Debye):
    X=             -0.0000    Y=             -4.3969    Z=             -0.0000  Tot=              4.3969
 Quadrupole moment (field-independent basis, Debye-Ang):
   XX=            -90.9337   YY=            -92.8749   ZZ=            -99.6246
   XY=              0.0000   XZ=              0.2452   YZ=              0.0001
 Traceless Quadrupole moment (field-independent basis, Debye-Ang):
   XX=              3.5441   YY=              1.6028   ZZ=             -5.1469
   XY=              0.0000   XZ=              0.2452   YZ=              0.0001
 Octapole moment (field-independent basis, Debye-Ang**2):
  XXX=              0.0008  YYY=            -22.3181  ZZZ=             -0.0000  XYY=             -0.0007
  XXY=            -19.9256  XXZ=              0.0000  XZZ=              0.0000  YZZ=            -16.2304
  YYZ=             -0.0002  XYZ=             -5.0320
 Hexadecapole moment (field-independent basis, Debye-Ang**3):
 XXXX=          -1907.4234 YYYY=          -1878.4215 ZZZZ=           -431.9687 XXXY=             -0.0001
 XXXZ=             -9.7729 YYYX=             -0.0008 YYYZ=              0.0005 ZZZX=             15.9431
 ZZZY=              0.0006 XXYY=           -618.0266 XXZZ=           -417.6584 YYZZ=           -410.9394
 XXYZ=             -0.0001 YYXZ=             -4.6783 ZZXY=              0.0001
 N-N= 1.163259057939D+03 E-N=-3.842083926841D+03  KE= 6.494077268393D+02
 Calling FoFJK, ICntrl=      2127 FMM=F ISym2X=0 I1Cent= 0 IOpClX= 0 NMat=1 NMatS=1 NMatT=0.
 ***** Axes restored to original set *****
 -------------------------------------------------------------------
 Center     Atomic                   Forces (Hartrees/Bohr)
 Number     Number              X              Y              Z
 -------------------------------------------------------------------
      1        6          -0.065343612    0.029678238   -0.038764025
      2        6          -0.030789511   -0.051243715   -0.029498065
      3        6          -0.028674175   -0.076278975   -0.027258016
      4        6           0.000168081   -0.030739815    0.000006346
      5        6          -0.000102168    0.017198934   -0.000005804
      6        6          -0.021113469   -0.033659589   -0.033646599
      7        6           0.029453680   -0.075988907    0.027260396
      8        6           0.031334576   -0.050889071    0.029509592
      9        6           0.065023352    0.030333892    0.038762031
     10        6           0.021476355   -0.033426337    0.033655642
     11        7          -0.013047385    0.117780667    0.046709558
     12        7           0.011818650    0.117905361   -0.046726061
     13        6          -0.030588164    0.012200892    0.011671973
     14        6           0.009226936    0.013261714    0.010613636
     15        6          -0.009363631    0.013162881   -0.010614184
     16        6           0.030459697    0.012518513   -0.011674053
     17        1           0.011536983    0.004958675    0.008261549
     18        1           0.007258539    0.007224385    0.003199925
     19        1           0.004808061    0.010689280    0.004272534
     20        1          -0.004918749    0.010643912   -0.004274276
     21        1          -0.007338073    0.007149659   -0.003204312
     22        1          -0.011582272    0.004841652   -0.008260216
     23        1          -0.002792716    0.004380608   -0.018230043
     24        1          -0.000875325   -0.011853013   -0.001896881
     25        1           0.003274903   -0.002097742   -0.007231230
     26        1          -0.000744195   -0.007285981    0.012974009
     27        1           0.008212381    0.000986245   -0.007781340
     28        1           0.003944582   -0.012735206    0.001145839
     29        1           0.000819472   -0.007279540   -0.012973707
     30        1          -0.008222987    0.000901844    0.007781006
     31        1          -0.003812563   -0.012776806   -0.001144544
     32        1           0.002746426    0.004410743    0.018228628
     33        1           0.000998924   -0.011842796    0.001898811
     34        1          -0.003252604   -0.002130601    0.007231881
 -------------------------------------------------------------------
 Cartesian Forces:  Max     0.117905361 RMS     0.028432292

 GradGradGradGradGradGradGradGradGradGradGradGradGradGradGradGradGradGrad
 Berny optimization.
 FormGI is forming the generalized inverse of G from B-inverse, IUseBI=4.
 Internal  Forces:  Max     0.125013865 RMS     0.025234977
 Search for a local minimum.
 Step number   1 out of a maximum of  181
 All quantities printed in internal units (Hartrees-Bohrs-Radians)
 Mixed Optimization -- RFO/linear search
 Second derivative matrix not updated -- first step.
 ITU=  0
     Eigenvalues ---    0.00394   0.00394   0.00525   0.00525   0.01292
     Eigenvalues ---    0.01292   0.02635   0.02695   0.02721   0.02810
     Eigenvalues ---    0.02812   0.02820   0.02820   0.02876   0.02892
     Eigenvalues ---    0.02894   0.02895   0.02947   0.02953   0.02960
     Eigenvalues ---    0.02989   0.03183   0.03183   0.05928   0.05928
     Eigenvalues ---    0.06711   0.06711   0.07402   0.07402   0.07425
     Eigenvalues ---    0.07425   0.15809   0.15812   0.15917   0.15919
     Eigenvalues ---    0.15995   0.15995   0.16000   0.16000   0.16000
     Eigenvalues ---    0.16000   0.16000   0.16000   0.16000   0.16000
     Eigenvalues ---    0.16000   0.16000   0.16000   0.16000   0.21979
     Eigenvalues ---    0.22098   0.22775   0.23491   0.24053   0.24053
     Eigenvalues ---    0.24179   0.24432   0.24432   0.24629   0.24999
     Eigenvalues ---    0.24999   0.32151   0.32151   0.32187   0.32187
     Eigenvalues ---    0.32213   0.32213   0.32223   0.32224   0.32555
     Eigenvalues ---    0.32555   0.32575   0.32575   0.32638   0.32638
     Eigenvalues ---    0.33299   0.33300   0.33308   0.33309   0.33587
     Eigenvalues ---    0.33589   0.33650   0.33650   0.44808   0.47870
     Eigenvalues ---    0.48502   0.50964   0.52992   0.55403   0.55640
     Eigenvalues ---    0.55752   0.56406   0.57603   0.57636   0.70847
     Eigenvalues ---    0.70847
 RFO step:  Lambda=-1.58786279D-01 EMin= 3.93820460D-03
 Linear search not attempted -- first point.
 Maximum step size (   0.300) exceeded in Quadratic search.
    -- Step size scaled by   0.625
 Iteration  1 RMS(Cart)=  0.07291390 RMS(Int)=  0.00058922
 Iteration  2 RMS(Cart)=  0.00097445 RMS(Int)=  0.00007201
 Iteration  3 RMS(Cart)=  0.00000091 RMS(Int)=  0.00007201
 Variable       Old X    -DE/DX   Delta X   Delta X   Delta X     New X
                                 (Linear)    (Quad)   (Total)
    R1        2.52883   0.07821   0.00000   0.06551   0.06543   2.59427
    R2        2.55617   0.06523   0.00000   0.05748   0.05745   2.61362
    R3        2.08032  -0.01111   0.00000  -0.01404  -0.01404   2.06628
    R4        2.52287   0.05657   0.00000   0.04709   0.04704   2.56991
    R5        2.08512  -0.01033   0.00000  -0.01312  -0.01312   2.07200
    R6        2.53822   0.08382   0.00000   0.07287   0.07289   2.61111
    R7        2.08528  -0.01076   0.00000  -0.01367  -0.01367   2.07161
    R8        2.56182   0.09386   0.00000   0.08633   0.08647   2.64829
    R9        2.53824   0.08382   0.00000   0.07287   0.07289   2.61112
   R10        2.58177   0.09249   0.00000   0.08614   0.08620   2.66797
   R11        2.58175   0.09250   0.00000   0.08615   0.08621   2.66796
   R12        2.43264   0.12501   0.00000   0.09011   0.09011   2.52275
   R13        2.52285   0.05659   0.00000   0.04710   0.04705   2.56989
   R14        2.08530  -0.01076   0.00000  -0.01368  -0.01368   2.07162
   R15        2.52887   0.07819   0.00000   0.06550   0.06542   2.59429
   R16        2.08514  -0.01033   0.00000  -0.01313  -0.01313   2.07200
   R17        2.55616   0.06523   0.00000   0.05748   0.05746   2.61362
   R18        2.08030  -0.01111   0.00000  -0.01403  -0.01403   2.06627
   R19        2.43265   0.12501   0.00000   0.09011   0.09011   2.52276
   R20        2.83104  -0.02362   0.00000  -0.03048  -0.03048   2.80056
   R21        2.81225  -0.02591   0.00000  -0.03271  -0.03271   2.77954
   R22        2.81225  -0.02592   0.00000  -0.03271  -0.03271   2.77954
   R23        2.83104  -0.02362   0.00000  -0.03048  -0.03048   2.80056
   R24        2.09840  -0.01528   0.00000  -0.01972  -0.01972   2.07868
   R25        2.09691  -0.00995   0.00000  -0.01282  -0.01282   2.08410
   R26        2.10568  -0.00722   0.00000  -0.00939  -0.00939   2.09628
   R27        2.10456  -0.01303   0.00000  -0.01694  -0.01694   2.08762
   R28        2.10502  -0.01006   0.00000  -0.01308  -0.01308   2.09194
   R29        2.10437  -0.01205   0.00000  -0.01566  -0.01566   2.08871
   R30        2.10456  -0.01303   0.00000  -0.01694  -0.01694   2.08762
   R31        2.10502  -0.01006   0.00000  -0.01308  -0.01308   2.09194
   R32        2.10437  -0.01205   0.00000  -0.01566  -0.01566   2.08871
   R33        2.09839  -0.01528   0.00000  -0.01972  -0.01972   2.07867
   R34        2.09691  -0.00995   0.00000  -0.01282  -0.01282   2.08410
   R35        2.10568  -0.00722   0.00000  -0.00939  -0.00939   2.09628
    A1        2.14180  -0.00103   0.00000  -0.00443  -0.00451   2.13729
    A2        1.97317   0.01062   0.00000   0.02199   0.02202   1.99519
    A3        2.16192  -0.00982   0.00000  -0.01831  -0.01827   2.14365
    A4        2.06505   0.01057   0.00000   0.01458   0.01446   2.07951
    A5        2.11099  -0.00725   0.00000  -0.01113  -0.01107   2.09992
    A6        2.09750  -0.00324   0.00000  -0.00318  -0.00313   2.09437
    A7        2.08655   0.00142   0.00000   0.00208   0.00207   2.08862
    A8        2.06634   0.00590   0.00000   0.01192   0.01193   2.07827
    A9        2.13000  -0.00731   0.00000  -0.01398  -0.01397   2.11602
   A10        2.11842  -0.00908   0.00000  -0.01262  -0.01257   2.10585
   A11        2.04638   0.01816   0.00000   0.02523   0.02512   2.07150
   A12        2.11839  -0.00908   0.00000  -0.01261  -0.01256   2.10583
   A13        2.04442  -0.00054   0.00000   0.00044   0.00052   2.04494
   A14        2.04444  -0.00054   0.00000   0.00043   0.00051   2.04496
   A15        2.19432   0.00108   0.00000  -0.00087  -0.00104   2.19328
   A16        2.04075  -0.00229   0.00000  -0.00323  -0.00319   2.03756
   A17        2.05847   0.00909   0.00000   0.01375   0.01371   2.07217
   A18        2.18393  -0.00682   0.00000  -0.01060  -0.01064   2.17329
   A19        2.08658   0.00142   0.00000   0.00207   0.00206   2.08864
   A20        2.12998  -0.00731   0.00000  -0.01398  -0.01397   2.11601
   A21        2.06633   0.00590   0.00000   0.01192   0.01193   2.07826
   A22        2.06504   0.01057   0.00000   0.01458   0.01446   2.07951
   A23        2.09752  -0.00324   0.00000  -0.00319  -0.00313   2.09439
   A24        2.11098  -0.00725   0.00000  -0.01113  -0.01107   2.09991
   A25        2.14179  -0.00103   0.00000  -0.00442  -0.00451   2.13728
   A26        1.97316   0.01062   0.00000   0.02200   0.02202   1.99518
   A27        2.16194  -0.00983   0.00000  -0.01832  -0.01828   2.14367
   A28        2.04076  -0.00229   0.00000  -0.00323  -0.00319   2.03757
   A29        2.18394  -0.00683   0.00000  -0.01060  -0.01064   2.17330
   A30        2.05845   0.00910   0.00000   0.01375   0.01371   2.07216
   A31        2.08792   0.02163   0.00000   0.03318   0.03311   2.12103
   A32        2.12245   0.00175   0.00000   0.00210   0.00212   2.12457
   A33        2.04037  -0.02412   0.00000  -0.03776  -0.03775   2.00263
   A34        2.12246   0.00175   0.00000   0.00209   0.00212   2.12457
   A35        2.08791   0.02163   0.00000   0.03318   0.03312   2.12103
   A36        2.04037  -0.02412   0.00000  -0.03776  -0.03775   2.00263
   A37        2.01066  -0.01201   0.00000  -0.02499  -0.02515   1.98551
   A38        1.99280  -0.00182   0.00000  -0.00484  -0.00503   1.98777
   A39        1.87667  -0.00028   0.00000   0.00213   0.00216   1.87883
   A40        1.94801   0.00322   0.00000   0.00262   0.00234   1.95035
   A41        1.78828   0.00890   0.00000   0.01982   0.01986   1.80814
   A42        1.82315   0.00498   0.00000   0.01249   0.01249   1.83565
   A43        1.95595  -0.00464   0.00000  -0.00977  -0.00979   1.94616
   A44        1.94948   0.00221   0.00000   0.00363   0.00362   1.95310
   A45        1.91086  -0.00600   0.00000  -0.01044  -0.01045   1.90042
   A46        1.95555  -0.00233   0.00000  -0.00678  -0.00681   1.94874
   A47        1.82544   0.00740   0.00000   0.01587   0.01585   1.84129
   A48        1.85933   0.00395   0.00000   0.00899   0.00900   1.86834
   A49        1.95595  -0.00464   0.00000  -0.00977  -0.00979   1.94616
   A50        1.94949   0.00221   0.00000   0.00363   0.00361   1.95310
   A51        1.91087  -0.00601   0.00000  -0.01045  -0.01045   1.90042
   A52        1.95555  -0.00233   0.00000  -0.00678  -0.00681   1.94873
   A53        1.82544   0.00740   0.00000   0.01587   0.01585   1.84129
   A54        1.85933   0.00395   0.00000   0.00899   0.00901   1.86834
   A55        2.01066  -0.01201   0.00000  -0.02499  -0.02515   1.98551
   A56        1.99281  -0.00182   0.00000  -0.00484  -0.00503   1.98778
   A57        1.87668  -0.00028   0.00000   0.00213   0.00216   1.87884
   A58        1.94801   0.00322   0.00000   0.00262   0.00234   1.95035
   A59        1.78828   0.00890   0.00000   0.01982   0.01986   1.80814
   A60        1.82315   0.00498   0.00000   0.01249   0.01249   1.83564
    D1        0.07489  -0.00034   0.00000  -0.00152  -0.00152   0.07337
    D2        3.06792   0.00009   0.00000   0.00032   0.00029   3.06820
    D3       -2.95055   0.00243   0.00000   0.00645   0.00654  -2.94402
    D4        0.04247   0.00286   0.00000   0.00829   0.00835   0.05082
    D5        0.21239   0.00248   0.00000   0.00740   0.00737   0.21976
    D6       -2.92037   0.00521   0.00000   0.01675   0.01677  -2.90360
    D7       -3.05799   0.00084   0.00000   0.00136   0.00140  -3.05659
    D8        0.09244   0.00358   0.00000   0.01071   0.01080   0.10324
    D9       -0.17062  -0.00059   0.00000  -0.00150  -0.00149  -0.17211
   D10        2.99636  -0.00087   0.00000  -0.00203  -0.00204   2.99433
   D11        3.11835  -0.00065   0.00000  -0.00261  -0.00258   3.11576
   D12        0.00215  -0.00093   0.00000  -0.00314  -0.00313  -0.00098
   D13       -0.02520  -0.00115   0.00000  -0.00278  -0.00279  -0.02799
   D14        3.11640  -0.00115   0.00000  -0.00278  -0.00279   3.11360
   D15        3.09004  -0.00066   0.00000  -0.00184  -0.00184   3.08820
   D16       -0.05155  -0.00066   0.00000  -0.00184  -0.00184  -0.05339
   D17        0.31327   0.00173   0.00000   0.00714   0.00714   0.32041
   D18       -2.82833   0.00173   0.00000   0.00714   0.00714  -2.82119
   D19       -2.82833   0.00173   0.00000   0.00714   0.00714  -2.82119
   D20        0.31326   0.00173   0.00000   0.00714   0.00714   0.32040
   D21        3.11640  -0.00115   0.00000  -0.00278  -0.00279   3.11360
   D22       -0.05156  -0.00066   0.00000  -0.00184  -0.00184  -0.05340
   D23       -0.02519  -0.00115   0.00000  -0.00278  -0.00279  -0.02798
   D24        3.09004  -0.00066   0.00000  -0.00184  -0.00184   3.08820
   D25       -0.39505  -0.00288   0.00000  -0.01026  -0.01029  -0.40534
   D26        2.73700  -0.00574   0.00000  -0.02021  -0.02016   2.71685
   D27        2.74655  -0.00288   0.00000  -0.01026  -0.01029   2.73626
   D28       -0.40459  -0.00574   0.00000  -0.02021  -0.02015  -0.42474
   D29       -0.39505  -0.00288   0.00000  -0.01026  -0.01029  -0.40534
   D30        2.73700  -0.00574   0.00000  -0.02021  -0.02015   2.71685
   D31        2.74654  -0.00288   0.00000  -0.01026  -0.01029   2.73625
   D32       -0.40459  -0.00574   0.00000  -0.02021  -0.02016  -0.42475
   D33        2.70624  -0.01265   0.00000  -0.03864  -0.03871   2.66752
   D34       -0.15607  -0.00579   0.00000  -0.02231  -0.02223  -0.17830
   D35       -0.42573  -0.00971   0.00000  -0.02850  -0.02858  -0.45431
   D36        2.99516  -0.00284   0.00000  -0.01218  -0.01210   2.98306
   D37       -0.17063  -0.00059   0.00000  -0.00150  -0.00149  -0.17212
   D38        3.11835  -0.00065   0.00000  -0.00261  -0.00258   3.11576
   D39        2.99637  -0.00087   0.00000  -0.00203  -0.00204   2.99433
   D40        0.00216  -0.00093   0.00000  -0.00314  -0.00313  -0.00098
   D41        0.07489  -0.00034   0.00000  -0.00152  -0.00152   0.07337
   D42       -2.95055   0.00243   0.00000   0.00645   0.00654  -2.94401
   D43        3.06792   0.00009   0.00000   0.00032   0.00029   3.06820
   D44        0.04247   0.00286   0.00000   0.00829   0.00835   0.05082
   D45        0.21239   0.00248   0.00000   0.00740   0.00737   0.21976
   D46       -2.92037   0.00521   0.00000   0.01675   0.01677  -2.90360
   D47       -3.05799   0.00084   0.00000   0.00136   0.00140  -3.05659
   D48        0.09243   0.00358   0.00000   0.01071   0.01080   0.10323
   D49        2.99516  -0.00284   0.00000  -0.01218  -0.01210   2.98306
   D50       -0.42573  -0.00971   0.00000  -0.02851  -0.02858  -0.45431
[...]
 9588,-0.00180452,-0.00185537,-0.00110879,0.00001912,0.00000157,-0.0000
 0359,0.00000806,0.00000298,0.00000133,0.00000030,0.00001072,0.00001452
 ,0.00003343,0.00001945,-0.00001172,-0.00002009,0.00001412,-0.00000455,
 0.00054455,-0.00153441,-0.00117511,-0.00001942,0.00014031,0.00001856,0
 .00004546,-0.00012147,0.00006044,0.00000075,-0.00002817,-0.00002868,-0
 .00000019,0.00000500,-0.00001151,0.00000568,0.00000639,0.00000616,-0.0
 0000206,-0.00001373,0.00000832,0.00664794,0.06724070,-0.00005935,-0.00
 001975,-0.00003232,0.00001734,0.00010257,0.00003799,0.00006288,-0.0000
 4353,-0.00000465,-0.00003306,0.00014156,-0.00005311,-0.00039494,-0.000
 41787,0.00002386,0.00021345,0.00015961,0.00010426,0.00010051,-0.000081
 36,0.00000575,0.00024235,0.00008822,0.00025843,-0.00031913,0.00007562,
 0.00061283,0.00005724,0.00284057,0.00002312,-0.00014920,-0.00016960,0.
 00026079,-0.00348922,0.00241826,-0.01764416,-0.00013479,-0.00004227,-0
 .00020774,0.00003639,0.00002479,0.00000477,0.01209947,0.06085318,-0.29
 671201,-0.00270274,-0.00359835,-0.00045188,0.00000878,-0.00000172,-0.0
 0000601,-0.00000459,-0.00000211,0.00000233,0.00000416,-0.00000273,-0.0
 0000852,0.00003247,0.00002431,0.00001280,0.00001125,-0.00003199,-0.000
 01077,0.00076618,-0.00006567,-0.00009730,-0.00017511,-0.00008370,-0.00
 002192,-0.00001280,0.00006373,-0.00003314,-0.00000283,0.00000852,0.000
 03350,0.00003966,0.00001192,0.00002745,-0.00001553,-0.00000358,0.00001
 231,0.00001753,-0.00000196,-0.00002093,-0.00837482,-0.06707263,0.32486
 993,-0.00014789,0.00001197,-0.00012290,0.00003020,0.00008583,0.0000457
 5,0.00004818,-0.00012217,-0.00000039,-0.00006777,0.00012109,-0.0002168
 0,-0.00027702,-0.00133995,-0.00012059,0.00051654,0.00047908,0.00017106
 ,-0.00016820,-0.00035281,0.00001846,0.00062684,0.00040318,0.00036678,0
 .00000316,-0.00134082,0.00058562,0.00030395,0.00790371,-0.00143507,-0.
 00079686,-0.00005122,-0.00019969,-0.03419732,-0.00964659,-0.00419734,0
 .00033503,-0.00007952,-0.00028891,0.00002305,-0.00021579,0.00020690,-0
 .22850756,0.04981190,0.07919124,0.00000212,-0.00108969,0.00484972,-0.0
 0002113,0.00000440,0.00000827,-0.00003034,-0.00001699,-0.00000961,-0.0
 0001451,-0.00004262,-0.00002026,0.00005103,0.00001213,0.00001377,0.000
 04700,-0.00012900,-0.00002887,0.00077862,-0.00033489,0.00046577,0.0000
 9253,0.00001600,-0.00015515,0.00002828,0.00002068,-0.00001425,-0.00014
 028,0.00001296,-0.00002634,-0.00001223,-0.00000587,-0.00001557,-0.0001
 5142,0.00004355,-0.00003261,0.00000686,0.00003535,0.00000280,-0.000251
 23,0.00123551,0.00134417,0.26567763,-0.00005135,-0.00014476,-0.0000010
 0,-0.00004516,0.00010610,-0.00002109,0.00008797,-0.00006658,0.00009073
 ,-0.00037203,0.00035382,-0.00032709,-0.00013022,-0.00073152,-0.0007347
 6,0.00032073,0.00011969,0.00017671,0.00050224,0.00018440,0.00021232,0.
 00006982,-0.00049812,-0.00060281,0.00043485,0.00065128,0.00078197,-0.0
 0112873,0.00246686,0.00009676,-0.00035940,0.00010846,0.00002509,-0.020
 22129,0.00389172,0.00513179,0.00000801,-0.00025626,-0.00016922,-0.0000
 1293,-0.00009070,0.00006072,0.04912159,-0.06294722,-0.02126352,-0.0000
 5379,-0.00020173,0.00147434,0.00000084,-0.00000106,-0.00000533,0.00000
 614,0.00000355,-0.00000574,-0.00001008,-0.00001473,-0.00000323,-0.0000
 3368,-0.00000176,0.00012329,-0.00001346,-0.00001168,0.00003869,-0.0007
 2413,-0.00211939,0.00117755,0.00003500,-0.00001899,-0.00001633,-0.0000
 5988,0.00011343,-0.00000375,-0.00000613,0.00006762,0.00000600,0.000005
 19,0.00000639,0.00000342,-0.00004537,0.00002290,-0.00001684,-0.0000078
 1,0.00002039,-0.00000990,-0.00752215,0.00154545,0.00362432,-0.04911329
 ,0.06501163,0.00000296,0.00005809,0.00003035,-0.00000814,-0.00003960,-
 0.00001196,-0.00001013,0.00000039,0.00001806,-0.00004328,-0.00000456,-
 0.00010677,-0.00000215,-0.00017976,-0.00029433,0.00006155,-0.00009717,
 0.00003334,0.00000731,-0.00007211,0.00002944,-0.00032007,-0.00003073,-
 0.00018959,0.00155103,-0.00010018,0.00012414,-0.00045735,0.00101068,0.
 00042670,-0.00027864,0.00011602,0.00013718,-0.01911253,0.00357756,0.00
 530464,-0.00019219,-0.00006340,-0.00020424,-0.00000449,0.00000038,0.00
 008764,0.07685029,-0.02019672,-0.08508360,-0.00294163,-0.00021962,0.00
 453329,-0.00001119,-0.00000236,-0.00000499,0.00000128,0.00000254,-0.00
 000485,-0.00000287,-0.00000709,-0.00000502,-0.00004094,-0.00002706,-0.
 00000229,0.00002443,0.00001393,-0.00002288,-0.00033659,0.00020249,-0.0
 0002981,-0.00012914,-0.00014580,-0.00003642,-0.00005615,0.00009719,-0.
 00002184,0.00003158,0.00001669,0.00004776,0.00000155,-0.00000615,0.000
 01231,-0.00003278,0.00001649,-0.00002483,-0.00001164,0.00002568,-0.000
 00931,0.02768964,-0.00811544,-0.01054968,-0.08130591,0.02330243,0.0840
 4207,-0.00005481,0.00009558,0.00001008,0.00001745,-0.00000715,0.000014
 49,0.00002976,-0.00004625,0.00001436,-0.00029403,0.00000296,0.00009484
 ,0.00018167,-0.00114383,0.00018006,0.00026372,-0.00031053,-0.00002124,
 -0.00001036,-0.00009273,-0.00003052,0.00040260,0.00008120,0.00015752,-
 0.00104665,-0.00002404,-0.00026493,-0.00248962,-0.00084666,-0.00396645
 ,0.00009340,0.00028395,0.00003123,-0.00126359,-0.03256425,0.00132221,0
 .00002001,-0.00029881,-0.00013120,-0.00004328,0.00000989,0.00002019,-0
 .05428826,0.04924956,-0.00477022,0.00076398,-0.00120917,0.00074988,-0.
 00001480,-0.00000852,-0.00000954,-0.00000467,0.00000441,-0.00000403,-0
 .00002451,-0.00001735,-0.00000683,0.00003670,0.00002363,0.00002425,-0.
 00000039,-0.00004615,0.00000396,0.00063523,0.00016279,0.00034982,0.000
 02200,-0.00007875,-0.00001275,-0.00008507,0.00015942,0.00000993,0.0000
 5678,0.00011827,0.00003970,0.00000538,0.00000226,0.00001751,0.00000714
 ,0.00000767,-0.00001138,-0.00002288,0.00002502,-0.00001545,-0.00026988
 ,-0.00221360,0.00051151,-0.00476977,0.02861731,-0.00346911,0.06259605,
 -0.00006549,0.00018931,0.00005781,0.00001047,-0.00010991,-0.00000641,-
 0.00005165,0.00002367,-0.00000998,-0.00012052,-0.00010308,0.00012839,0
 .00030806,-0.00053196,-0.00007134,0.00020586,-0.00046923,-0.00008968,-
 0.00014033,-0.00022580,-0.00005988,0.00001374,0.00029334,-0.00018905,0
 .00003078,0.00002701,0.00025680,-0.00028940,0.00106083,-0.00322975,-0.
 00008311,0.00046197,0.00011055,-0.00587989,-0.01990927,0.00085271,-0.0
 0011792,-0.00039179,-0.00018137,0.00003435,-0.00006764,0.00009833,0.04
 291049,-0.29729910,0.02666695,0.00048538,0.00067552,0.00196437,-0.0000
 3890,-0.00000764,-0.00000835,-0.00001565,-0.00000138,-0.00001423,-0.00
 001874,-0.00002440,-0.00000970,-0.00003569,-0.00002593,0.00001438,0.00
 002930,-0.00005098,0.00000276,-0.00028983,0.00001711,0.00010272,0.0000
 3180,-0.00005008,-0.00006644,-0.00010848,0.00018758,0.00000118,-0.0000
 3509,0.00008563,0.00002745,-0.00000986,-0.00001381,0.00000214,-0.00003
 549,0.00002010,-0.00002580,-0.00002592,0.00006311,-0.00000108,0.001384
 21,-0.00481693,0.00059529,0.00294152,-0.00726501,0.00124754,-0.0409110
 4,0.32753777,-0.00007638,-0.00015264,-0.00004845,-0.00005689,0.0001175
 2,-0.00000471,0.00012304,-0.00004913,0.00003177,-0.00042350,0.00031661
 ,-0.00004390,-0.00042662,-0.00089506,0.00019182,0.00026268,-0.00010227
 ,0.00006597,0.00042866,0.00004686,0.00006432,-0.00009875,-0.00042654,0
 .00026244,-0.00050027,0.00083492,0.00056777,-0.00167460,-0.00000913,-0
 .00222741,0.00008474,0.00003515,-0.00016429,-0.00136783,-0.01967093,0.
 00041963,0.00000180,0.00017037,0.00010735,-0.00001026,-0.00001712,0.00
 001023,-0.00421030,0.03134989,-0.05308053,0.00038799,-0.00231551,0.000
 58163,-0.00000208,-0.00000380,-0.00000563,-0.00000073,0.00000168,0.000
 00192,-0.00001439,-0.00000675,-0.00000605,0.00003519,0.00001147,-0.000
 00757,-0.00002678,-0.00001073,0.00003267,0.00060267,0.00030860,-0.0003
 7466,-0.00001357,0.00006530,-0.00001107,0.00006280,-0.00009698,0.00004
 595,-0.00000395,-0.00004494,-0.00002659,-0.00001886,-0.00000852,-0.000
 02092,0.00000270,0.00000993,-0.00000931,-0.00001545,0.00000091,0.00001
 622,-0.00546524,0.02975497,-0.00013876,0.00343682,-0.01276048,0.001462
 37,0.00920992,-0.02700379,0.05227355,0.00019829,0.00009113,-0.00001223
 ,-0.00004299,-0.00013479,-0.00012171,-0.00002665,0.00021139,0.00009335
 ,-0.00006018,0.00037862,-0.00002199,0.00001457,-0.00020293,0.00080791,
 -0.00108761,-0.00182484,0.00136180,0.00017082,0.00002321,0.00005331,-0
 .00005985,-0.00025264,-0.00001787,-0.00045721,0.00029831,-0.00010224,0
 .00053057,-0.00107838,0.00020207,-0.00238038,-0.00001698,0.00181376,-0
 .00200297,0.00066370,-0.00125154,-0.00004426,0.00018157,0.00025450,-0.
 00024122,0.00007178,0.00032247,0.00055605,0.00096401,-0.00069012,-0.18
 060278,-0.10694005,-0.09783332,-0.00002889,-0.00000513,0.00000273,0.00
 001479,0.00002132,-0.00000341,-0.00001314,0.00000648,-0.00000497,0.000
 01367,0.00000610,-0.00001778,-0.00000955,-0.00000754,-0.00000574,0.000
 04583,-0.00002430,0.00000058,-0.00000441,-0.00003448,-0.00004780,-0.00
 002180,-0.00004744,-0.00003024,0.00000756,0.00000352,0.00001882,-0.000
 11667,0.00001650,-0.00017555,0.00009301,-0.00003384,-0.00013058,0.0000
 2162,-0.00003114,-0.00001291,0.00017075,-0.00029461,-0.00002414,0.0003
 5869,-0.00006570,0.00029578,-0.00007283,-0.00012840,0.00016524,0.19561
 296,-0.00007070,-0.00055983,-0.00042332,-0.00017584,0.00031232,-0.0001
 3882,0.00027501,0.00000531,0.00020018,-0.00012121,0.00006169,-0.000169
 41,-0.00036970,-0.00086491,0.00095797,-0.00107961,0.00151190,0.0012043
 5,0.00027803,-0.00005656,0.00008165,-0.00018007,-0.00028102,0.00005923
 ,-0.00027811,0.00040221,-0.00010026,0.00125770,0.00023880,0.00118925,-
 0.00151718,-0.00130800,0.00161340,0.00893101,0.00555250,0.00710402,0.0
 0001544,-0.00030572,-0.00040593,0.00045680,-0.00018253,-0.00022010,0.0
 0033971,-0.00093206,0.00199255,-0.10899900,-0.13350666,-0.07665734,0.0
 0006116,0.00003081,0.00002077,-0.00000044,0.00000418,0.00002405,-0.000
 00132,0.00001464,0.00003839,0.00001231,0.00001275,-0.00001662,-0.00000
 959,0.00000940,-0.00000906,0.00001369,0.00001933,-0.00006330,0.0000349
 5,-0.00004861,0.00008593,0.00000579,0.00011868,-0.00000206,0.00002464,
 0.00009882,0.00011805,0.00024148,0.00014297,0.00008198,-0.00001484,-0.
 00001947,0.00014439,0.00007928,-0.00004945,-0.00006534,0.00026754,0.00
 068227,0.00044936,-0.00015707,-0.00002894,-0.00007710,-0.00003144,0.00
 056970,0.00008416,0.11779510,0.13992016,0.00004098,0.00004917,-0.00023
 847,0.00006354,-0.00009409,0.00004748,-0.00011502,-0.00016178,-0.00007
 809,-0.00004756,0.00058377,0.00011257,-0.00019502,0.00015102,0.0000412
 0,0.00132911,0.00179999,-0.00028420,0.00030980,0.00005891,0.00006944,-
 0.00005095,-0.00040350,-0.00014846,-0.00018641,0.00057764,-0.00014514,
 -0.00113063,-0.00281461,0.00063044,0.00012536,-0.00056228,0.00040502,-
 0.02352915,-0.01739857,-0.02041991,-0.00015446,-0.00017526,-0.00058651
 ,0.00051019,-0.00023018,0.00035353,0.00097907,0.00363882,-0.00548948,-
 0.08806090,-0.06688144,-0.11062094,-0.00001717,0.00000481,-0.00002700,
 -0.00001777,-0.00002731,0.00000337,0.00000129,-0.00002092,-0.00000313,
 0.00001678,-0.00001854,0.00003688,0.00000081,0.00001429,0.00001185,0.0
 0011139,-0.00009410,0.00003850,-0.00004690,-0.00008641,0.00009755,-0.0
 0002754,0.00015364,0.00005621,0.00000044,0.00007535,0.00021626,0.00003
 638,-0.00001818,-0.00002176,-0.00015528,0.00001472,-0.00003641,-0.0000
 1351,0.00006632,-0.00001105,-0.00168031,-0.00078448,-0.00096613,-0.000
 41563,0.00008524,0.00002047,0.00031988,0.00003806,0.00020760,0.1013761
 8,0.07433357,0.12758436,0.00007225,0.00026824,0.00023153,0.00006161,-0
 .00014726,0.00002327,-0.00011060,0.00001294,-0.00007964,0.00001226,0.0
 0014371,0.00006038,0.00002461,-0.00011794,0.00025661,0.00021841,-0.000
 81988,-0.00015123,-0.00003300,-0.00000688,-0.00000828,0.00004030,-0.00
 001326,0.00000658,0.00006910,-0.00016114,0.00010720,-0.00012382,-0.000
 84985,0.00004243,0.00061733,0.00077402,-0.00040771,0.00130396,-0.00019
 112,-0.00274978,-0.00007877,-0.00004866,0.00021839,-0.00025653,-0.0000
 7882,-0.00000416,0.00013153,0.00149300,0.00019129,-0.06958904,0.070779
 39,0.00038926,-0.00001901,-0.00001464,-0.00001579,0.00000690,0.0000043
 8,-0.00000627,-0.00000748,-0.00000224,-0.00000705,0.00000017,-0.000001
 62,0.00000485,0.00001244,-0.00000446,-0.00002105,-0.00002001,0.0000192
 3,0.00006396,-0.00002230,-0.00000729,-0.00002586,-0.00013582,0.0000593
 2,0.00014902,0.00004732,0.00003414,-0.00000615,-0.00002538,-0.00004447
 ,-0.00001220,0.00002790,0.00005897,-0.00005513,-0.00008341,0.00010558,
 0.00006163,0.00001209,-0.00021452,0.00013820,-0.00011160,0.00007422,0.
 00026090,0.00000159,-0.00039566,-0.00040153,0.00743269,-0.02134798,0.0
 0111861,0.06864439,0.00006257,0.00042394,0.00024891,0.00002140,-0.0002
 2850,0.00002791,-0.00012265,0.00011895,-0.00005458,0.00001948,0.000117
 54,0.00007467,0.00019957,0.00022139,-0.00012058,0.00037859,-0.00127131
 ,-0.00023956,-0.00005670,-0.00012480,0.00000586,0.00025808,0.00008494,
 -0.00000237,-0.00057113,-0.00070984,0.00043816,0.00289907,0.00178173,0
 .00143652,0.00058924,0.00144493,-0.00052981,-0.00100220,-0.01130868,0.
 00736779,-0.00033700,-0.00018992,0.00036138,-0.00016395,-0.00016556,0.
 00008895,-0.00087865,0.00005896,-0.00121728,0.06927564,-0.28749501,-0.
 00265920,-0.00006068,-0.00001846,-0.00003448,-0.00000705,0.00000195,-0
 .00001775,-0.00000969,-0.00001986,-0.00002004,-0.00001308,-0.00002253,
 -0.00000038,0.00003645,-0.00010611,-0.00003831,0.00005272,0.00005912,0
 .00002993,0.00004594,0.00011912,-0.00015396,-0.00006072,0.00000016,0.0
 0018467,-0.00006602,0.00000695,-0.00003343,-0.00007898,-0.00012274,-0.
 00006385,-0.00002158,0.00011380,-0.00009777,-0.00016233,0.00018714,0.0
 0009754,-0.00005358,0.00055437,0.00010981,0.00049870,-0.00021319,-0.00
 007635,0.00052648,0.00043803,0.00043259,0.00565324,-0.01450766,-0.0002
 9068,-0.07754634,0.31335691,0.00005238,-0.00006298,0.00002700,0.000039
 70,0.00003095,0.00002007,-0.00002952,-0.00002455,-0.00002106,0.0000249
 4,0.00008316,0.00004539,-0.00016069,-0.00012119,0.00012706,-0.00003432
 ,0.00009174,-0.00006928,-0.00000167,0.00007843,-0.00000691,-0.00047506
 ,0.00013756,-0.00001290,0.00081106,0.00180332,-0.00021141,-0.00432844,
 0.00106806,-0.00439902,-0.00003744,-0.00014140,-0.00017724,-0.00593645
 ,0.03616362,-0.00949056,-0.00000249,0.00036788,0.00004077,0.00008436,0
 .00000493,0.00003529,0.00098249,0.00251196,0.00117885,0.00081822,-0.00
 904385,-0.04663662,0.00001481,0.00000424,0.00000301,0.00000351,-0.0000
 0540,0.00000368,0.00001144,0.00001089,-0.00000165,0.00002332,0.0000151
 7,-0.00000703,-0.00001675,0.00017653,-0.00000523,-0.00000143,-0.000066
 43,-0.00009241,-0.00003020,0.00000174,0.00005620,0.00015128,-0.0001836
 0,-0.00014124,-0.00000444,-0.00013465,-0.00002047,-0.00003715,-0.00006
 079,-0.00003312,-0.00001427,0.00000358,-0.00002182,0.00001000,-0.00000
 117,0.00004603,0.00028672,0.00003448,0.00022301,-0.00030215,-0.0005057
 6,-0.00025563,-0.00022349,-0.00090787,0.00002568,0.00612483,-0.0141062
 1,0.00072526,-0.00056824,-0.00394482,0.05804521,-0.00010100,-0.0001942
 0,-0.00032963,-0.00001501,0.00015524,-0.00000200,0.00004342,-0.0001109
 4,-0.00001593,-0.00003376,0.00017002,0.00004459,-0.00046874,-0.0004044
 6,0.00025925,0.00032858,0.00130220,0.00020943,0.00013161,-0.00028189,-
 0.00001706,-0.00007553,0.00001263,0.00011419,-0.00026040,-0.00061553,0
 .00070073,0.00080195,0.00077238,-0.00081518,-0.00102814,-0.00103752,0.
 00100560,0.00550522,-0.00305340,0.00324671,0.00007557,-0.00013651,-0.0
 0037990,0.00050509,-0.00025000,0.00019080,0.00285003,-0.00104231,-0.00
 199293,-0.23730870,0.02301052,0.08730926,-0.00001185,0.00000786,0.0000
 2617,-0.00003678,-0.00002805,0.00000579,-0.00000018,-0.00003012,0.0000
 1116,-0.00000113,-0.00002720,0.00000191,0.00003224,-0.00006274,0.00003
 103,0.00008814,0.00002985,-0.00005374,0.00000787,-0.00002557,0.0000011
 9,0.00004698,0.00006640,-0.00000587,-0.00012923,0.00007386,0.00014337,
 0.00007526,0.00000033,-0.00000274,-0.00014016,0.00000397,0.00003175,0.
 00005766,0.00003478,-0.00000442,0.00032617,-0.00007555,0.00018871,0.00
 073540,0.00069266,0.00198863,-0.00037806,0.00041106,0.00000374,-0.0179
 6845,0.00426447,0.00950440,-0.00812006,0.00069514,0.00276517,0.2544659
 8,0.00004438,-0.00000790,0.00000662,-0.00007592,0.00004302,-0.00001286
 ,0.00006683,0.00001632,0.00004379,-0.00019212,0.00033306,-0.00012463,-
 0.00060662,-0.00053586,-0.00035232,0.00030227,-0.00008124,0.00017076,0
 .00026303,-0.00012097,0.00016319,-0.00009101,-0.00025597,-0.00022360,0
 .00074310,0.00021244,-0.00036640,-0.00106489,0.00341919,0.00009383,0.0
 0001818,0.00033334,0.00008661,-0.01139271,0.00094619,0.01057235,-0.000
 25987,-0.00019130,0.00026992,-0.00004771,-0.00016103,-0.00000270,-0.00
 005436,-0.00006696,-0.00099119,0.02329453,-0.05564489,-0.01258040,-0.0
 0001023,-0.00000366,-0.00002890,-0.00000061,0.00000201,0.00000201,-0.0
 0001030,-0.00000707,0.00000515,-0.00000134,-0.00000111,0.00002013,-0.0
 0001256,0.00001896,0.00001651,-0.00005544,0.00004858,0.00010823,-0.000
 00450,0.00009851,-0.00007534,-0.00003370,0.00000731,0.00013459,-0.0000
 7587,0.00006472,0.00001965,0.00000597,-0.00002811,-0.00000854,-0.00001
 513,0.00006751,-0.00001636,-0.00011854,0.00008476,0.00004488,-0.000092
 17,-0.00015630,0.00004720,0.00040069,-0.00006205,-0.00022690,0.0004798
 9,-0.00028674,0.00003338,-0.01526279,0.00294297,0.00841702,0.02818689,
 -0.00258577,-0.01327756,-0.02432736,0.05155802,0.00030296,-0.00011253,
 0.00003095,-0.00001475,0.00000236,-0.00002072,0.00004829,-0.00012104,0
 .00001748,-0.00012576,0.00002994,0.00006680,0.00066821,0.00089799,0.00
 051482,-0.00057913,0.00107925,0.00009315,0.00015757,0.00065651,-0.0000
 3006,0.00003077,-0.00064028,0.00015103,-0.00135694,0.00128505,-0.00090
 994,0.00072937,-0.00870513,0.00036855,-0.00092467,-0.00098998,0.000811
 76,0.02420842,0.00897690,-0.03515847,-0.00004226,0.00008962,-0.0004973
 9,0.00023252,-0.00004781,-0.00002321,0.00440311,0.00173624,0.00218750,
 0.08978943,-0.01338654,-0.08907750,0.00005037,0.00001713,-0.00003408,0
 .00001908,-0.00000384,0.00002325,-0.00000646,0.00001581,0.00002852,0.0
 0002481,-0.00000073,-0.00001396,-0.00005211,0.00002767,0.00001583,-0.0
 0001901,0.00000931,-0.00013208,0.00002011,-0.00011787,0.00021634,-0.00
 000650,0.00003333,-0.00002048,0.00014364,-0.00001818,0.00014532,0.0000
 9564,0.00002968,0.00003350,-0.00002627,-0.00000628,0.00004776,0.000039
 98,-0.00002704,-0.00002659,-0.00050968,0.00015367,0.00044588,-0.001799
 09,0.00003550,0.00054832,-0.00014422,-0.00029274,-0.00019902,-0.012389
 18,0.00267161,0.00841870,0.00119595,-0.00130948,0.00100108,-0.10416420
 ,0.00803191,0.11097696\\-0.00000068,0.00000338,-0.00000002,-0.00000488
 ,-0.00000158,0.00000223,0.00000313,-0.00000095,0.00000126,-0.00000012,
 -0.00000434,-0.00000017,-0.00000097,0.00000239,-0.00000067,0.00000190,
 -0.00000456,-0.00000149,-0.00000318,-0.00000125,-0.00000116,0.00000512
 ,-0.00000079,-0.00000238,0.00000101,0.00000397,0.00000122,-0.00000346,
 -0.00000018,0.00000087,-0.00000432,-0.00000235,0.00001006,0.00000082,-
 0.00000242,-0.00000780,0.00000421,0.00000319,0.00000135,-0.00000541,0.
 00000447,-0.00000634,0.00000524,0.00000291,0.00000484,-0.00000347,0.00
 000139,-0.00000345,-0.00000010,-0.00000185,0.00000395,0.00000095,0.000
 00027,0.00000039,-0.00000101,0.00000046,0.00000042,0.00000102,0.000000
 57,-0.00000027,-0.00000102,0.00000035,-0.00000040,0.00000120,-0.000002
 21,-0.00000335,0.00000359,-0.00000273,0.00000017,-0.00000218,-0.000000
 91,0.00000111,0.00000128,0.00000054,0.00000123,-0.00000157,0.00000103,
 0.00000105,0.00000083,0.00000109,0.00000177,-0.00000183,-0.00000047,0.
 00000116,0.00000131,0.00000099,-0.00000122,-0.00000116,0.00000121,-0.0
 0000178,0.00000200,-0.00000059,-0.00000102,0.00000036,-0.00000073,-0.0
 0000002,0.00000203,-0.00000112,-0.00000061,-0.00000067,0.00000083,-0.0
 0000094\\\@


 DON'T WORRY CHARLIE BROWN...WE LEARN MORE FROM LOSING  THAN WE DO FROM WINNING.
 THEN THAT MAKES ME THE SMARTEST PERSON IN THE WORLD...
 CHARLES SCHULZ 'PEANUTS'
 Job cpu time:       0 days  4 hours  2 minutes 40.6 seconds.
 File lengths (MBytes):  RWF=    514 Int=      0 D2E=      0 Chk=     15 Scr=      1
 Normal termination of Gaussian 09 at Tue Jun 11 10:45:44 2024.
