 Entering Gaussian System, Link 0=g09
 Input=B3PW91D3BJDMANyang.gjf
 Output=B3PW91D3BJDMANyang.log
 Initial command:
 /home/c612/g09E/g09/l1.exe "/mnt/ja_sm883/scratch/Gau-1954892.inp" -scrdir="/mnt/ja_sm883/scratch/"
 Default is to use a total of  18 processors:
                               18 via shared-memory
                                1 via Linda
 Entering Link 1 = /home/c612/g09E/g09/l1.exe PID=   1954894.
  
 Copyright (c) 1988,1990,1992,1993,1995,1998,2003,2009,2015,
            Gaussian, Inc.  All Rights Reserved.
  
 This is part of the Gaussian(R) 09 program.  It is based on
 the Gaussian(R) 03 system (copyright 2003, Gaussian, Inc.),
 the Gaussian(R) 98 system (copyright 1998, Gaussian, Inc.),
 the Gaussian(R) 94 system (copyright 1995, Gaussian, Inc.),
 the Gaussian 92(TM) system (copyright 1992, Gaussian, Inc.),
 the Gaussian 90(TM) system (copyright 1990, Gaussian, Inc.),
 the Gaussian 88(TM) system (copyright 1988, Gaussian, Inc.),
 the Gaussian 86(TM) system (copyright 1986, Carnegie Mellon
 University), and the Gaussian 82(TM) system (copyright 1983,
 Carnegie Mellon University). Gaussian is a federally registered
 trademark of Gaussian, Inc.
  
 This software contains proprietary and confidential information,
 including trade secrets, belonging to Gaussian, Inc.
  
 This software is provided under written license and may be
 used, copied, transmitted, or stored only in accord with that
 written license.
  
 The following legend is applicable only to US Government
 contracts under FAR:
  
                    RESTRICTED RIGHTS LEGEND
  
 Use, reproduction and disclosure by the US Government is
 subject to restrictions as set forth in subparagraphs (a)
 and (c) of the Commercial Computer Software - Restricted
 Rights clause in FAR 52.227-19.
  
 Gaussian, Inc.
 340 Quinnipiac St., Bldg. 40, Wallingford CT 06492
  
  
 ---------------------------------------------------------------
 Warning -- This program may not be used in any manner that
 competes with the business of Gaussian, Inc. or will provide
 assistance to any competitor of Gaussian, Inc.  The licensee
 of this program is prohibited from giving any competitor of
 Gaussian, Inc. access to this program.  By using this program,
 the user acknowledges that Gaussian, Inc. is engaged in the
 business of creating and licensing software in the field of
 computational chemistry and represents and warrants to the
 licensee that it is not a competitor of Gaussian, Inc. and that
 it will not use this program in any manner prohibited above.
 ---------------------------------------------------------------
  

 Cite this work as:
 Gaussian 09, Revision E.01,
 M. J. Frisch, G. W. Trucks, H. B. Schlegel, G. E. Scuseria, 
 M. A. Robb, J. R. Cheeseman, G. Scalmani, V. Barone, B. Mennucci, 
 G. A. Petersson, H. Nakatsuji, M. Caricato, X. Li, H. P. Hratchian, 
 A. F. Izmaylov, J. Bloino, G. Zheng, J. L. Sonnenberg, M. Hada, 
 M. Ehara, K. Toyota, R. Fukuda, J. Hasegawa, M. Ishida, T. Nakajima, 
 Y. Honda, O. Kitao, H. Nakai, T. Vreven, J. A. Montgomery, Jr., 
 J. E. Peralta, F. Ogliaro, M. Bearpark, J. J. Heyd, E. Brothers, 
 K. N. Kudin, V. N. Staroverov, T. Keith, R. Kobayashi, J. Normand, 
 K. Raghavachari, A. Rendell, J. C. Burant, S. S. Iyengar, J. Tomasi, 
 M. Cossi, N. Rega, J. M. Millam, M. Klene, J. E. Knox, J. B. Cross, 
 V. Bakken, C. Adamo, J. Jaramillo, R. Gomperts, R. E. Stratmann, 
 O. Yazyev, A. J. Austin, R. Cammi, C. Pomelli, J. W. Ochterski, 
 R. L. Martin, K. Morokuma, V. G. Zakrzewski, G. A. Voth, 
 P. Salvador, J. J. Dannenberg, S. Dapprich, A. D. Daniels, 
 O. Farkas, J. B. Foresman, J. V. Ortiz, J. Cioslowski, 
 and D. J. Fox, Gaussian, Inc., Wallingford CT, 2013.
 
 ******************************************
 Gaussian 09:  ES64L-G09RevE.01 30-Nov-2015
                19-Dec-2024 
 ******************************************
 %chk=B3PW91D3BJDMANyang.chk
 -------------------------------------------------------
 # opt freq b3pw91/6-31+g(d,p) EmpiricalDispersion=GD3BJ
 -------------------------------------------------------
 1/14=-1,18=20,19=15,26=3,38=1/1,3;
 2/9=110,12=2,17=6,18=5,40=1/2;
 3/5=1,6=6,7=111,11=2,16=1,25=1,30=1,71=1,74=-6,124=41/1,2,3;
 4//1;
 5/5=2,38=5/2;
 6/7=2,8=2,9=2,10=2,28=1/1;
 7//1,2,3,16;
 1/14=-1,18=20,19=15,26=3/3(2);
 2/9=110/2;
 99//99;
 2/9=110/2;
 3/5=1,6=6,7=111,11=2,16=1,25=1,30=1,71=1,74=-6,124=41/1,2,3;
 4/5=5,16=3,69=1/1;
 5/5=2,38=5/2;
 7//1,2,3,16;
 1/14=-1,18=20,19=15,26=3/3(-5);
 2/9=110/2;
 6/7=2,8=2,9=2,10=2,19=2,28=1/1;
 99/9=1/99;
 ----------
 [No Title]
 ----------
 Symbolic Z-matrix:
 Charge =  1 Multiplicity = 1
 C                     0.75988  -2.4345    0.00011 
 C                     2.16894  -2.3914    0.00009 
 C                     2.81248  -1.17758   0.00003 
 C                     2.08644   0.04068  -0.00002 
 C                     0.64965   0.01714  -0.00001 
 C                     0.0313   -1.26886   0.00006 
 C                     2.76718   1.28422  -0.00009 
 C                     2.07197   2.46871  -0.00014 
 C                     0.66199   2.45507  -0.00013 
 C                    -0.04062   1.27005  -0.00006 
 N                    -1.44253  -1.32698   0.00008 
 N                    -1.49984   1.26805  -0.00005 
 C                    -2.00145  -1.94679  -1.23313 
 C                    -2.00142  -1.9467    1.23336 
 C                    -2.06852   1.87955   1.21836 
 C                    -2.06854   1.87949  -1.21849 
 H                     0.25805  -3.39797   0.00016 
 H                     2.73366  -3.31779   0.00013 
 H                     3.89781  -1.13423   0.00002 
 H                     3.85331   1.28322  -0.0001 
 H                     2.59908   3.41739  -0.00019 
 H                     0.12447   3.39904  -0.00017 
 H                    -1.6973   -0.22796   0.00005 
 H                    -3.08714  -1.82946  -1.2259 
 H                    -1.57834  -1.44703  -2.10502 
 H                    -1.75115  -3.00874  -1.26858 
 H                    -3.08711  -1.82938   1.22614 
 H                    -1.57829  -1.44688   2.1052 
 H                    -1.75111  -3.00865   1.26888 
 H                    -1.63295   1.41157   2.10387 
 H                    -1.8736    2.95787   1.26454 
 H                    -3.15099   1.72385   1.22488 
 H                    -1.63297   1.41148  -2.10398 
 H                    -3.151     1.72378  -1.22499 
 H                    -1.87363   2.95781  -1.26472 
 

 GradGradGradGradGradGradGradGradGradGradGradGradGradGradGradGradGradGrad
 Berny optimization.
 Initialization pass.
                           ----------------------------
                           !    Initial Parameters    !
                           ! (Angstroms and Degrees)  !
 --------------------------                            --------------------------
 ! Name  Definition              Value          Derivative Info.                !
 --------------------------------------------------------------------------------
 ! R1    R(1,2)                  1.4097         estimate D2E/DX2                !
 ! R2    R(1,6)                  1.3746         estimate D2E/DX2                !
 ! R3    R(1,17)                 1.0863         estimate D2E/DX2                !
 ! R4    R(2,3)                  1.3739         estimate D2E/DX2                !
 ! R5    R(2,18)                 1.0849         estimate D2E/DX2                !
 ! R6    R(3,4)                  1.4182         estimate D2E/DX2                !
 ! R7    R(3,19)                 1.0862         estimate D2E/DX2                !
 ! R8    R(4,5)                  1.437          estimate D2E/DX2                !
 ! R9    R(4,7)                  1.4177         estimate D2E/DX2                !
 ! R10   R(5,6)                  1.4269         estimate D2E/DX2                !
 ! R11   R(5,10)                 1.4305         estimate D2E/DX2                !
 ! R12   R(6,11)                 1.475          estimate D2E/DX2                !
 ! R13   R(7,8)                  1.3734         estimate D2E/DX2                !
 ! R14   R(7,20)                 1.0861         estimate D2E/DX2                !
 ! R15   R(8,9)                  1.41           estimate D2E/DX2                !
 ! R16   R(8,21)                 1.0853         estimate D2E/DX2                !
 ! R17   R(9,10)                 1.3776         estimate D2E/DX2                !
 ! R18   R(9,22)                 1.0863         estimate D2E/DX2                !
 ! R19   R(10,12)                1.4592         estimate D2E/DX2                !
 ! R20   R(11,13)                1.4891         estimate D2E/DX2                !
 ! R21   R(11,14)                1.4891         estimate D2E/DX2                !
 ! R22   R(11,23)                1.1282         estimate D2E/DX2                !
 ! R23   R(12,15)                1.4771         estimate D2E/DX2                !
 ! R24   R(12,16)                1.4771         estimate D2E/DX2                !
 ! R25   R(13,24)                1.092          estimate D2E/DX2                !
 ! R26   R(13,25)                1.0904         estimate D2E/DX2                !
 ! R27   R(13,26)                1.0916         estimate D2E/DX2                !
 ! R28   R(14,27)                1.092          estimate D2E/DX2                !
 ! R29   R(14,28)                1.0904         estimate D2E/DX2                !
 ! R30   R(14,29)                1.0916         estimate D2E/DX2                !
 ! R31   R(15,30)                1.0922         estimate D2E/DX2                !
 ! R32   R(15,31)                1.0968         estimate D2E/DX2                !
 ! R33   R(15,32)                1.0936         estimate D2E/DX2                !
 ! R34   R(16,33)                1.0922         estimate D2E/DX2                !
 ! R35   R(16,34)                1.0936         estimate D2E/DX2                !
 ! R36   R(16,35)                1.0968         estimate D2E/DX2                !
 ! A1    A(2,1,6)              120.2555         estimate D2E/DX2                !
 ! A2    A(2,1,17)             119.265          estimate D2E/DX2                !
 ! A3    A(6,1,17)             120.4794         estimate D2E/DX2                !
 ! A4    A(1,2,3)              119.6833         estimate D2E/DX2                !
 ! A5    A(1,2,18)             119.6139         estimate D2E/DX2                !
 ! A6    A(3,2,18)             120.7028         estimate D2E/DX2                !
 ! A7    A(2,3,4)              121.2753         estimate D2E/DX2                !
 ! A8    A(2,3,19)             120.2187         estimate D2E/DX2                !
 ! A9    A(4,3,19)             118.506          estimate D2E/DX2                !
 ! A10   A(3,4,5)              119.8548         estimate D2E/DX2                !
 ! A11   A(3,4,7)              120.5095         estimate D2E/DX2                !
 ! A12   A(5,4,7)              119.6357         estimate D2E/DX2                !
 ! A13   A(4,5,6)              116.6184         estimate D2E/DX2                !
 ! A14   A(4,5,10)             117.9131         estimate D2E/DX2                !
 ! A15   A(6,5,10)             125.4685         estimate D2E/DX2                !
 ! A16   A(1,6,5)              122.3127         estimate D2E/DX2                !
 ! A17   A(1,6,11)             119.7492         estimate D2E/DX2                !
 ! A18   A(5,6,11)             117.9381         estimate D2E/DX2                !
 ! A19   A(4,7,8)              120.8928         estimate D2E/DX2                !
 ! A20   A(4,7,20)             118.6442         estimate D2E/DX2                !
 ! A21   A(8,7,20)             120.463          estimate D2E/DX2                !
 ! A22   A(7,8,9)              119.8554         estimate D2E/DX2                !
 ! A23   A(7,8,21)             120.532          estimate D2E/DX2                !
 ! A24   A(9,8,21)             119.6125         estimate D2E/DX2                !
 ! A25   A(8,9,10)             121.2186         estimate D2E/DX2                !
 ! A26   A(8,9,22)             119.1033         estimate D2E/DX2                !
 ! A27   A(10,9,22)            119.6781         estimate D2E/DX2                !
 ! A28   A(5,10,9)             120.4843         estimate D2E/DX2                !
 ! A29   A(5,10,12)            118.7731         estimate D2E/DX2                !
 ! A30   A(9,10,12)            120.7426         estimate D2E/DX2                !
 ! A31   A(6,11,13)            113.0443         estimate D2E/DX2                !
 ! A32   A(6,11,14)            113.0444         estimate D2E/DX2                !
 ! A33   A(6,11,23)            100.7934         estimate D2E/DX2                !
 ! A34   A(13,11,14)           111.826          estimate D2E/DX2                !
 ! A35   A(13,11,23)           108.7051         estimate D2E/DX2                !
 ! A36   A(14,11,23)           108.7047         estimate D2E/DX2                !
 ! A37   A(10,12,15)           112.6085         estimate D2E/DX2                !
 ! A38   A(10,12,16)           112.6085         estimate D2E/DX2                !
 ! A39   A(15,12,16)           111.1507         estimate D2E/DX2                !
 ! A40   A(11,13,24)           108.8417         estimate D2E/DX2                !
 ! A41   A(11,13,25)           109.0137         estimate D2E/DX2                !
 ! A42   A(11,13,26)           110.2278         estimate D2E/DX2                !
 ! A43   A(24,13,25)           109.9885         estimate D2E/DX2                !
 ! A44   A(24,13,26)           109.4323         estimate D2E/DX2                !
 ! A45   A(25,13,26)           109.3251         estimate D2E/DX2                !
 ! A46   A(11,14,27)           108.8418         estimate D2E/DX2                !
 ! A47   A(11,14,28)           109.0136         estimate D2E/DX2                !
 ! A48   A(11,14,29)           110.2277         estimate D2E/DX2                !
 ! A49   A(27,14,28)           109.9884         estimate D2E/DX2                !
 ! A50   A(27,14,29)           109.4324         estimate D2E/DX2                !
 ! A51   A(28,14,29)           109.325          estimate D2E/DX2                !
 ! A52   A(12,15,30)           109.7461         estimate D2E/DX2                !
 ! A53   A(12,15,31)           111.9209         estimate D2E/DX2                !
 ! A54   A(12,15,32)           109.0895         estimate D2E/DX2                !
 ! A55   A(30,15,31)           108.4368         estimate D2E/DX2                !
 ! A56   A(30,15,32)           109.2026         estimate D2E/DX2                !
 ! A57   A(31,15,32)           108.399          estimate D2E/DX2                !
 ! A58   A(12,16,33)           109.7461         estimate D2E/DX2                !
 ! A59   A(12,16,34)           109.0895         estimate D2E/DX2                !
 ! A60   A(12,16,35)           111.9209         estimate D2E/DX2                !
 ! A61   A(33,16,34)           109.2027         estimate D2E/DX2                !
 ! A62   A(33,16,35)           108.4368         estimate D2E/DX2                !
 ! A63   A(34,16,35)           108.3989         estimate D2E/DX2                !
 ! D1    D(6,1,2,3)              0.0            estimate D2E/DX2                !
 ! D2    D(6,1,2,18)           179.9999         estimate D2E/DX2                !
 ! D3    D(17,1,2,3)          -179.9999         estimate D2E/DX2                !
 ! D4    D(17,1,2,18)            0.0            estimate D2E/DX2                !
 ! D5    D(2,1,6,5)              0.0            estimate D2E/DX2                !
 ! D6    D(2,1,6,11)          -179.9998         estimate D2E/DX2                !
 ! D7    D(17,1,6,5)           179.9999         estimate D2E/DX2                !
 ! D8    D(17,1,6,11)            0.0001         estimate D2E/DX2                !
 ! D9    D(1,2,3,4)             -0.0001         estimate D2E/DX2                !
 ! D10   D(1,2,3,19)          -180.0            estimate D2E/DX2                !
 ! D11   D(18,2,3,4)          -179.9999         estimate D2E/DX2                !
 ! D12   D(18,2,3,19)            0.0002         estimate D2E/DX2                !
 ! D13   D(2,3,4,5)              0.0            estimate D2E/DX2                !
 ! D14   D(2,3,4,7)           -180.0            estimate D2E/DX2                !
 ! D15   D(19,3,4,5)           179.9999         estimate D2E/DX2                !
 ! D16   D(19,3,4,7)            -0.0001         estimate D2E/DX2                !
 ! D17   D(3,4,5,6)              0.0001         estimate D2E/DX2                !
 ! D18   D(3,4,5,10)          -180.0            estimate D2E/DX2                !
 ! D19   D(7,4,5,6)           -179.9999         estimate D2E/DX2                !
 ! D20   D(7,4,5,10)             0.0            estimate D2E/DX2                !
 ! D21   D(3,4,7,8)            179.9999         estimate D2E/DX2                !
 ! D22   D(3,4,7,20)             0.0            estimate D2E/DX2                !
 ! D23   D(5,4,7,8)             -0.0001         estimate D2E/DX2                !
 ! D24   D(5,4,7,20)          -180.0            estimate D2E/DX2                !
 ! D25   D(4,5,6,1)             -0.0001         estimate D2E/DX2                !
 ! D26   D(4,5,6,11)           179.9997         estimate D2E/DX2                !
 ! D27   D(10,5,6,1)           179.9999         estimate D2E/DX2                !
 ! D28   D(10,5,6,11)           -0.0002         estimate D2E/DX2                !
 ! D29   D(4,5,10,9)            -0.0001         estimate D2E/DX2                !
 ! D30   D(4,5,10,12)          179.9999         estimate D2E/DX2                !
 ! D31   D(6,5,10,9)           179.9999         estimate D2E/DX2                !
 ! D32   D(6,5,10,12)           -0.0002         estimate D2E/DX2                !
 ! D33   D(1,6,11,13)          -64.1597         estimate D2E/DX2                !
 ! D34   D(1,6,11,14)           64.158          estimate D2E/DX2                !
 ! D35   D(1,6,11,23)          179.9989         estimate D2E/DX2                !
 ! D36   D(5,6,11,13)          115.8404         estimate D2E/DX2                !
 ! D37   D(5,6,11,14)         -115.8418         estimate D2E/DX2                !
 ! D38   D(5,6,11,23)           -0.0009         estimate D2E/DX2                !
 ! D39   D(4,7,8,9)              0.0001         estimate D2E/DX2                !
 ! D40   D(4,7,8,21)          -180.0            estimate D2E/DX2                !
 ! D41   D(20,7,8,9)          -180.0            estimate D2E/DX2                !
 ! D42   D(20,7,8,21)            0.0            estimate D2E/DX2                !
 ! D43   D(7,8,9,10)            -0.0001         estimate D2E/DX2                !
 ! D44   D(7,8,9,22)          -179.9999         estimate D2E/DX2                !
 ! D45   D(21,8,9,10)          179.9999         estimate D2E/DX2                !
 ! D46   D(21,8,9,22)            0.0001         estimate D2E/DX2                !
 ! D47   D(8,9,10,5)             0.0001         estimate D2E/DX2                !
 ! D48   D(8,9,10,12)         -179.9998         estimate D2E/DX2                !
 ! D49   D(22,9,10,5)          179.9999         estimate D2E/DX2                !
 ! D50   D(22,9,10,12)           0.0            estimate D2E/DX2                !
 ! D51   D(5,10,12,15)         116.6776         estimate D2E/DX2                !
 ! D52   D(5,10,12,16)        -116.6804         estimate D2E/DX2                !
 ! D53   D(9,10,12,15)         -63.3224         estimate D2E/DX2                !
 ! D54   D(9,10,12,16)          63.3195         estimate D2E/DX2                !
 ! D55   D(6,11,13,24)        -172.1663         estimate D2E/DX2                !
 ! D56   D(6,11,13,25)         -52.1916         estimate D2E/DX2                !
 ! D57   D(6,11,13,26)          67.8088         estimate D2E/DX2                !
 ! D58   D(14,11,13,24)         58.8865         estimate D2E/DX2                !
 ! D59   D(14,11,13,25)        178.8612         estimate D2E/DX2                !
 ! D60   D(14,11,13,26)        -61.1383         estimate D2E/DX2                !
 ! D61   D(23,11,13,24)        -61.1346         estimate D2E/DX2                !
 ! D62   D(23,11,13,25)         58.8401         estimate D2E/DX2                !
 ! D63   D(23,11,13,26)        178.8405         estimate D2E/DX2                !
 ! D64   D(6,11,14,27)         172.1666         estimate D2E/DX2                !
 ! D65   D(6,11,14,28)          52.1919         estimate D2E/DX2                !
 ! D66   D(6,11,14,29)         -67.8084         estimate D2E/DX2                !
 ! D67   D(13,11,14,27)        -58.8863         estimate D2E/DX2                !
 ! D68   D(13,11,14,28)       -178.8609         estimate D2E/DX2                !
 ! D69   D(13,11,14,29)         61.1387         estimate D2E/DX2                !
 ! D70   D(23,11,14,27)         61.1351         estimate D2E/DX2                !
 ! D71   D(23,11,14,28)        -58.8396         estimate D2E/DX2                !
 ! D72   D(23,11,14,29)       -178.8399         estimate D2E/DX2                !
 ! D73   D(10,12,15,30)        -52.5693         estimate D2E/DX2                !
 ! D74   D(10,12,15,31)         67.872          estimate D2E/DX2                !
 ! D75   D(10,12,15,32)       -172.1745         estimate D2E/DX2                !
 ! D76   D(16,12,15,30)       -179.9873         estimate D2E/DX2                !
 ! D77   D(16,12,15,31)        -59.546          estimate D2E/DX2                !
 ! D78   D(16,12,15,32)         60.4075         estimate D2E/DX2                !
 ! D79   D(10,12,16,33)         52.5687         estimate D2E/DX2                !
 ! D80   D(10,12,16,34)        172.174          estimate D2E/DX2                !
 ! D81   D(10,12,16,35)        -67.8726         estimate D2E/DX2                !
 ! D82   D(15,12,16,33)        179.9868         estimate D2E/DX2                !
 ! D83   D(15,12,16,34)        -60.408          estimate D2E/DX2                !
 ! D84   D(15,12,16,35)         59.5454         estimate D2E/DX2                !
 --------------------------------------------------------------------------------
 Trust Radius=3.00D-01 FncErr=1.00D-07 GrdErr=1.00D-06
 Number of steps in this run=    193 maximum allowed number of steps=    210.
 GradGradGradGradGradGradGradGradGradGradGradGradGradGradGradGradGradGrad

                          Input orientation:                          
 ---------------------------------------------------------------------
 Center     Atomic      Atomic             Coordinates (Angstroms)
 Number     Number       Type             X           Y           Z
 ---------------------------------------------------------------------
      1          6           0        0.759884   -2.434495    0.000109
      2          6           0        2.168943   -2.391396    0.000093
      3          6           0        2.812478   -1.177577    0.000029
      4          6           0        2.086443    0.040679   -0.000023
      5          6           0        0.649649    0.017141   -0.000009
      6          6           0        0.031299   -1.268855    0.000060
      7          6           0        2.767183    1.284224   -0.000089
      8          6           0        2.071967    2.468714   -0.000141
      9          6           0        0.661986    2.455065   -0.000127
     10          6           0       -0.040617    1.270052   -0.000064
     11          7           0       -1.442525   -1.326975    0.000082
     12          7           0       -1.499842    1.268051   -0.000054
     13          6           0       -2.001447   -1.946790   -1.233134
     14          6           0       -2.001415   -1.946702    1.233356
     15          6           0       -2.068522    1.879546    1.218361
     16          6           0       -2.068539    1.879488   -1.218490
     17          1           0        0.258049   -3.397974    0.000162
     18          1           0        2.733658   -3.317788    0.000134
     19          1           0        3.897810   -1.134226    0.000016
     20          1           0        3.853308    1.283221   -0.000099
     21          1           0        2.599081    3.417390   -0.000192
     22          1           0        0.124472    3.399039   -0.000170
     23          1           0       -1.697297   -0.227962    0.000051
     24          1           0       -3.087138   -1.829462   -1.225896
     25          1           0       -1.578342   -1.447034   -2.105025
     26          1           0       -1.751147   -3.008739   -1.268583
     27          1           0       -3.087106   -1.829379    1.226137
     28          1           0       -1.578291   -1.446880    2.105201
     29          1           0       -1.751108   -3.008647    1.268877
     30          1           0       -1.632947    1.411568    2.103869
     31          1           0       -1.873601    2.957866    1.264541
     32          1           0       -3.150988    1.723849    1.224878
     33          1           0       -1.632969    1.411475   -2.103981
     34          1           0       -3.151004    1.723783   -1.224989
     35          1           0       -1.873627    2.957807   -1.264719
 ---------------------------------------------------------------------
                    Distance matrix (angstroms):
                    1          2          3          4          5
     1  C    0.000000
     2  C    1.409718   0.000000
     3  C    2.406862   1.373861   0.000000
     4  C    2.808246   2.433474   1.418194   0.000000
     5  C    2.454113   2.847684   2.470866   1.436987   0.000000
     6  C    1.374610   2.414461   2.782676   2.436903   1.426935
     7  C    4.225887   3.723986   2.462218   1.417678   2.467681
     8  C    5.075729   4.861077   3.720725   2.428078   2.834290
     9  C    4.890540   5.075343   4.221458   2.803273   2.437955
    10  C    3.790049   4.276489   3.759127   2.456775   1.430473
    11  N    2.465199   3.765062   4.257625   3.784718   2.486733
    12  N    4.337650   5.181847   4.957540   3.790499   2.486984
    13  C    3.063281   4.371576   5.028544   4.709718   3.522206
    14  C    3.063268   4.371565   5.028540   4.709723   3.522216
    15  C    5.300469   6.138504   5.886807   4.704214   3.513037
    16  C    5.300510   6.138538   5.886830   4.704227   3.513058
    17  H    1.086338   2.159795   3.384564   3.894529   3.437493
    18  H    2.162404   1.084945   2.141662   3.420261   3.932537
    19  H    3.396657   2.137629   1.086197   2.159040   3.446186
    20  H    4.836392   4.042264   2.671863   2.160028   3.444763
    21  H    6.134102   5.824690   4.599920   3.415403   3.919436
    22  H    5.868038   6.140765   5.307616   3.889462   3.422433
    23  H    3.302503   4.430379   4.608670   3.793265   2.359710
    24  H    4.082736   5.426344   6.060802   5.636145   4.344689
    25  H    3.297570   4.400623   4.876798   4.480510   3.396887
    26  H    2.871343   4.166264   5.078307   5.063131   4.065594
    27  H    4.082725   5.426334   6.060798   5.636151   4.344699
    28  H    3.297553   4.400608   4.876795   4.480522   3.396908
    29  H    2.871324   4.166247   5.078298   5.063131   4.065599
    30  H    4.994362   5.774320   5.558023   4.487712   3.403083
    31  H    6.132829   6.823166   6.376536   5.078489   4.075996
    32  H    5.838391   6.836447   6.743994   5.635967   4.342585
    33  H    4.994439   5.774382   5.558061   4.487733   3.403118
    34  H    5.838423   6.836473   6.744010   5.635977   4.342599
    35  H    6.132870   6.823203   6.376564   5.078508   4.076019
                    6          7          8          9         10
     6  C    0.000000
     7  C    3.742095   0.000000
     8  C    4.258374   1.373442   0.000000
     9  C    3.776949   2.408884   1.410047   0.000000
    10  C    2.539925   2.807836   2.428951   1.377645   0.000000
    11  N    1.474970   4.953787   5.172901   4.328140   2.951253
    12  N    2.963155   4.267056   3.768211   2.466273   1.459226
    13  C    2.472331   5.890644   6.132671   5.290606   3.964012
    14  C    2.472331   5.890653   6.132687   5.290627   3.964033
    15  C    3.975668   5.022258   4.356089   3.044932   2.443039
    16  C    3.975707   5.022255   4.356071   3.044908   2.443039
    17  H    2.141159   5.312131   6.140711   5.866961   4.677571
    18  H    3.391293   4.602134   5.824212   6.133323   5.361425
    19  H    3.868854   2.669685   4.039168   4.832553   4.614300
    20  H    4.595742   1.086125   2.139759   3.399670   3.893947
    21  H    5.343631   2.139779   1.085281   2.162962   3.402803
    22  H    4.668824   3.384725   2.158296   1.086282   2.135378
    23  H    2.017796   4.713628   4.634589   3.572793   2.233525
    24  H    3.397337   6.743198   6.825918   5.823711   4.515633
    25  H    2.655951   5.547442   5.752250   4.967499   3.765371
    26  H    2.795311   6.360339   6.799091   6.106173   4.779446
    27  H    3.397337   6.743208   6.825935   5.823734   4.515655
    28  H    2.655954   5.547461   5.752280   4.967537   3.765409
    29  H    2.795308   6.360344   6.799102   6.106189   4.779462
    30  H    3.792149   4.878934   4.389852   3.283657   2.642362
    31  H    4.805489   5.092862   4.172073   2.877741   2.794239
    32  H    4.536894   6.059584   5.416157   4.071128   3.373547
    33  H    3.792222   4.878923   4.389812   3.283611   2.642357
    34  H    4.536924   6.059582   5.416143   4.071112   3.373547
    35  H    4.805526   5.092866   4.172060   2.877721   2.794243
                   11         12         13         14         15
    11  N    0.000000
    12  N    2.595659   0.000000
    13  C    1.489089   3.479554   0.000000
    14  C    1.489088   3.479585   2.466490   0.000000
    15  C    3.486811   1.477111   4.544796   3.826866   0.000000
    16  C    3.486863   1.477111   3.826894   4.544864   2.436851
    17  H    2.679737   4.986178   2.955043   2.955019   5.894842
    18  H    4.626429   6.241189   5.081516   5.081499   7.180341
    19  H    5.343812   5.908095   6.081295   6.081291   6.794432
    20  H    5.904149   5.353171   6.799375   6.799382   6.075222
    21  H    6.232462   4.628264   7.173523   7.173541   5.063235
    22  H    4.979025   2.679460   5.883674   5.883700   2.933070
    23  H    1.128157   1.508988   2.137200   2.137194   2.462453
    24  H    2.111934   3.690093   1.092036   2.690810   4.557270
    25  H    2.112898   3.436386   1.090398   3.401977   4.727717
    26  H    2.129105   4.468026   1.091624   2.729516   5.493719
    27  H    2.111934   3.690125   2.690809   1.092036   3.846258
    28  H    2.112897   3.436438   3.401978   1.090399   3.477344
    29  H    2.129104   4.468049   2.729518   1.091624   4.898748
    30  H    3.458583   2.113009   4.748679   3.488773   1.092178
    31  H    4.488268   2.143448   5.505486   4.906332   1.096768
    32  H    3.704929   2.105824   4.564741   3.846366   1.093625
    33  H    3.458679   2.113008   3.488853   4.748781   3.383305
    34  H    3.704973   2.105824   3.846382   4.564808   2.676936
    35  H    4.488310   2.143448   4.906364   5.505535   2.714096
                   16         17         18         19         20
    16  C    0.000000
    17  H    5.894890   0.000000
    18  H    7.180377   2.476907   0.000000
    19  H    6.794450   4.286306   2.474509   0.000000
    20  H    6.075219   5.902497   4.735282   2.417857   0.000000
    21  H    5.063207   7.206221   6.736522   4.733276   2.475432
    22  H    2.933025   6.798325   7.205804   5.898184   4.287296
    23  H    2.462521   3.724561   5.401887   5.668028   5.752642
    24  H    3.846285   3.892778   6.131878   7.125708   7.704620
    25  H    3.477353   3.407391   5.150219   5.875141   6.433337
    26  H    4.898776   2.407922   4.671042   6.085545   7.172161
    27  H    4.557343   3.892758   6.131863   7.125704   7.704627
    28  H    4.727789   3.407360   5.150195   5.875137   6.433351
    29  H    5.493780   2.407888   4.671017   6.085535   7.172162
    30  H    3.383306   5.579708   6.771983   6.441781   5.877257
    31  H    2.714101   6.821971   7.887293   7.187032   6.099282
    32  H    2.676932   6.273319   7.845200   7.704183   7.124246
    33  H    1.092178   5.579800   6.772050   6.441810   5.877245
    34  H    1.093626   6.273359   7.845229   7.704196   7.124243
    35  H    1.096768   6.822017   7.887333   7.187056   6.099286
                   21         22         23         24         25
    21  H    0.000000
    22  H    2.474677   0.000000
    23  H    5.634488   4.058815   0.000000
    24  H    7.833575   6.257321   2.449369   0.000000
    25  H    6.748615   5.551073   2.435494   1.787620   0.000000
    26  H    7.863106   6.796060   3.056968   1.782523   1.780005
    27  H    7.833594   6.257349   2.449366   2.452033   3.676846
    28  H    6.748647   5.551119   2.435484   3.676846   4.210226
    29  H    7.863118   6.796081   3.056963   3.065835   3.721787
    30  H    5.134243   3.386081   2.668005   4.868910   5.088160
    31  H    4.670717   2.405499   3.432130   5.531135   5.553764
    32  H    6.118184   3.877582   2.724516   4.316988   4.859626
    33  H    5.134186   3.386005   2.668116   3.659141   2.859031
    34  H    6.118162   3.877552   2.724573   3.553819   3.647165
    35  H    4.670692   2.405446   3.432180   4.938832   4.493988
                   26         27         28         29         30
    26  H    0.000000
    27  H    3.065828   0.000000
    28  H    3.721787   1.787619   0.000000
    29  H    2.537460   1.782524   1.780006   0.000000
    30  H    5.561162   3.659061   2.858971   4.499942   0.000000
    31  H    6.483216   4.938804   4.493963   5.967772   1.775788
    32  H    5.529402   3.553802   3.647172   4.935394   1.781739
    33  H    4.500016   4.869018   5.088261   5.561259   4.207850
    34  H    4.935409   4.317066   4.859701   5.529464   3.671957
    35  H    5.967804   5.531188   5.553814   6.483263   3.714319
                   31         32         33         34         35
    31  H    0.000000
    32  H    1.776538   0.000000
    33  H    3.714320   3.671956   0.000000
    34  H    3.058182   2.449867   1.781739   0.000000
    35  H    2.529260   3.058169   1.775787   1.776538   0.000000
 Stoichiometry    C14H19N2(1+)
 Framework group  C1[X(C14H19N2)]
 Deg. of freedom    99
 Full point group                 C1      NOp   1
 Largest Abelian subgroup         C1      NOp   1
 Largest concise Abelian subgroup C1      NOp   1
                         Standard orientation:                         
 ---------------------------------------------------------------------
 Center     Atomic      Atomic             Coordinates (Angstroms)
 Number     Number       Type             X           Y           Z
 ---------------------------------------------------------------------
      1          6           0        0.759885   -2.434495    0.000109
      2          6           0        2.168944   -2.391395    0.000093
      3          6           0        2.812478   -1.177576    0.000029
      4          6           0        2.086443    0.040680   -0.000023
      5          6           0        0.649649    0.017141   -0.000009
      6          6           0        0.031299   -1.268855    0.000060
      7          6           0        2.767183    1.284225   -0.000089
      8          6           0        2.071966    2.468715   -0.000141
      9          6           0        0.661985    2.455065   -0.000127
     10          6           0       -0.040617    1.270052   -0.000064
     11          7           0       -1.442525   -1.326975    0.000082
     12          7           0       -1.499842    1.268051   -0.000054
     13          6           0       -2.001446   -1.946791   -1.233134
     14          6           0       -2.001414   -1.946703    1.233356
     15          6           0       -2.068523    1.879545    1.218361
     16          6           0       -2.068540    1.879487   -1.218490
     17          1           0        0.258050   -3.397974    0.000162
     18          1           0        2.733659   -3.317787    0.000134
     19          1           0        3.897810   -1.134225    0.000016
     20          1           0        3.853308    1.283222   -0.000099
     21          1           0        2.599080    3.417391   -0.000192
     22          1           0        0.124471    3.399039   -0.000170
     23          1           0       -1.697297   -0.227963    0.000051
     24          1           0       -3.087137   -1.829463   -1.225896
     25          1           0       -1.578342   -1.447034   -2.105025
     26          1           0       -1.751146   -3.008740   -1.268583
     27          1           0       -3.087105   -1.829380    1.226137
     28          1           0       -1.578291   -1.446880    2.105201
     29          1           0       -1.751107   -3.008648    1.268877
     30          1           0       -1.632947    1.411568    2.103869
     31          1           0       -1.873602    2.957865    1.264541
     32          1           0       -3.150988    1.723848    1.224878
     33          1           0       -1.632969    1.411475   -2.103981
     34          1           0       -3.151004    1.723782   -1.224989
     35          1           0       -1.873628    2.957806   -1.264719
 ---------------------------------------------------------------------
 Rotational constants (GHZ):      0.6382957      0.6046595      0.3552615
 Standard basis: 6-31+G(d,p) (6D, 7F)
 There are   399 symmetry adapted cartesian basis functions of A   symmetry.
 There are   399 symmetry adapted basis functions of A   symmetry.
   399 basis functions,   645 primitive gaussians,   399 cartesian basis functions
    58 alpha electrons       58 beta electrons
       nuclear repulsion energy      1138.7788830633 Hartrees.
 NAtoms=   35 NActive=   35 NUniq=   35 SFac= 1.00D+00 NAtFMM=   60 NAOKFM=F Big=F
 Integral buffers will be    131072 words long.
 Raffenetti 2 integral format.
 Two-electron integral symmetry is turned on.
 Nuclear repulsion after empirical dispersion term =     1138.7002043184 Hartrees.
 One-electron integrals computed using PRISM.
 NBasis=   399 RedAO= T EigKep=  1.57D-06  NBF=   399
 NBsUse=   395 1.00D-06 EigRej=  8.29D-07 NBFU=   395
 ExpMin= 4.38D-02 ExpMax= 4.17D+03 ExpMxC= 6.27D+02 IAcc=2 IRadAn=         4 AccDes= 0.00D+00
 Harris functional with IExCor=  408 and IRadAn=       4 diagonalized for initial guess.
 HarFok:  IExCor=  408 AccDes= 0.00D+00 IRadAn=         4 IDoV= 1 UseB2=F ITyADJ=14
 ICtDFT=  3500011 ScaDFX=  1.000000  1.000000  1.000000  1.000000
 FoFCou: FMM=F IPFlag=           0 FMFlag=      100000 FMFlg1=           0
         NFxFlg=           0 DoJE=T BraDBF=F KetDBF=T FulRan=T
         wScrn=  0.000000 ICntrl=     500 IOpCl=  0 I1Cent=   200000004 NGrid=           0
         NMat0=    1 NMatS0=      1 NMatT0=    0 NMatD0=    1 NMtDS0=    0 NMtDT0=    0
 Petite list used in FoFCou.
 Requested convergence on RMS density matrix=1.00D-08 within 128 cycles.
 Requested convergence on MAX density matrix=1.00D-06.
 Requested convergence on             energy=1.00D-06.
 No special actions if energy rises.
 SCF Done:  E(RB3PW91) =  -654.088989639     A.U. after   14 cycles
            NFock= 14  Conv=0.72D-08     -V/T= 2.0097

 **********************************************************************

            Population analysis using the SCF density.

 **********************************************************************

 Orbital symmetries:
       Occupied  (A) (A) (A) (A) (A) (A) (A) (A) (A) (A) (A) (A)
                 (A) (A) (A) (A) (A) (A) (A) (A) (A) (A) (A) (A)
                 (A) (A) (A) (A) (A) (A) (A) (A) (A) (A) (A) (A)
                 (A) (A) (A) (A) (A) (A) (A) (A) (A) (A) (A) (A)
                 (A) (A) (A) (A) (A) (A) (A) (A) (A) (A)
       Virtual   (A) (A) (A) (A) (A) (A) (A) (A) (A) (A) (A) (A)
                 (A) (A) (A) (A) (A) (A) (A) (A) (A) (A) (A) (A)
                 (A) (A) (A) (A) (A) (A) (A) (A) (A) (A) (A) (A)
                 (A) (A) (A) (A) (A) (A) (A) (A) (A) (A) (A) (A)
                 (A) (A) (A) (A) (A) (A) (A) (A) (A) (A) (A) (A)
                 (A) (A) (A) (A) (A) (A) (A) (A) (A) (A) (A) (A)
                 (A) (A) (A) (A) (A) (A) (A) (A) (A) (A) (A) (A)
                 (A) (A) (A) (A) (A) (A) (A) (A) (A) (A) (A) (A)
                 (A) (A) (A) (A) (A) (A) (A) (A) (A) (A) (A) (A)
                 (A) (A) (A) (A) (A) (A) (A) (A) (A) (A) (A) (A)
                 (A) (A) (A) (A) (A) (A) (A) (A) (A) (A) (A) (A)
                 (A) (A) (A) (A) (A) (A) (A) (A) (A) (A) (A) (A)
                 (A) (A) (A) (A) (A) (A) (A) (A) (A) (A) (A) (A)
                 (A) (A) (A) (A) (A) (A) (A) (A) (A) (A) (A) (A)
                 (A) (A) (A) (A) (A) (A) (A) (A) (A) (A) (A) (A)
                 (A) (A) (A) (A) (A) (A) (A) (A) (A) (A) (A) (A)
                 (A) (A) (A) (A) (A) (A) (A) (A) (A) (A) (A) (A)
                 (A) (A) (A) (A) (A) (A) (A) (A) (A) (A) (A) (A)
                 (A) (A) (A) (A) (A) (A) (A) (A) (A) (A) (A) (A)
                 (A) (A) (A) (A) (A) (A) (A) (A) (A) (A) (A) (A)
                 (A) (A) (A) (A) (A) (A) (A) (A) (A) (A) (A) (A)
                 (A) (A) (A) (A) (A) (A) (A) (A) (A) (A) (A) (A)
                 (A) (A) (A) (A) (A) (A) (A) (A) (A) (A) (A) (A)
                 (A) (A) (A) (A) (A) (A) (A) (A) (A) (A) (A) (A)
                 (A) (A) (A) (A) (A) (A) (A) (A) (A) (A) (A) (A)
                 (A) (A) (A) (A) (A) (A) (A) (A) (A) (A) (A) (A)
                 (A) (A) (A) (A) (A) (A) (A) (A) (A) (A) (A) (A)
                 (A) (A) (A) (A) (A) (A) (A) (A) (A) (A) (A) (A)
                 (A)
 The electronic state is 1-A.
 Alpha  occ. eigenvalues --  -14.56363 -14.50443 -10.36919 -10.36169 -10.36169
 Alpha  occ. eigenvalues --  -10.35625 -10.34094 -10.33541 -10.33541 -10.32837
 Alpha  occ. eigenvalues --  -10.32825 -10.31779 -10.31527 -10.31460 -10.31087
 Alpha  occ. eigenvalues --  -10.31020  -1.14838  -1.09381  -1.01490  -0.96330
 Alpha  occ. eigenvalues --   -0.91901  -0.88994  -0.88731  -0.86913  -0.85676
 Alpha  occ. eigenvalues --   -0.82880  -0.79779  -0.77075  -0.75130  -0.72326
 Alpha  occ. eigenvalues --   -0.68548  -0.66928  -0.66120  -0.63899  -0.63709
 Alpha  occ. eigenvalues --   -0.62570  -0.60464  -0.60063  -0.59511  -0.57540
 Alpha  occ. eigenvalues --   -0.56655  -0.56652  -0.55383  -0.54903  -0.54226
 Alpha  occ. eigenvalues --   -0.53876  -0.52965  -0.52653  -0.52263  -0.51300
 Alpha  occ. eigenvalues --   -0.50962  -0.48317  -0.47801  -0.46655  -0.42564
 Alpha  occ. eigenvalues --   -0.39478  -0.38768  -0.35725
 Alpha virt. eigenvalues --   -0.18702  -0.15540  -0.11929  -0.11385  -0.08990
 Alpha virt. eigenvalues --   -0.08334  -0.08218  -0.07946  -0.07330  -0.06244
 Alpha virt. eigenvalues --   -0.06032  -0.05703  -0.05296  -0.04693  -0.04513
 Alpha virt. eigenvalues --   -0.04022  -0.03790  -0.03327  -0.03008  -0.02850
 Alpha virt. eigenvalues --   -0.02326  -0.01424  -0.01162  -0.01085  -0.00348
 Alpha virt. eigenvalues --    0.00406   0.00863   0.01747   0.01851   0.01911
 Alpha virt. eigenvalues --    0.02779   0.03172   0.03380   0.03523   0.03733
 Alpha virt. eigenvalues --    0.03801   0.04663   0.05025   0.05058   0.05981
 Alpha virt. eigenvalues --    0.07067   0.07071   0.07282   0.07830   0.07935
 Alpha virt. eigenvalues --    0.08048   0.08345   0.08431   0.08758   0.09145
 Alpha virt. eigenvalues --    0.09415   0.09770   0.10000   0.11119   0.11692
 Alpha virt. eigenvalues --    0.11710   0.11871   0.12747   0.13023   0.13905
 Alpha virt. eigenvalues --    0.13941   0.14011   0.14792   0.15259   0.16010
 Alpha virt. eigenvalues --    0.16198   0.16453   0.16530   0.16725   0.16799
 Alpha virt. eigenvalues --    0.17424   0.17458   0.17687   0.17689   0.18362
 Alpha virt. eigenvalues --    0.19128   0.19975   0.20588   0.20925   0.22330
 Alpha virt. eigenvalues --    0.22796   0.23385   0.23572   0.23781   0.23970
 Alpha virt. eigenvalues --    0.26144   0.26745   0.27647   0.27696   0.28382
 Alpha virt. eigenvalues --    0.29874   0.29955   0.32569   0.32754   0.33781
 Alpha virt. eigenvalues --    0.36164   0.39756   0.41420   0.43495   0.49017
 Alpha virt. eigenvalues --    0.52106   0.52696   0.53079   0.53862   0.54975
 Alpha virt. eigenvalues --    0.55290   0.56400   0.57147   0.58950   0.59167
 Alpha virt. eigenvalues --    0.59732   0.60390   0.61537   0.61554   0.62543
 Alpha virt. eigenvalues --    0.64064   0.64491   0.64975   0.65573   0.65735
 Alpha virt. eigenvalues --    0.66686   0.67083   0.67186   0.68763   0.69010
 Alpha virt. eigenvalues --    0.71036   0.72499   0.74156   0.74180   0.74570
 Alpha virt. eigenvalues --    0.76143   0.77239   0.78328   0.79105   0.80030
 Alpha virt. eigenvalues --    0.81585   0.82472   0.82895   0.84686   0.85092
 Alpha virt. eigenvalues --    0.85250   0.85772   0.87161   0.87906   0.88468
 Alpha virt. eigenvalues --    0.89644   0.89731   0.90817   0.91565   0.91948
 Alpha virt. eigenvalues --    0.92568   0.93667   0.95151   0.98157   0.98945
 Alpha virt. eigenvalues --    0.99656   1.01623   1.02001   1.04165   1.04230
 Alpha virt. eigenvalues --    1.04249   1.06133   1.06462   1.06842   1.07996
 Alpha virt. eigenvalues --    1.09476   1.09638   1.13001   1.13711   1.15078
 Alpha virt. eigenvalues --    1.15457   1.16999   1.17596   1.19111   1.20528
 Alpha virt. eigenvalues --    1.22525   1.24055   1.26169   1.27364   1.27978
 Alpha virt. eigenvalues --    1.30001   1.30566   1.32335   1.33497   1.36319
 Alpha virt. eigenvalues --    1.36592   1.39210   1.40216   1.41137   1.42063
 Alpha virt. eigenvalues --    1.44236   1.45341   1.45880   1.54879   1.60415
 Alpha virt. eigenvalues --    1.63115   1.63858   1.64534   1.67538   1.68391
 Alpha virt. eigenvalues --    1.70653   1.72082   1.74029   1.75765   1.76373
 Alpha virt. eigenvalues --    1.77727   1.77864   1.78668   1.78810   1.80233
 Alpha virt. eigenvalues --    1.80747   1.82545   1.83901   1.85809   1.85845
 Alpha virt. eigenvalues --    1.86306   1.86866   1.87237   1.88222   1.88844
 Alpha virt. eigenvalues --    1.89206   1.90106   1.90141   1.91591   1.94648
 Alpha virt. eigenvalues --    1.94891   1.95607   1.96175   1.96660   1.98631
 Alpha virt. eigenvalues --    1.99174   1.99449   2.00852   2.01675   2.02626
 Alpha virt. eigenvalues --    2.03548   2.03788   2.09861   2.11475   2.11507
 Alpha virt. eigenvalues --    2.14681   2.15004   2.16565   2.19394   2.20558
 Alpha virt. eigenvalues --    2.22143   2.24097   2.25243   2.25669   2.26611
 Alpha virt. eigenvalues --    2.27308   2.28231   2.28969   2.29434   2.31631
 Alpha virt. eigenvalues --    2.33289   2.37128   2.37157   2.38291   2.39238
 Alpha virt. eigenvalues --    2.43303   2.44146   2.44788   2.45822   2.46477
 Alpha virt. eigenvalues --    2.46663   2.47682   2.48433   2.50720   2.52426
 Alpha virt. eigenvalues --    2.52567   2.55303   2.55719   2.56795   2.57792
 Alpha virt. eigenvalues --    2.58616   2.59530   2.60723   2.60787   2.60947
 Alpha virt. eigenvalues --    2.62821   2.64198   2.66812   2.67656   2.71912
 Alpha virt. eigenvalues --    2.71913   2.73271   2.73438   2.76130   2.76284
 Alpha virt. eigenvalues --    2.77100   2.79447   2.80973   2.85627   2.88271
 Alpha virt. eigenvalues --    2.93153   2.96786   2.98868   3.05493   3.07287
 Alpha virt. eigenvalues --    3.13018   3.13353   3.13801   3.14833   3.15172
 Alpha virt. eigenvalues --    3.16614   3.19940   3.23813   3.25732   3.27330
 Alpha virt. eigenvalues --    3.30669   3.30737   3.31387   3.32406   3.33536
 Alpha virt. eigenvalues --    3.35656   3.37807   3.41426   3.51143   3.64520
 Alpha virt. eigenvalues --    3.72657   4.16791   4.20964   4.22204   4.27716
 Alpha virt. eigenvalues --    4.31018   4.33763   4.35658   4.40817   4.42069
 Alpha virt. eigenvalues --    4.43068   4.46374   4.52482   4.55917   4.58921
 Alpha virt. eigenvalues --    4.60582   4.81727
          Condensed to atoms (all electrons):
               1          2          3          4          5          6
     1  C    7.238659   0.400747  -1.338072   0.503184  -0.600162  -1.386197
     2  C    0.400747   6.495239  -0.700871  -0.378913   0.811002  -0.547644
     3  C   -1.338072  -0.700871  11.692792  -2.140915  -2.727328   1.967446
     4  C    0.503184  -0.378913  -2.140915   9.585891   1.336168  -0.034956
     5  C   -0.600162   0.811002  -2.727328   1.336168   8.718336   0.508391
     6  C   -1.386197  -0.547644   1.967446  -0.034956   0.508391   9.810519
     7  C    0.597406  -0.010424  -0.312693  -2.014250  -2.506422  -1.214235
     8  C   -0.227043  -0.133530  -0.149693  -0.385602   0.994234   0.065384
     9  C    0.261031  -0.214032   0.734526   0.621455  -0.792942   0.200380
    10  C    0.132634   0.050040  -1.149389  -0.084437   0.746642  -1.246498
    11  N   -0.117693   0.054465   0.098346  -0.182215  -0.083749  -0.525433
    12  N    0.034334   0.022186  -0.138258  -0.156794  -0.091439  -0.086826
    13  C    0.130147   0.026286   0.054238  -0.102152  -0.100700  -0.679700
    14  C    0.130143   0.026284   0.054239  -0.102150  -0.100701  -0.679694
    15  C    0.041997   0.004524  -0.066756  -0.089098  -0.080066   0.031684
    16  C    0.041998   0.004524  -0.066757  -0.089096  -0.080068   0.031684
    17  H    0.179228   0.109397   0.071279  -0.044417  -0.009281  -0.042667
    18  H    0.030499   0.193089   0.095344  -0.017405  -0.030043   0.050947
    19  H    0.008713   0.065642   0.176318   0.010860   0.052126  -0.022385
    20  H   -0.000447   0.008766   0.004147   0.011688   0.056002   0.004282
    21  H    0.000979   0.000575   0.002358  -0.009371  -0.031781   0.001184
    22  H   -0.001605   0.000998  -0.003155  -0.039145  -0.000893  -0.010579
    23  H   -0.006769  -0.009475   0.018992   0.039240  -0.038775  -0.017320
    24  H   -0.021971   0.001992  -0.001451  -0.000281   0.011799   0.109276
    25  H    0.025185  -0.002533  -0.000056  -0.001364  -0.008164  -0.073291
    26  H    0.035449  -0.002791   0.003603  -0.006462  -0.011882  -0.083055
    27  H   -0.021972   0.001993  -0.001451  -0.000282   0.011799   0.109275
    28  H    0.025191  -0.002533  -0.000056  -0.001362  -0.008168  -0.073298
    29  H    0.035446  -0.002790   0.003603  -0.006463  -0.011881  -0.083052
    30  H    0.006942  -0.000423   0.000705   0.001731  -0.015369   0.003824
    31  H    0.000288  -0.000159  -0.000675  -0.003603  -0.006475  -0.000869
    32  H   -0.002067   0.000243   0.000012  -0.001660   0.011835  -0.010877
    33  H    0.006943  -0.000423   0.000706   0.001733  -0.015372   0.003826
    34  H   -0.002067   0.000243   0.000012  -0.001660   0.011835  -0.010877
    35  H    0.000288  -0.000159  -0.000675  -0.003604  -0.006474  -0.000870
               7          8          9         10         11         12
     1  C    0.597406  -0.227043   0.261031   0.132634  -0.117693   0.034334
     2  C   -0.010424  -0.133530  -0.214032   0.050040   0.054465   0.022186
     3  C   -0.312693  -0.149693   0.734526  -1.149389   0.098346  -0.138258
     4  C   -2.014250  -0.385602   0.621455  -0.084437  -0.182215  -0.156794
     5  C   -2.506422   0.994234  -0.792942   0.746642  -0.083749  -0.091439
     6  C   -1.214235   0.065384   0.200380  -1.246498  -0.525433  -0.086826
     7  C   11.732614  -0.799794  -1.336816   1.795419  -0.151885   0.124501
     8  C   -0.799794   6.587503   0.222063  -0.429750   0.028172   0.063667
     9  C   -1.336816   0.222063   7.321718  -1.354698   0.040296  -0.156576
    10  C    1.795419  -0.429750  -1.354698   9.513738  -0.075784  -0.492493
    11  N   -0.151885   0.028172   0.040296  -0.075784   7.861871  -0.238958
    12  N    0.124501   0.063667  -0.156576  -0.492493  -0.238958   8.039447
    13  C   -0.069017   0.005188   0.047827   0.032999   0.311966  -0.017620
    14  C   -0.069016   0.005188   0.047827   0.033001   0.311964  -0.017622
    15  C    0.060281   0.023841   0.101513  -0.653152  -0.020328   0.307458
    16  C    0.060281   0.023836   0.101511  -0.653135  -0.020333   0.307460
    17  H   -0.003742   0.001180  -0.001733  -0.010806   0.036376  -0.000186
    18  H   -0.000775   0.000535   0.001182   0.001004   0.000187  -0.000034
    19  H    0.008286   0.009439  -0.000329   0.003286  -0.000120   0.000218
    20  H    0.168869   0.073520   0.006868  -0.021590   0.000223  -0.000140
    21  H    0.086612   0.192524   0.039012   0.042324  -0.000034  -0.000207
    22  H    0.063180   0.103475   0.181801  -0.041550  -0.000058   0.030327
    23  H    0.001785  -0.006874   0.000546   0.034849   0.159282   0.086190
    24  H    0.000269   0.000225  -0.002504  -0.014789  -0.075423   0.004904
    25  H    0.000420  -0.000121   0.005580   0.004365  -0.022472   0.001405
    26  H   -0.001162  -0.000212   0.000888   0.001249  -0.011585  -0.002182
    27  H    0.000269   0.000225  -0.002504  -0.014789  -0.075423   0.004904
    28  H    0.000420  -0.000121   0.005581   0.004366  -0.022472   0.001405
    29  H   -0.001162  -0.000212   0.000888   0.001249  -0.011585  -0.002182
    30  H    0.002226  -0.003675   0.036952  -0.086609   0.002039  -0.026530
    31  H    0.000782  -0.003222   0.023801  -0.050014  -0.002867  -0.035833
    32  H   -0.001502   0.001905  -0.023858   0.099129   0.006376  -0.083411
    33  H    0.002225  -0.003674   0.036959  -0.086612   0.002037  -0.026533
    34  H   -0.001502   0.001905  -0.023858   0.099124   0.006376  -0.083409
    35  H    0.000782  -0.003224   0.023794  -0.050010  -0.002867  -0.035831
              13         14         15         16         17         18
     1  C    0.130147   0.130143   0.041997   0.041998   0.179228   0.030499
     2  C    0.026286   0.026284   0.004524   0.004524   0.109397   0.193089
     3  C    0.054238   0.054239  -0.066756  -0.066757   0.071279   0.095344
     4  C   -0.102152  -0.102150  -0.089098  -0.089096  -0.044417  -0.017405
     5  C   -0.100700  -0.100701  -0.080066  -0.080068  -0.009281  -0.030043
     6  C   -0.679700  -0.679694   0.031684   0.031684  -0.042667   0.050947
     7  C   -0.069017  -0.069016   0.060281   0.060281  -0.003742  -0.000775
     8  C    0.005188   0.005188   0.023841   0.023836   0.001180   0.000535
     9  C    0.047827   0.047827   0.101513   0.101511  -0.001733   0.001182
    10  C    0.032999   0.033001  -0.653152  -0.653135  -0.010806   0.001004
    11  N    0.311966   0.311964  -0.020328  -0.020333   0.036376   0.000187
    12  N   -0.017620  -0.017622   0.307458   0.307460  -0.000186  -0.000034
    13  C    5.426734  -0.011781  -0.035693  -0.029642   0.015095   0.000358
    14  C   -0.011781   5.426735  -0.029644  -0.035693   0.015095   0.000358
    15  C   -0.035693  -0.029644   5.381977  -0.003075  -0.000311  -0.000009
    16  C   -0.029642  -0.035693  -0.003075   5.381968  -0.000311  -0.000009
    17  H    0.015095   0.015095  -0.000311  -0.000311   0.521814  -0.003816
    18  H    0.000358   0.000358  -0.000009  -0.000009  -0.003816   0.493195
    19  H   -0.000082  -0.000082   0.000058   0.000058  -0.000157  -0.003668
    20  H    0.000055   0.000055  -0.000107  -0.000107   0.000000  -0.000006
    21  H    0.000001   0.000001   0.000271   0.000271  -0.000000  -0.000000
    22  H   -0.000223  -0.000223   0.016049   0.016049  -0.000000  -0.000000
    23  H   -0.016480  -0.016482  -0.027961  -0.027960  -0.000000   0.000002
    24  H    0.365912  -0.025692   0.003117   0.004924   0.000019  -0.000000
    25  H    0.420053   0.017745  -0.000118  -0.004127   0.000135  -0.000000
    26  H    0.436413  -0.001931  -0.000309  -0.001365   0.000038   0.000005
    27  H   -0.025692   0.365913   0.004924   0.003117   0.000019  -0.000000
    28  H    0.017745   0.420054  -0.004127  -0.000118   0.000135  -0.000000
    29  H   -0.001930   0.436411  -0.001364  -0.000309   0.000038   0.000005
    30  H   -0.000273  -0.005045   0.426087   0.018018   0.000000  -0.000000
    31  H    0.000252  -0.000310   0.431968  -0.005386  -0.000000  -0.000000
    32  H    0.002106   0.003410   0.381496  -0.024621   0.000000   0.000000
    33  H   -0.005044  -0.000273   0.018016   0.426089   0.000000  -0.000000
    34  H    0.003409   0.002106  -0.024621   0.381498   0.000000   0.000000
    35  H   -0.000310   0.000252  -0.005382   0.431967  -0.000000  -0.000000
              19         20         21         22         23         24
     1  C    0.008713  -0.000447   0.000979  -0.001605  -0.006769  -0.021971
     2  C    0.065642   0.008766   0.000575   0.000998  -0.009475   0.001992
     3  C    0.176318   0.004147   0.002358  -0.003155   0.018992  -0.001451
     4  C    0.010860   0.011688  -0.009371  -0.039145   0.039240  -0.000281
     5  C    0.052126   0.056002  -0.031781  -0.000893  -0.038775   0.011799
     6  C   -0.022385   0.004282   0.001184  -0.010579  -0.017320   0.109276
     7  C    0.008286   0.168869   0.086612   0.063180   0.001785   0.000269
     8  C    0.009439   0.073520   0.192524   0.103475  -0.006874   0.000225
     9  C   -0.000329   0.006868   0.039012   0.181801   0.000546  -0.002504
    10  C    0.003286  -0.021590   0.042324  -0.041550   0.034849  -0.014789
    11  N   -0.000120   0.000223  -0.000034  -0.000058   0.159282  -0.075423
    12  N    0.000218  -0.000140  -0.000207   0.030327   0.086190   0.004904
    13  C   -0.000082   0.000055   0.000001  -0.000223  -0.016480   0.365912
    14  C   -0.000082   0.000055   0.000001  -0.000223  -0.016482  -0.025692
    15  C    0.000058  -0.000107   0.000271   0.016049  -0.027961   0.003117
    16  C    0.000058  -0.000107   0.000271   0.016049  -0.027960   0.004924
    17  H   -0.000157   0.000000  -0.000000  -0.000000  -0.000000   0.000019
    18  H   -0.003668  -0.000006  -0.000000  -0.000000   0.000002  -0.000000
    19  H    0.505094   0.002377  -0.000007   0.000000  -0.000000   0.000000
    20  H    0.002377   0.506692  -0.003638  -0.000156  -0.000000   0.000000
    21  H   -0.000007  -0.003638   0.495268  -0.003851   0.000001   0.000000
    22  H    0.000000  -0.000156  -0.003851   0.519929   0.000011   0.000000
    23  H   -0.000000  -0.000000   0.000001   0.000011   0.342944  -0.003248
    24  H    0.000000   0.000000   0.000000   0.000000  -0.003248   0.486611
    25  H    0.000000  -0.000000  -0.000000   0.000000  -0.003001  -0.020506
    26  H   -0.000000  -0.000000  -0.000000  -0.000000   0.003158  -0.024478
    27  H    0.000000   0.000000   0.000000   0.000000  -0.003248   0.001851
    28  H    0.000000  -0.000000  -0.000000   0.000000  -0.003001   0.000116
    29  H   -0.000000  -0.000000  -0.000000  -0.000000   0.003158  -0.000407
    30  H   -0.000000   0.000000  -0.000000   0.000123  -0.002180   0.000000
    31  H    0.000000  -0.000000   0.000009   0.000545   0.001452   0.000000
    32  H    0.000000   0.000000  -0.000000  -0.000000  -0.002110   0.000004
    33  H   -0.000000   0.000000  -0.000000   0.000123  -0.002179  -0.000035
    34  H    0.000000   0.000000  -0.000000  -0.000000  -0.002109  -0.000058
    35  H    0.000000  -0.000000   0.000009   0.000545   0.001451   0.000006
              25         26         27         28         29         30
     1  C    0.025185   0.035449  -0.021972   0.025191   0.035446   0.006942
     2  C   -0.002533  -0.002791   0.001993  -0.002533  -0.002790  -0.000423
     3  C   -0.000056   0.003603  -0.001451  -0.000056   0.003603   0.000705
     4  C   -0.001364  -0.006462  -0.000282  -0.001362  -0.006463   0.001731
     5  C   -0.008164  -0.011882   0.011799  -0.008168  -0.011881  -0.015369
     6  C   -0.073291  -0.083055   0.109275  -0.073298  -0.083052   0.003824
     7  C    0.000420  -0.001162   0.000269   0.000420  -0.001162   0.002226
     8  C   -0.000121  -0.000212   0.000225  -0.000121  -0.000212  -0.003675
     9  C    0.005580   0.000888  -0.002504   0.005581   0.000888   0.036952
    10  C    0.004365   0.001249  -0.014789   0.004366   0.001249  -0.086609
    11  N   -0.022472  -0.011585  -0.075423  -0.022472  -0.011585   0.002039
    12  N    0.001405  -0.002182   0.004904   0.001405  -0.002182  -0.026530
    13  C    0.420053   0.436413  -0.025692   0.017745  -0.001930  -0.000273
    14  C    0.017745  -0.001931   0.365913   0.420054   0.436411  -0.005045
    15  C   -0.000118  -0.000309   0.004924  -0.004127  -0.001364   0.426087
    16  C   -0.004127  -0.001365   0.003117  -0.000118  -0.000309   0.018018
    17  H    0.000135   0.000038   0.000019   0.000135   0.000038   0.000000
    18  H   -0.000000   0.000005  -0.000000  -0.000000   0.000005  -0.000000
    19  H    0.000000  -0.000000   0.000000   0.000000  -0.000000  -0.000000
    20  H   -0.000000  -0.000000   0.000000  -0.000000  -0.000000   0.000000
    21  H   -0.000000  -0.000000   0.000000  -0.000000  -0.000000  -0.000000
    22  H    0.000000  -0.000000   0.000000   0.000000  -0.000000   0.000123
    23  H   -0.003001   0.003158  -0.003248  -0.003001   0.003158  -0.002180
    24  H   -0.020506  -0.024478   0.001851   0.000116  -0.000407   0.000000
    25  H    0.477075  -0.020843   0.000116  -0.000181  -0.000009  -0.000001
    26  H   -0.020843   0.480151  -0.000407  -0.000009   0.003213   0.000000
    27  H    0.000116  -0.000407   0.486611  -0.020506  -0.024478  -0.000035
    28  H   -0.000181  -0.000009  -0.020506   0.477075  -0.020843   0.000088
    29  H   -0.000009   0.003213  -0.024478  -0.020843   0.480152   0.000013
    30  H   -0.000001   0.000000  -0.000035   0.000088   0.000013   0.507631
    31  H    0.000000  -0.000000   0.000006   0.000016  -0.000001  -0.025470
    32  H    0.000000   0.000000  -0.000058  -0.000045   0.000005  -0.021680
    33  H    0.000088   0.000013   0.000000  -0.000001   0.000000  -0.000194
    34  H   -0.000045   0.000005   0.000004   0.000000   0.000000   0.000163
    35  H    0.000016  -0.000001   0.000000   0.000000  -0.000000  -0.000084
              31         32         33         34         35
     1  C    0.000288  -0.002067   0.006943  -0.002067   0.000288
     2  C   -0.000159   0.000243  -0.000423   0.000243  -0.000159
     3  C   -0.000675   0.000012   0.000706   0.000012  -0.000675
     4  C   -0.003603  -0.001660   0.001733  -0.001660  -0.003604
     5  C   -0.006475   0.011835  -0.015372   0.011835  -0.006474
     6  C   -0.000869  -0.010877   0.003826  -0.010877  -0.000870
     7  C    0.000782  -0.001502   0.002225  -0.001502   0.000782
     8  C   -0.003222   0.001905  -0.003674   0.001905  -0.003224
     9  C    0.023801  -0.023858   0.036959  -0.023858   0.023794
    10  C   -0.050014   0.099129  -0.086612   0.099124  -0.050010
    11  N   -0.002867   0.006376   0.002037   0.006376  -0.002867
    12  N   -0.035833  -0.083411  -0.026533  -0.083409  -0.035831
    13  C    0.000252   0.002106  -0.005044   0.003409  -0.000310
    14  C   -0.000310   0.003410  -0.000273   0.002106   0.000252
    15  C    0.431968   0.381496   0.018016  -0.024621  -0.005382
    16  C   -0.005386  -0.024621   0.426089   0.381498   0.431967
    17  H   -0.000000   0.000000   0.000000   0.000000  -0.000000
    18  H   -0.000000   0.000000  -0.000000   0.000000  -0.000000
    19  H    0.000000   0.000000  -0.000000   0.000000   0.000000
    20  H   -0.000000   0.000000   0.000000   0.000000  -0.000000
    21  H    0.000009  -0.000000  -0.000000  -0.000000   0.000009
    22  H    0.000545  -0.000000   0.000123  -0.000000   0.000545
    23  H    0.001452  -0.002110  -0.002179  -0.002109   0.001451
    24  H    0.000000   0.000004  -0.000035  -0.000058   0.000006
    25  H    0.000000   0.000000   0.000088  -0.000045   0.000016
    26  H   -0.000000   0.000000   0.000013   0.000005  -0.000001
    27  H    0.000006  -0.000058   0.000000   0.000004   0.000000
    28  H    0.000016  -0.000045  -0.000001   0.000000   0.000000
    29  H   -0.000001   0.000005   0.000000   0.000000  -0.000000
    30  H   -0.025470  -0.021680  -0.000194   0.000163  -0.000084
    31  H    0.514140  -0.028868  -0.000084  -0.000844   0.005587
    32  H   -0.028868   0.510026   0.000162   0.002671  -0.000844
    33  H   -0.000084   0.000162   0.507629  -0.021679  -0.025471
    34  H   -0.000844   0.002671  -0.021679   0.510026  -0.028868
    35  H    0.005587  -0.000844  -0.025471  -0.028868   0.514143
 Mulliken charges:
               1
     1  C   -0.141367
     2  C   -0.271536
     3  C   -0.180414
     4  C   -0.214293
     5  C    0.087964
     6  C   -0.067778
     7  C   -0.212231
     8  C   -0.257264
     9  C   -0.154149
    10  C   -0.079312
    11  N   -0.278691
    12  N   -0.335343
    13  C   -0.200445
    14  C   -0.200441
    15  C   -0.193137
    16  C   -0.193140
    17  H    0.167578
    18  H    0.189054
    19  H    0.184354
    20  H    0.182647
    21  H    0.187492
    22  H    0.168283
    23  H    0.496109
    24  H    0.199817
    25  H    0.204648
    26  H    0.204488
    27  H    0.199818
    28  H    0.204648
    29  H    0.204486
    30  H    0.181022
    31  H    0.185834
    32  H    0.182222
    33  H    0.181024
    34  H    0.182221
    35  H    0.185832
 Sum of Mulliken charges =   1.00000
 Mulliken charges with hydrogens summed into heavy atoms:
               1
     1  C    0.026212
     2  C   -0.082482
     3  C    0.003940
     4  C   -0.214293
     5  C    0.087964
     6  C   -0.067778
     7  C   -0.029584
     8  C   -0.069772
     9  C    0.014133
    10  C   -0.079312
    11  N    0.217418
    12  N   -0.335343
    13  C    0.408507
    14  C    0.408511
    15  C    0.355941
    16  C    0.355937
 Electronic spatial extent (au):  <R**2>=           3320.1439
 Charge=              1.0000 electrons
 Dipole moment (field-independent basis, Debye):
    X=             -3.9366    Y=             -1.5457    Z=              0.0001  Tot=              4.2292
 Quadrupole moment (field-independent basis, Debye-Ang):
   XX=            -62.2724   YY=            -63.7215   ZZ=            -91.2546
   XY=              2.9565   XZ=             -0.0005   YZ=             -0.0015
 Traceless Quadrupole moment (field-independent basis, Debye-Ang):
   XX=             10.1438   YY=              8.6947   ZZ=            -18.8384
   XY=              2.9565   XZ=             -0.0005   YZ=             -0.0015
 Octapole moment (field-independent basis, Debye-Ang**2):
  XXX=             -1.4496  YYY=             -9.3429  ZZZ=              0.0013  XYY=             -9.7295
  XXY=             -7.0675  XXZ=             -0.0002  XZZ=            -28.9155  YZZ=             -3.7903
  YYZ=              0.0000  XYZ=             -0.0008
 Hexadecapole moment (field-independent basis, Debye-Ang**3):
 XXXX=          -1736.9510 YYYY=          -1664.6852 ZZZZ=           -384.7226 XXXY=             16.2172
 XXXZ=              0.0047 YYYX=             18.4679 YYYZ=              0.0243 ZZZX=              0.0080
 ZZZY=              0.0404 XXYY=           -543.7706 XXZZ=           -412.5709 YYZZ=           -396.3066
 XXYZ=              0.0068 YYXZ=              0.0017 ZZXY=              6.8299
 N-N= 1.138700204318D+03 E-N=-3.774650315168D+03  KE= 6.477738311714D+02
 Calling FoFJK, ICntrl=      2127 FMM=F ISym2X=0 I1Cent= 0 IOpClX= 0 NMat=1 NMatS=1 NMatT=0.
 ***** Axes restored to original set *****
 -------------------------------------------------------------------
 Center     Atomic                   Forces (Hartrees/Bohr)
 Number     Number              X              Y              Z
 -------------------------------------------------------------------
      1        6          -0.000709211    0.000471486    0.000000032
      2        6          -0.000278885    0.000366078    0.000000069
      3        6          -0.000307465    0.000239406   -0.000000147
      4        6          -0.000360662    0.000016193   -0.000000001
      5        6          -0.000788280   -0.000063139    0.000000077
      6        6          -0.000500451    0.000432106    0.000000153
      7        6          -0.000299896   -0.000249974   -0.000000104
      8        6          -0.000278131   -0.000377080    0.000000227
      9        6          -0.000706665   -0.000459127   -0.000000227
     10        6          -0.000315856   -0.000509472    0.000000106
     11        7           0.000357638    0.000564621    0.000001506
     12        7           0.000322393   -0.000624463    0.000001741
     13        6           0.000456631    0.000631642    0.000483698
     14        6           0.000457717    0.000630624   -0.000482955
     15        6           0.000434309   -0.000605388   -0.000429267
     16        6           0.000433694   -0.000607038    0.000429716
     17        1          -0.000124259    0.000399241   -0.000000068
     18        1          -0.000191725    0.000240076   -0.000000098
     19        1          -0.000310389    0.000131024    0.000000071
     20        1          -0.000306295   -0.000136703    0.000000019
     21        1          -0.000185589   -0.000246104   -0.000000001
     22        1          -0.000098041   -0.000392969    0.000000115
     23        1           0.000202960    0.000151930   -0.000004078
     24        1           0.000321947    0.000214995    0.000251933
     25        1           0.000233054    0.000259151    0.000503162
     26        1           0.000207088    0.000259981    0.000275631
     27        1           0.000321562    0.000214942   -0.000252184
     28        1           0.000232937    0.000258780   -0.000503598
     29        1           0.000206659    0.000259898   -0.000275380
     30        1           0.000239436   -0.000258487   -0.000506386
     31        1           0.000214189   -0.000257592   -0.000274511
     32        1           0.000332937   -0.000219279   -0.000254103
     33        1           0.000239418   -0.000258760    0.000506082
     34        1           0.000333055   -0.000219289    0.000254060
     35        1           0.000214175   -0.000257310    0.000274713
 -------------------------------------------------------------------
 Cartesian Forces:  Max     0.000788280 RMS     0.000334901

 GradGradGradGradGradGradGradGradGradGradGradGradGradGradGradGradGradGrad
 Berny optimization.
 FormGI is forming the generalized inverse of G from B-inverse, IUseBI=4.
 GSVD:  received Info=                   1 from GESDD.
 Internal  Forces:  Max     0.006145968 RMS     0.001284847
 Search for a local minimum.
 Step number   1 out of a maximum of  193
 All quantities printed in internal units (Hartrees-Bohrs-Radians)
 Mixed Optimization -- RFO/linear search
 Second derivative matrix not updated -- first step.
 ITU=  0
     Eigenvalues ---    0.00513   0.00513   0.00672   0.00672   0.00700
     Eigenvalues ---    0.00908   0.01541   0.01676   0.01720   0.01736
     Eigenvalues ---    0.01769   0.01996   0.02045   0.02083   0.02094
     Eigenvalues ---    0.02175   0.02183   0.02194   0.02219   0.02286
     Eigenvalues ---    0.02301   0.02611   0.03477   0.04797   0.05862
     Eigenvalues ---    0.05862   0.05977   0.05977   0.06231   0.07191
     Eigenvalues ---    0.07191   0.07463   0.07463   0.16000   0.16000
     Eigenvalues ---    0.16000   0.16000   0.16000   0.16000   0.16000
     Eigenvalues ---    0.16000   0.16000   0.16000   0.16000   0.16000
     Eigenvalues ---    0.16000   0.16000   0.16000   0.16000   0.16000
     Eigenvalues ---    0.16000   0.17515   0.17605   0.18941   0.19220
     Eigenvalues ---    0.22061   0.22129   0.23305   0.23705   0.24873
     Eigenvalues ---    0.24943   0.25000   0.25000   0.30751   0.33550
     Eigenvalues ---    0.33550   0.34042   0.34042   0.34397   0.34397
     Eigenvalues ---    0.34562   0.34562   0.34578   0.34578   0.34626
     Eigenvalues ---    0.34626   0.34767   0.34767   0.34902   0.34902
     Eigenvalues ---    0.35152   0.35239   0.35246   0.35256   0.35264
     Eigenvalues ---    0.35364   0.35403   0.36265   0.37061   0.39340
     Eigenvalues ---    0.39770   0.41445   0.41813   0.43204   0.43322
     Eigenvalues ---    0.48015   0.48358   0.49428   0.49600
 RFO step:  Lambda=-1.03992080D-03 EMin= 5.13303230D-03
 Linear search not attempted -- first point.
 Iteration  1 RMS(Cart)=  0.05364806 RMS(Int)=  0.00032892
 Iteration  2 RMS(Cart)=  0.00057886 RMS(Int)=  0.00000503
 Iteration  3 RMS(Cart)=  0.00000011 RMS(Int)=  0.00000503
 Variable       Old X    -DE/DX   Delta X   Delta X   Delta X     New X
                                 (Linear)    (Quad)   (Total)
    R1        2.66398   0.00038   0.00000   0.00133   0.00132   2.66530
    R2        2.59764  -0.00193   0.00000  -0.00397  -0.00397   2.59366
    R3        2.05288  -0.00030   0.00000  -0.00084  -0.00084   2.05205
    R4        2.59622   0.00082   0.00000   0.00218   0.00217   2.59839
    R5        2.05025  -0.00030   0.00000  -0.00086  -0.00086   2.04939
    R6        2.68000  -0.00062   0.00000  -0.00129  -0.00129   2.67870
    R7        2.05262  -0.00031   0.00000  -0.00086  -0.00086   2.05175
    R8        2.71551  -0.00325   0.00000  -0.00912  -0.00911   2.70641
    R9        2.67902  -0.00066   0.00000  -0.00139  -0.00139   2.67764
   R10        2.69652  -0.00615   0.00000  -0.01544  -0.01543   2.68108
   R11        2.70320  -0.00600   0.00000  -0.01525  -0.01525   2.68796
   R12        2.78729  -0.00312   0.00000  -0.00886  -0.00886   2.77843
   R13        2.59543   0.00080   0.00000   0.00211   0.00211   2.59753
   R14        2.05248  -0.00031   0.00000  -0.00086  -0.00086   2.05162
   R15        2.66460   0.00037   0.00000   0.00131   0.00130   2.66591
   R16        2.05088  -0.00031   0.00000  -0.00086  -0.00086   2.05002
   R17        2.60337  -0.00186   0.00000  -0.00385  -0.00385   2.59952
   R18        2.05278  -0.00029   0.00000  -0.00083  -0.00083   2.05194
   R19        2.75754  -0.00277   0.00000  -0.00745  -0.00745   2.75009
   R20        2.81397  -0.00228   0.00000  -0.00678  -0.00678   2.80720
   R21        2.81397  -0.00228   0.00000  -0.00677  -0.00677   2.80720
   R22        2.13191   0.00010   0.00000   0.00033   0.00033   2.13224
   R23        2.79134  -0.00223   0.00000  -0.00638  -0.00638   2.78496
   R24        2.79134  -0.00223   0.00000  -0.00638  -0.00638   2.78496
   R25        2.06365  -0.00029   0.00000  -0.00085  -0.00085   2.06280
   R26        2.06055  -0.00019   0.00000  -0.00055  -0.00055   2.06000
   R27        2.06287  -0.00022   0.00000  -0.00062  -0.00062   2.06225
   R28        2.06365  -0.00029   0.00000  -0.00085  -0.00085   2.06280
   R29        2.06056  -0.00019   0.00000  -0.00056  -0.00056   2.06000
   R30        2.06287  -0.00022   0.00000  -0.00062  -0.00062   2.06225
   R31        2.06392  -0.00020   0.00000  -0.00059  -0.00059   2.06333
   R32        2.07259  -0.00023   0.00000  -0.00066  -0.00066   2.07193
   R33        2.06665  -0.00030   0.00000  -0.00087  -0.00087   2.06578
   R34        2.06392  -0.00020   0.00000  -0.00059  -0.00059   2.06333
   R35        2.06665  -0.00030   0.00000  -0.00087  -0.00087   2.06578
   R36        2.07259  -0.00023   0.00000  -0.00066  -0.00066   2.07193
    A1        2.09886  -0.00156   0.00000  -0.00657  -0.00657   2.09228
    A2        2.08157   0.00109   0.00000   0.00517   0.00517   2.08674
    A3        2.10276   0.00048   0.00000   0.00140   0.00140   2.10416
    A4        2.08887   0.00014   0.00000   0.00272   0.00270   2.09157
    A5        2.08766  -0.00011   0.00000  -0.00162  -0.00161   2.08604
    A6        2.10666  -0.00003   0.00000  -0.00110  -0.00109   2.10557
    A7        2.11665  -0.00064   0.00000  -0.00148  -0.00149   2.11517
    A8        2.09821   0.00047   0.00000   0.00164   0.00164   2.09985
    A9        2.06832   0.00018   0.00000  -0.00016  -0.00016   2.06816
   A10        2.09186  -0.00145   0.00000  -0.00610  -0.00609   2.08577
   A11        2.10329   0.00287   0.00000   0.01215   0.01214   2.11543
   A12        2.08804  -0.00142   0.00000  -0.00605  -0.00604   2.08199
   A13        2.03537   0.00269   0.00000   0.00961   0.00962   2.04500
   A14        2.05797   0.00276   0.00000   0.00999   0.01000   2.06797
   A15        2.18984  -0.00545   0.00000  -0.01960  -0.01962   2.17022
   A16        2.13476   0.00082   0.00000   0.00181   0.00183   2.13658
   A17        2.09002   0.00450   0.00000   0.01866   0.01865   2.10867
   A18        2.05841  -0.00532   0.00000  -0.02047  -0.02048   2.03793
   A19        2.10998  -0.00065   0.00000  -0.00159  -0.00159   2.10838
   A20        2.07073   0.00018   0.00000  -0.00009  -0.00009   2.07064
   A21        2.10248   0.00047   0.00000   0.00168   0.00168   2.10416
   A22        2.09187   0.00016   0.00000   0.00275   0.00273   2.09461
   A23        2.10368  -0.00004   0.00000  -0.00112  -0.00111   2.10257
   A24        2.08763  -0.00012   0.00000  -0.00163  -0.00162   2.08601
   A25        2.11566  -0.00152   0.00000  -0.00632  -0.00633   2.10934
   A26        2.07874   0.00104   0.00000   0.00493   0.00494   2.08368
   A27        2.08878   0.00047   0.00000   0.00139   0.00139   2.09017
   A28        2.10285   0.00066   0.00000   0.00122   0.00123   2.10408
   A29        2.07298  -0.00491   0.00000  -0.01887  -0.01888   2.05410
   A30        2.10736   0.00425   0.00000   0.01765   0.01765   2.12500
   A31        1.97300  -0.00045   0.00000  -0.00133  -0.00134   1.97166
   A32        1.97300  -0.00045   0.00000  -0.00132  -0.00133   1.97166
   A33        1.75918   0.00013   0.00000  -0.00393  -0.00393   1.75524
   A34        1.95173   0.00115   0.00000   0.00811   0.00811   1.95984
   A35        1.89726  -0.00025   0.00000  -0.00150  -0.00151   1.89575
   A36        1.89726  -0.00025   0.00000  -0.00146  -0.00147   1.89579
   A37        1.96539  -0.00054   0.00000  -0.00075  -0.00077   1.96462
   A38        1.96539  -0.00054   0.00000  -0.00074  -0.00076   1.96463
   A39        1.93995   0.00135   0.00000   0.00887   0.00887   1.94881
   A40        1.89965  -0.00028   0.00000  -0.00145  -0.00146   1.89819
   A41        1.90265  -0.00074   0.00000  -0.00512  -0.00512   1.89752
   A42        1.92384  -0.00031   0.00000  -0.00169  -0.00169   1.92214
   A43        1.91966   0.00044   0.00000   0.00228   0.00228   1.92194
   A44        1.90995   0.00041   0.00000   0.00358   0.00358   1.91353
   A45        1.90808   0.00047   0.00000   0.00236   0.00235   1.91043
   A46        1.89965  -0.00028   0.00000  -0.00146  -0.00146   1.89819
   A47        1.90265  -0.00074   0.00000  -0.00512  -0.00512   1.89752
   A48        1.92384  -0.00031   0.00000  -0.00169  -0.00169   1.92215
   A49        1.91966   0.00044   0.00000   0.00229   0.00228   1.92194
   A50        1.90996   0.00041   0.00000   0.00358   0.00358   1.91353
   A51        1.90808   0.00047   0.00000   0.00236   0.00235   1.91043
   A52        1.91543  -0.00074   0.00000  -0.00509  -0.00510   1.91033
   A53        1.95339  -0.00028   0.00000  -0.00153  -0.00153   1.95186
   A54        1.90397  -0.00027   0.00000  -0.00142  -0.00142   1.90255
   A55        1.89258   0.00046   0.00000   0.00236   0.00236   1.89494
   A56        1.90595   0.00043   0.00000   0.00223   0.00223   1.90817
   A57        1.89192   0.00044   0.00000   0.00366   0.00366   1.89558
   A58        1.91543  -0.00074   0.00000  -0.00509  -0.00510   1.91034
   A59        1.90397  -0.00027   0.00000  -0.00142  -0.00142   1.90255
   A60        1.95339  -0.00028   0.00000  -0.00153  -0.00153   1.95186
   A61        1.90595   0.00043   0.00000   0.00223   0.00222   1.90817
   A62        1.89258   0.00046   0.00000   0.00237   0.00236   1.89494
   A63        1.89192   0.00044   0.00000   0.00366   0.00366   1.89558
    D1        0.00000  -0.00000   0.00000  -0.00001  -0.00001  -0.00001
    D2        3.14159   0.00000   0.00000   0.00001   0.00001  -3.14158
    D3       -3.14159  -0.00000   0.00000  -0.00003  -0.00003   3.14156
    D4       -0.00000  -0.00000   0.00000  -0.00001  -0.00001  -0.00001
    D5        0.00000  -0.00000   0.00000  -0.00003  -0.00003  -0.00003
    D6       -3.14159  -0.00000   0.00000  -0.00006  -0.00006   3.14153
    D7        3.14159  -0.00000   0.00000  -0.00000  -0.00000   3.14159
    D8        0.00000  -0.00000   0.00000  -0.00003  -0.00004  -0.00003
[...]
 0.05784871,0.10839188,0.00005932,0.00001521,0.00003502,-0.00000722,-0.
 00001712,0.00000106,0.00003428,0.00001677,0.00000818,0.00006055,-0.000
 08216,-0.00004191,0.00024610,-0.00018740,0.00010350,-0.00014186,-0.000
 10967,-0.00003473,-0.00004975,-0.00004485,-0.00003493,-0.00001363,0.00
 014422,-0.00002218,0.00047715,0.00028407,0.00031700,-0.00201081,0.0004
 1908,0.00017647,0.00020327,-0.00141000,-0.00017783,-0.01063585,0.00933
 908,-0.02656684,-0.00002095,-0.00001597,-0.00002324,-0.00001798,0.0001
 6198,-0.00048523,-0.08855543,0.09506102,-0.21865186,0.00391015,-0.0034
 6377,-0.00329254,-0.00000010,0.00000116,-0.00001339,0.00000128,0.00000
 286,-0.00000214,-0.00000030,-0.00000506,-0.00000180,0.00000163,-0.0000
 0074,0.00000814,0.00001805,-0.00000246,-0.00000335,-0.00004537,-0.0000
 3564,-0.00003366,-0.00021448,0.00200863,-0.00024370,0.00001503,0.00003
 431,-0.00001533,-0.00003528,0.00005309,0.00003977,0.00000171,-0.000027
 54,0.00000218,-0.00006217,-0.00006259,-0.00001921,0.00012336,-0.000097
 09,0.00035053,0.00001260,0.00008477,0.00020383,0.09637359,-0.10140801,
 0.24495383,-0.00007525,-0.00001843,0.00007866,0.00002444,-0.00001776,0
 .00000647,-0.00005833,-0.00000525,0.00003576,0.00022561,0.00014155,0.0
 0003297,-0.00051114,0.00019079,-0.00044314,0.00027245,-0.00017554,-0.0
 0001025,0.00009797,-0.00017423,-0.00005543,-0.00018959,-0.00008886,-0.
 00005367,0.00019250,0.00012959,0.00022364,0.00205132,0.00165557,-0.000
 84030,-0.00032459,0.00129979,-0.00040667,0.00189798,0.01794315,0.00530
 392,-0.00012637,-0.00004685,-0.00010674,-0.00026699,-0.00001035,0.0000
 7593,-0.05914668,-0.05110388,-0.00175693,-0.00019250,-0.00075932,-0.00
 121070,0.00000434,-0.00000925,0.00000176,-0.00000671,-0.00000163,-0.00
 001709,-0.00000423,0.00000511,-0.00000066,0.00001193,-0.00003803,0.000
 01559,0.00000902,0.00000075,0.00005598,-0.00091846,-0.00042712,0.00093
 861,-0.00036801,-0.00166476,0.00104797,0.00001434,0.00000146,0.0000219
 6,0.00002445,-0.00002065,-0.00000649,0.00002878,0.00002693,0.00001751,
 0.00008917,0.00008111,0.00001492,-0.00002571,-0.00000678,0.00000409,0.
 00012109,0.00006142,-0.00004074,0.00240324,0.01404561,0.00023969,0.058
 83258,0.00007738,0.00001450,0.00000446,-0.00002093,0.00005676,-0.00000
 007,0.00010169,0.00000485,0.00001619,-0.00014259,-0.00011400,0.0000152
 7,0.00052045,-0.00011723,-0.00008515,-0.00063716,0.00017775,-0.0000071
 2,-0.00002740,0.00015478,-0.00006880,0.00035070,0.00026634,0.00014384,
 0.00046338,-0.00020964,0.00061814,-0.00254486,0.00059372,0.00002248,0.
 00021526,-0.00222612,0.00038396,0.00260989,-0.01569145,-0.00873517,0.0
 0020073,0.00008079,0.00027274,0.00025360,-0.00025756,-0.00008374,-0.04
 878732,-0.30307278,-0.00270753,0.00074456,0.00171166,0.00133167,-0.000
 01985,0.00002956,0.00000181,0.00001893,-0.00000189,-0.00000301,0.00000
 858,-0.00000717,-0.00000319,-0.00000813,0.00002887,-0.00002111,0.00005
 559,-0.00000464,0.00001991,-0.00015768,0.00058932,-0.00020674,0.000274
 44,0.00449214,-0.00060615,0.00000497,0.00001749,0.00000376,-0.00002034
 ,0.00000932,-0.00001443,-0.00003248,-0.00007525,-0.00006426,0.00003222
 ,0.00004867,0.00000376,-0.00007647,0.00003044,-0.00007401,-0.00006613,
 -0.00011361,0.00004872,-0.00381300,-0.01170302,-0.00056301,0.05089891,
 0.32823969,0.00012295,-0.00003165,-0.00003515,-0.00004322,-0.00003011,
 -0.00000040,0.00004915,0.00005360,-0.00003972,-0.00010147,-0.00019226,
 0.00001826,0.00046735,-0.00001911,0.00036130,-0.00043753,0.00019330,0.
 00003058,-0.00009687,0.00015800,0.00003467,0.00014360,0.00021460,-0.00
 004346,-0.00002692,-0.00023184,-0.00010406,-0.00249097,0.00008591,0.00
 035891,0.00012098,-0.00315046,0.00052047,-0.00085256,-0.03593809,-0.01
 148475,0.00013474,0.00008690,0.00033384,0.00017753,-0.00004374,-0.0006
 6496,-0.00107797,0.00021323,-0.04824732,0.00043955,-0.00323412,0.00354
 101,-0.00000665,-0.00000126,-0.00001068,0.00000989,-0.00000204,0.00000
 936,0.00001072,-0.00000805,-0.00000007,-0.00000554,0.00003028,-0.00000
 308,0.00002995,-0.00000569,-0.00000278,0.00074091,0.00041838,-0.000197
 83,0.00083670,0.00396052,-0.00197411,-0.00002679,0.00000586,-0.0000202
 4,-0.00000316,0.00003838,0.00002279,-0.00002170,-0.00005114,-0.0000884
 8,-0.00009208,-0.00008352,-0.00003027,0.00016209,-0.00012549,0.0001836
 1,-0.00003853,-0.00001671,0.00029248,0.00563365,0.02502367,0.00209804,
 -0.00286984,0.01091111,0.05480191,0.00012568,0.00002505,0.00000885,-0.
 00005652,0.00000410,0.00000076,0.00002733,0.00002131,-0.00001300,-0.00
 015066,-0.00007561,-0.00011379,-0.00008039,-0.00057108,0.00026359,-0.0
 0019918,0.00001203,-0.00003882,-0.00009266,0.00005130,0.00002074,-0.00
 000305,0.00009519,-0.00005727,0.00019946,0.00051459,0.00017977,0.00031
 644,0.00044540,0.00259909,-0.00019464,0.00099061,0.00001554,-0.0126175
 1,0.00162730,0.00127278,-0.00002962,0.00000720,-0.00012576,-0.00022261
 ,-0.00017581,0.00027616,-0.31316523,-0.04499808,-0.00233539,0.00038203
 ,-0.00022202,-0.00116504,-0.00000588,0.00003135,0.00001031,0.00000382,
 0.00000681,-0.00000192,-0.00000633,0.00000883,-0.00000733,-0.00000042,
 0.00001187,0.00000425,-0.00002889,-0.00000241,-0.00001308,0.00000307,0
 .00001588,-0.00008948,-0.00022088,-0.00095192,0.00015599,0.00005202,0.
 00003244,0.00004065,-0.00001858,-0.00000328,-0.00001770,0.00001844,0.0
 0000113,0.00003373,0.00022077,0.00012631,0.00002912,-0.00015220,0.0000
 2386,-0.00006000,0.00009862,-0.00003047,-0.00009300,-0.00939145,-0.003
 03245,0.00070502,-0.00416151,0.00001844,-0.00093796,0.33863232,-0.0001
 0019,-0.00006679,0.00004143,-0.00001808,0.00002075,-0.00001226,0.00001
 555,0.00002830,-0.00000260,-0.00005079,-0.00005037,0.00015508,0.000405
 34,0.00022507,0.00001268,0.00016699,0.00018003,-0.00000325,0.00007120,
 0.00012991,-0.00005378,0.00019888,0.00006000,0.00041968,0.00015937,-0.
 00026345,0.00007300,0.00014812,-0.00031450,-0.00285768,-0.00019170,-0.
 00019020,-0.00009548,0.01828203,0.00049330,-0.00163932,-0.00001531,-0.
 00003262,-0.00002751,0.00008353,0.00006479,-0.00007276,-0.04856740,-0.
 05738907,0.00001212,-0.00018157,0.00012467,0.00063320,0.00001237,-0.00
 002270,-0.00000138,-0.00000677,-0.00000477,-0.00000437,0.00000499,-0.0
 0000903,0.00000565,-0.00001399,0.00001398,-0.00005730,0.00003965,-0.00
 000209,0.00001276,0.00012032,0.00030198,-0.00049842,0.00060292,0.00044
 536,-0.00001333,-0.00003024,-0.00001728,-0.00004078,-0.00000584,0.0000
 0706,0.00002300,-0.00000462,0.00000382,-0.00000243,-0.00009152,-0.0002
 2458,-0.00004496,0.00012193,0.00002254,0.00005731,-0.00007109,0.000035
 09,0.00007619,0.01441940,0.00230502,-0.00083084,-0.03137567,-0.0033199
 6,-0.00037010,0.04613914,0.05743716,-0.00011664,-0.00002425,0.00000769
 ,0.00004858,0.00004005,-0.00000955,0.00006180,-0.00001708,0.00003535,0
 .00015379,-0.00006248,0.00021789,0.00078724,0.00036023,-0.00018562,0.0
 0006080,-0.00004096,-0.00012741,0.00010863,-0.00009615,-0.00007148,-0.
 00002706,0.00010361,0.00027104,0.00055221,-0.00031541,0.00030274,0.001
 05455,-0.00163656,-0.00422306,0.00006910,-0.00030185,-0.00009603,0.032
 36676,0.00129237,-0.00447738,0.00005337,0.00002113,0.00006418,-0.00001
 579,-0.00006006,-0.00000356,-0.01000353,-0.00025417,-0.04958454,0.0019
 7493,0.00026796,0.00135448,0.00000005,-0.00000901,0.00000429,-0.000000
 89,-0.00000546,-0.00000161,0.00001134,-0.00001802,0.00001513,-0.000002
 96,0.00000111,-0.00003284,0.00005081,0.00000619,-0.00000888,-0.0001021
 2,0.00015996,-0.00015619,0.00006815,0.00072117,0.00028427,-0.00003414,
 -0.00004436,-0.00000280,0.00002173,-0.00001779,-0.00001408,-0.00002065
 ,0.00000231,-0.00001952,0.00001738,0.00003932,0.00010925,-0.00010524,-
 0.00004074,-0.00002110,0.00000624,-0.00000752,-0.00002628,-0.02443090,
 -0.00593570,0.00226601,-0.00031179,0.00104748,0.00016825,-0.00128974,0
 .00499779,0.05438846,-0.00004927,-0.00003066,-0.00001689,-0.00000092,-
 0.00002526,-0.00000048,-0.00002326,0.00001905,0.00000496,0.00000133,-0
 .00004735,0.00005595,0.00021934,0.00033862,-0.00008748,0.00025244,0.00
 009808,-0.00000104,0.00003689,-0.00000582,-0.00002809,-0.00008175,-0.0
 0006284,0.00009059,-0.00005557,-0.00005405,0.00006679,0.00094948,-0.00
 098651,-0.00118004,-0.00006271,-0.00008873,-0.00004757,0.00453089,-0.0
 0623454,-0.01530065,-0.00007836,0.00015248,0.00031193,-0.00010433,-0.0
 0002779,-0.00002110,-0.00147979,0.00117401,-0.00211061,-0.09902337,0.0
 5354123,0.09648660,0.00001211,-0.00003005,0.00000610,-0.00000569,-0.00
 000373,0.00000189,0.00000464,-0.00000916,-0.00000030,-0.00000093,-0.00
 000358,-0.00001097,-0.00000320,0.00000020,-0.00000373,0.00011717,-0.00
 001508,-0.00006839,0.00014337,-0.00028444,0.00045205,-0.00013250,-0.00
 012964,0.00010147,0.00035055,-0.00008147,-0.00010954,-0.00001835,0.000
 07356,-0.00015594,-0.00001860,0.00000993,0.00002171,0.00001492,0.00000
 438,-0.00003469,0.00002180,0.00000970,0.00000341,0.00082903,-0.0001959
 2,-0.00073035,-0.00009401,0.00001042,0.00004615,0.00043316,0.00012910,
 -0.00018567,0.10030209,-0.00002275,-0.00002957,-0.00000157,-0.00000435
 ,-0.00003341,-0.00000180,-0.00004422,0.00001978,0.00001997,0.00010322,
 0.00008038,-0.00004439,-0.00034305,0.00007715,-0.00003616,0.00017810,-
 0.00001490,-0.00003972,-0.00003095,-0.00009297,-0.00000404,-0.00016632
 ,0.00013619,0.00010950,0.00016491,-0.00046081,-0.00001278,-0.00045784,
 0.00087160,0.00022994,0.00011904,0.00006173,-0.00010653,-0.00738869,0.
 00620449,0.01525723,-0.00013122,-0.00018538,0.00022472,-0.00009662,-0.
 00000608,0.00004388,0.00143196,-0.00092210,0.00208293,0.05358277,-0.10
 560874,-0.10102044,0.00001034,-0.00001909,0.00000526,-0.00000499,0.000
 00143,-0.00000316,-0.00000517,0.00000201,0.00000195,-0.00000872,0.0000
 0178,-0.00001683,0.00001125,-0.00001132,-0.00001985,0.00015018,0.00001
 892,-0.00011192,-0.00030395,0.00049786,0.00008632,-0.00002770,0.000006
 73,-0.00003332,0.00008870,-0.00045644,-0.00002341,0.00000014,0.0000163
 4,-0.00009385,-0.00000099,0.00000518,0.00001521,0.00000090,0.00000768,
 -0.00003772,0.00001642,0.00000214,-0.00002744,-0.00019576,0.00072101,0
 .00078595,0.00012302,0.00028462,0.00051156,0.00009406,-0.00019685,-0.0
 0008410,-0.05785335,0.10842135,-0.00005927,-0.00001521,0.00003502,0.00
 000721,0.00001711,0.00000106,-0.00003427,-0.00001677,0.00000817,-0.000
 06063,0.00008212,-0.00004188,-0.00024597,0.00018727,0.00010344,0.00014
 183,0.00010971,-0.00003472,0.00004976,0.00004494,-0.00003494,0.0000137
 6,-0.00014427,-0.00002221,-0.00047723,-0.00028397,0.00031701,0.0020107
 4,-0.00041911,0.00017659,-0.00020341,0.00141058,-0.00017793,0.01063443
 ,-0.00934283,-0.02656668,0.00001794,-0.00016193,-0.00048498,0.00002098
 ,0.00001587,-0.00002330,-0.00391047,0.00346352,-0.00329279,0.08853724,
 -0.09508183,-0.21863934,0.00000009,-0.00000116,-0.00001339,-0.00000128
 ,-0.00000286,-0.00000214,0.00000030,0.00000506,-0.00000180,-0.00000163
 ,0.00000074,0.00000814,-0.00001805,0.00000246,-0.00000335,0.00004534,0
 .00003565,-0.00003364,0.00021450,-0.00200936,-0.00024480,0.00006220,0.
 00006259,-0.00001923,-0.00012348,0.00009712,0.00035039,-0.00001255,-0.
 00008470,0.00020382,-0.00001503,-0.00003431,-0.00001532,0.00003528,-0.
 00005309,0.00003978,-0.00000172,0.00002753,0.00000222,0.00073022,-0.00
 078620,-0.00131580,-0.00007276,-0.00003448,0.00011358,0.00001397,0.000
 08281,0.00030255,-0.09635268,0.10143195,0.24494152,0.00012571,0.000025
 06,-0.00000886,-0.00005652,0.00000409,-0.00000076,0.00002733,0.0000213
 1,0.00001300,-0.00015065,-0.00007559,0.00011382,-0.00008048,-0.0005711
 0,-0.00026353,-0.00019922,0.00001200,0.00003880,-0.00009267,0.00005127
 ,-0.00002074,-0.00000309,0.00009520,0.00005729,0.00019944,0.00051463,-
 0.00017980,0.00031625,0.00044529,-0.00259955,-0.00019462,0.00099078,-0
 .00001567,-0.01261987,0.00162710,-0.00127200,-0.00022262,-0.00017577,-
 0.00027600,-0.00002966,0.00000717,0.00012577,0.00038200,-0.00022182,0.
 00116505,-0.31316560,-0.04499379,0.00236249,-0.00000588,0.00003135,-0.
 00001030,0.00000382,0.00000681,0.00000192,-0.00000633,0.00000883,0.000
 00733,-0.00000042,0.00001186,-0.00000426,-0.00002890,-0.00000241,0.000
 01308,0.00000309,0.00001586,0.00008945,-0.00022125,-0.00095209,-0.0001
 5627,0.00022073,0.00012628,-0.00002910,-0.00015210,0.00002386,0.000059
 93,0.00009861,-0.00003042,0.00009297,0.00005204,0.00003246,-0.00004067
 ,-0.00001858,-0.00000327,0.00001769,0.00001845,0.00000111,-0.00003371,
 0.00043316,0.00009406,-0.00001398,-0.00017567,-0.00010306,-0.00009551,
 0.00046070,-0.00013820,-0.00063329,-0.00938947,-0.00303190,-0.00070366
 ,0.33863418,-0.00010015,-0.00006682,-0.00004141,-0.00001812,0.00002074
 ,0.00001226,0.00001554,0.00002833,0.00000261,-0.00005083,-0.00005040,-
 0.00015505,0.00040521,0.00022494,-0.00001281,0.00016695,0.00018012,0.0
 0000325,0.00007120,0.00012997,0.00005375,0.00019893,0.00005992,-0.0004
 1964,0.00015932,-0.00026333,-0.00007295,0.00014806,-0.00031382,0.00285
 715,-0.00019175,-0.00019048,0.00009546,0.01827784,0.00049300,0.0016369
 8,0.00008356,0.00006473,0.00007267,-0.00001526,-0.00003259,0.00002752,
 -0.00018192,0.00012462,-0.00063311,-0.04856215,-0.05738798,-0.00000709
 ,0.00001237,-0.00002270,0.00000138,-0.00000677,-0.00000477,0.00000437,
 0.00000499,-0.00000903,-0.00000565,-0.00001399,0.00001398,0.00005729,0
 .00003965,-0.00000209,-0.00001276,0.00012035,0.00030193,0.00049838,0.0
 0060341,0.00044573,0.00001335,-0.00009149,-0.00022451,0.00004497,0.000
 12183,0.00002251,-0.00005725,-0.00007108,0.00003505,-0.00007616,-0.000
 03025,-0.00001729,0.00004078,-0.00000585,0.00000706,-0.00002299,-0.000
 00463,0.00000381,0.00000243,0.00012912,-0.00019686,-0.00008277,-0.0002
 5787,-0.00016041,0.00014528,-0.00013804,0.00036581,-0.00017113,0.01442
 304,0.00230574,0.00082973,0.04613448,0.05743456,0.00011664,0.00002426,
 0.00000768,-0.00004858,-0.00004005,-0.00000954,-0.00006180,0.00001708,
 0.00003534,-0.00015380,0.00006249,0.00021791,-0.00078726,-0.00036021,-
 0.00018551,-0.00006079,0.00004098,-0.00012743,-0.00010863,0.00009614,-
 0.00007148,0.00002707,-0.00010363,0.00027111,-0.00055232,0.00031538,0.
 00030275,-0.00105486,0.00163615,-0.00422344,-0.00006908,0.00030193,-0.
 00009595,-0.03236871,-0.00129225,-0.00447452,0.00001589,0.00006013,-0.
 00000360,-0.00005339,-0.00002115,0.00006421,-0.00197483,-0.00026787,0.
 00135477,0.01003122,0.00025875,-0.04958560,-0.00000005,0.00000901,0.00
 000429,0.00000089,0.00000546,-0.00000160,-0.00001134,0.00001802,0.0000
 1513,0.00000296,-0.00000111,-0.00003285,-0.00005082,-0.00000619,-0.000
 00887,0.00010207,-0.00015999,-0.00015627,-0.00006830,-0.00072170,0.000
 28392,-0.00001741,-0.00003932,0.00010924,0.00010516,0.00004072,-0.0000
 2108,-0.00000626,0.00000751,-0.00002625,0.00003416,0.00004437,-0.00000
 280,-0.00002174,0.00001779,-0.00001409,0.00002066,-0.00000231,-0.00001
 953,0.00018564,0.00008415,0.00030253,0.00018702,-0.00008213,-0.0002448
 2,0.00063345,0.00017117,-0.00048487,0.02442997,0.00593554,0.00226310,0
 .00126068,-0.00500217,0.05438966,-0.00007520,-0.00001844,-0.00007864,0
 .00002442,-0.00001776,-0.00000646,-0.00005832,-0.00000523,-0.00003576,
 0.00022567,0.00014157,-0.00003298,-0.00051122,0.00019090,0.00044317,0.
 00027226,-0.00017556,0.00001025,0.00009797,-0.00017426,0.00005543,-0.0
 0018963,-0.00008882,0.00005368,0.00019260,0.00012943,-0.00022363,0.002
 05196,0.00165559,0.00084003,-0.00032448,0.00129926,0.00040664,0.001898
 05,0.01794570,-0.00530722,-0.00026696,-0.00001029,-0.00007589,-0.00012
 636,-0.00004691,0.00010668,-0.00019258,-0.00075893,0.00121104,-0.05914
 832,-0.05110763,0.00176509,0.00000434,-0.00000924,-0.00000176,-0.00000
 671,-0.00000163,0.00001709,-0.00000423,0.00000511,0.00000066,0.0000119
 3,-0.00003803,-0.00001559,0.00000903,0.00000075,-0.00005598,-0.0009177
 7,-0.00042687,-0.00093829,-0.00036801,-0.00166369,-0.00104852,0.000089
 14,0.00008110,-0.00001490,-0.00002568,-0.00000678,-0.00000411,0.000121
 06,0.00006142,0.00004073,0.00001435,0.00000147,-0.00002196,0.00002446,
 -0.00002066,0.00000652,0.00002877,0.00002689,-0.00001747,-0.00009399,0
 .00012299,0.00007273,0.00034450,-0.00040276,0.00009935,-0.00017564,-0.
 00025786,-0.00018705,0.00240285,0.01404354,-0.00024170,-0.00416189,-0.
 03137568,0.00031650,0.05883364,0.00007734,0.00001448,-0.00000445,-0.00
 002094,0.00005676,0.00000005,0.00010167,0.00000486,-0.00001620,-0.0001
 4259,-0.00011400,-0.00001526,0.00052042,-0.00011726,0.00008519,-0.0006
 3698,0.00017781,0.00000712,-0.00002736,0.00015479,0.00006878,0.0003507
 0,0.00026625,-0.00014383,0.00046350,-0.00020960,-0.00061807,-0.0025445
 8,0.00059391,-0.00002247,0.00021514,-0.00222536,-0.00038404,0.00261087
 ,-0.01568601,0.00873446,0.00025354,-0.00025759,0.00008379,0.00020064,0
 .00008090,-0.00027264,0.00074433,0.00171159,-0.00133144,-0.04879077,-0
 .30307035,0.00274606,-0.00001985,0.00002956,-0.00000182,0.00001892,-0.
 00000190,0.00000301,0.00000858,-0.00000717,0.00000320,-0.00000812,0.00
 002886,0.00002110,0.00005559,-0.00000464,-0.00001991,-0.00015719,0.000
 58955,0.00020673,0.00027435,0.00449103,0.00060725,0.00003224,0.0000486
 8,-0.00000376,-0.00007645,0.00003048,0.00007400,-0.00006610,-0.0001136
 2,-0.00004868,0.00000498,0.00001750,-0.00000377,-0.00002034,0.00000934
 ,0.00001440,-0.00003244,-0.00007518,0.00006421,0.00001041,0.00028456,0
 .00003449,-0.00040252,0.00024345,0.00148481,-0.00010302,-0.00016040,0.
 00008211,-0.00381383,-0.01170644,0.00056530,0.00001855,-0.00331947,-0.
 00104696,0.05090132,0.32823465,-0.00012289,0.00003167,-0.00003514,0.00
 004322,0.00003010,-0.00000040,-0.00004915,-0.00005361,-0.00003971,0.00
 010149,0.00019227,0.00001827,-0.00046742,0.00001914,0.00036133,0.00043
 733,-0.00019340,0.00003060,0.00009685,-0.00015802,0.00003465,-0.000143
 65,-0.00021464,-0.00004343,0.00002685,0.00023198,-0.00010393,0.0024915
 3,-0.00008623,0.00035867,-0.00012082,0.00314983,0.00051999,0.00085124,
 0.03593705,-0.01148900,-0.00017752,0.00004369,-0.00066469,-0.00013468,
 -0.00008696,0.00033372,-0.00043941,0.00323473,0.00354074,0.00108532,-0
 .00017518,-0.04824784,0.00000664,0.00000127,-0.00001068,-0.00000988,0.
 00000204,0.00000936,-0.00001072,0.00000806,-0.00000008,0.00000554,-0.0
 0003028,-0.00000307,-0.00002997,0.00000569,-0.00000277,-0.00074075,-0.
 00041853,-0.00019772,-0.00083673,-0.00395883,-0.00197493,0.00009208,0.
 00008352,-0.00003029,-0.00016205,0.00012548,0.00018355,0.00003854,0.00
 001678,0.00029241,0.00002677,-0.00000587,-0.00002023,0.00000316,-0.000
 03840,0.00002284,0.00002166,0.00005107,-0.00008841,-0.00004614,-0.0005
 1158,0.00011360,-0.00009925,-0.00148520,0.00030311,0.00009549,-0.00014
 533,-0.00024480,-0.00563339,-0.02502289,0.00210186,0.00093836,0.000373
 33,0.00016846,0.00286233,-0.01095275,0.05480395\\0.00007507,-0.0000410
 3,0.00000040,-0.00002791,-0.00001383,-0.00000024,-0.00000698,-0.000000
 96,0.00000002,0.00003239,0.00001940,0.00000014,0.00008353,0.00000212,-
 0.00000123,-0.00010378,0.00001897,0.,-0.00001159,-0.00000753,0.0000000
 1,-0.00001628,0.00001915,-0.00000006,0.00008115,0.00006205,-0.00000002
 ,-0.00002979,-0.00008911,-0.00000064,0.00000675,-0.00009457,0.00000992
 ,-0.00010171,0.00014326,0.00000980,0.00003620,0.00007052,0.00007131,0.
 00003727,0.00006446,-0.00007077,0.00003971,-0.00007482,-0.00008306,0.0
 0003830,-0.00008366,0.00008319,-0.00002223,-0.00000812,-0.00000023,0.0
 0000497,-0.00000575,-0.00000014,0.00000911,-0.00000572,0.00000018,0.00
 001058,0.00000017,-0.00000006,0.00001428,0.00000045,0.00000017,-0.0000
 0677,-0.00000313,0.00000005,-0.00001284,-0.00001666,-0.00002245,-0.000
 01622,-0.00001000,-0.00001303,-0.00000042,-0.00000663,-0.00001701,-0.0
 0001035,-0.00001967,-0.00002632,-0.00001618,-0.00001025,0.00001271,-0.
 00000021,-0.00000650,0.00001724,-0.00001192,-0.00001991,0.00002805,-0.
 00000680,0.00001932,0.00003143,-0.00001233,0.00001915,0.00002825,-0.00
 001823,0.00002033,0.00002274,-0.00000729,0.00001945,-0.00003096,-0.000
 01790,0.00002027,-0.00002276,-0.00001161,0.00001878,-0.00002663\\\@


 In the beginning there was nothing, which exploded.
 Job cpu time:       0 days  1 hours 28 minutes  0.5 seconds.
 File lengths (MBytes):  RWF=    535 Int=      0 D2E=      0 Chk=     13 Scr=      1
 Normal termination of Gaussian 09 at Thu Dec 19 10:58:08 2024.
