 Entering Gaussian System, Link 0=g09
 Input=B3PW91D3BJDMAN.gjf
 Output=B3PW91D3BJDMAN.log
 Initial command:
 /home/c612/g09E/g09/l1.exe "/mnt/ja_sm883/scratch/Gau-1952152.inp" -scrdir="/mnt/ja_sm883/scratch/"
 Default is to use a total of  18 processors:
                               18 via shared-memory
                                1 via Linda
 Entering Link 1 = /home/c612/g09E/g09/l1.exe PID=   1952154.
  
 Copyright (c) 1988,1990,1992,1993,1995,1998,2003,2009,2015,
            Gaussian, Inc.  All Rights Reserved.
  
 This is part of the Gaussian(R) 09 program.  It is based on
 the Gaussian(R) 03 system (copyright 2003, Gaussian, Inc.),
 the Gaussian(R) 98 system (copyright 1998, Gaussian, Inc.),
 the Gaussian(R) 94 system (copyright 1995, Gaussian, Inc.),
 the Gaussian 92(TM) system (copyright 1992, Gaussian, Inc.),
 the Gaussian 90(TM) system (copyright 1990, Gaussian, Inc.),
 the Gaussian 88(TM) system (copyright 1988, Gaussian, Inc.),
 the Gaussian 86(TM) system (copyright 1986, Carnegie Mellon
 University), and the Gaussian 82(TM) system (copyright 1983,
 Carnegie Mellon University). Gaussian is a federally registered
 trademark of Gaussian, Inc.
  
 This software contains proprietary and confidential information,
 including trade secrets, belonging to Gaussian, Inc.
  
 This software is provided under written license and may be
 used, copied, transmitted, or stored only in accord with that
 written license.
  
 The following legend is applicable only to US Government
 contracts under FAR:
  
                    RESTRICTED RIGHTS LEGEND
  
 Use, reproduction and disclosure by the US Government is
 subject to restrictions as set forth in subparagraphs (a)
 and (c) of the Commercial Computer Software - Restricted
 Rights clause in FAR 52.227-19.
  
 Gaussian, Inc.
 340 Quinnipiac St., Bldg. 40, Wallingford CT 06492
  
  
 ---------------------------------------------------------------
 Warning -- This program may not be used in any manner that
 competes with the business of Gaussian, Inc. or will provide
 assistance to any competitor of Gaussian, Inc.  The licensee
 of this program is prohibited from giving any competitor of
 Gaussian, Inc. access to this program.  By using this program,
 the user acknowledges that Gaussian, Inc. is engaged in the
 business of creating and licensing software in the field of
 computational chemistry and represents and warrants to the
 licensee that it is not a competitor of Gaussian, Inc. and that
 it will not use this program in any manner prohibited above.
 ---------------------------------------------------------------
  

 Cite this work as:
 Gaussian 09, Revision E.01,
 M. J. Frisch, G. W. Trucks, H. B. Schlegel, G. E. Scuseria, 
 M. A. Robb, J. R. Cheeseman, G. Scalmani, V. Barone, B. Mennucci, 
 G. A. Petersson, H. Nakatsuji, M. Caricato, X. Li, H. P. Hratchian, 
 A. F. Izmaylov, J. Bloino, G. Zheng, J. L. Sonnenberg, M. Hada, 
 M. Ehara, K. Toyota, R. Fukuda, J. Hasegawa, M. Ishida, T. Nakajima, 
 Y. Honda, O. Kitao, H. Nakai, T. Vreven, J. A. Montgomery, Jr., 
 J. E. Peralta, F. Ogliaro, M. Bearpark, J. J. Heyd, E. Brothers, 
 K. N. Kudin, V. N. Staroverov, T. Keith, R. Kobayashi, J. Normand, 
 K. Raghavachari, A. Rendell, J. C. Burant, S. S. Iyengar, J. Tomasi, 
 M. Cossi, N. Rega, J. M. Millam, M. Klene, J. E. Knox, J. B. Cross, 
 V. Bakken, C. Adamo, J. Jaramillo, R. Gomperts, R. E. Stratmann, 
 O. Yazyev, A. J. Austin, R. Cammi, C. Pomelli, J. W. Ochterski, 
 R. L. Martin, K. Morokuma, V. G. Zakrzewski, G. A. Voth, 
 P. Salvador, J. J. Dannenberg, S. Dapprich, A. D. Daniels, 
 O. Farkas, J. B. Foresman, J. V. Ortiz, J. Cioslowski, 
 and D. J. Fox, Gaussian, Inc., Wallingford CT, 2013.
 
 ******************************************
 Gaussian 09:  ES64L-G09RevE.01 30-Nov-2015
                19-Dec-2024 
 ******************************************
 %chk=B3PW91D3BJDMAN.chk
 -------------------------------------------------------
 # opt freq b3pw91/6-31+g(d,p) EmpiricalDispersion=GD3BJ
 -------------------------------------------------------
 1/14=-1,18=20,19=15,26=3,38=1/1,3;
 2/9=110,12=2,17=6,18=5,40=1/2;
 3/5=1,6=6,7=111,11=2,16=1,25=1,30=1,71=1,74=-6,124=41/1,2,3;
 4//1;
 5/5=2,38=5/2;
 6/7=2,8=2,9=2,10=2,28=1/1;
 7//1,2,3,16;
 1/14=-1,18=20,19=15,26=3/3(2);
 2/9=110/2;
 99//99;
 2/9=110/2;
 3/5=1,6=6,7=111,11=2,16=1,25=1,30=1,71=1,74=-6,124=41/1,2,3;
 4/5=5,16=3,69=1/1;
 5/5=2,38=5/2;
 7//1,2,3,16;
 1/14=-1,18=20,19=15,26=3/3(-5);
 2/9=110/2;
 6/7=2,8=2,9=2,10=2,19=2,28=1/1;
 99/9=1/99;
 ----------
 [No Title]
 ----------
 Symbolic Z-matrix:
 Charge =  0 Multiplicity = 1
 C                     0.68179   2.43436   0.23277 
 C                     2.0813    2.39137   0.37759 
 C                     2.74936   1.20545   0.21114 
 C                     2.02994   0.0002    0. 
 C                     0.59207   0.00006   0. 
 C                    -0.06945   1.28941  -0.00738 
 C                     2.74959  -1.20492  -0.21114 
 C                     2.08176  -2.39097  -0.37759 
 C                     0.68226  -2.43423  -0.23277 
 C                    -0.0692   -1.28943   0.00738 
 N                    -1.44898   1.39117  -0.27144 
 N                    -1.44871  -1.39145   0.27144 
 C                    -1.89088   0.90343  -1.57118 
 C                    -2.11867   2.62062   0.09382 
 C                    -2.11816  -2.62103  -0.09382 
 C                    -1.89071  -0.90378   1.57117 
 H                     0.19219   3.40148   0.24579 
 H                     2.62705   3.31363   0.55855 
 H                     3.83484   1.16519   0.24297 
 H                     3.83507  -1.16445  -0.24296 
 H                     2.62769  -3.31312  -0.55855 
 H                     0.19285  -3.40144  -0.24579 
 H                    -1.33551   0.01158  -1.85542 
 H                    -2.95412   0.64353  -1.52848 
 H                    -1.74814   1.66924  -2.35444 
 H                    -1.87608   2.89594   1.12411 
 H                    -1.87322   3.4744   -0.56486 
 H                    -3.19993   2.45898   0.02984 
 H                    -1.87552  -2.89631  -1.1241 
 H                    -1.87254  -3.47477   0.56487 
 H                    -3.19945  -2.4596   -0.02983 
 H                    -1.33552  -0.01182   1.8554 
 H                    -2.95401  -0.6441    1.52846 
 H                    -1.74781  -1.66955   2.35444 
 

 GradGradGradGradGradGradGradGradGradGradGradGradGradGradGradGradGradGrad
 Berny optimization.
 Initialization pass.
                           ----------------------------
                           !    Initial Parameters    !
                           ! (Angstroms and Degrees)  !
 --------------------------                            --------------------------
 ! Name  Definition              Value          Derivative Info.                !
 --------------------------------------------------------------------------------
 ! R1    R(1,2)                  1.4076         estimate D2E/DX2                !
 ! R2    R(1,6)                  1.3903         estimate D2E/DX2                !
 ! R3    R(1,17)                 1.0841         estimate D2E/DX2                !
 ! R4    R(2,3)                  1.3713         estimate D2E/DX2                !
 ! R5    R(2,18)                 1.0868         estimate D2E/DX2                !
 ! R6    R(3,4)                  1.4194         estimate D2E/DX2                !
 ! R7    R(3,19)                 1.0867         estimate D2E/DX2                !
 ! R8    R(4,5)                  1.4379         estimate D2E/DX2                !
 ! R9    R(4,7)                  1.4194         estimate D2E/DX2                !
 ! R10   R(5,6)                  1.4492         estimate D2E/DX2                !
 ! R11   R(5,10)                 1.4492         estimate D2E/DX2                !
 ! R12   R(6,11)                 1.4083         estimate D2E/DX2                !
 ! R13   R(7,8)                  1.3713         estimate D2E/DX2                !
 ! R14   R(7,20)                 1.0867         estimate D2E/DX2                !
 ! R15   R(8,9)                  1.4076         estimate D2E/DX2                !
 ! R16   R(8,21)                 1.0868         estimate D2E/DX2                !
 ! R17   R(9,10)                 1.3903         estimate D2E/DX2                !
 ! R18   R(9,22)                 1.0841         estimate D2E/DX2                !
 ! R19   R(10,12)                1.4083         estimate D2E/DX2                !
 ! R20   R(11,13)                1.4569         estimate D2E/DX2                !
 ! R21   R(11,14)                1.4469         estimate D2E/DX2                !
 ! R22   R(12,15)                1.4469         estimate D2E/DX2                !
 ! R23   R(12,16)                1.4569         estimate D2E/DX2                !
 ! R24   R(13,23)                1.0884         estimate D2E/DX2                !
 ! R25   R(13,24)                1.0954         estimate D2E/DX2                !
 ! R26   R(13,25)                1.1047         estimate D2E/DX2                !
 ! R27   R(14,26)                1.0937         estimate D2E/DX2                !
 ! R28   R(14,27)                1.1059         estimate D2E/DX2                !
 ! R29   R(14,28)                1.0952         estimate D2E/DX2                !
 ! R30   R(15,29)                1.0937         estimate D2E/DX2                !
 ! R31   R(15,30)                1.1059         estimate D2E/DX2                !
 ! R32   R(15,31)                1.0952         estimate D2E/DX2                !
 ! R33   R(16,32)                1.0884         estimate D2E/DX2                !
 ! R34   R(16,33)                1.0954         estimate D2E/DX2                !
 ! R35   R(16,34)                1.1047         estimate D2E/DX2                !
 ! A1    A(2,1,6)              121.9951         estimate D2E/DX2                !
 ! A2    A(2,1,17)             118.3612         estimate D2E/DX2                !
 ! A3    A(6,1,17)             119.5199         estimate D2E/DX2                !
 ! A4    A(1,2,3)              119.8865         estimate D2E/DX2                !
 ! A5    A(1,2,18)             119.3722         estimate D2E/DX2                !
 ! A6    A(3,2,18)             120.6274         estimate D2E/DX2                !
 ! A7    A(2,3,4)              120.3628         estimate D2E/DX2                !
 ! A8    A(2,3,19)             121.0054         estimate D2E/DX2                !
 ! A9    A(4,3,19)             118.631          estimate D2E/DX2                !
 ! A10   A(3,4,5)              120.4585         estimate D2E/DX2                !
 ! A11   A(3,4,7)              119.0828         estimate D2E/DX2                !
 ! A12   A(5,4,7)              120.4586         estimate D2E/DX2                !
 ! A13   A(4,5,6)              117.1546         estimate D2E/DX2                !
 ! A14   A(4,5,10)             117.1545         estimate D2E/DX2                !
 ! A15   A(6,5,10)             125.6909         estimate D2E/DX2                !
 ! A16   A(1,6,5)              119.0238         estimate D2E/DX2                !
 ! A17   A(1,6,11)             120.1459         estimate D2E/DX2                !
 ! A18   A(5,6,11)             120.8245         estimate D2E/DX2                !
 ! A19   A(4,7,8)              120.3627         estimate D2E/DX2                !
 ! A20   A(4,7,20)             118.631          estimate D2E/DX2                !
 ! A21   A(8,7,20)             121.0054         estimate D2E/DX2                !
 ! A22   A(7,8,9)              119.8864         estimate D2E/DX2                !
 ! A23   A(7,8,21)             120.6274         estimate D2E/DX2                !
 ! A24   A(9,8,21)             119.3722         estimate D2E/DX2                !
 ! A25   A(8,9,10)             121.9951         estimate D2E/DX2                !
 ! A26   A(8,9,22)             118.3612         estimate D2E/DX2                !
 ! A27   A(10,9,22)            119.5198         estimate D2E/DX2                !
 ! A28   A(5,10,9)             119.0238         estimate D2E/DX2                !
 ! A29   A(5,10,12)            120.8245         estimate D2E/DX2                !
 ! A30   A(9,10,12)            120.1459         estimate D2E/DX2                !
 ! A31   A(6,11,13)            116.1185         estimate D2E/DX2                !
 ! A32   A(6,11,14)            117.8704         estimate D2E/DX2                !
 ! A33   A(13,11,14)           111.6728         estimate D2E/DX2                !
 ! A34   A(10,12,15)           117.8704         estimate D2E/DX2                !
 ! A35   A(10,12,16)           116.1185         estimate D2E/DX2                !
 ! A36   A(15,12,16)           111.6728         estimate D2E/DX2                !
 ! A37   A(11,13,23)           110.6427         estimate D2E/DX2                !
 ! A38   A(11,13,24)           109.8208         estimate D2E/DX2                !
 ! A39   A(11,13,25)           111.1787         estimate D2E/DX2                !
 ! A40   A(23,13,24)           108.1231         estimate D2E/DX2                !
 ! A41   A(23,13,25)           108.4778         estimate D2E/DX2                !
 ! A42   A(24,13,25)           108.5145         estimate D2E/DX2                !
 ! A43   A(11,14,26)           110.4301         estimate D2E/DX2                !
 ! A44   A(11,14,27)           113.7608         estimate D2E/DX2                !
 ! A45   A(11,14,28)           108.4708         estimate D2E/DX2                !
 ! A46   A(26,14,27)           108.5119         estimate D2E/DX2                !
 ! A47   A(26,14,28)           108.1307         estimate D2E/DX2                !
 ! A48   A(27,14,28)           107.3536         estimate D2E/DX2                !
 ! A49   A(12,15,29)           110.43           estimate D2E/DX2                !
 ! A50   A(12,15,30)           113.7608         estimate D2E/DX2                !
 ! A51   A(12,15,31)           108.4706         estimate D2E/DX2                !
 ! A52   A(29,15,30)           108.512          estimate D2E/DX2                !
 ! A53   A(29,15,31)           108.1308         estimate D2E/DX2                !
 ! A54   A(30,15,31)           107.3537         estimate D2E/DX2                !
 ! A55   A(12,16,32)           110.6428         estimate D2E/DX2                !
 ! A56   A(12,16,33)           109.8207         estimate D2E/DX2                !
 ! A57   A(12,16,34)           111.1787         estimate D2E/DX2                !
 ! A58   A(32,16,33)           108.123          estimate D2E/DX2                !
 ! A59   A(32,16,34)           108.4778         estimate D2E/DX2                !
 ! A60   A(33,16,34)           108.5145         estimate D2E/DX2                !
 ! D1    D(6,1,2,3)              3.4924         estimate D2E/DX2                !
 ! D2    D(6,1,2,18)           179.6371         estimate D2E/DX2                !
 ! D3    D(17,1,2,3)          -172.4402         estimate D2E/DX2                !
 ! D4    D(17,1,2,18)            3.7045         estimate D2E/DX2                !
 ! D5    D(2,1,6,5)              5.1451         estimate D2E/DX2                !
 ! D6    D(2,1,6,11)          -173.9853         estimate D2E/DX2                !
 ! D7    D(17,1,6,5)          -178.9682         estimate D2E/DX2                !
 ! D8    D(17,1,6,11)            1.9015         estimate D2E/DX2                !
 ! D9    D(1,2,3,4)             -5.0862         estimate D2E/DX2                !
 ! D10   D(1,2,3,19)           175.2525         estimate D2E/DX2                !
 ! D11   D(18,2,3,4)           178.8183         estimate D2E/DX2                !
 ! D12   D(18,2,3,19)           -0.8431         estimate D2E/DX2                !
 ! D13   D(2,3,4,5)             -1.9714         estimate D2E/DX2                !
 ! D14   D(2,3,4,7)            178.0287         estimate D2E/DX2                !
 ! D15   D(19,3,4,5)           177.6979         estimate D2E/DX2                !
 ! D16   D(19,3,4,7)            -2.302          estimate D2E/DX2                !
 ! D17   D(3,4,5,6)             10.2648         estimate D2E/DX2                !
 ! D18   D(3,4,5,10)          -169.7352         estimate D2E/DX2                !
 ! D19   D(7,4,5,6)           -169.7352         estimate D2E/DX2                !
 ! D20   D(7,4,5,10)            10.2648         estimate D2E/DX2                !
 ! D21   D(3,4,7,8)            178.0286         estimate D2E/DX2                !
 ! D22   D(3,4,7,20)            -2.3021         estimate D2E/DX2                !
 ! D23   D(5,4,7,8)             -1.9714         estimate D2E/DX2                !
 ! D24   D(5,4,7,20)           177.698          estimate D2E/DX2                !
 ! D25   D(4,5,6,1)            -11.7081         estimate D2E/DX2                !
 ! D26   D(4,5,6,11)           167.4162         estimate D2E/DX2                !
 ! D27   D(10,5,6,1)           168.2919         estimate D2E/DX2                !
 ! D28   D(10,5,6,11)          -12.5838         estimate D2E/DX2                !
 ! D29   D(4,5,10,9)           -11.7081         estimate D2E/DX2                !
 ! D30   D(4,5,10,12)          167.4163         estimate D2E/DX2                !
 ! D31   D(6,5,10,9)           168.2919         estimate D2E/DX2                !
 ! D32   D(6,5,10,12)          -12.5837         estimate D2E/DX2                !
 ! D33   D(1,6,11,13)          118.6793         estimate D2E/DX2                !
 ! D34   D(1,6,11,14)          -17.7519         estimate D2E/DX2                !
 ! D35   D(5,6,11,13)          -60.4352         estimate D2E/DX2                !
 ! D36   D(5,6,11,14)          163.1337         estimate D2E/DX2                !
 ! D37   D(4,7,8,9)             -5.0862         estimate D2E/DX2                !
 ! D38   D(4,7,8,21)           178.8183         estimate D2E/DX2                !
 ! D39   D(20,7,8,9)           175.2524         estimate D2E/DX2                !
 ! D40   D(20,7,8,21)           -0.8431         estimate D2E/DX2                !
 ! D41   D(7,8,9,10)             3.4924         estimate D2E/DX2                !
 ! D42   D(7,8,9,22)          -172.4401         estimate D2E/DX2                !
 ! D43   D(21,8,9,10)          179.6371         estimate D2E/DX2                !
 ! D44   D(21,8,9,22)            3.7045         estimate D2E/DX2                !
 ! D45   D(8,9,10,5)             5.145          estimate D2E/DX2                !
 ! D46   D(8,9,10,12)         -173.9854         estimate D2E/DX2                !
 ! D47   D(22,9,10,5)         -178.9682         estimate D2E/DX2                !
 ! D48   D(22,9,10,12)           1.9014         estimate D2E/DX2                !
 ! D49   D(5,10,12,15)         163.134          estimate D2E/DX2                !
 ! D50   D(5,10,12,16)         -60.4346         estimate D2E/DX2                !
 ! D51   D(9,10,12,15)         -17.7514         estimate D2E/DX2                !
 ! D52   D(9,10,12,16)         118.6799         estimate D2E/DX2                !
 ! D53   D(6,11,13,23)          37.6468         estimate D2E/DX2                !
 ! D54   D(6,11,13,24)         156.9294         estimate D2E/DX2                !
 ! D55   D(6,11,13,25)         -82.9621         estimate D2E/DX2                !
 ! D56   D(14,11,13,23)        176.6795         estimate D2E/DX2                !
 ! D57   D(14,11,13,24)        -64.0379         estimate D2E/DX2                !
 ! D58   D(14,11,13,25)         56.0706         estimate D2E/DX2                !
 ! D59   D(6,11,14,26)         -49.4178         estimate D2E/DX2                !
 ! D60   D(6,11,14,27)          72.8704         estimate D2E/DX2                !
 ! D61   D(6,11,14,28)        -167.7467         estimate D2E/DX2                !
 ! D62   D(13,11,14,26)        172.3352         estimate D2E/DX2                !
 ! D63   D(13,11,14,27)        -65.3766         estimate D2E/DX2                !
 ! D64   D(13,11,14,28)         54.0063         estimate D2E/DX2                !
 ! D65   D(10,12,15,29)        -49.4181         estimate D2E/DX2                !
 ! D66   D(10,12,15,30)         72.8701         estimate D2E/DX2                !
 ! D67   D(10,12,15,31)       -167.747          estimate D2E/DX2                !
 ! D68   D(16,12,15,29)        172.3347         estimate D2E/DX2                !
 ! D69   D(16,12,15,30)        -65.377          estimate D2E/DX2                !
 ! D70   D(16,12,15,31)         54.0058         estimate D2E/DX2                !
 ! D71   D(10,12,16,32)         37.6473         estimate D2E/DX2                !
 ! D72   D(10,12,16,33)        156.9298         estimate D2E/DX2                !
 ! D73   D(10,12,16,34)        -82.9618         estimate D2E/DX2                !
 ! D74   D(15,12,16,32)        176.6801         estimate D2E/DX2                !
 ! D75   D(15,12,16,33)        -64.0374         estimate D2E/DX2                !
 ! D76   D(15,12,16,34)         56.0711         estimate D2E/DX2                !
 --------------------------------------------------------------------------------
 Trust Radius=3.00D-01 FncErr=1.00D-07 GrdErr=1.00D-06
 Number of steps in this run=    181 maximum allowed number of steps=    204.
 GradGradGradGradGradGradGradGradGradGradGradGradGradGradGradGradGradGrad

                          Input orientation:                          
 ---------------------------------------------------------------------
 Center     Atomic      Atomic             Coordinates (Angstroms)
 Number     Number       Type             X           Y           Z
 ---------------------------------------------------------------------
      1          6           0        0.681787    2.434356    0.232772
      2          6           0        2.081296    2.391374    0.377594
      3          6           0        2.749356    1.205451    0.211140
      4          6           0        2.029943    0.000195    0.000000
      5          6           0        0.592068    0.000057    0.000000
      6          6           0       -0.069448    1.289413   -0.007378
      7          6           0        2.749590   -1.204921   -0.211139
      8          6           0        2.081759   -2.390974   -0.377593
      9          6           0        0.682259   -2.434226   -0.232771
     10          6           0       -0.069198   -1.289428    0.007378
     11          7           0       -1.448978    1.391169   -0.271439
     12          7           0       -1.448709   -1.391451    0.271437
     13          6           0       -1.890881    0.903425   -1.571175
     14          6           0       -2.118666    2.620615    0.093823
     15          6           0       -2.118156   -2.621030   -0.093817
     16          6           0       -1.890711   -0.903780    1.571167
     17          1           0        0.192189    3.401476    0.245792
     18          1           0        2.627048    3.313626    0.558547
     19          1           0        3.834841    1.165192    0.242965
     20          1           0        3.835067   -1.164452   -0.242963
     21          1           0        2.627689   -3.313121   -0.558545
     22          1           0        0.192847   -3.401440   -0.245790
     23          1           0       -1.335508    0.011584   -1.855416
     24          1           0       -2.954122    0.643530   -1.528475
     25          1           0       -1.748137    1.669235   -2.354440
     26          1           0       -1.876084    2.895937    1.124106
     27          1           0       -1.873221    3.474403   -0.564862
     28          1           0       -3.199932    2.458979    0.029838
     29          1           0       -1.875523   -2.896308   -1.124099
     30          1           0       -1.872542   -3.474766    0.564872
     31          1           0       -3.199453   -2.459603   -0.029829
     32          1           0       -1.335521   -0.011822    1.855399
     33          1           0       -2.954005   -0.644101    1.528462
     34          1           0       -1.747814   -1.669551    2.354442
 ---------------------------------------------------------------------
                    Distance matrix (angstroms):
                    1          2          3          4          5
     1  C    0.000000
     2  C    1.407639   0.000000
     3  C    2.405310   1.371286   0.000000
     4  C    2.792284   2.421353   1.419428   0.000000
     5  C    2.447048   2.842318   2.480211   1.437875   0.000000
     6  C    1.390295   2.447084   2.828508   2.463652   1.449171
     7  C    4.209181   3.704937   2.447083   1.419428   2.480212
     8  C    5.061252   4.841607   3.704938   2.421353   2.842320
     9  C    4.890789   5.061251   4.209180   2.792282   2.447049
    10  C    3.805437   4.279017   3.769640   2.463651   1.449172
    11  N    2.425413   3.726190   4.230057   3.756512   2.484903
    12  N    4.379190   5.175130   4.936728   3.756511   2.484903
    13  C    3.495225   4.667963   4.979926   4.319407   3.074036
    14  C    2.810078   4.215775   5.070906   4.907786   3.771499
    15  C    5.788201   6.556052   6.199002   4.907784   3.771500
    16  C    4.421787   5.297121   5.275296   4.319406   3.074033
    17  H    1.084065   2.146253   3.370880   3.873818   3.433652
    18  H    2.159464   1.086802   2.140106   3.412819   3.928468
    19  H    3.398916   2.143961   1.086697   2.161922   3.454294
    20  H    4.808422   4.013066   2.646019   2.161922   3.454295
    21  H    6.119331   5.806562   4.585271   3.412819   3.928470
    22  H    5.875764   6.124667   5.288475   3.873817   3.433653
    23  H    3.781512   4.724858   4.730971   3.843040   2.675491
    24  H    4.419150   5.660697   5.989297   5.252715   3.914812
    25  H    3.630924   4.759207   5.198532   4.754258   3.715656
    26  H    2.747770   4.058660   5.008587   4.990589   3.967557
    27  H    2.871582   4.207063   5.207546   5.255842   4.297418
    28  H    3.887098   5.293097   6.082617   5.779109   4.519563
    29  H    6.066046   6.772819   6.324302   4.990590   3.967560
    30  H    6.446131   7.076688   6.587222   5.255837   4.297415
    31  H    6.251705   7.182220   6.991353   5.779107   4.519563
    32  H    3.561774   4.431015   4.568540   3.843045   2.675490
    33  H    4.937073   5.991065   6.138771   5.252718   3.914814
    34  H    5.219818   5.921243   5.751862   4.754250   3.715647
                    6          7          8          9         10
     6  C    0.000000
     7  C    3.769641   0.000000
     8  C    4.279018   1.371287   0.000000
     9  C    3.805437   2.405310   1.407638   0.000000
    10  C    2.578883   2.828508   2.447084   1.390296   0.000000
    11  N    1.408256   4.936729   5.175131   4.379191   3.027727
    12  N    3.027727   4.230058   3.726190   2.425413   1.408257
    13  C    2.431474   5.275300   5.297129   4.421797   3.258675
    14  C    2.445738   6.199003   6.556053   5.788200   4.415453
    15  C    4.415455   5.070905   4.215773   2.810076   2.445738
    16  C    3.258665   4.979929   4.667968   3.495230   2.431475
    17  H    2.143212   5.288476   6.124668   5.875765   4.704226
    18  H    3.418889   4.585270   5.806562   6.119329   5.362988
    19  H    3.914278   2.646019   4.013067   4.808421   4.617595
    20  H    4.617596   1.086697   2.143961   3.398916   3.914278
    21  H    5.362989   2.140107   1.086802   2.159464   3.418889
    22  H    4.704226   3.370880   2.146253   1.084065   2.143212
    23  H    2.578953   4.568540   4.431022   3.561790   2.601187
    24  H    3.324492   6.138768   5.991063   4.937074   3.797099
    25  H    2.910492   5.751874   5.921260   5.219837   4.141341
    26  H    2.669290   6.324300   6.772817   6.066043   4.693527
    27  H    2.887658   6.587228   7.076693   6.446135   5.126016
    28  H    3.342035   6.991355   7.182221   6.251706   4.883908
    29  H    4.693531   5.008588   4.058659   2.747769   2.669291
    30  H    5.126014   5.207542   4.207059   2.871579   2.887655
    31  H    4.883908   6.082616   5.293095   3.887096   3.342034
    32  H    2.601171   4.730983   4.724872   3.781525   2.578960
    33  H    3.797098   5.989301   5.660700   4.419152   3.324493
    34  H    4.141325   5.198531   4.759212   3.630930   2.910490
                   11         12         13         14         15
    11  N    0.000000
    12  N    2.835082   0.000000
    13  C    1.456875   2.976103   0.000000
    14  C    1.446871   4.071494   2.402675   0.000000
    15  C    4.071497   1.446871   3.828319   5.245003   0.000000
    16  C    2.976091   1.456876   3.624956   3.828298   2.402676
    17  H    2.646184   5.066098   3.725696   2.443950   6.459381
    18  H    4.582434   6.231531   5.545851   4.818510   7.626446
    19  H    5.313607   5.869679   6.011948   6.130640   7.063078
    20  H    5.869680   5.313608   6.231111   7.063080   6.130638
    21  H    6.231532   4.582435   6.262759   7.626447   4.818507
    22  H    5.066098   2.646183   4.962905   6.459379   2.443946
    23  H    2.103595   2.550456   1.088399   3.349614   3.262886
    24  H    2.098705   3.105978   1.095377   2.690484   3.662572
    25  H    2.122666   4.043845   1.104692   2.652623   4.863507
    26  H    2.096257   4.392196   3.351845   1.093678   5.654985
    27  H    2.146146   4.955415   2.760961   1.105922   6.118511
    28  H    2.072879   4.236858   2.587780   1.095151   5.195385
    29  H    4.392201   2.096255   3.825975   5.654988   1.093677
    30  H    4.955416   2.146145   4.871508   6.118507   1.105922
    31  H    4.236860   2.072876   3.924037   5.195383   1.095151
    32  H    2.550431   2.103598   3.589918   3.262850   3.349616
    33  H    3.105974   2.098704   3.623923   3.662561   2.690480
    34  H    4.043830   2.122667   4.695864   4.863482   2.652628
                   16         17         18         19         20
    16  C    0.000000
    17  H    4.962894   0.000000
    18  H    6.262752   2.456435   0.000000
    19  H    6.231108   4.274329   2.484779   0.000000
    20  H    6.011951   5.861496   4.706900   2.379783   0.000000
    21  H    5.545858   7.187797   6.720243   4.706901   2.484780
    22  H    3.725702   6.820654   7.187795   5.861496   4.274329
    23  H    3.589932   4.270867   5.694958   5.697940   5.542374
    24  H    3.623919   4.544619   6.529512   7.035634   7.142438
    25  H    4.695862   3.677870   5.507428   6.178205   6.607593
    26  H    3.825954   2.303206   4.557688   6.032127   7.139530
    27  H    4.871490   2.219999   4.641155   6.210234   7.362550
    28  H    3.924016   3.527240   5.913007   7.155930   7.918010
    29  H    3.351844   6.768613   7.852880   7.139531   6.032128
    30  H    2.760965   7.186629   8.144238   7.362544   6.210229
    31  H    2.587775   6.777274   8.223410   7.918008   7.155929
    32  H    1.088399   4.071282   5.333140   5.542378   5.697952
    33  H    1.095377   5.283036   6.910318   7.142442   7.035639
    34  H    1.104692   5.824546   6.869986   6.607582   6.178203
                   21         22         23         24         25
    21  H    0.000000
    22  H    2.456435   0.000000
    23  H    5.333148   4.071302   0.000000
    24  H    6.910316   5.283037   1.768094   0.000000
    25  H    6.870005   5.824566   1.779633   1.785690   0.000000
    26  H    7.852878   6.768608   4.182017   3.643033   3.690725
    27  H    8.144244   7.186631   3.734405   3.179739   2.544969
    28  H    8.223412   6.777273   3.608324   2.405123   2.901066
    29  H    4.557686   2.303202   3.046683   3.722546   4.730132
    30  H    4.641150   2.219996   4.277948   4.744711   5.915962
    31  H    5.913004   3.527236   3.593581   3.454788   4.955546
    32  H    5.694974   4.270880   3.710889   3.807881   4.551807
    33  H    6.529516   4.544619   3.807898   3.317056   4.677881
    34  H    5.507435   3.677881   4.551826   4.677881   5.772440
                   26         27         28         29         30
    26  H    0.000000
    27  H    1.785285   0.000000
    28  H    1.772266   1.773391   0.000000
    29  H    6.213254   6.395210   5.636021   0.000000
    30  H    6.395202   7.040401   6.103897   1.785286   0.000000
    31  H    5.636016   6.103899   4.918944   1.772267   1.773392
    32  H    3.046647   4.277914   3.593544   4.182017   3.734412
    33  H    3.722538   4.744700   3.454773   3.643026   3.179738
    34  H    4.730102   5.915938   4.955521   3.690730   2.544979
                   31         32         33         34
    31  H    0.000000
    32  H    3.608318   0.000000
    33  H    2.405112   1.768094   0.000000
    34  H    2.901066   1.779633   1.785690   0.000000
 Stoichiometry    C14H18N2
 Framework group  C1[X(C14H18N2)]
 Deg. of freedom    96
 Full point group                 C1      NOp   1
 Largest Abelian subgroup         C1      NOp   1
 Largest concise Abelian subgroup C1      NOp   1
                         Standard orientation:                         
 ---------------------------------------------------------------------
 Center     Atomic      Atomic             Coordinates (Angstroms)
 Number     Number       Type             X           Y           Z
 ---------------------------------------------------------------------
      1          6           0        0.681780   -2.434358   -0.232772
      2          6           0        2.081289   -2.391380   -0.377594
      3          6           0        2.749352   -1.205459   -0.211140
      4          6           0        2.029943   -0.000201   -0.000000
      5          6           0        0.592068   -0.000059   -0.000000
      6          6           0       -0.069452   -1.289413    0.007378
      7          6           0        2.749594    1.204913    0.211139
      8          6           0        2.081766    2.390968    0.377593
      9          6           0        0.682266    2.434224    0.232771
     10          6           0       -0.069194    1.289428   -0.007378
     11          7           0       -1.448982   -1.391165    0.271439
     12          7           0       -1.448705    1.391455   -0.271437
     13          6           0       -1.890884   -0.903420    1.571175
     14          6           0       -2.118674   -2.620609   -0.093823
     15          6           0       -2.118148    2.621036    0.093817
     16          6           0       -1.890708    0.903785   -1.571167
     17          1           0        0.192179   -3.401477   -0.245792
     18          1           0        2.627038   -3.313634   -0.558547
     19          1           0        3.834838   -1.165203   -0.242965
     20          1           0        3.835070    1.164441    0.242963
     21          1           0        2.627699    3.313113    0.558545
     22          1           0        0.192857    3.401439    0.245790
     23          1           0       -1.335508   -0.011580    1.855416
     24          1           0       -2.954124   -0.643521    1.528475
     25          1           0       -1.748142   -1.669230    2.354440
     26          1           0       -1.876093   -2.895932   -1.124106
     27          1           0       -1.873231   -3.474398    0.564862
     28          1           0       -3.199939   -2.458970   -0.029838
     29          1           0       -1.875514    2.896313    1.124099
     30          1           0       -1.872532    3.474771   -0.564872
     31          1           0       -3.199446    2.459612    0.029829
     32          1           0       -1.335521    0.011826   -1.855399
     33          1           0       -2.954003    0.644110   -1.528462
     34          1           0       -1.747809    1.669556   -2.354442
 ---------------------------------------------------------------------
 Rotational constants (GHZ):      0.6355933      0.6302430      0.3587761
 Standard basis: 6-31+G(d,p) (6D, 7F)
 There are   394 symmetry adapted cartesian basis functions of A   symmetry.
 There are   394 symmetry adapted basis functions of A   symmetry.
   394 basis functions,   638 primitive gaussians,   394 cartesian basis functions
    58 alpha electrons       58 beta electrons
       nuclear repulsion energy      1123.7428048948 Hartrees.
 NAtoms=   34 NActive=   34 NUniq=   34 SFac= 1.00D+00 NAtFMM=   60 NAOKFM=F Big=F
 Integral buffers will be    131072 words long.
 Raffenetti 2 integral format.
 Two-electron integral symmetry is turned on.
 Nuclear repulsion after empirical dispersion term =     1123.6665335727 Hartrees.
 One-electron integrals computed using PRISM.
 NBasis=   394 RedAO= T EigKep=  1.16D-06  NBF=   394
 NBsUse=   391 1.00D-06 EigRej=  9.80D-07 NBFU=   391
 ExpMin= 4.38D-02 ExpMax= 4.17D+03 ExpMxC= 6.27D+02 IAcc=2 IRadAn=         4 AccDes= 0.00D+00
 Harris functional with IExCor=  408 and IRadAn=       4 diagonalized for initial guess.
 HarFok:  IExCor=  408 AccDes= 0.00D+00 IRadAn=         4 IDoV= 1 UseB2=F ITyADJ=14
 ICtDFT=  3500011 ScaDFX=  1.000000  1.000000  1.000000  1.000000
 FoFCou: FMM=F IPFlag=           0 FMFlag=      100000 FMFlg1=           0
         NFxFlg=           0 DoJE=T BraDBF=F KetDBF=T FulRan=T
         wScrn=  0.000000 ICntrl=     500 IOpCl=  0 I1Cent=   200000004 NGrid=           0
         NMat0=    1 NMatS0=      1 NMatT0=    0 NMatD0=    1 NMtDS0=    0 NMtDT0=    0
 Petite list used in FoFCou.
 Requested convergence on RMS density matrix=1.00D-08 within 128 cycles.
 Requested convergence on MAX density matrix=1.00D-06.
 Requested convergence on             energy=1.00D-06.
 No special actions if energy rises.
 SCF Done:  E(RB3PW91) =  -653.679017215     A.U. after   14 cycles
            NFock= 14  Conv=0.73D-08     -V/T= 2.0098

 **********************************************************************

            Population analysis using the SCF density.

 **********************************************************************

 Orbital symmetries:
       Occupied  (A) (A) (A) (A) (A) (A) (A) (A) (A) (A) (A) (A)
                 (A) (A) (A) (A) (A) (A) (A) (A) (A) (A) (A) (A)
                 (A) (A) (A) (A) (A) (A) (A) (A) (A) (A) (A) (A)
                 (A) (A) (A) (A) (A) (A) (A) (A) (A) (A) (A) (A)
                 (A) (A) (A) (A) (A) (A) (A) (A) (A) (A)
       Virtual   (A) (A) (A) (A) (A) (A) (A) (A) (A) (A) (A) (A)
                 (A) (A) (A) (A) (A) (A) (A) (A) (A) (A) (A) (A)
                 (A) (A) (A) (A) (A) (A) (A) (A) (A) (A) (A) (A)
                 (A) (A) (A) (A) (A) (A) (A) (A) (A) (A) (A) (A)
                 (A) (A) (A) (A) (A) (A) (A) (A) (A) (A) (A) (A)
                 (A) (A) (A) (A) (A) (A) (A) (A) (A) (A) (A) (A)
                 (A) (A) (A) (A) (A) (A) (A) (A) (A) (A) (A) (A)
                 (A) (A) (A) (A) (A) (A) (A) (A) (A) (A) (A) (A)
                 (A) (A) (A) (A) (A) (A) (A) (A) (A) (A) (A) (A)
                 (A) (A) (A) (A) (A) (A) (A) (A) (A) (A) (A) (A)
                 (A) (A) (A) (A) (A) (A) (A) (A) (A) (A) (A) (A)
                 (A) (A) (A) (A) (A) (A) (A) (A) (A) (A) (A) (A)
                 (A) (A) (A) (A) (A) (A) (A) (A) (A) (A) (A) (A)
                 (A) (A) (A) (A) (A) (A) (A) (A) (A) (A) (A) (A)
                 (A) (A) (A) (A) (A) (A) (A) (A) (A) (A) (A) (A)
                 (A) (A) (A) (A) (A) (A) (A) (A) (A) (A) (A) (A)
                 (A) (A) (A) (A) (A) (A) (A) (A) (A) (A) (A) (A)
                 (A) (A) (A) (A) (A) (A) (A) (A) (A) (A) (A) (A)
                 (A) (A) (A) (A) (A) (A) (A) (A) (A) (A) (A) (A)
                 (A) (A) (A) (A) (A) (A) (A) (A) (A) (A) (A) (A)
                 (A) (A) (A) (A) (A) (A) (A) (A) (A) (A) (A) (A)
                 (A) (A) (A) (A) (A) (A) (A) (A) (A) (A) (A) (A)
                 (A) (A) (A) (A) (A) (A) (A) (A) (A) (A) (A) (A)
                 (A) (A) (A) (A) (A) (A) (A) (A) (A) (A) (A) (A)
                 (A) (A) (A) (A) (A) (A) (A) (A) (A) (A) (A) (A)
                 (A) (A) (A) (A) (A) (A) (A) (A) (A) (A) (A) (A)
                 (A) (A) (A) (A) (A) (A) (A) (A) (A) (A) (A) (A)
                 (A) (A) (A) (A) (A) (A) (A) (A) (A)
 The electronic state is 1-A.
 Alpha  occ. eigenvalues --  -14.33699 -14.33699 -10.21677 -10.21677 -10.19849
 Alpha  occ. eigenvalues --  -10.19849 -10.19184 -10.19184 -10.18928 -10.18654
 Alpha  occ. eigenvalues --  -10.17667 -10.17667 -10.17117 -10.17117 -10.17036
 Alpha  occ. eigenvalues --  -10.17035  -0.95551  -0.94018  -0.86464  -0.81749
 Alpha  occ. eigenvalues --   -0.76870  -0.74616  -0.72737  -0.71549  -0.71295
 Alpha  occ. eigenvalues --   -0.65689  -0.65643  -0.61323  -0.60094  -0.56111
 Alpha  occ. eigenvalues --   -0.52189  -0.51376  -0.50360  -0.48205  -0.47310
 Alpha  occ. eigenvalues --   -0.46727  -0.46087  -0.45462  -0.44428  -0.42363
 Alpha  occ. eigenvalues --   -0.41085  -0.40664  -0.39759  -0.39502  -0.39216
 Alpha  occ. eigenvalues --   -0.38188  -0.38117  -0.37312  -0.37144  -0.36891
 Alpha  occ. eigenvalues --   -0.34298  -0.33524  -0.32865  -0.29155  -0.26064
 Alpha  occ. eigenvalues --   -0.24485  -0.20337  -0.18930
 Alpha virt. eigenvalues --   -0.03721  -0.01654   0.01015   0.01872   0.02540
 Alpha virt. eigenvalues --    0.02562   0.03666   0.03901   0.04047   0.04701
 Alpha virt. eigenvalues --    0.05892   0.05986   0.06013   0.06502   0.06867
 Alpha virt. eigenvalues --    0.07100   0.08380   0.08585   0.08660   0.08966
 Alpha virt. eigenvalues --    0.09735   0.09896   0.10206   0.11188   0.11990
 Alpha virt. eigenvalues --    0.12071   0.12601   0.12934   0.13286   0.13698
 Alpha virt. eigenvalues --    0.14544   0.14663   0.15012   0.16261   0.16435
 Alpha virt. eigenvalues --    0.16644   0.17100   0.17428   0.17930   0.18015
 Alpha virt. eigenvalues --    0.18779   0.18802   0.20194   0.20224   0.20668
 Alpha virt. eigenvalues --    0.21033   0.21210   0.21451   0.22042   0.22311
 Alpha virt. eigenvalues --    0.22784   0.22903   0.22926   0.23751   0.24057
 Alpha virt. eigenvalues --    0.24460   0.24803   0.24854   0.25559   0.26277
 Alpha virt. eigenvalues --    0.26601   0.26820   0.27393   0.27762   0.28326
 Alpha virt. eigenvalues --    0.28416   0.28535   0.28682   0.29270   0.29817
 Alpha virt. eigenvalues --    0.29852   0.30244   0.30423   0.31557   0.31797
 Alpha virt. eigenvalues --    0.31991   0.32690   0.33079   0.34230   0.34497
 Alpha virt. eigenvalues --    0.34666   0.35331   0.36086   0.36181   0.36254
 Alpha virt. eigenvalues --    0.37578   0.38198   0.38648   0.41292   0.41307
 Alpha virt. eigenvalues --    0.41786   0.43859   0.45334   0.46071   0.46308
 Alpha virt. eigenvalues --    0.48855   0.49866   0.54431   0.55893   0.61719
 Alpha virt. eigenvalues --    0.65020   0.66011   0.67473   0.69370   0.69401
 Alpha virt. eigenvalues --    0.69756   0.70803   0.71586   0.71661   0.72397
 Alpha virt. eigenvalues --    0.73159   0.74363   0.74913   0.75262   0.75904
 Alpha virt. eigenvalues --    0.76646   0.77290   0.79282   0.79788   0.79942
 Alpha virt. eigenvalues --    0.80593   0.81825   0.83596   0.83888   0.85459
 Alpha virt. eigenvalues --    0.86798   0.87939   0.88451   0.89152   0.90190
 Alpha virt. eigenvalues --    0.90888   0.91839   0.92175   0.92538   0.94894
 Alpha virt. eigenvalues --    0.95469   0.96303   0.96326   0.97704   0.98967
 Alpha virt. eigenvalues --    0.99716   1.00387   1.01184   1.01722   1.04506
 Alpha virt. eigenvalues --    1.04888   1.05261   1.06152   1.06165   1.07466
 Alpha virt. eigenvalues --    1.08763   1.09069   1.09458   1.14574   1.14696
 Alpha virt. eigenvalues --    1.16145   1.16196   1.16681   1.17002   1.17039
 Alpha virt. eigenvalues --    1.17460   1.20239   1.22090   1.24223   1.25178
 Alpha virt. eigenvalues --    1.25691   1.26824   1.27324   1.28531   1.30622
 Alpha virt. eigenvalues --    1.30879   1.33058   1.33615   1.33803   1.36355
 Alpha virt. eigenvalues --    1.36408   1.37752   1.39069   1.40196   1.41734
 Alpha virt. eigenvalues --    1.41890   1.42613   1.45371   1.49605   1.50189
 Alpha virt. eigenvalues --    1.54376   1.55413   1.56406   1.60807   1.61572
 Alpha virt. eigenvalues --    1.63719   1.65287   1.72914   1.74998   1.75964
 Alpha virt. eigenvalues --    1.78049   1.79470   1.81036   1.82908   1.85102
 Alpha virt. eigenvalues --    1.86276   1.87020   1.87365   1.90439   1.91562
 Alpha virt. eigenvalues --    1.91687   1.92930   1.94326   1.94730   1.96697
 Alpha virt. eigenvalues --    1.97279   1.99324   1.99663   2.00203   2.01536
 Alpha virt. eigenvalues --    2.02981   2.03481   2.03657   2.04405   2.04677
 Alpha virt. eigenvalues --    2.04839   2.06049   2.07152   2.08072   2.08987
 Alpha virt. eigenvalues --    2.10239   2.11834   2.11860   2.12690   2.15316
 Alpha virt. eigenvalues --    2.15927   2.15978   2.17554   2.19001   2.19602
 Alpha virt. eigenvalues --    2.21242   2.23822   2.25475   2.27356   2.27590
 Alpha virt. eigenvalues --    2.30006   2.30115   2.33027   2.37485   2.38031
 Alpha virt. eigenvalues --    2.39240   2.40342   2.40954   2.41476   2.43300
 Alpha virt. eigenvalues --    2.44611   2.44779   2.47548   2.48854   2.49367
 Alpha virt. eigenvalues --    2.52439   2.52771   2.54369   2.56886   2.57568
 Alpha virt. eigenvalues --    2.57866   2.58514   2.60881   2.61642   2.63465
 Alpha virt. eigenvalues --    2.63859   2.65634   2.66936   2.67080   2.67640
 Alpha virt. eigenvalues --    2.70512   2.71693   2.71886   2.72732   2.73550
 Alpha virt. eigenvalues --    2.74521   2.74931   2.76137   2.78097   2.78539
 Alpha virt. eigenvalues --    2.79706   2.83257   2.85173   2.85551   2.86810
 Alpha virt. eigenvalues --    2.89541   2.93217   2.93749   2.95259   2.96893
 Alpha virt. eigenvalues --    3.03249   3.04381   3.11499   3.11798   3.13097
 Alpha virt. eigenvalues --    3.17517   3.21002   3.26240   3.26565   3.27018
 Alpha virt. eigenvalues --    3.28465   3.29614   3.29749   3.33435   3.37907
 Alpha virt. eigenvalues --    3.44130   3.44652   3.44923   3.45559   3.46524
 Alpha virt. eigenvalues --    3.46938   3.51185   3.51369   3.55338   3.56747
 Alpha virt. eigenvalues --    3.78645   3.84044   4.32250   4.32589   4.36697
 Alpha virt. eigenvalues --    4.37081   4.42107   4.44984   4.45404   4.52271
 Alpha virt. eigenvalues --    4.54145   4.59570   4.61739   4.64222   4.66855
 Alpha virt. eigenvalues --    4.67297   4.72437   4.93967
          Condensed to atoms (all electrons):
               1          2          3          4          5          6
     1  C   11.288425  -1.231386   0.450067   0.071183  -0.997391  -0.229314
     2  C   -1.231386   8.325941  -1.556217   0.198424  -0.345020  -0.016542
     3  C    0.450067  -1.556217  10.821859  -2.292809   0.016287  -0.408703
     4  C    0.071183   0.198424  -2.292809   8.967907  -0.039410   0.500865
     5  C   -0.997391  -0.345020   0.016287  -0.039410  11.738346  -1.581142
     6  C   -0.229314  -0.016542  -0.408703   0.500865  -1.581142  11.099710
     7  C   -0.166780  -0.183658   1.212441  -2.292771   0.016177  -1.956911
     8  C    0.346890  -0.477794  -0.183672   0.198380  -0.344891   1.228830
     9  C   -1.090423   0.346905  -0.166780   0.071281  -0.997721  -2.521108
    10  C   -2.521087   1.228843  -1.956910   0.500930  -1.581311   0.708212
    11  N   -0.042074  -0.048583  -0.050282  -0.052237  -0.157049   0.209070
    12  N    0.023088  -0.003311  -0.000959  -0.052236  -0.157053  -0.060450
    13  C    0.112780  -0.106962   0.078164  -0.011406   0.191354  -0.373016
    14  C    0.061332  -0.052849   0.030417  -0.017226  -0.095011  -0.150920
    15  C   -0.010139   0.007424  -0.027169  -0.017225  -0.095023  -0.054060
    16  C   -0.011972  -0.027373   0.020390  -0.011404   0.191349  -0.258013
    17  H    0.058202   0.076238   0.002688  -0.000637   0.099893   0.077589
    18  H    0.068990   0.142725   0.111328   0.018093  -0.032524   0.014115
    19  H    0.012744   0.052017   0.198394   0.021314   0.013218  -0.004595
    20  H   -0.002044   0.011595  -0.006408   0.021313   0.013218   0.007001
    21  H   -0.002011   0.002477   0.002163   0.018093  -0.032526  -0.009581
    22  H    0.004421  -0.001927   0.009495  -0.000639   0.099901   0.028360
    23  H   -0.065495  -0.009490   0.006398   0.014148   0.095592  -0.106940
    24  H    0.002677   0.002875  -0.000760  -0.000645  -0.026204   0.039439
    25  H    0.057242  -0.004800   0.001713  -0.003436  -0.032248  -0.030601
    26  H    0.047120   0.009548   0.003009  -0.005675  -0.015276  -0.059288
    27  H    0.061665   0.014830   0.003820   0.000662  -0.035669  -0.072265
    28  H   -0.051265  -0.009741  -0.000519   0.001532   0.018033   0.060326
    29  H   -0.000361   0.000118  -0.001010  -0.005675  -0.015277  -0.005331
    30  H   -0.001384   0.000365  -0.000353   0.000662  -0.035671  -0.004045
    31  H    0.001065  -0.000140   0.000272   0.001532   0.018033   0.002790
    32  H    0.057236  -0.012900   0.015822   0.014146   0.095599   0.002037
    33  H   -0.002805   0.000352  -0.001594  -0.000645  -0.026203   0.016038
    34  H   -0.009715   0.001704  -0.000628  -0.003435  -0.032251  -0.019792
               7          8          9         10         11         12
     1  C   -0.166780   0.346890  -1.090423  -2.521087  -0.042074   0.023088
     2  C   -0.183658  -0.477794   0.346905   1.228843  -0.048583  -0.003311
     3  C    1.212441  -0.183672  -0.166780  -1.956910  -0.050282  -0.000959
     4  C   -2.292771   0.198380   0.071281   0.500930  -0.052237  -0.052236
     5  C    0.016177  -0.344891  -0.997721  -1.581311  -0.157049  -0.157053
     6  C   -1.956911   1.228830  -2.521108   0.708212   0.209070  -0.060450
     7  C   10.821862  -1.556226   0.450141  -0.408718  -0.000959  -0.050284
     8  C   -1.556226   8.325957  -1.231427  -0.016546  -0.003310  -0.048580
     9  C    0.450141  -1.231427  11.288657  -0.229306   0.023081  -0.042095
    10  C   -0.408718  -0.016546  -0.229306  11.099813  -0.060474   0.209072
    11  N   -0.000959  -0.003310   0.023081  -0.060474   7.415434  -0.130117
    12  N   -0.050284  -0.048580  -0.042095   0.209072  -0.130117   7.415426
    13  C    0.020388  -0.027371  -0.011979  -0.258023   0.166531  -0.003059
    14  C   -0.027169   0.007424  -0.010137  -0.054059   0.094491   0.000635
    15  C    0.030420  -0.052849   0.061343  -0.150919   0.000635   0.094490
    16  C    0.078161  -0.106960   0.112768  -0.373013  -0.003059   0.166530
    17  H    0.009495  -0.001927   0.004421   0.028359  -0.039907  -0.000183
    18  H    0.002162   0.002477  -0.002011  -0.009582  -0.001243   0.000074
    19  H   -0.006406   0.011596  -0.002045   0.007000   0.000277   0.000063
    20  H    0.198393   0.052019   0.012743  -0.004595   0.000063   0.000277
    21  H    0.111328   0.142724   0.068992   0.014114   0.000074  -0.001243
    22  H    0.002684   0.076240   0.058189   0.077598  -0.000183  -0.039907
    23  H    0.015822  -0.012899   0.057235   0.002038  -0.053966  -0.005962
    24  H   -0.001594   0.000352  -0.002804   0.016040  -0.064327  -0.002200
    25  H   -0.000628   0.001704  -0.009716  -0.019794  -0.078075   0.002731
    26  H   -0.001010   0.000118  -0.000361  -0.005330  -0.049307  -0.000199
    27  H   -0.000353   0.000365  -0.001384  -0.004045  -0.060227  -0.001302
    28  H    0.000272  -0.000140   0.001065   0.002789  -0.088892   0.000979
    29  H    0.003009   0.009548   0.047122  -0.059290  -0.000199  -0.049307
    30  H    0.003820   0.014830   0.061667  -0.072264  -0.001302  -0.060228
    31  H   -0.000519  -0.009741  -0.051266   0.060326   0.000979  -0.088893
    32  H    0.006398  -0.009490  -0.065498  -0.106946  -0.005962  -0.053965
    33  H   -0.000760   0.002875   0.002679   0.039439  -0.002200  -0.064327
    34  H    0.001713  -0.004800   0.057241  -0.030598   0.002730  -0.078075
              13         14         15         16         17         18
     1  C    0.112780   0.061332  -0.010139  -0.011972   0.058202   0.068990
     2  C   -0.106962  -0.052849   0.007424  -0.027373   0.076238   0.142725
     3  C    0.078164   0.030417  -0.027169   0.020390   0.002688   0.111328
     4  C   -0.011406  -0.017226  -0.017225  -0.011404  -0.000637   0.018093
     5  C    0.191354  -0.095011  -0.095023   0.191349   0.099893  -0.032524
     6  C   -0.373016  -0.150920  -0.054060  -0.258013   0.077589   0.014115
     7  C    0.020388  -0.027169   0.030420   0.078161   0.009495   0.002162
     8  C   -0.027371   0.007424  -0.052849  -0.106960  -0.001927   0.002477
     9  C   -0.011979  -0.010137   0.061343   0.112768   0.004421  -0.002011
    10  C   -0.258023  -0.054059  -0.150919  -0.373013   0.028359  -0.009582
    11  N    0.166531   0.094491   0.000635  -0.003059  -0.039907  -0.001243
    12  N   -0.003059   0.000635   0.094490   0.166530  -0.000183   0.000074
    13  C    5.250656  -0.039178  -0.005388   0.007646  -0.002472   0.000100
    14  C   -0.039178   5.262344   0.005857  -0.005388  -0.002640   0.001399
    15  C   -0.005388   0.005857   5.262344  -0.039178   0.000140   0.000001
    16  C    0.007646  -0.005388  -0.039178   5.250654  -0.000801   0.000083
    17  H   -0.002472  -0.002640   0.000140  -0.000801   0.561161  -0.004779
    18  H    0.000100   0.001399   0.000001   0.000083  -0.004779   0.545700
    19  H    0.000004   0.000070  -0.000022   0.000126  -0.000179  -0.004115
    20  H    0.000126  -0.000022   0.000070   0.000004   0.000000  -0.000009
    21  H    0.000083   0.000001   0.001399   0.000100  -0.000000  -0.000000
    22  H   -0.000801   0.000140  -0.002640  -0.002472  -0.000000  -0.000000
    23  H    0.421432   0.001988   0.001911   0.002024   0.000012   0.000000
    24  H    0.398988  -0.011797  -0.000534   0.003557  -0.000011  -0.000000
    25  H    0.435901   0.012942   0.000059  -0.001925  -0.000009   0.000001
    26  H    0.003523   0.432939  -0.000317   0.000759  -0.002365  -0.000003
    27  H    0.007526   0.418238   0.000243  -0.000028  -0.000884   0.000011
    28  H   -0.004800   0.421626  -0.000330   0.000064   0.000335  -0.000000
    29  H    0.000759  -0.000317   0.432939   0.003523   0.000000   0.000000
    30  H   -0.000028   0.000243   0.418238   0.007525   0.000000  -0.000000
    31  H    0.000064  -0.000330   0.421626  -0.004800  -0.000000   0.000000
    32  H    0.002025   0.001911   0.001988   0.421433  -0.000018  -0.000000
    33  H    0.003557  -0.000534  -0.011797   0.398988   0.000000  -0.000000
    34  H   -0.001926   0.000059   0.012942   0.435899   0.000000  -0.000000
              19         20         21         22         23         24
     1  C    0.012744  -0.002044  -0.002011   0.004421  -0.065495   0.002677
     2  C    0.052017   0.011595   0.002477  -0.001927  -0.009490   0.002875
     3  C    0.198394  -0.006408   0.002163   0.009495   0.006398  -0.000760
     4  C    0.021314   0.021313   0.018093  -0.000639   0.014148  -0.000645
     5  C    0.013218   0.013218  -0.032526   0.099901   0.095592  -0.026204
     6  C   -0.004595   0.007001  -0.009581   0.028360  -0.106940   0.039439
     7  C   -0.006406   0.198393   0.111328   0.002684   0.015822  -0.001594
     8  C    0.011596   0.052019   0.142724   0.076240  -0.012899   0.000352
     9  C   -0.002045   0.012743   0.068992   0.058189   0.057235  -0.002804
    10  C    0.007000  -0.004595   0.014114   0.077598   0.002038   0.016040
    11  N    0.000277   0.000063   0.000074  -0.000183  -0.053966  -0.064327
    12  N    0.000063   0.000277  -0.001243  -0.039907  -0.005962  -0.002200
    13  C    0.000004   0.000126   0.000083  -0.000801   0.421432   0.398988
    14  C    0.000070  -0.000022   0.000001   0.000140   0.001988  -0.011797
    15  C   -0.000022   0.000070   0.001399  -0.002640   0.001911  -0.000534
    16  C    0.000126   0.000004   0.000100  -0.002472   0.002024   0.003557
    17  H   -0.000179   0.000000  -0.000000  -0.000000   0.000012  -0.000011
    18  H   -0.004115  -0.000009  -0.000000  -0.000000   0.000000  -0.000000
    19  H    0.553040   0.002701  -0.000009   0.000000  -0.000000   0.000000
    20  H    0.002701   0.553040  -0.004115  -0.000179  -0.000000  -0.000000
    21  H   -0.000009  -0.004115   0.545700  -0.004779  -0.000000  -0.000000
    22  H    0.000000  -0.000179  -0.004779   0.561161  -0.000018   0.000000
    23  H   -0.000000  -0.000000  -0.000000  -0.000018   0.512837  -0.020734
    24  H    0.000000  -0.000000  -0.000000   0.000000  -0.020734   0.560272
    25  H    0.000000   0.000000  -0.000000   0.000000  -0.030217  -0.043529
    26  H    0.000000  -0.000000   0.000000   0.000000  -0.000196   0.000245
    27  H    0.000000   0.000000  -0.000000   0.000000  -0.000135  -0.001653
    28  H   -0.000000   0.000000   0.000000  -0.000000   0.000288   0.004637
    29  H   -0.000000   0.000000  -0.000003  -0.002365   0.000466  -0.000045
    30  H    0.000000   0.000000   0.000011  -0.000884  -0.000031   0.000003
    31  H    0.000000  -0.000000  -0.000000   0.000335   0.000051   0.000112
    32  H   -0.000000  -0.000000   0.000000   0.000012  -0.000044   0.000076
    33  H   -0.000000   0.000000  -0.000000  -0.000011   0.000076   0.000270
    34  H    0.000000   0.000000   0.000001  -0.000009  -0.000023  -0.000016
              25         26         27         28         29         30
     1  C    0.057242   0.047120   0.061665  -0.051265  -0.000361  -0.001384
     2  C   -0.004800   0.009548   0.014830  -0.009741   0.000118   0.000365
     3  C    0.001713   0.003009   0.003820  -0.000519  -0.001010  -0.000353
     4  C   -0.003436  -0.005675   0.000662   0.001532  -0.005675   0.000662
     5  C   -0.032248  -0.015276  -0.035669   0.018033  -0.015277  -0.035671
     6  C   -0.030601  -0.059288  -0.072265   0.060326  -0.005331  -0.004045
     7  C   -0.000628  -0.001010  -0.000353   0.000272   0.003009   0.003820
     8  C    0.001704   0.000118   0.000365  -0.000140   0.009548   0.014830
     9  C   -0.009716  -0.000361  -0.001384   0.001065   0.047122   0.061667
    10  C   -0.019794  -0.005330  -0.004045   0.002789  -0.059290  -0.072264
    11  N   -0.078075  -0.049307  -0.060227  -0.088892  -0.000199  -0.001302
    12  N    0.002731  -0.000199  -0.001302   0.000979  -0.049307  -0.060228
    13  C    0.435901   0.003523   0.007526  -0.004800   0.000759  -0.000028
    14  C    0.012942   0.432939   0.418238   0.421626  -0.000317   0.000243
    15  C    0.000059  -0.000317   0.000243  -0.000330   0.432939   0.418238
    16  C   -0.001925   0.000759  -0.000028   0.000064   0.003523   0.007525
    17  H   -0.000009  -0.002365  -0.000884   0.000335   0.000000   0.000000
    18  H    0.000001  -0.000003   0.000011  -0.000000   0.000000  -0.000000
    19  H    0.000000   0.000000   0.000000  -0.000000  -0.000000   0.000000
    20  H    0.000000  -0.000000   0.000000   0.000000   0.000000   0.000000
    21  H   -0.000000   0.000000  -0.000000   0.000000  -0.000003   0.000011
    22  H    0.000000   0.000000   0.000000  -0.000000  -0.002365  -0.000884
    23  H   -0.030217  -0.000196  -0.000135   0.000288   0.000466  -0.000031
    24  H   -0.043529   0.000245  -0.001653   0.004637  -0.000045   0.000003
    25  H    0.596224  -0.000228   0.008984  -0.002488   0.000001   0.000000
    26  H   -0.000228   0.533047  -0.037727  -0.018308  -0.000000   0.000000
    27  H    0.008984  -0.037727   0.591572  -0.040145   0.000000  -0.000000
    28  H   -0.002488  -0.018308  -0.040145   0.550252   0.000000   0.000000
    29  H    0.000001  -0.000000   0.000000   0.000000   0.533047  -0.037727
    30  H    0.000000   0.000000  -0.000000   0.000000  -0.037727   0.591572
    31  H   -0.000002   0.000000   0.000000   0.000001  -0.018308  -0.040145
    32  H   -0.000023   0.000466  -0.000031   0.000051  -0.000196  -0.000135
    33  H   -0.000016  -0.000045   0.000003   0.000112   0.000245  -0.001653
    34  H    0.000001   0.000001   0.000000  -0.000002  -0.000228   0.008984
              31         32         33         34
     1  C    0.001065   0.057236  -0.002805  -0.009715
     2  C   -0.000140  -0.012900   0.000352   0.001704
     3  C    0.000272   0.015822  -0.001594  -0.000628
     4  C    0.001532   0.014146  -0.000645  -0.003435
     5  C    0.018033   0.095599  -0.026203  -0.032251
     6  C    0.002790   0.002037   0.016038  -0.019792
     7  C   -0.000519   0.006398  -0.000760   0.001713
     8  C   -0.009741  -0.009490   0.002875  -0.004800
     9  C   -0.051266  -0.065498   0.002679   0.057241
    10  C    0.060326  -0.106946   0.039439  -0.030598
    11  N    0.000979  -0.005962  -0.002200   0.002730
    12  N   -0.088893  -0.053965  -0.064327  -0.078075
    13  C    0.000064   0.002025   0.003557  -0.001926
    14  C   -0.000330   0.001911  -0.000534   0.000059
    15  C    0.421626   0.001988  -0.011797   0.012942
    16  C   -0.004800   0.421433   0.398988   0.435899
    17  H   -0.000000  -0.000018   0.000000   0.000000
    18  H    0.000000  -0.000000  -0.000000  -0.000000
    19  H    0.000000  -0.000000  -0.000000   0.000000
    20  H   -0.000000  -0.000000   0.000000   0.000000
    21  H   -0.000000   0.000000  -0.000000   0.000001
    22  H    0.000335   0.000012  -0.000011  -0.000009
    23  H    0.000051  -0.000044   0.000076  -0.000023
    24  H    0.000112   0.000076   0.000270  -0.000016
    25  H   -0.000002  -0.000023  -0.000016   0.000001
    26  H    0.000000   0.000466  -0.000045   0.000001
    27  H    0.000000  -0.000031   0.000003   0.000000
    28  H    0.000001   0.000051   0.000112  -0.000002
    29  H   -0.018308  -0.000196   0.000245  -0.000228
    30  H   -0.040145  -0.000135  -0.001653   0.008984
    31  H    0.550252   0.000288   0.004637  -0.002488
    32  H    0.000288   0.512837  -0.020734  -0.030217
    33  H    0.004637  -0.020734   0.560273  -0.043529
    34  H   -0.002488  -0.030217  -0.043529   0.596225
 Mulliken charges:
               1
     1  C   -0.289479
     2  C   -0.333687
     3  C   -0.329953
     4  C    0.187047
     5  C    0.067873
     6  C   -0.071762
     7  C   -0.329941
     8  C   -0.333706
     9  C   -0.289470
    10  C   -0.071764
    11  N    0.080569
    12  N    0.080570
    13  C   -0.255198
    14  C   -0.286480
    15  C   -0.286480
    16  C   -0.255199
    17  H    0.138280
    18  H    0.147008
    19  H    0.144809
    20  H    0.144809
    21  H    0.147008
    22  H    0.138279
    23  H    0.173834
    24  H    0.147309
    25  H    0.140230
    26  H    0.164862
    27  H    0.147930
    28  H    0.154268
    29  H    0.164862
    30  H    0.147930
    31  H    0.154268
    32  H    0.173834
    33  H    0.147309
    34  H    0.140230
 Sum of Mulliken charges =  -0.00000
 Mulliken charges with hydrogens summed into heavy atoms:
               1
     1  C   -0.151199
     2  C   -0.186679
     3  C   -0.185144
     4  C    0.187047
     5  C    0.067873
     6  C   -0.071762
     7  C   -0.185132
     8  C   -0.186697
     9  C   -0.151191
    10  C   -0.071764
    11  N    0.080569
    12  N    0.080570
    13  C    0.206176
    14  C    0.180579
    15  C    0.180580
    16  C    0.206174
 Electronic spatial extent (au):  <R**2>=           3315.4208
 Charge=             -0.0000 electrons
 Dipole moment (field-independent basis, Debye):
    X=             -1.7762    Y=              0.0002    Z=             -0.0000  Tot=              1.7762
 Quadrupole moment (field-independent basis, Debye-Ang):
   XX=            -89.5702   YY=            -89.0496   ZZ=           -100.7120
   XY=              0.0001   XZ=              0.0002   YZ=              1.7094
 Traceless Quadrupole moment (field-independent basis, Debye-Ang):
   XX=              3.5404   YY=              4.0610   ZZ=             -7.6014
   XY=              0.0001   XZ=              0.0002   YZ=              1.7094
 Octapole moment (field-independent basis, Debye-Ang**2):
  XXX=             -4.9339  YYY=              0.0019  ZZZ=              0.0001  XYY=             -6.0654
  XXY=             -0.0007  XXZ=              0.0005  XZZ=            -15.9930  YZZ=              0.0016
  YYZ=             -0.0006  XYZ=              2.8545
 Hexadecapole moment (field-independent basis, Debye-Ang**3):
 XXXX=          -1967.6689 YYYY=          -1997.9580 ZZZZ=           -421.4935 XXXY=             -0.0029
 XXXZ=              0.0039 YYYX=             -0.0014 YYYZ=             31.2865 ZZZX=             -0.0005
 ZZZY=             -4.0024 XXYY=           -663.5008 XXZZ=           -445.2820 YYZZ=           -440.7809
 XXYZ=             13.3285 YYXZ=              0.0004 ZZXY=              0.0002
 N-N= 1.123666533573D+03 E-N=-3.761413283055D+03  KE= 6.473269631787D+02
 Calling FoFJK, ICntrl=      2127 FMM=F ISym2X=0 I1Cent= 0 IOpClX= 0 NMat=1 NMatS=1 NMatT=0.
 ***** Axes restored to original set *****
 -------------------------------------------------------------------
 Center     Atomic                   Forces (Hartrees/Bohr)
 Number     Number              X              Y              Z
 -------------------------------------------------------------------
      1        6          -0.000537228   -0.000433835   -0.000128646
      2        6          -0.000393601   -0.000332343   -0.000078579
      3        6          -0.000371594   -0.000338039   -0.000059652
      4        6          -0.000243018    0.000000503    0.000000182
      5        6          -0.000847781   -0.000000715   -0.000000210
      6        6          -0.000274611   -0.000574779    0.000106160
      7        6          -0.000372196    0.000337216    0.000059438
      8        6          -0.000393147    0.000332675    0.000078715
      9        6          -0.000537944    0.000433862    0.000128794
     10        6          -0.000275210    0.000575119   -0.000106225
     11        7           0.000328463   -0.000579409    0.000244215
     12        7           0.000329352    0.000580659   -0.000244110
     13        6           0.000432794   -0.000441687    0.000778912
     14        6           0.000371458   -0.000655292    0.000001145
     15        6           0.000370995    0.000655790   -0.000000588
     16        6           0.000432018    0.000441662   -0.000778692
     17        1          -0.000069528   -0.000360331   -0.000066549
     18        1          -0.000175967   -0.000253943   -0.000054988
     19        1          -0.000310848   -0.000113111   -0.000031931
     20        1          -0.000310763    0.000113069    0.000031921
     21        1          -0.000176011    0.000254033    0.000054984
     22        1          -0.000069388    0.000360062    0.000066428
     23        1           0.000213657   -0.000091394    0.000568921
     24        1           0.000363056   -0.000118989    0.000399220
     25        1           0.000192025   -0.000061252    0.000423758
     26        1           0.000234445   -0.000353148   -0.000190196
     27        1           0.000212038   -0.000326651    0.000012965
     28        1           0.000331605   -0.000266533   -0.000034780
     29        1           0.000234408    0.000352928    0.000189792
     30        1           0.000211837    0.000326584   -0.000012971
     31        1           0.000331474    0.000266236    0.000034616
     32        1           0.000213805    0.000090840   -0.000569055
     33        1           0.000363287    0.000119054   -0.000399236
     34        1           0.000192119    0.000061158   -0.000423759
 -------------------------------------------------------------------
 Cartesian Forces:  Max     0.000847781 RMS     0.000333979

 GradGradGradGradGradGradGradGradGradGradGradGradGradGradGradGradGradGrad
 Berny optimization.
 FormGI is forming the generalized inverse of G from B-inverse, IUseBI=4.
 Internal  Forces:  Max     0.005505192 RMS     0.001266988
 Search for a local minimum.
 Step number   1 out of a maximum of  181
 All quantities printed in internal units (Hartrees-Bohrs-Radians)
 Mixed Optimization -- RFO/linear search
 Second derivative matrix not updated -- first step.
 ITU=  0
     Eigenvalues ---    0.00939   0.00939   0.01072   0.01072   0.01555
     Eigenvalues ---    0.01583   0.01583   0.01639   0.01705   0.01766
     Eigenvalues ---    0.01768   0.01926   0.01962   0.02086   0.02091
     Eigenvalues ---    0.02130   0.02145   0.02186   0.02186   0.02190
     Eigenvalues ---    0.02200   0.02288   0.02294   0.07135   0.07135
     Eigenvalues ---    0.07345   0.07345   0.07502   0.07502   0.07705
     Eigenvalues ---    0.07705   0.15953   0.15953   0.15974   0.15975
     Eigenvalues ---    0.16000   0.16000   0.16000   0.16000   0.16000
     Eigenvalues ---    0.16000   0.16000   0.16000   0.16000   0.16000
     Eigenvalues ---    0.16000   0.16000   0.16000   0.16000   0.19429
     Eigenvalues ---    0.19429   0.21341   0.21341   0.22050   0.22119
     Eigenvalues ---    0.23115   0.23617   0.24660   0.24848   0.24997
     Eigenvalues ---    0.24997   0.33036   0.33036   0.33169   0.33169
     Eigenvalues ---    0.34199   0.34199   0.34224   0.34224   0.34391
     Eigenvalues ---    0.34391   0.34998   0.34998   0.35185   0.35185
     Eigenvalues ---    0.35197   0.35197   0.35508   0.35508   0.35849
     Eigenvalues ---    0.37268   0.37358   0.37358   0.37374   0.38658
     Eigenvalues ---    0.38658   0.41011   0.41281   0.43352   0.43500
     Eigenvalues ---    0.44279   0.44279   0.46160   0.46247   0.49445
     Eigenvalues ---    0.49549
 RFO step:  Lambda=-1.82976073D-03 EMin= 9.39423649D-03
 Linear search not attempted -- first point.
 Iteration  1 RMS(Cart)=  0.11015746 RMS(Int)=  0.00178219
 Iteration  2 RMS(Cart)=  0.00379893 RMS(Int)=  0.00006132
 Iteration  3 RMS(Cart)=  0.00000458 RMS(Int)=  0.00006128
 Iteration  4 RMS(Cart)=  0.00000000 RMS(Int)=  0.00006128
 Variable       Old X    -DE/DX   Delta X   Delta X   Delta X     New X
                                 (Linear)    (Quad)   (Total)
    R1        2.66005   0.00011   0.00000   0.00019   0.00026   2.66031
    R2        2.62728  -0.00174   0.00000  -0.00379  -0.00378   2.62349
    R3        2.04859  -0.00029   0.00000  -0.00081  -0.00081   2.04777
    R4        2.59135   0.00059   0.00000   0.00122   0.00128   2.59264
    R5        2.05376  -0.00031   0.00000  -0.00089  -0.00089   2.05287
    R6        2.68233  -0.00079   0.00000  -0.00171  -0.00172   2.68061
    R7        2.05356  -0.00031   0.00000  -0.00087  -0.00087   2.05269
    R8        2.71719  -0.00287   0.00000  -0.00701  -0.00714   2.71005
    R9        2.68233  -0.00079   0.00000  -0.00171  -0.00172   2.68061
   R10        2.73854  -0.00551   0.00000  -0.01439  -0.01445   2.72408
   R11        2.73854  -0.00551   0.00000  -0.01439  -0.01445   2.72408
   R12        2.66122  -0.00325   0.00000  -0.00730  -0.00730   2.65392
   R13        2.59136   0.00059   0.00000   0.00122   0.00128   2.59264
   R14        2.05356  -0.00031   0.00000  -0.00087  -0.00087   2.05269
   R15        2.66005   0.00011   0.00000   0.00019   0.00026   2.66031
   R16        2.05376  -0.00031   0.00000  -0.00089  -0.00089   2.05287
   R17        2.62728  -0.00174   0.00000  -0.00379  -0.00378   2.62350
   R18        2.04859  -0.00029   0.00000  -0.00081  -0.00081   2.04777
   R19        2.66122  -0.00325   0.00000  -0.00730  -0.00730   2.65392
   R20        2.75310  -0.00206   0.00000  -0.00549  -0.00549   2.74761
   R21        2.73419  -0.00195   0.00000  -0.00501  -0.00501   2.72918
   R22        2.73419  -0.00195   0.00000  -0.00501  -0.00501   2.72918
   R23        2.75310  -0.00206   0.00000  -0.00549  -0.00549   2.74761
   R24        2.05678   0.00004   0.00000   0.00010   0.00010   2.05688
   R25        2.06996  -0.00031   0.00000  -0.00090  -0.00090   2.06906
   R26        2.08757  -0.00032   0.00000  -0.00095  -0.00095   2.08661
   R27        2.06675  -0.00022   0.00000  -0.00063  -0.00063   2.06612
   R28        2.08989  -0.00021   0.00000  -0.00064  -0.00064   2.08925
   R29        2.06954  -0.00029   0.00000  -0.00083  -0.00083   2.06870
   R30        2.06675  -0.00022   0.00000  -0.00063  -0.00063   2.06612
   R31        2.08989  -0.00021   0.00000  -0.00064  -0.00064   2.08925
   R32        2.06954  -0.00029   0.00000  -0.00083  -0.00083   2.06870
   R33        2.05678   0.00004   0.00000   0.00010   0.00010   2.05688
   R34        2.06996  -0.00031   0.00000  -0.00090  -0.00090   2.06906
   R35        2.08757  -0.00032   0.00000  -0.00095  -0.00095   2.08661
    A1        2.12922  -0.00135   0.00000  -0.00464  -0.00476   2.12446
    A2        2.06579   0.00095   0.00000   0.00444   0.00445   2.07024
    A3        2.08602   0.00042   0.00000   0.00117   0.00117   2.08718
    A4        2.09241   0.00016   0.00000   0.00258   0.00252   2.09493
    A5        2.08344  -0.00009   0.00000  -0.00101  -0.00103   2.08241
    A6        2.10534  -0.00005   0.00000  -0.00072  -0.00074   2.10461
    A7        2.10073  -0.00054   0.00000  -0.00036  -0.00047   2.10025
    A8        2.11194   0.00040   0.00000   0.00098   0.00104   2.11298
    A9        2.07050   0.00014   0.00000  -0.00061  -0.00056   2.06995
   A10        2.10240  -0.00116   0.00000  -0.00371  -0.00383   2.09856
   A11        2.07839   0.00232   0.00000   0.00743   0.00767   2.08606
   A12        2.10240  -0.00116   0.00000  -0.00371  -0.00384   2.09856
   A13        2.04473   0.00232   0.00000   0.00988   0.00973   2.05447
   A14        2.04473   0.00232   0.00000   0.00988   0.00973   2.05447
   A15        2.19372  -0.00463   0.00000  -0.01976  -0.01947   2.17425
   A16        2.07736   0.00073   0.00000   0.00398   0.00373   2.08109
   A17        2.09694   0.00402   0.00000   0.01552   0.01558   2.11252
   A18        2.10879  -0.00474   0.00000  -0.01928  -0.01922   2.08957
   A19        2.10073  -0.00054   0.00000  -0.00036  -0.00047   2.10025
   A20        2.07050   0.00014   0.00000  -0.00061  -0.00056   2.06995
   A21        2.11194   0.00040   0.00000   0.00098   0.00104   2.11298
   A22        2.09241   0.00016   0.00000   0.00258   0.00252   2.09493
   A23        2.10535  -0.00005   0.00000  -0.00073  -0.00074   2.10461
   A24        2.08344  -0.00009   0.00000  -0.00101  -0.00103   2.08241
   A25        2.12922  -0.00135   0.00000  -0.00464  -0.00476   2.12446
   A26        2.06579   0.00095   0.00000   0.00444   0.00445   2.07024
   A27        2.08601   0.00042   0.00000   0.00117   0.00117   2.08718
   A28        2.07736   0.00073   0.00000   0.00398   0.00373   2.08109
   A29        2.10879  -0.00474   0.00000  -0.01928  -0.01921   2.08957
   A30        2.09694   0.00402   0.00000   0.01552   0.01558   2.11252
   A31        2.02665  -0.00135   0.00000  -0.00344  -0.00351   2.02314
   A32        2.05723  -0.00010   0.00000   0.00286   0.00283   2.06005
   A33        1.94906   0.00172   0.00000   0.01084   0.01082   1.95988
   A34        2.05723  -0.00010   0.00000   0.00286   0.00283   2.06005
   A35        2.02665  -0.00135   0.00000  -0.00344  -0.00351   2.02314
   A36        1.94906   0.00172   0.00000   0.01084   0.01082   1.95988
   A37        1.93108  -0.00080   0.00000  -0.00571  -0.00572   1.92536
   A38        1.91673  -0.00029   0.00000  -0.00170  -0.00171   1.91503
   A39        1.94043  -0.00016   0.00000  -0.00030  -0.00030   1.94014
   A40        1.88710   0.00031   0.00000   0.00055   0.00053   1.88764
   A41        1.89330   0.00049   0.00000   0.00289   0.00288   1.89618
   A42        1.89394   0.00050   0.00000   0.00454   0.00454   1.89848
   A43        1.92737  -0.00047   0.00000  -0.00317  -0.00317   1.92419
   A44        1.98550  -0.00028   0.00000  -0.00176  -0.00176   1.98374
   A45        1.89317  -0.00027   0.00000  -0.00137  -0.00137   1.89180
   A46        1.89389   0.00034   0.00000   0.00163   0.00163   1.89552
   A47        1.88724   0.00036   0.00000   0.00225   0.00225   1.88949
   A48        1.87367   0.00037   0.00000   0.00279   0.00279   1.87647
   A49        1.92737  -0.00047   0.00000  -0.00317  -0.00317   1.92419
   A50        1.98550  -0.00028   0.00000  -0.00176  -0.00176   1.98374
   A51        1.89317  -0.00027   0.00000  -0.00137  -0.00137   1.89180
   A52        1.89389   0.00034   0.00000   0.00163   0.00163   1.89552
   A53        1.88724   0.00036   0.00000   0.00225   0.00225   1.88949
   A54        1.87368   0.00037   0.00000   0.00279   0.00279   1.87647
   A55        1.93108  -0.00080   0.00000  -0.00572  -0.00572   1.92536
   A56        1.91673  -0.00029   0.00000  -0.00170  -0.00171   1.91503
   A57        1.94043  -0.00016   0.00000  -0.00030  -0.00030   1.94014
   A58        1.88710   0.00031   0.00000   0.00055   0.00054   1.88764
   A59        1.89330   0.00049   0.00000   0.00288   0.00288   1.89618
   A60        1.89394   0.00050   0.00000   0.00454   0.00454   1.89848
    D1        0.06095  -0.00013   0.00000  -0.00641  -0.00644   0.05451
    D2        3.13526   0.00023   0.00000   0.00791   0.00786  -3.14007
    D3       -3.00965  -0.00048   0.00000  -0.02231  -0.02232  -3.03197
    D4        0.06466  -0.00013   0.00000  -0.00799  -0.00802   0.05663
    D5        0.08980  -0.00059   0.00000  -0.02356  -0.02346   0.06634
    D6       -3.03662  -0.00085   0.00000  -0.03916  -0.03922  -3.07584
    D7       -3.12358  -0.00022   0.00000  -0.00736  -0.00730  -3.13088
    D8        0.03319  -0.00047   0.00000  -0.02295  -0.02306   0.01013
    D9       -0.08877   0.00045   0.00000   0.01569   0.01563  -0.07314
   D10        3.05873   0.00037   0.00000   0.01319   0.01314   3.07188
   D11        3.12097   0.00009   0.00000   0.00120   0.00116   3.12212
   D12       -0.01471   0.00002   0.00000  -0.00130  -0.00133  -0.01605
   D13       -0.03441   0.00013   0.00000   0.00572   0.00570  -0.02871
   D14        3.10719   0.00013   0.00000   0.00572   0.00569   3.11288
   D15        3.10141   0.00020   0.00000   0.00817   0.00813   3.10954
   D16       -0.04018   0.00020   0.00000   0.00817   0.00813  -0.03205
   D17        0.17915  -0.00059   0.00000  -0.03388  -0.03390   0.14525
   D18       -2.96244  -0.00059   0.00000  -0.03389  -0.03391  -2.99635
   D19       -2.96244  -0.00059   0.00000  -0.03388  -0.03390  -2.99634
   D20        0.17915  -0.00059   0.00000  -0.03389  -0.03390   0.14525
   D21        3.10719   0.00013   0.00000   0.00573   0.00570   3.11289
   D22       -0.04018   0.00020   0.00000   0.00818   0.00813  -0.03205
   D23       -0.03441   0.00013   0.00000   0.00573   0.00570  -0.02871
   D24        3.10141   0.00020   0.00000   0.00817   0.00813   3.10954
   D25       -0.20434   0.00067   0.00000   0.04170   0.04180  -0.16254
   D26        2.92196   0.00100   0.00000   0.05772   0.05766   2.97962
   D27        2.93725   0.00067   0.00000   0.04171   0.04181   2.97906
   D28       -0.21963   0.00100   0.00000   0.05773   0.05767  -0.16196
   D29       -0.20434   0.00067   0.00000   0.04170   0.04180  -0.16254
   D30        2.92196   0.00100   0.00000   0.05772   0.05766   2.97963
   D31        2.93725   0.00067   0.00000   0.04169   0.04179   2.97904
   D32       -0.21963   0.00100   0.00000   0.05772   0.05766  -0.16197
   D33        2.07134   0.00151   0.00000   0.06320   0.06315   2.13449
   D34       -0.30983   0.00044   0.00000   0.04557   0.04557  -0.26426
   D35       -1.05479   0.00120   0.00000   0.04710   0.04711  -1.00768
   D36        2.84722   0.00013   0.00000   0.02948   0.02953   2.87675
   D37       -0.08877   0.00045   0.00000   0.01569   0.01563  -0.07314
   D38        3.12097   0.00009   0.00000   0.00120   0.00115   3.12212
   D39        3.05873   0.00037   0.00000   0.01320   0.01315   3.07188
   D40       -0.01471   0.00002   0.00000  -0.00130  -0.00133  -0.01605
   D41        0.06095  -0.00013   0.00000  -0.00641  -0.00644   0.05451
   D42       -3.00965  -0.00048   0.00000  -0.02231  -0.02233  -3.03197
   D43        3.13526   0.00023   0.00000   0.00791   0.00786  -3.14007
   D44        0.06466  -0.00013   0.00000  -0.00799  -0.00802   0.05663
   D45        0.08980  -0.00059   0.00000  -0.02356  -0.02345   0.06634
   D46       -3.03662  -0.00085   0.00000  -0.03916  -0.03922  -3.07584
   D47       -3.12358  -0.00022   0.00000  -0.00736  -0.00730  -3.13088
   D48        0.03319  -0.00047   0.00000  -0.02296  -0.02306   0.01012
   D49        2.84723   0.00013   0.00000   0.02946   0.02950   2.87673
   D50       -1.05478   0.00120   0.00000   0.04707   0.04707  -1.00771
[...]
 5327,-0.00022076,-0.00036808,0.00005276,0.00002109,0.00004198,0.012045
 89,-0.06187043,-0.05383057,-0.00459057,-0.00409621,-0.00062124,-0.0000
 0506,-0.00000527,-0.00001482,0.00000233,-0.00000280,-0.00000118,-0.000
 00098,0.00000609,-0.00000201,-0.00000886,-0.00000909,-0.00001609,-0.00
 000679,0.00001176,-0.00001169,0.00019831,-0.00006633,0.00015737,-0.000
 28571,-0.00017105,0.00006486,0.00012759,-0.00005600,-0.00005522,0.0000
 0094,0.00010219,0.00007979,0.00000351,0.00005808,0.00003200,-0.0000065
 3,-0.00001449,0.00000879,0.00000898,0.00000081,-0.00002874,-0.01242545
 ,0.07305669,0.00000080,-0.00004698,-0.00002033,0.00007589,0.00004046,0
 .00003190,-0.00005117,0.00003387,-0.00002474,0.00007491,0.00000028,-0.
 00003596,-0.00040507,-0.00021504,0.00008356,0.00018700,0.00016240,0.00
 005641,-0.00006430,0.00000627,-0.00002626,0.00020666,0.00040798,0.0000
 9075,0.00004260,-0.00034555,0.00053446,0.00231956,-0.00019902,0.000124
 96,-0.00016612,-0.00009864,0.00022962,0.00031494,-0.00472471,-0.006981
 62,-0.00009302,-0.00011711,-0.00004841,0.00000830,0.00002582,-0.000014
 61,0.05772967,-0.06022530,-0.28857822,-0.00247042,-0.00143342,0.000434
 44,-0.00000033,0.00000869,-0.00000354,-0.00000282,-0.00000352,0.000004
 08,-0.00000227,0.00000073,-0.00001013,0.00003036,0.00003915,0.00001452
 ,-0.00003199,0.00000483,-0.00001125,-0.00029540,0.00069348,-0.00035029
 ,-0.00000557,-0.00018108,0.00002226,0.00004984,-0.00000791,-0.00002452
 ,0.00001692,-0.00002794,0.00000925,0.00001180,0.00003200,0.00000674,-0
 .00000184,-0.00000733,0.00001405,-0.00000434,0.00000940,-0.00001930,-0
 .06309687,0.06935436,0.31065669,-0.00016178,-0.00005404,0.00001500,0.0
 0012206,-0.00005635,-0.00000754,-0.00007163,0.00012610,0.00006780,0.00
 038299,-0.00048983,-0.00023598,-0.00078110,-0.00035674,-0.00070173,0.0
 0012382,0.00038984,0.00008642,0.00019613,0.00058733,0.00007920,-0.0005
 6632,-0.00009234,-0.00063069,0.00077762,0.00065008,0.00053229,0.002635
 70,-0.00112671,0.00039792,0.00012309,-0.00032194,0.00013748,0.00380209
 ,-0.01802056,0.01101375,-0.00027191,-0.00005519,-0.00017093,-0.0000873
 0,-0.00000194,0.00006166,-0.06331216,0.04284323,-0.03631605,-0.0002361
 4,0.00035944,0.00141264,-0.00000143,-0.00000031,-0.00000690,0.00000416
 ,0.00000494,-0.00000753,-0.00001526,-0.00001218,-0.00000069,-0.0000001
 8,0.00000053,0.00013876,-0.00001157,-0.00000706,0.00004097,-0.00187767
 ,-0.00021374,0.00142775,-0.00000887,0.00003486,-0.00002449,0.00011667,
 -0.00006201,0.00001627,0.00007155,-0.00000275,0.00000276,0.00000757,0.
 00000653,0.00000184,0.00002327,-0.00004764,-0.00000404,0.00001909,-0.0
 0001252,-0.00000827,0.00124358,-0.00580678,0.00548798,0.06539041,0.000
 03860,-0.00016602,-0.00006821,0.00006611,0.00003683,0.00003315,-0.0001
 1439,0.00003468,-0.00000889,0.00010065,-0.00010692,-0.00020571,-0.0013
 1137,-0.00037018,-0.00013090,0.00041191,0.00055664,0.00003186,-0.00039
 242,-0.00018157,0.00006071,0.00044382,0.00053376,0.00012825,-0.0013726
 1,0.00078870,0.00055876,0.00795212,-0.00017099,-0.00137586,0.00001139,
 -0.00083551,0.00010512,-0.00819674,-0.03724767,0.00877931,-0.00010871,
 0.00017052,-0.00041412,-0.00020335,0.00007341,0.00020984,0.04432132,-0
 .17460256,0.10753652,-0.00119712,0.00087110,0.00601269,0.00000400,-0.0
 0002137,0.00001453,-0.00001511,-0.00003110,-0.00000255,-0.00004233,-0.
 00001951,-0.00001823,0.00000362,0.00003467,0.00000379,-0.00011498,0.00
 004374,-0.00004774,-0.00044103,0.00063735,0.00031042,-0.00003734,-0.00
 001627,-0.00015303,0.00004579,0.00000958,-0.00003083,0.00002337,-0.000
 12391,0.00002508,-0.00000715,-0.00001449,-0.00000733,0.00004767,-0.000
 15729,0.00000580,0.00004098,0.00000246,-0.00000191,-0.00116742,0.00677
 454,-0.00439777,-0.04222843,0.20681313,0.00006384,0.00007241,0.0000527
 8,-0.00007216,-0.00001651,-0.00002215,0.00003375,-0.00002426,0.0000230
 3,-0.00004969,-0.00002391,-0.00003444,0.00023242,0.00003846,-0.0002335
 0,-0.00022013,-0.00010738,0.00000243,0.00004025,0.00003827,0.00001178,
 -0.00014534,-0.00052310,-0.00014657,0.00023296,0.00128742,-0.00050503,
 -0.00139019,-0.00020510,0.00091726,0.00012308,0.00001402,0.00019101,0.
 00653835,-0.00624255,0.00834594,-0.00005060,-0.00028992,-0.00001517,0.
 00005865,-0.00000193,0.00002843,-0.03578386,0.10504833,-0.14084952,-0.
 00000861,-0.00176346,0.00375607,-0.00000356,-0.00000667,-0.00000523,0.
 00000710,0.00000902,-0.00000398,0.00000524,0.00000130,0.00000103,-0.00
 003017,-0.00005296,0.00000632,0.00004941,0.00000698,-0.00001764,0.0004
 9644,-0.00044028,-0.00006646,-0.00014907,-0.00014245,0.00004752,0.0001
 0346,-0.00007061,-0.00000420,0.00001404,0.00008012,0.00002931,-0.00000
 358,0.00000879,0.00001406,0.00000404,0.00000580,-0.00001583,0.00001492
 ,-0.00001610,-0.00000675,-0.00845636,0.02231599,-0.01730111,0.03809148
 ,-0.11929092,0.14468036,0.00019609,-0.00004559,0.00007631,-0.00011512,
 0.00001043,-0.00001014,0.00002639,-0.00006144,0.00000258,-0.00010289,-
 0.00007156,0.00016244,-0.00052893,0.00024730,-0.00013385,-0.00049304,0
 .00018408,-0.00015879,-0.00023424,-0.00015928,-0.00002366,0.00029994,-
 0.00004339,-0.00019138,0.00000623,0.00012175,0.00025277,0.00103029,-0.
 00118862,-0.00306977,0.00050084,-0.00001766,0.00014434,-0.01987415,-0.
 00492615,0.00277846,-0.00039882,-0.00019704,-0.00014200,-0.00006256,0.
 00005593,0.00008464,-0.30063190,0.04893490,0.01636717,0.00085253,0.000
 80483,0.00179420,-0.00000760,-0.00003996,0.00000437,-0.00000108,-0.000
 01881,-0.00000931,-0.00002393,-0.00002080,-0.00000430,-0.00002512,-0.0
 0003208,0.00002542,-0.00005081,0.00002912,-0.00000500,0.00001316,-0.00
 026873,0.00017414,-0.00005142,0.00001983,-0.00007311,0.00019129,-0.000
 07076,0.00003246,0.00009088,-0.00002111,0.00003569,-0.00001479,-0.0000
 0899,0.00000434,0.00001909,-0.00004098,-0.00001491,0.00006114,-0.00002
 448,0.00000650,-0.00425861,0.00123292,-0.00038761,-0.00739077,0.002700
 29,0.00081911,0.33050130,0.00004215,-0.00007231,0.00001603,0.00003024,
 -0.00000029,0.00001143,-0.00006179,0.00007348,0.00000457,0.00010570,-0
 .00038295,0.00018672,-0.00138286,0.00007566,0.00024578,-0.00034281,0.0
 0033639,-0.00009956,-0.00006969,0.00011818,-0.00003787,-0.00005722,0.0
 0040310,0.00011125,0.00029284,-0.00110016,0.00020818,-0.00084715,-0.00
 410410,-0.00341824,0.00029366,0.00010008,-0.00004296,-0.03704009,-0.00
 129803,0.00230303,-0.00026341,-0.00000971,-0.00011171,0.00000341,-0.00
 003476,0.00003742,0.05625772,-0.05613549,-0.00443476,-0.00190707,0.001
 31859,0.00065430,-0.00000953,-0.00001769,-0.00000639,0.00000504,-0.000
 00499,-0.00000166,-0.00001846,-0.00003018,-0.00000114,0.00002695,0.000
 05086,0.00000872,-0.00004660,-0.00000579,0.00001614,0.00019711,0.00078
 773,0.00000707,-0.00003827,0.00002198,-0.00002644,0.00014794,-0.000024
 59,0.00004393,0.00011078,0.00006535,0.00000835,-0.00000086,0.00000081,
 0.00000940,0.00001253,0.00000246,-0.00001611,0.00002450,-0.00002768,-0
 .00000137,0.00651489,-0.00179754,0.00105328,0.02343703,-0.00415795,-0.
 00219463,-0.04663110,0.06637914,-0.00018331,-0.00007186,-0.00004113,0.
 00011902,-0.00006277,0.00001071,-0.00003329,0.00011556,-0.00000543,0.0
 0032148,-0.00032895,0.00001175,-0.00051989,-0.00042951,0.00028335,-0.0
 0000590,0.00018762,0.00002576,0.00007690,0.00042820,-0.00004150,-0.000
 43524,-0.00012472,0.00027499,0.00086298,-0.00003264,0.00061870,0.00025
 527,-0.00108544,-0.00074245,-0.00006140,-0.00000997,-0.00019515,-0.009
 22296,-0.00097881,0.00013650,0.00029460,0.00004740,0.00014358,-0.00002
 192,0.00000470,0.00000389,0.01881069,-0.00369683,-0.05007648,-0.001830
 20,0.00035191,0.00033510,-0.00000101,0.00000178,-0.00000315,0.00000002
 ,0.00000144,0.00000290,-0.00000100,-0.00000698,-0.00000177,0.00000584,
 0.00002174,-0.00002103,0.00000309,-0.00001777,0.00003562,0.00024200,0.
 00029858,-0.00058375,0.00008139,-0.00002308,0.00000349,-0.00015289,0.0
 0008415,0.00002115,-0.00008805,-0.00003349,-0.00002775,-0.00000927,-0.
 00002874,-0.00001929,0.00000827,-0.00000191,-0.00000674,-0.00000650,-0
 .00000137,0.00002418,0.02898864,-0.00483647,0.00087626,-0.02035710,0.0
 0501261,0.00097682,-0.01736438,0.00522872,0.04788345,-0.00060806,-0.00
 021727,-0.00044605,0.00035094,-0.00022842,-0.00007409,0.00001433,0.000
 36118,0.00012457,-0.00002236,-0.00016677,-0.00016809,-0.00089062,0.000
 00505,0.00096799,0.00177512,-0.00075439,0.00154871,-0.00006397,0.00027
 177,0.00001815,-0.00026275,-0.00016172,0.00008910,0.00041549,-0.000287
 87,0.00000941,0.00042858,0.00146937,0.00081132,-0.00147391,-0.00087260
 ,0.00178228,0.00576314,0.01052762,0.00445247,-0.00033676,-0.00011574,-
 0.00041988,-0.00019087,0.00035983,-0.00037882,-0.00087317,0.00097436,0
 .00185522,-0.14415028,-0.13107082,-0.04627472,0.00003324,0.00007401,-0
 .00000595,0.00000616,0.00000631,0.00002339,0.00001476,0.00001001,0.000
 04039,0.00001365,0.00000628,-0.00002089,0.00000994,-0.00001077,-0.0000
 1437,0.00001958,-0.00000588,-0.00005677,-0.00003923,0.00005414,0.00007
 631,0.00013387,0.00000993,0.00000516,0.00010202,0.00006481,0.00009048,
 0.00012888,0.00028570,0.00000566,-0.00000886,0.00003734,0.00014907,-0.
 00005139,0.00003825,-0.00008137,0.00065846,0.00042905,0.00034894,-0.00
 002200,-0.00015581,-0.00004908,0.00051301,0.00003108,0.00011230,0.1512
 5430,0.00009759,0.00012317,-0.00015435,-0.00019540,-0.00004615,-0.0001
 1584,0.00017675,-0.00006537,0.00009021,0.00053352,-0.00003622,0.000035
 24,-0.00022308,0.00031431,0.00071301,-0.00123289,-0.00030009,0.0012741
 6,0.00003109,0.00023989,0.00000119,-0.00034068,-0.00008021,-0.00002235
 ,0.00042868,-0.00051673,0.00001998,-0.00179726,0.00017868,0.00023151,0
 .00009464,-0.00146369,0.00239990,-0.00527651,-0.01109065,-0.00393867,0
 .00016045,-0.00003148,0.00010120,0.00002040,0.00008097,0.00042084,0.00
 187450,0.00003684,-0.00271110,-0.12585498,-0.21462060,-0.06347170,0.00
 000088,-0.00003259,0.00001194,0.00001568,0.00001069,-0.00000571,0.0000
 0125,-0.00001584,-0.00000240,0.00000131,0.00001580,-0.00001440,-0.0000
 0500,-0.00000969,-0.00000517,-0.00005371,0.00007261,-0.00001578,-0.000
 05415,-0.00001597,-0.00002264,-0.00002094,-0.00004097,-0.00000732,0.00
 000830,0.00002517,0.00006589,0.00000338,-0.00017098,-0.00018088,-0.000
 03485,-0.00001628,-0.00014239,-0.00001985,0.00002196,-0.00002308,-0.00
 052208,-0.00046034,-0.00020763,-0.00004102,0.00029825,0.00019327,-0.00
 006760,0.00005816,0.00018775,0.13828034,0.23376153,0.00008098,-0.00004
 871,-0.00020185,-0.00008051,0.00010541,0.00006964,-0.00022901,-0.00015
 302,-0.00007976,0.00050591,-0.00000101,0.00013458,0.00020700,-0.000296
 33,-0.00013644,0.00217883,0.00146410,-0.00120929,0.00004664,0.00028735
 ,-0.00001502,-0.00034627,-0.00007307,-0.00012572,0.00047425,-0.0001149
 5,-0.00012680,-0.00258258,-0.00108603,0.00089291,-0.00071169,0.0008874
 1,-0.00056777,-0.01737286,-0.02534641,-0.01177916,-0.00021111,-0.00030
 808,-0.00055376,-0.00021999,0.00056596,0.00007720,0.00302042,-0.000709
 38,-0.00506942,-0.03749222,-0.05464458,-0.06611814,0.00000375,-0.00002
 486,-0.00002937,-0.00003331,-0.00002210,0.00001036,-0.00002503,0.00000
 349,-0.00000586,-0.00002286,0.00002406,0.00003857,0.00001131,0.0000084
 7,0.00001667,-0.00008867,0.00010501,0.00000895,-0.00007631,-0.00002265
 ,0.00010680,0.00017334,0.00000144,0.00007042,0.00007421,0.00005881,0.0
 0017446,-0.00003005,0.00006496,0.00002222,0.00002452,-0.00015302,0.000
 04752,0.00007311,-0.00002642,0.00000349,-0.00065032,-0.00183269,-0.000
 35737,0.00011219,-0.00045286,0.00006182,0.00008392,0.00034947,0.000021
 65,0.04188606,0.06659519,0.07854288,0.00049021,0.00017622,0.00028583,-
 0.00028647,0.00004494,0.00001617,0.00013306,-0.00017746,-0.00002703,0.
 00012029,0.00007055,0.00007308,0.00022538,0.00014168,-0.00016109,-0.00
 152936,0.00027196,-0.00042326,-0.00012862,-0.00010400,0.00002456,0.000
 13815,0.00028616,-0.00005357,-0.00082140,-0.00038064,0.00062373,0.0018
 5278,0.00330603,0.00029625,0.00157593,0.00044382,-0.00080940,-0.010966
 18,0.00149266,0.00765270,-0.00011911,-0.00024196,0.00055964,-0.0001238
 1,-0.00018698,0.00016124,0.00015612,-0.00122742,-0.00073754,-0.2819569
 1,0.07699020,-0.02749193,-0.00001954,-0.00007205,-0.00001285,0.0000025
 4,-0.00000963,-0.00001730,-0.00001990,-0.00001669,-0.00001889,-0.00002
 255,-0.00001353,0.00000061,-0.00011087,0.00002472,-0.00005024,0.000062
 35,0.00005270,0.00001326,0.00013388,0.00002097,-0.00017334,-0.00001178
 ,-0.00000126,0.00028714,-0.00000813,-0.00008587,-0.00001118,-0.0001414
 7,-0.00012761,-0.00004984,0.00011666,-0.00004577,-0.00010344,0.0001913
 6,-0.00014794,0.00015289,0.00048727,-0.00000027,0.00010812,-0.00020211
 ,0.00049734,-0.00022404,0.00025091,0.00073257,0.00031883,-0.01473731,0
 .00680706,-0.00205498,0.30642341,0.00024525,0.00013584,0.00020746,-0.0
 0014444,0.00009123,0.00001050,0.00000329,-0.00015773,-0.00005873,0.000
 12223,0.00007281,0.00006288,-0.00012802,0.00016652,0.00031332,-0.00077
 608,0.00010900,-0.00027589,0.00003688,-0.00006131,0.00000083,0.0000447
 9,-0.00010163,-0.00001679,0.00045436,0.00029440,-0.00007236,-0.0008015
 0,-0.00200193,-0.00048312,0.00069186,0.00042766,-0.00060298,0.01052782
 ,-0.00253862,-0.00574480,0.00008536,0.00001590,0.00024175,-0.00007281,
 -0.00021667,0.00007959,0.00226535,0.00074274,0.00047341,0.07694893,-0.
 07354019,0.00907164,-0.00001279,-0.00001411,-0.00000821,0.00000315,0.0
 0000710,-0.00000656,0.00000309,-0.00000485,-0.00000851,0.00000453,0.00
 000603,0.00000587,0.00005576,0.00000069,-0.00002116,-0.00000316,-0.000
 00435,0.00005374,-0.00000990,-0.00004097,0.00000140,0.00000122,0.00006
 317,-0.00003042,-0.00000609,0.00004430,-0.00002894,-0.00006401,-0.0000
 5605,-0.00000795,0.00006202,0.00000959,-0.00007062,0.00007081,-0.00002
 434,0.00008402,-0.00021439,0.00016315,0.00012972,-0.00012005,-0.000131
 15,0.00027768,-0.00070946,-0.00016584,-0.00027550,-0.02319363,0.009382
 50,-0.00171543,-0.08799607,0.07464706,-0.00014635,0.00000789,-0.000061
 29,0.00007895,0.00002503,0.00000951,-0.00003225,0.00000676,0.00000319,
 0.00003813,0.00002985,0.00000189,-0.00011092,-0.00012593,0.00009645,0.
 00035761,-0.00012431,0.00002823,0.00006522,0.00000933,-0.00000094,0.00
 013878,-0.00046408,0.00004276,0.00177328,0.00068775,-0.00048788,0.0013
 4908,-0.00527232,-0.00259709,-0.00040368,-0.00022786,0.00003246,0.0343
 0266,-0.01004447,-0.00584326,0.00045496,0.00002210,-0.00001842,0.00003
 360,0.00019322,0.00000128,0.00202739,0.00127034,0.00074575,-0.03326358
 ,0.00957580,-0.04873897,0.00000933,0.00002096,0.00000035,-0.00000756,0
 .00000180,0.00000541,0.00001101,0.00001305,-0.00000340,0.00001555,0.00
 001823,-0.00000716,0.00017662,-0.00001765,0.00000879,-0.00007379,-0.00
 001953,-0.00006905,-0.00000517,-0.00000730,0.00007043,-0.00028720,-0.0
 0003039,-0.00017659,-0.00017412,-0.00003469,-0.00001023,-0.00005816,-0
 .00005521,-0.00002451,-0.00001626,-0.00003084,-0.00000420,-0.00003251,
 0.00004390,0.00002119,0.00009504,0.00028335,0.00007156,-0.00050807,-0.
 00036048,-0.00023657,-0.00081515,-0.00004722,0.00032352,-0.00723546,0.
 00414328,-0.00099587,0.02280247,-0.00531533,0.05912609,0.00001860,0.00
 006681,-0.00000097,0.00002640,-0.00008082,0.00001047,0.00002830,0.0000
 7210,0.00002296,0.00039108,-0.00021513,-0.00005728,-0.00058833,-0.0007
 3785,-0.00006686,-0.00017692,0.00037852,0.00006254,-0.00016976,0.00032
 035,0.00008083,-0.00026341,-0.00015558,-0.00020941,0.00012166,0.000566
 49,-0.00047907,0.00331234,-0.00084575,0.00034065,0.00041856,0.00010609
 ,0.00000336,0.00015612,-0.00781111,0.01365349,-0.00016002,-0.00019832,
 0.00035908,-0.00015156,-0.00005645,0.00002480,-0.00008783,-0.00043247,
 -0.00100078,-0.05314366,0.01121679,-0.01171196,-0.00000472,-0.00002202
 ,-0.00002653,0.00000146,-0.00000190,0.00000136,-0.00000986,-0.00000938
 ,0.00000991,-0.00000334,0.00000421,0.00001737,0.00001119,-0.00000565,0
 .00002254,0.00004834,-0.00001636,0.00011647,0.00010204,-0.00000829,-0.
 00007422,-0.00000815,0.00000608,0.00017413,0.00005805,-0.00006380,0.00
 004812,-0.00003707,-0.00000097,-0.00001691,0.00007155,-0.00002333,-0.0
 0001406,0.00009090,-0.00011077,0.00008806,-0.00019496,-0.00004685,0.00
 006486,-0.00002160,0.00039734,-0.00029209,-0.00028730,0.00045077,-0.00
 020698,0.00209607,-0.01279582,0.01327132,-0.00115476,0.02262570,-0.020
 55944,0.04951059,-0.00026393,-0.00010664,-0.00031797,0.00018239,-0.000
 04009,-0.00000122,-0.00014784,0.00008133,-0.00001545,0.00020962,-0.000
 09391,0.00006803,-0.00012949,-0.00012946,0.00046447,0.00166293,0.00023
 891,0.00022401,-0.00004750,0.00023759,-0.00006378,-0.00026731,-0.00006
 927,0.00018503,0.00000284,-0.00055606,0.00051994,-0.00198790,0.0006623
 7,-0.00091723,-0.00142219,-0.00095855,0.00159354,0.00065006,0.00998014
 ,-0.01157873,-0.00008500,-0.00008802,-0.00054100,-0.00026068,0.0005907
 8,0.00001923,-0.00054749,0.00371837,-0.00243587,0.01057533,-0.17807826
 ,0.11733512,0.00001267,0.00000764,0.00001120,-0.00002806,-0.00002563,0
 .00002090,-0.00002429,0.00000355,0.00002114,-0.00002736,0.00000723,-0.
 00000380,-0.00004846,0.00002205,0.00002943,0.00003310,0.00005066,-0.00
 011844,-0.00006479,0.00002517,0.00005878,0.00008585,0.00004432,-0.0000
 3466,0.00006380,-0.00001944,0.00018749,0.00000446,0.00010218,-0.000027
 94,0.00000278,-0.00012391,0.00008012,0.00002110,0.00006533,-0.00003348
 ,-0.00001727,0.00021487,0.00023622,0.00069022,0.00067511,0.00201486,0.
 00032423,-0.00042192,0.00007465,0.00394525,-0.01560668,0.01651049,-0.0
 0052442,-0.00731994,0.00582497,-0.01257264,0.18691020,-0.00005691,0.00
 036919,0.00005294,-0.00003890,-0.00002261,-0.00001629,-0.00009291,0.00
 005952,0.00001448,0.00003933,-0.00015788,0.00009178,0.00092741,0.00084
 015,0.00014201,0.00068523,-0.00062433,0.00021992,0.00073143,0.00016810
 ,-0.00006118,-0.00071100,0.00006165,0.00017054,0.00146331,-0.00149730,
 -0.00079824,-0.00859613,0.00070985,0.00013394,-0.00063906,-0.00039509,
 0.00057878,0.01086713,0.01025722,-0.03817071,0.00011873,-0.00015924,-0
 .00028829,0.00002276,0.00003580,-0.00009897,0.00202027,0.00376303,0.00
 159316,-0.01247228,0.11970725,-0.15438240,0.00001457,0.00003962,-0.000
 05849,0.00000383,0.00003464,0.00001244,0.00002249,-0.00000202,0.000029
 21,0.00000401,0.00002255,-0.00002382,0.00003939,-0.00005581,0.00002327
 ,0.00001134,-0.00007367,-0.00010676,-0.00009051,0.00006589,0.00017448,
 0.00001119,-0.00002894,-0.00001023,-0.00004817,0.00018750,0.00003224,0
 .00002973,0.00007980,0.00000925,-0.00000277,0.00002507,0.00002931,-0.0
 0003569,0.00000834,-0.00002775,0.00014559,-0.00038976,0.00054615,-0.00
 014415,-0.00186108,0.00031819,-0.00044550,-0.00006373,-0.00024774,0.00
 082856,-0.00544314,0.00707144,-0.00095657,0.00372949,-0.00131344,0.006
 34423,-0.12939006,0.18436080\\0.00000608,-0.00000112,0.00000093,-0.000
 00320,0.00000550,-0.00000262,0.00000317,-0.00000375,0.00000226,0.00000
 154,0.00000001,-0.00000002,-0.00000929,0.00000033,0.00000029,-0.000018
 40,-0.00000377,0.00001408,0.00000332,0.00000378,-0.00000236,-0.0000034
 6,-0.00000552,0.00000269,0.00000619,0.00000069,-0.00000137,-0.00001949
 ,0.00000425,-0.00001405,0.00002452,-0.00001484,-0.00001627,0.00002468,
 0.00001548,0.00001573,0.00000169,-0.00000012,0.00001508,-0.00000614,0.
 00000756,0.,-0.00000613,-0.00000751,0.,0.00000164,-0.00000008,-0.00001
 460,0.00000219,0.00000152,-0.00000223,-0.00000121,0.00000036,0.0000018
 5,0.00000008,-0.00000046,-0.00000037,0.00000008,0.00000044,0.00000032,
 -0.00000121,-0.00000034,-0.00000184,0.00000255,-0.00000166,0.00000222,
 0.00000223,-0.00000146,0.00000245,-0.00000264,0.00000313,0.00000021,-0
 .00000263,0.00000123,-0.00000438,-0.00000235,0.00000005,0.00000077,0.0
 0000113,-0.00000185,0.00000149,-0.00000008,-0.00000091,-0.00000055,-0.
 00000253,0.00000006,-0.00000067,0.00000112,0.00000197,-0.00000151,-0.0
 0000003,0.00000102,0.00000052,0.00000174,0.00000073,-0.00000221,-0.000
 00246,-0.00000325,0.,-0.00000270,-0.00000147,0.00000418\\\@


 THE ONLY TROUBLE WITH A SURE THING IS THE UNCERTAINTY.
     -- FROM A TEABAG (BELONGING TO W.H.?)
 Job cpu time:       0 days  1 hours 40 minutes 51.6 seconds.
 File lengths (MBytes):  RWF=    514 Int=      0 D2E=      0 Chk=     13 Scr=      1
 Normal termination of Gaussian 09 at Thu Dec 19 10:41:49 2024.
