 Entering Gaussian System, Link 0=g09
 Input=pbeDMANgd3.gjf
 Output=pbeDMANgd3.log
 Initial command:
 /home/c612/g09E/g09/l1.exe "/mnt/ja_sm883/scratch/Gau-261191.inp" -scrdir="/mnt/ja_sm883/scratch/"
 Default is to use a total of  18 processors:
                               18 via shared-memory
                                1 via Linda
 Entering Link 1 = /home/c612/g09E/g09/l1.exe PID=    261193.
  
 Copyright (c) 1988,1990,1992,1993,1995,1998,2003,2009,2015,
            Gaussian, Inc.  All Rights Reserved.
  
 This is part of the Gaussian(R) 09 program.  It is based on
 the Gaussian(R) 03 system (copyright 2003, Gaussian, Inc.),
 the Gaussian(R) 98 system (copyright 1998, Gaussian, Inc.),
 the Gaussian(R) 94 system (copyright 1995, Gaussian, Inc.),
 the Gaussian 92(TM) system (copyright 1992, Gaussian, Inc.),
 the Gaussian 90(TM) system (copyright 1990, Gaussian, Inc.),
 the Gaussian 88(TM) system (copyright 1988, Gaussian, Inc.),
 the Gaussian 86(TM) system (copyright 1986, Carnegie Mellon
 University), and the Gaussian 82(TM) system (copyright 1983,
 Carnegie Mellon University). Gaussian is a federally registered
 trademark of Gaussian, Inc.
  
 This software contains proprietary and confidential information,
 including trade secrets, belonging to Gaussian, Inc.
  
 This software is provided under written license and may be
 used, copied, transmitted, or stored only in accord with that
 written license.
  
 The following legend is applicable only to US Government
 contracts under FAR:
  
                    RESTRICTED RIGHTS LEGEND
  
 Use, reproduction and disclosure by the US Government is
 subject to restrictions as set forth in subparagraphs (a)
 and (c) of the Commercial Computer Software - Restricted
 Rights clause in FAR 52.227-19.
  
 Gaussian, Inc.
 340 Quinnipiac St., Bldg. 40, Wallingford CT 06492
  
  
 ---------------------------------------------------------------
 Warning -- This program may not be used in any manner that
 competes with the business of Gaussian, Inc. or will provide
 assistance to any competitor of Gaussian, Inc.  The licensee
 of this program is prohibited from giving any competitor of
 Gaussian, Inc. access to this program.  By using this program,
 the user acknowledges that Gaussian, Inc. is engaged in the
 business of creating and licensing software in the field of
 computational chemistry and represents and warrants to the
 licensee that it is not a competitor of Gaussian, Inc. and that
 it will not use this program in any manner prohibited above.
 ---------------------------------------------------------------
  

 Cite this work as:
 Gaussian 09, Revision E.01,
 M. J. Frisch, G. W. Trucks, H. B. Schlegel, G. E. Scuseria, 
 M. A. Robb, J. R. Cheeseman, G. Scalmani, V. Barone, B. Mennucci, 
 G. A. Petersson, H. Nakatsuji, M. Caricato, X. Li, H. P. Hratchian, 
 A. F. Izmaylov, J. Bloino, G. Zheng, J. L. Sonnenberg, M. Hada, 
 M. Ehara, K. Toyota, R. Fukuda, J. Hasegawa, M. Ishida, T. Nakajima, 
 Y. Honda, O. Kitao, H. Nakai, T. Vreven, J. A. Montgomery, Jr., 
 J. E. Peralta, F. Ogliaro, M. Bearpark, J. J. Heyd, E. Brothers, 
 K. N. Kudin, V. N. Staroverov, T. Keith, R. Kobayashi, J. Normand, 
 K. Raghavachari, A. Rendell, J. C. Burant, S. S. Iyengar, J. Tomasi, 
 M. Cossi, N. Rega, J. M. Millam, M. Klene, J. E. Knox, J. B. Cross, 
 V. Bakken, C. Adamo, J. Jaramillo, R. Gomperts, R. E. Stratmann, 
 O. Yazyev, A. J. Austin, R. Cammi, C. Pomelli, J. W. Ochterski, 
 R. L. Martin, K. Morokuma, V. G. Zakrzewski, G. A. Voth, 
 P. Salvador, J. J. Dannenberg, S. Dapprich, A. D. Daniels, 
 O. Farkas, J. B. Foresman, J. V. Ortiz, J. Cioslowski, 
 and D. J. Fox, Gaussian, Inc., Wallingford CT, 2013.
 
 ******************************************
 Gaussian 09:  ES64L-G09RevE.01 30-Nov-2015
                20-Jun-2024 
 ******************************************
 %chk=pbeDMANgd3.chk
 --------------------------------------
 # opt freq pbepbe/6-31+g(d,p) em=gd3bj
 --------------------------------------
 1/14=-1,18=20,19=15,26=3,38=1/1,3;
 2/9=110,12=2,17=6,18=5,40=1/2;
 3/5=1,6=6,7=111,11=2,16=1,25=1,30=1,71=1,74=1009,124=41/1,2,3;
 4//1;
 5/5=2,38=5/2;
 6/7=2,8=2,9=2,10=2,28=1/1;
 7//1,2,3,16;
 1/14=-1,18=20,19=15,26=3/3(2);
 2/9=110/2;
 99//99;
 2/9=110/2;
 3/5=1,6=6,7=111,11=2,16=1,25=1,30=1,71=1,74=1009,124=41/1,2,3;
 4/5=5,16=3,69=1/1;
 5/5=2,38=5/2;
 7//1,2,3,16;
 1/14=-1,18=20,19=15,26=3/3(-5);
 2/9=110/2;
 6/7=2,8=2,9=2,10=2,19=2,28=1/1;
 99/9=1/99;
 ----------
 [No Title]
 ----------
 Symbolic Z-matrix:
 Charge =  0 Multiplicity = 1
 C                    -0.69119   2.44078  -0.21806 
 C                    -2.09421   2.39814  -0.35402 
 C                    -2.75978   1.2076   -0.19859 
 C                    -2.03708  -0.00099  -0.00001 
 C                    -0.59501  -0.00028  -0.00001 
 C                     0.06545   1.29402   0.00592 
 C                    -2.75859  -1.21029   0.19859 
 C                    -2.09185  -2.40018   0.35403 
 C                    -0.68879  -2.44144   0.21808 
 C                     0.06672  -1.29394  -0.00593 
 N                     1.45518   1.40048   0.25394 
 N                     1.45655  -1.39905  -0.25394 
 C                     1.90598   0.94485   1.5699 
 C                     2.12414   2.6285   -0.14294 
 C                     2.1267   -2.62641   0.14297 
 C                     1.9069   -0.94304  -1.56992 
 H                    -0.2039    3.40811  -0.22994 
 H                    -2.64185   3.32113  -0.5229 
 H                    -3.84485   1.16546  -0.22879 
 H                    -3.8437   -1.16922   0.22879 
 H                    -2.63859  -3.3237    0.52292 
 H                    -0.20055  -3.40829   0.22996 
 H                     1.37183   0.04545   1.86804 
 H                     2.97525   0.71051   1.53257 
 H                     1.74396   1.72175   2.33873 
 H                     1.86536   2.88744  -1.17318 
 H                     1.88984   3.49319   0.50546 
 H                     3.20579   2.46519  -0.09225 
 H                     1.86818  -2.88556   1.17322 
 H                     1.89323  -3.49134  -0.50541 
 H                     3.20819  -2.46206   0.09226 
 H                     1.37184  -0.04421  -1.86813 
 H                     2.97593  -0.70762  -1.5326 
 H                     1.74567  -1.72016  -2.33871 
 

 GradGradGradGradGradGradGradGradGradGradGradGradGradGradGradGradGradGrad
 Berny optimization.
 Initialization pass.
                           ----------------------------
                           !    Initial Parameters    !
                           ! (Angstroms and Degrees)  !
 --------------------------                            --------------------------
 ! Name  Definition              Value          Derivative Info.                !
 --------------------------------------------------------------------------------
 ! R1    R(1,2)                  1.4102         estimate D2E/DX2                !
 ! R2    R(1,6)                  1.392          estimate D2E/DX2                !
 ! R3    R(1,17)                 1.0832         estimate D2E/DX2                !
 ! R4    R(2,3)                  1.3728         estimate D2E/DX2                !
 ! R5    R(2,18)                 1.0864         estimate D2E/DX2                !
 ! R6    R(3,4)                  1.4221         estimate D2E/DX2                !
 ! R7    R(3,19)                 1.0863         estimate D2E/DX2                !
 ! R8    R(4,5)                  1.4421         estimate D2E/DX2                !
 ! R9    R(4,7)                  1.4221         estimate D2E/DX2                !
 ! R10   R(5,6)                  1.4531         estimate D2E/DX2                !
 ! R11   R(5,10)                 1.4531         estimate D2E/DX2                !
 ! R12   R(6,11)                 1.4157         estimate D2E/DX2                !
 ! R13   R(7,8)                  1.3728         estimate D2E/DX2                !
 ! R14   R(7,20)                 1.0863         estimate D2E/DX2                !
 ! R15   R(8,9)                  1.4102         estimate D2E/DX2                !
 ! R16   R(8,21)                 1.0864         estimate D2E/DX2                !
 ! R17   R(9,10)                 1.392          estimate D2E/DX2                !
 ! R18   R(9,22)                 1.0832         estimate D2E/DX2                !
 ! R19   R(10,12)                1.4157         estimate D2E/DX2                !
 ! R20   R(11,13)                1.4637         estimate D2E/DX2                !
 ! R21   R(11,14)                1.4536         estimate D2E/DX2                !
 ! R22   R(12,15)                1.4536         estimate D2E/DX2                !
 ! R23   R(12,16)                1.4637         estimate D2E/DX2                !
 ! R24   R(13,23)                1.0877         estimate D2E/DX2                !
 ! R25   R(13,24)                1.0953         estimate D2E/DX2                !
 ! R26   R(13,25)                1.105          estimate D2E/DX2                !
 ! R27   R(14,26)                1.0933         estimate D2E/DX2                !
 ! R28   R(14,27)                1.1059         estimate D2E/DX2                !
 ! R29   R(14,28)                1.0951         estimate D2E/DX2                !
 ! R30   R(15,29)                1.0933         estimate D2E/DX2                !
 ! R31   R(15,30)                1.1059         estimate D2E/DX2                !
 ! R32   R(15,31)                1.0951         estimate D2E/DX2                !
 ! R33   R(16,32)                1.0877         estimate D2E/DX2                !
 ! R34   R(16,33)                1.0953         estimate D2E/DX2                !
 ! R35   R(16,34)                1.105          estimate D2E/DX2                !
 ! A1    A(2,1,6)              122.0985         estimate D2E/DX2                !
 ! A2    A(2,1,17)             118.2622         estimate D2E/DX2                !
 ! A3    A(6,1,17)             119.5328         estimate D2E/DX2                !
 ! A4    A(1,2,3)              119.8451         estimate D2E/DX2                !
 ! A5    A(1,2,18)             119.3927         estimate D2E/DX2                !
 ! A6    A(3,2,18)             120.6629         estimate D2E/DX2                !
 ! A7    A(2,3,4)              120.4286         estimate D2E/DX2                !
 ! A8    A(2,3,19)             120.9823         estimate D2E/DX2                !
 ! A9    A(4,3,19)             118.5885         estimate D2E/DX2                !
 ! A10   A(3,4,5)              120.5149         estimate D2E/DX2                !
 ! A11   A(3,4,7)              118.9701         estimate D2E/DX2                !
 ! A12   A(5,4,7)              120.515          estimate D2E/DX2                !
 ! A13   A(4,5,6)              117.0625         estimate D2E/DX2                !
 ! A14   A(4,5,10)             117.0625         estimate D2E/DX2                !
 ! A15   A(6,5,10)             125.875          estimate D2E/DX2                !
 ! A16   A(1,6,5)              119.0825         estimate D2E/DX2                !
 ! A17   A(1,6,11)             119.9884         estimate D2E/DX2                !
 ! A18   A(5,6,11)             120.923          estimate D2E/DX2                !
 ! A19   A(4,7,8)              120.4285         estimate D2E/DX2                !
 ! A20   A(4,7,20)             118.5886         estimate D2E/DX2                !
 ! A21   A(8,7,20)             120.9823         estimate D2E/DX2                !
 ! A22   A(7,8,9)              119.8452         estimate D2E/DX2                !
 ! A23   A(7,8,21)             120.6628         estimate D2E/DX2                !
 ! A24   A(9,8,21)             119.3927         estimate D2E/DX2                !
 ! A25   A(8,9,10)             122.0985         estimate D2E/DX2                !
 ! A26   A(8,9,22)             118.2621         estimate D2E/DX2                !
 ! A27   A(10,9,22)            119.5329         estimate D2E/DX2                !
 ! A28   A(5,10,9)             119.0825         estimate D2E/DX2                !
 ! A29   A(5,10,12)            120.9234         estimate D2E/DX2                !
 ! A30   A(9,10,12)            119.9881         estimate D2E/DX2                !
 ! A31   A(6,11,13)            115.8757         estimate D2E/DX2                !
 ! A32   A(6,11,14)            117.8691         estimate D2E/DX2                !
 ! A33   A(13,11,14)           111.512          estimate D2E/DX2                !
 ! A34   A(10,12,15)           117.8686         estimate D2E/DX2                !
 ! A35   A(10,12,16)           115.8757         estimate D2E/DX2                !
 ! A36   A(15,12,16)           111.5115         estimate D2E/DX2                !
 ! A37   A(11,13,23)           110.6448         estimate D2E/DX2                !
 ! A38   A(11,13,24)           109.671          estimate D2E/DX2                !
 ! A39   A(11,13,25)           111.1942         estimate D2E/DX2                !
 ! A40   A(23,13,24)           108.1705         estimate D2E/DX2                !
 ! A41   A(23,13,25)           108.5814         estimate D2E/DX2                !
 ! A42   A(24,13,25)           108.499          estimate D2E/DX2                !
 ! A43   A(11,14,26)           110.3906         estimate D2E/DX2                !
 ! A44   A(11,14,27)           113.7633         estimate D2E/DX2                !
 ! A45   A(11,14,28)           108.4171         estimate D2E/DX2                !
 ! A46   A(26,14,27)           108.4908         estimate D2E/DX2                !
 ! A47   A(26,14,28)           108.2231         estimate D2E/DX2                !
 ! A48   A(27,14,28)           107.3808         estimate D2E/DX2                !
 ! A49   A(12,15,29)           110.3906         estimate D2E/DX2                !
 ! A50   A(12,15,30)           113.7631         estimate D2E/DX2                !
 ! A51   A(12,15,31)           108.4173         estimate D2E/DX2                !
 ! A52   A(29,15,30)           108.4909         estimate D2E/DX2                !
 ! A53   A(29,15,31)           108.223          estimate D2E/DX2                !
 ! A54   A(30,15,31)           107.3808         estimate D2E/DX2                !
 ! A55   A(12,16,32)           110.6451         estimate D2E/DX2                !
 ! A56   A(12,16,33)           109.671          estimate D2E/DX2                !
 ! A57   A(12,16,34)           111.1939         estimate D2E/DX2                !
 ! A58   A(32,16,33)           108.1706         estimate D2E/DX2                !
 ! A59   A(32,16,34)           108.5811         estimate D2E/DX2                !
 ! A60   A(33,16,34)           108.4991         estimate D2E/DX2                !
 ! D1    D(6,1,2,3)              3.2872         estimate D2E/DX2                !
 ! D2    D(6,1,2,18)           179.689          estimate D2E/DX2                !
 ! D3    D(17,1,2,3)          -172.9409         estimate D2E/DX2                !
 ! D4    D(17,1,2,18)            3.4609         estimate D2E/DX2                !
 ! D5    D(2,1,6,5)              4.7276         estimate D2E/DX2                !
 ! D6    D(2,1,6,11)          -174.3823         estimate D2E/DX2                !
 ! D7    D(17,1,6,5)          -179.0908         estimate D2E/DX2                !
 ! D8    D(17,1,6,11)            1.7993         estimate D2E/DX2                !
 ! D9    D(1,2,3,4)             -4.6971         estimate D2E/DX2                !
 ! D10   D(1,2,3,19)           175.5911         estimate D2E/DX2                !
 ! D11   D(18,2,3,4)           178.9476         estimate D2E/DX2                !
 ! D12   D(18,2,3,19)           -0.7642         estimate D2E/DX2                !
 ! D13   D(2,3,4,5)             -1.9146         estimate D2E/DX2                !
 ! D14   D(2,3,4,7)            178.0851         estimate D2E/DX2                !
 ! D15   D(19,3,4,5)           177.804          estimate D2E/DX2                !
 ! D16   D(19,3,4,7)            -2.1963         estimate D2E/DX2                !
 ! D17   D(3,4,5,6)              9.5907         estimate D2E/DX2                !
 ! D18   D(3,4,5,10)          -170.4096         estimate D2E/DX2                !
 ! D19   D(7,4,5,6)           -170.409          estimate D2E/DX2                !
 ! D20   D(7,4,5,10)             9.5907         estimate D2E/DX2                !
 ! D21   D(3,4,7,8)            178.0859         estimate D2E/DX2                !
 ! D22   D(3,4,7,20)            -2.1958         estimate D2E/DX2                !
 ! D23   D(5,4,7,8)             -1.9144         estimate D2E/DX2                !
 ! D24   D(5,4,7,20)           177.8039         estimate D2E/DX2                !
 ! D25   D(4,5,6,1)            -10.8617         estimate D2E/DX2                !
 ! D26   D(4,5,6,11)           168.2396         estimate D2E/DX2                !
 ! D27   D(10,5,6,1)           169.1386         estimate D2E/DX2                !
 ! D28   D(10,5,6,11)          -11.7601         estimate D2E/DX2                !
 ! D29   D(4,5,10,9)           -10.8622         estimate D2E/DX2                !
 ! D30   D(4,5,10,12)          168.2397         estimate D2E/DX2                !
 ! D31   D(6,5,10,9)           169.1375         estimate D2E/DX2                !
 ! D32   D(6,5,10,12)          -11.7607         estimate D2E/DX2                !
 ! D33   D(1,6,11,13)          116.7174         estimate D2E/DX2                !
 ! D34   D(1,6,11,14)          -19.1323         estimate D2E/DX2                !
 ! D35   D(5,6,11,13)          -62.3758         estimate D2E/DX2                !
 ! D36   D(5,6,11,14)          161.7745         estimate D2E/DX2                !
 ! D37   D(4,7,8,9)             -4.6971         estimate D2E/DX2                !
 ! D38   D(4,7,8,21)           178.9473         estimate D2E/DX2                !
 ! D39   D(20,7,8,9)           175.5914         estimate D2E/DX2                !
 ! D40   D(20,7,8,21)           -0.7642         estimate D2E/DX2                !
 ! D41   D(7,8,9,10)             3.2867         estimate D2E/DX2                !
 ! D42   D(7,8,9,22)          -172.941          estimate D2E/DX2                !
 ! D43   D(21,8,9,10)          179.6887         estimate D2E/DX2                !
 ! D44   D(21,8,9,22)            3.461          estimate D2E/DX2                !
 ! D45   D(8,9,10,5)             4.7283         estimate D2E/DX2                !
 ! D46   D(8,9,10,12)         -174.3821         estimate D2E/DX2                !
 ! D47   D(22,9,10,5)         -179.0905         estimate D2E/DX2                !
 ! D48   D(22,9,10,12)           1.799          estimate D2E/DX2                !
 ! D49   D(5,10,12,15)         161.7735         estimate D2E/DX2                !
 ! D50   D(5,10,12,16)         -62.3785         estimate D2E/DX2                !
 ! D51   D(9,10,12,15)         -19.1327         estimate D2E/DX2                !
 ! D52   D(9,10,12,16)         116.7153         estimate D2E/DX2                !
 ! D53   D(6,11,13,23)          39.4553         estimate D2E/DX2                !
 ! D54   D(6,11,13,24)         158.7029         estimate D2E/DX2                !
 ! D55   D(6,11,13,25)         -81.2962         estimate D2E/DX2                !
 ! D56   D(14,11,13,23)        178.0133         estimate D2E/DX2                !
 ! D57   D(14,11,13,24)        -62.7391         estimate D2E/DX2                !
 ! D58   D(14,11,13,25)         57.2618         estimate D2E/DX2                !
 ! D59   D(6,11,14,26)         -49.1048         estimate D2E/DX2                !
 ! D60   D(6,11,14,27)          73.1278         estimate D2E/DX2                !
 ! D61   D(6,11,14,28)        -167.4907         estimate D2E/DX2                !
 ! D62   D(13,11,14,26)        173.2435         estimate D2E/DX2                !
 ! D63   D(13,11,14,27)        -64.524          estimate D2E/DX2                !
 ! D64   D(13,11,14,28)         54.8576         estimate D2E/DX2                !
 ! D65   D(10,12,15,29)        -49.1056         estimate D2E/DX2                !
 ! D66   D(10,12,15,30)         73.1269         estimate D2E/DX2                !
 ! D67   D(10,12,15,31)       -167.4915         estimate D2E/DX2                !
 ! D68   D(16,12,15,29)        173.2439         estimate D2E/DX2                !
 ! D69   D(16,12,15,30)        -64.5235         estimate D2E/DX2                !
 ! D70   D(16,12,15,31)         54.8581         estimate D2E/DX2                !
 ! D71   D(10,12,16,32)         39.4531         estimate D2E/DX2                !
 ! D72   D(10,12,16,33)        158.7011         estimate D2E/DX2                !
 ! D73   D(10,12,16,34)        -81.2981         estimate D2E/DX2                !
 ! D74   D(15,12,16,32)        178.0095         estimate D2E/DX2                !
 ! D75   D(15,12,16,33)        -62.7424         estimate D2E/DX2                !
 ! D76   D(15,12,16,34)         57.2584         estimate D2E/DX2                !
 --------------------------------------------------------------------------------
 Trust Radius=3.00D-01 FncErr=1.00D-07 GrdErr=1.00D-06
 Number of steps in this run=    181 maximum allowed number of steps=    204.
 GradGradGradGradGradGradGradGradGradGradGradGradGradGradGradGradGradGrad

                          Input orientation:                          
 ---------------------------------------------------------------------
 Center     Atomic      Atomic             Coordinates (Angstroms)
 Number     Number       Type             X           Y           Z
 ---------------------------------------------------------------------
      1          6           0       -0.691187    2.440780   -0.218064
      2          6           0       -2.094208    2.398140   -0.354017
      3          6           0       -2.759775    1.207599   -0.198588
      4          6           0       -2.037085   -0.000992   -0.000005
      5          6           0       -0.595014   -0.000284   -0.000006
      6          6           0        0.065454    1.294022    0.005922
      7          6           0       -2.758589   -1.210290    0.198585
      8          6           0       -2.091853   -2.400176    0.354025
      9          6           0       -0.688791   -2.441440    0.218075
     10          6           0        0.066724   -1.293943   -0.005928
     11          7           0        1.455178    1.400482    0.253940
     12          7           0        1.456551   -1.399050   -0.253944
     13          6           0        1.905975    0.944848    1.569895
     14          6           0        2.124136    2.628499   -0.142940
     15          6           0        2.126697   -2.626407    0.142968
     16          6           0        1.906896   -0.943039   -1.569924
     17          1           0       -0.203896    3.408106   -0.229935
     18          1           0       -2.641851    3.321127   -0.522904
     19          1           0       -3.844848    1.165459   -0.228793
     20          1           0       -3.843701   -1.169215    0.228792
     21          1           0       -2.638590   -3.323698    0.522922
     22          1           0       -0.200552   -3.408290    0.229956
     23          1           0        1.371828    0.045453    1.868037
     24          1           0        2.975245    0.710513    1.532567
     25          1           0        1.743956    1.721752    2.338731
     26          1           0        1.865358    2.887436   -1.173182
     27          1           0        1.889840    3.493190    0.505462
     28          1           0        3.205790    2.465191   -0.092246
     29          1           0        1.868179   -2.885561    1.173220
     30          1           0        1.893228   -3.491343   -0.505406
     31          1           0        3.208193   -2.462060    0.092260
     32          1           0        1.371840   -0.044207   -1.868130
     33          1           0        2.975928   -0.707621   -1.532604
     34          1           0        1.745667   -1.720156   -2.338711
 ---------------------------------------------------------------------
                    Distance matrix (angstroms):
                    1          2          3          4          5
     1  C    0.000000
     2  C    1.410237   0.000000
     3  C    2.408354   1.372780   0.000000
     4  C    2.796648   2.425783   1.422114   0.000000
     5  C    2.452670   2.850499   2.486887   1.442071   0.000000
     6  C    1.392023   2.452096   2.833939   2.469366   1.453094
     7  C    4.216404   3.710463   2.450293   1.422114   2.486888
     8  C    5.071884   4.850275   3.710464   2.425782   2.850499
     9  C    4.901662   5.071885   4.216405   2.796648   2.452671
    10  C    3.816751   4.292117   3.779408   2.469366   1.453095
    11  N    2.431438   3.736720   4.243562   3.771541   2.495981
    12  N    4.399814   5.199669   4.957327   3.771544   2.495987
    13  C    3.489966   4.670649   4.996578   4.348209   3.100453
    14  C    2.822574   4.229899   5.086712   4.924471   3.784799
    15  C    5.809234   6.580965   6.220440   4.924462   3.784795
    16  C    4.475242   5.352639   5.318235   4.348228   3.100481
    17  H    1.083196   2.146790   3.372793   3.877551   3.438454
    18  H    2.161719   1.086435   2.141515   3.416964   3.936335
    19  H    3.401784   2.144743   1.086311   2.163552   3.460162
    20  H    4.813532   4.015771   2.647035   2.163551   3.460161
    21  H    6.129490   5.814190   4.589980   3.416963   3.936336
    22  H    5.886685   6.135274   5.295253   3.877553   3.438457
    23  H    3.787537   4.741947   4.763577   3.887470   2.712959
    24  H    4.416023   5.666272   6.011193   5.289468   3.949780
    25  H    3.603349   4.737077   5.194799   4.767998   3.729059
    26  H    2.765443   4.072911   5.016327   4.994840   3.970982
    27  H    2.879715   4.220246   5.228626   5.280677   4.316753
    28  H    3.899084   5.306882   6.097607   5.794679   4.531356
    29  H    6.070909   6.778677   6.328805   4.994826   3.970970
    30  H    6.477025   7.113970   6.620017   5.280657   4.316743
    31  H    6.272105   7.206675   7.011963   5.794679   4.531362
    32  H    3.626839   4.502342   4.628675   3.887484   2.712993
    33  H    5.008810   6.061444   6.192411   5.289469   3.949786
    34  H    5.267712   5.970261   5.783674   4.768048   3.729114
                    6          7          8          9         10
     6  C    0.000000
     7  C    3.779407   0.000000
     8  C    4.292115   1.372781   0.000000
     9  C    3.816749   2.408355   1.410237   0.000000
    10  C    2.587992   2.833940   2.452095   1.392024   0.000000
    11  N    1.415690   4.957321   5.199658   4.399802   3.042246
    12  N    3.042255   4.243562   3.736717   2.431434   1.415690
    13  C    2.440379   5.318202   5.352584   4.475173   3.298219
    14  C    2.457877   6.220446   6.580966   5.809232   4.431396
    15  C    4.431396   5.086698   4.229881   2.822557   2.457869
    16  C    3.298279   4.996579   4.670634   3.489948   2.440379
    17  H    2.144185   5.295250   6.135269   5.886682   4.715154
    18  H    3.423202   4.589980   5.814190   6.129492   5.376106
    19  H    3.919449   2.647035   4.015772   4.813534   4.625875
    20  H    4.625873   1.086309   2.144742   3.401783   3.919448
    21  H    5.376103   2.141515   1.086435   2.161719   3.423202
    22  H    4.715155   3.372794   2.146790   1.083198   2.144188
    23  H    2.594804   4.628640   4.502268   3.626729   2.647456
    24  H    3.337366   6.192402   6.061421   5.008778   3.852831
    25  H    2.905567   5.783598   5.970157   5.267600   4.171924
    26  H    2.677482   6.328822   6.778696   6.070930   4.699095
    27  H    2.900735   6.620029   7.113970   6.477018   5.148001
    28  H    3.353056   7.011958   7.206662   6.272088   4.898191
    29  H    4.699076   5.016316   4.072902   2.765437   2.677476
    30  H    5.148003   5.228595   4.220206   2.879678   2.900717
    31  H    4.898205   6.097600   5.306867   3.899069   3.353053
    32  H    2.647560   4.763560   4.741912   3.787503   2.594796
    33  H    3.852856   6.011188   5.666261   4.416013   3.337361
    34  H    4.172013   5.194820   4.737068   3.603331   2.905578
                   11         12         13         14         15
    11  N    0.000000
    12  N    2.845229   0.000000
    13  C    1.463748   3.003702   0.000000
    14  C    1.453631   4.084011   2.411655   0.000000
    15  C    4.084004   1.453630   3.852103   5.262679   0.000000
    16  C    3.003768   1.463749   3.663684   3.852189   2.411647
    17  H    2.649003   5.085903   3.709256   2.456642   6.479666
    18  H    4.591079   6.256941   5.541591   4.831018   7.652163
    19  H    5.327151   5.889157   6.029586   6.146269   7.083488
    20  H    5.889151   5.327150   6.271092   7.083495   6.146253
    21  H    6.256929   4.591075   6.322160   7.652162   4.830998
    22  H    5.085893   2.648999   5.018237   6.479664   2.456623
    23  H    2.109114   2.568379   1.087710   3.358887   3.268719
    24  H    2.102748   3.154094   1.095283   2.685215   3.712958
    25  H    2.129075   4.067428   1.104961   2.669348   4.886139
    26  H    2.101418   4.402963   3.361513   1.093349   5.674770
    27  H    2.152120   4.969753   2.761761   1.105898   6.134898
    28  H    2.078002   4.244802   2.600707   1.095087   5.210004
    29  H    4.402932   2.101416   3.851079   5.674738   1.093349
    30  H    4.969753   2.152118   4.897635   6.134914   1.105898
    31  H    4.244812   2.078003   3.935251   5.210018   1.095087
    32  H    2.568512   2.109116   3.617118   3.268882   3.358881
    33  H    3.154127   2.102749   3.674364   3.713006   2.685233
    34  H    4.067506   2.129073   4.733407   4.886251   2.669308
                   16         17         18         19         20
    16  C    0.000000
    17  H    5.018314   0.000000
    18  H    6.322220   2.457035   0.000000
    19  H    6.271121   4.276213   2.486083   0.000000
    20  H    6.029585   5.866045   4.708786   2.379094   0.000000
    21  H    5.541569   7.198035   6.726623   4.708786   2.486082
    22  H    3.709227   6.831893   7.198041   5.866048   4.276212
    23  H    3.617042   4.265188   5.705809   5.732784   5.600383
    24  H    3.674378   4.526628   6.526257   7.058543   7.192443
    25  H    4.733418   3.638126   5.475606   6.175465   6.635619
    26  H    3.851191   2.332943   4.574482   6.038504   7.142500
    27  H    4.897718   2.220761   4.650093   6.232504   7.395138
    28  H    3.935313   3.540340   5.925622   7.170735   7.937714
    29  H    3.361507   6.772930   7.857492   7.142484   6.038490
    30  H    2.761746   7.216385   8.183947   7.395122   6.232470
    31  H    2.600703   6.797427   8.249042   7.937717   7.170725
    32  H    1.087709   4.133412   5.407848   5.600406   5.732765
    33  H    1.095283   5.361664   6.986397   7.192450   7.058536
    34  H    1.104961   5.877653   6.925461   6.635690   6.175487
                   21         22         23         24         25
    21  H    0.000000
    22  H    2.457034   0.000000
    23  H    5.407769   4.133283   0.000000
    24  H    6.986371   5.361625   1.767991   0.000000
    25  H    6.925347   5.877531   1.780452   1.785659   0.000000
    26  H    7.857512   6.772957   4.191593   3.645809   3.702309
    27  H    8.183944   7.216375   3.743239   3.158534   2.553458
    28  H    8.249027   6.797408   3.614036   2.402512   2.932458
    29  H    4.574475   2.332947   3.052864   3.779745   4.754070
    30  H    4.650047   2.220714   4.291156   4.793713   5.940350
    31  H    5.925602   3.540318   3.579559   3.491986   4.969397
    32  H    5.705764   4.265142   3.737243   3.834742   4.577637
    33  H    6.526244   4.526616   3.834660   3.377333   4.733587
    34  H    5.475582   3.638078   4.577539   4.733583   5.807340
                   26         27         28         29         30
    26  H    0.000000
    27  H    1.784764   0.000000
    28  H    1.772984   1.773629   0.000000
    29  H    6.231621   6.413644   5.658724   0.000000
    30  H    6.413698   7.057306   6.113413   1.784765   0.000000
    31  H    5.658768   6.113411   4.930705   1.772982   1.773629
    32  H    3.053038   4.291322   3.579695   4.191593   3.743208
    33  H    3.779813   4.793758   3.492020   3.645821   3.158557
    34  H    4.754228   5.940461   4.969476   3.702275   2.553407
                   31         32         33         34
    31  H    0.000000
    32  H    3.614047   0.000000
    33  H    2.402537   1.767992   0.000000
    34  H    2.932409   1.780449   1.785659   0.000000
 Stoichiometry    C14H18N2
 Framework group  C1[X(C14H18N2)]
 Deg. of freedom    96
 Full point group                 C1      NOp   1
 Largest Abelian subgroup         C1      NOp   1
 Largest concise Abelian subgroup C1      NOp   1
                         Standard orientation:                         
 ---------------------------------------------------------------------
 Center     Atomic      Atomic             Coordinates (Angstroms)
 Number     Number       Type             X           Y           Z
 ---------------------------------------------------------------------
      1          6           0        0.691196    2.440777    0.218064
      2          6           0        2.094217    2.398132    0.354017
      3          6           0        2.759780    1.207589    0.198588
      4          6           0        2.037085   -0.001000    0.000005
      5          6           0        0.595014   -0.000286    0.000006
      6          6           0       -0.065449    1.294022   -0.005922
      7          6           0        2.758584   -1.210300   -0.198585
      8          6           0        2.091844   -2.400184   -0.354025
      9          6           0        0.688782   -2.441443   -0.218075
     10          6           0       -0.066729   -1.293943    0.005928
     11          7           0       -1.455173    1.400488   -0.253940
     12          7           0       -1.456556   -1.399044    0.253944
     13          6           0       -1.905971    0.944855   -1.569895
     14          6           0       -2.124126    2.628507    0.142940
     15          6           0       -2.126707   -2.626399   -0.142968
     16          6           0       -1.906900   -0.943032    1.569924
     17          1           0        0.203909    3.408105    0.229935
     18          1           0        2.641864    3.321117    0.522904
     19          1           0        3.844852    1.165444    0.228793
     20          1           0        3.843697   -1.169230   -0.228792
     21          1           0        2.638577   -3.323708   -0.522922
     22          1           0        0.200539   -3.408291   -0.229956
     23          1           0       -1.371828    0.045458   -1.868037
     24          1           0       -2.975242    0.710524   -1.532567
     25          1           0       -1.743949    1.721759   -2.338731
     26          1           0       -1.865347    2.887443    1.173182
     27          1           0       -1.889827    3.493197   -0.505462
     28          1           0       -3.205781    2.465203    0.092246
     29          1           0       -1.868190   -2.885554   -1.173220
     30          1           0       -1.893241   -3.491336    0.505406
     31          1           0       -3.208202   -2.462048   -0.092260
     32          1           0       -1.371840   -0.044202    1.868130
     33          1           0       -2.975931   -0.707610    1.532604
     34          1           0       -1.745674   -1.720149    2.338711
 ---------------------------------------------------------------------
 Rotational constants (GHZ):      0.6311091      0.6256563      0.3554682
 Standard basis: 6-31+G(d,p) (6D, 7F)
 There are   394 symmetry adapted cartesian basis functions of A   symmetry.
 There are   394 symmetry adapted basis functions of A   symmetry.
   394 basis functions,   638 primitive gaussians,   394 cartesian basis functions
    58 alpha electrons       58 beta electrons
       nuclear repulsion energy      1119.8641401891 Hartrees.
 NAtoms=   34 NActive=   34 NUniq=   34 SFac= 1.00D+00 NAtFMM=   60 NAOKFM=F Big=F
 Integral buffers will be    131072 words long.
 Raffenetti 2 integral format.
 Two-electron integral symmetry is turned on.
 Nuclear repulsion after empirical dispersion term =     1119.8196378693 Hartrees.
 One-electron integrals computed using PRISM.
 NBasis=   394 RedAO= T EigKep=  1.00D-06  NBF=   394
 NBsUse=   392 1.00D-06 EigRej=  4.67D-07 NBFU=   392
 ExpMin= 4.38D-02 ExpMax= 4.17D+03 ExpMxC= 6.27D+02 IAcc=2 IRadAn=         4 AccDes= 0.00D+00
 Harris functional with IExCor= 1009 and IRadAn=       4 diagonalized for initial guess.
 HarFok:  IExCor= 1009 AccDes= 0.00D+00 IRadAn=         4 IDoV= 1 UseB2=F ITyADJ=14
 ICtDFT=  3500011 ScaDFX=  1.000000  1.000000  1.000000  1.000000
 FoFCou: FMM=F IPFlag=           0 FMFlag=      100000 FMFlg1=           0
         NFxFlg=           0 DoJE=T BraDBF=F KetDBF=T FulRan=T
         wScrn=  0.000000 ICntrl=     500 IOpCl=  0 I1Cent=   200000004 NGrid=           0
         NMat0=    1 NMatS0=      1 NMatT0=    0 NMatD0=    1 NMtDS0=    0 NMtDT0=    0
 Petite list used in FoFCou.
 Requested convergence on RMS density matrix=1.00D-08 within 128 cycles.
 Requested convergence on MAX density matrix=1.00D-06.
 Requested convergence on             energy=1.00D-06.
 No special actions if energy rises.
 SCF Done:  E(RPBE-PBE) =  -653.043778050     A.U. after   16 cycles
            NFock= 16  Conv=0.45D-08     -V/T= 2.0098

 **********************************************************************

            Population analysis using the SCF density.

 **********************************************************************

 Orbital symmetries:
       Occupied  (A) (A) (A) (A) (A) (A) (A) (A) (A) (A) (A) (A)
                 (A) (A) (A) (A) (A) (A) (A) (A) (A) (A) (A) (A)
                 (A) (A) (A) (A) (A) (A) (A) (A) (A) (A) (A) (A)
                 (A) (A) (A) (A) (A) (A) (A) (A) (A) (A) (A) (A)
                 (A) (A) (A) (A) (A) (A) (A) (A) (A) (A)
       Virtual   (A) (A) (A) (A) (A) (A) (A) (A) (A) (A) (A) (A)
                 (A) (A) (A) (A) (A) (A) (A) (A) (A) (A) (A) (A)
                 (A) (A) (A) (A) (A) (A) (A) (A) (A) (A) (A) (A)
                 (A) (A) (A) (A) (A) (A) (A) (A) (A) (A) (A) (A)
                 (A) (A) (A) (A) (A) (A) (A) (A) (A) (A) (A) (A)
                 (A) (A) (A) (A) (A) (A) (A) (A) (A) (A) (A) (A)
                 (A) (A) (A) (A) (A) (A) (A) (A) (A) (A) (A) (A)
                 (A) (A) (A) (A) (A) (A) (A) (A) (A) (A) (A) (A)
                 (A) (A) (A) (A) (A) (A) (A) (A) (A) (A) (A) (A)
                 (A) (A) (A) (A) (A) (A) (A) (A) (A) (A) (A) (A)
                 (A) (A) (A) (A) (A) (A) (A) (A) (A) (A) (A) (A)
                 (A) (A) (A) (A) (A) (A) (A) (A) (A) (A) (A) (A)
                 (A) (A) (A) (A) (A) (A) (A) (A) (A) (A) (A) (A)
                 (A) (A) (A) (A) (A) (A) (A) (A) (A) (A) (A) (A)
                 (A) (A) (A) (A) (A) (A) (A) (A) (A) (A) (A) (A)
                 (A) (A) (A) (A) (A) (A) (A) (A) (A) (A) (A) (A)
                 (A) (A) (A) (A) (A) (A) (A) (A) (A) (A) (A) (A)
                 (A) (A) (A) (A) (A) (A) (A) (A) (A) (A) (A) (A)
                 (A) (A) (A) (A) (A) (A) (A) (A) (A) (A) (A) (A)
                 (A) (A) (A) (A) (A) (A) (A) (A) (A) (A) (A) (A)
                 (A) (A) (A) (A) (A) (A) (A) (A) (A) (A) (A) (A)
                 (A) (A) (A) (A) (A) (A) (A) (A) (A) (A) (A) (A)
                 (A) (A) (A) (A) (A) (A) (A) (A) (A) (A) (A) (A)
                 (A) (A) (A) (A) (A) (A) (A) (A) (A) (A) (A) (A)
                 (A) (A) (A) (A) (A) (A) (A) (A) (A) (A) (A) (A)
                 (A) (A) (A) (A) (A) (A) (A) (A) (A) (A) (A) (A)
                 (A) (A) (A) (A) (A) (A) (A) (A) (A) (A) (A) (A)
                 (A) (A) (A) (A) (A) (A) (A) (A) (A) (A)
 The electronic state is 1-A.
 Alpha  occ. eigenvalues --  -14.01995 -14.01995  -9.93858  -9.93858  -9.92332
 Alpha  occ. eigenvalues --   -9.92332  -9.91732  -9.91731  -9.91344  -9.90975
 Alpha  occ. eigenvalues --   -9.89949  -9.89949  -9.89537  -9.89537  -9.89392
 Alpha  occ. eigenvalues --   -9.89391  -0.86672  -0.85302  -0.78063  -0.73671
 Alpha  occ. eigenvalues --   -0.69161  -0.67012  -0.65368  -0.64462  -0.64176
 Alpha  occ. eigenvalues --   -0.59003  -0.58815  -0.54798  -0.53768  -0.50144
 Alpha  occ. eigenvalues --   -0.46598  -0.45711  -0.44751  -0.42869  -0.41921
 Alpha  occ. eigenvalues --   -0.41601  -0.41000  -0.40306  -0.39265  -0.37388
 Alpha  occ. eigenvalues --   -0.36128  -0.35768  -0.35070  -0.34865  -0.34601
 Alpha  occ. eigenvalues --   -0.33672  -0.33478  -0.32794  -0.32668  -0.32177
 Alpha  occ. eigenvalues --   -0.29797  -0.29010  -0.28816  -0.25395  -0.22200
 Alpha  occ. eigenvalues --   -0.21627  -0.16729  -0.16292
 Alpha virt. eigenvalues --   -0.06020  -0.04038  -0.01518  -0.00594  -0.00019
 Alpha virt. eigenvalues --    0.00155   0.01333   0.01614   0.01841   0.02237
 Alpha virt. eigenvalues --    0.03345   0.03778   0.03813   0.04125   0.04444
 Alpha virt. eigenvalues --    0.04627   0.05409   0.06186   0.06207   0.06740
 Alpha virt. eigenvalues --    0.06972   0.07359   0.07838   0.08846   0.09640
 Alpha virt. eigenvalues --    0.09642   0.10079   0.10222   0.10914   0.11205
 Alpha virt. eigenvalues --    0.12109   0.12261   0.12582   0.13526   0.13744
 Alpha virt. eigenvalues --    0.14265   0.14329   0.14892   0.15077   0.15573
 Alpha virt. eigenvalues --    0.15635   0.16257   0.16919   0.17151   0.17520
 Alpha virt. eigenvalues --    0.17786   0.18633   0.18667   0.19067   0.19073
 Alpha virt. eigenvalues --    0.19837   0.19988   0.20660   0.20728   0.20976
 Alpha virt. eigenvalues --    0.21247   0.21801   0.21859   0.22218   0.23323
 Alpha virt. eigenvalues --    0.23809   0.23932   0.24105   0.24629   0.24719
 Alpha virt. eigenvalues --    0.25324   0.25484   0.25590   0.25734   0.26569
 Alpha virt. eigenvalues --    0.26884   0.26973   0.27494   0.28119   0.28352
 Alpha virt. eigenvalues --    0.28915   0.29538   0.30148   0.30401   0.30940
 Alpha virt. eigenvalues --    0.31131   0.31988   0.31997   0.32856   0.33329
 Alpha virt. eigenvalues --    0.33707   0.34096   0.35296   0.35331   0.37688
 Alpha virt. eigenvalues --    0.38186   0.39434   0.40106   0.41640   0.41766
 Alpha virt. eigenvalues --    0.43427   0.44887   0.46216   0.49413   0.50903
 Alpha virt. eigenvalues --    0.56654   0.59647   0.61714   0.62274   0.64169
 Alpha virt. eigenvalues --    0.64559   0.64969   0.65531   0.66636   0.67352
 Alpha virt. eigenvalues --    0.67964   0.68617   0.69205   0.70064   0.70853
 Alpha virt. eigenvalues --    0.71008   0.71949   0.72498   0.74340   0.74683
 Alpha virt. eigenvalues --    0.74945   0.75480   0.76822   0.78822   0.78966
 Alpha virt. eigenvalues --    0.80447   0.82105   0.82650   0.83777   0.84218
 Alpha virt. eigenvalues --    0.85136   0.85561   0.87099   0.87367   0.87625
 Alpha virt. eigenvalues --    0.89595   0.90268   0.91095   0.91122   0.92759
 Alpha virt. eigenvalues --    0.93438   0.94575   0.95329   0.96396   0.97770
 Alpha virt. eigenvalues --    0.98975   0.99692   1.00151   1.00606   1.02229
 Alpha virt. eigenvalues --    1.02864   1.03367   1.03861   1.04609   1.09311
 Alpha virt. eigenvalues --    1.09465   1.10713   1.10876   1.11581   1.11766
 Alpha virt. eigenvalues --    1.12265   1.13927   1.14985   1.16848   1.19032
 Alpha virt. eigenvalues --    1.19287   1.20165   1.22032   1.22337   1.22819
 Alpha virt. eigenvalues --    1.24957   1.25248   1.26801   1.28005   1.28273
 Alpha virt. eigenvalues --    1.30806   1.30824   1.32587   1.33219   1.34260
 Alpha virt. eigenvalues --    1.35803   1.36222   1.36892   1.39995   1.43660
 Alpha virt. eigenvalues --    1.44439   1.46750   1.48905   1.50464   1.54835
 Alpha virt. eigenvalues --    1.55280   1.57310   1.58886   1.66377   1.68507
 Alpha virt. eigenvalues --    1.69118   1.71992   1.72476   1.74639   1.76093
 Alpha virt. eigenvalues --    1.78580   1.79604   1.80251   1.80543   1.83757
 Alpha virt. eigenvalues --    1.84546   1.84598   1.86000   1.87122   1.87710
 Alpha virt. eigenvalues --    1.89694   1.89775   1.92377   1.92443   1.93082
 Alpha virt. eigenvalues --    1.94646   1.95779   1.95977   1.96646   1.97113
 Alpha virt. eigenvalues --    1.97251   1.97649   1.98373   2.00105   2.00944
 Alpha virt. eigenvalues --    2.01920   2.02839   2.04541   2.04634   2.05794
 Alpha virt. eigenvalues --    2.08123   2.08228   2.08549   2.10151   2.11471
 Alpha virt. eigenvalues --    2.11708   2.14009   2.16153   2.17778   2.19733
 Alpha virt. eigenvalues --    2.20411   2.22468   2.22751   2.25545   2.29891
 Alpha virt. eigenvalues --    2.30978   2.32362   2.32995   2.33717   2.34585
 Alpha virt. eigenvalues --    2.35899   2.37433   2.37538   2.40805   2.41653
 Alpha virt. eigenvalues --    2.42552   2.44876   2.45841   2.47099   2.49426
 Alpha virt. eigenvalues --    2.50044   2.50424   2.50942   2.53184   2.53935
 Alpha virt. eigenvalues --    2.56004   2.56353   2.57979   2.59372   2.59378
 Alpha virt. eigenvalues --    2.60022   2.62812   2.63850   2.64333   2.65170
 Alpha virt. eigenvalues --    2.65979   2.66714   2.66976   2.68263   2.70340
 Alpha virt. eigenvalues --    2.71127   2.71931   2.75750   2.77501   2.77724
 Alpha virt. eigenvalues --    2.79140   2.81550   2.85049   2.85704   2.86841
 Alpha virt. eigenvalues --    2.89057   2.94113   2.96246   3.02869   3.03120
 Alpha virt. eigenvalues --    3.04413   3.09543   3.12708   3.18246   3.18516
 Alpha virt. eigenvalues --    3.18787   3.20533   3.21507   3.22134   3.25215
 Alpha virt. eigenvalues --    3.29110   3.35813   3.36509   3.37025   3.37211
 Alpha virt. eigenvalues --    3.38404   3.38712   3.42704   3.42830   3.46836
 Alpha virt. eigenvalues --    3.48442   3.69586   3.74830   4.21885   4.22636
 Alpha virt. eigenvalues --    4.27502   4.28364   4.32157   4.35416   4.36151
 Alpha virt. eigenvalues --    4.42998   4.44631   4.50593   4.51795   4.54908
 Alpha virt. eigenvalues --    4.56750   4.57020   4.62710   4.83947
          Condensed to atoms (all electrons):
               1          2          3          4          5          6
     1  C   15.142373  -1.561217   0.197471   1.778140  -5.077195  -1.889735
     2  C   -1.561217   8.763771  -1.853462   0.109516   0.126083   0.040143
     3  C    0.197471  -1.853462  13.265792  -2.754315  -2.181840  -0.449195
     4  C    1.778140   0.109516  -2.754315  13.436479  -6.469065   0.569888
     5  C   -5.077195   0.126083  -2.181840  -6.469065  29.884474  -1.915107
     6  C   -1.889735   0.040143  -0.449195   0.569888  -1.915107  13.993824
     7  C    0.290858  -0.142783   1.812507  -2.754269  -2.181871  -2.386838
     8  C    0.163697  -0.565989  -0.142792   0.109506   0.126239   1.263607
     9  C   -0.554221   0.163703   0.290904   1.778046  -5.077205  -2.590993
    10  C   -2.590904   1.263565  -2.386831   0.569937  -1.915167   0.676163
    11  N   -0.084107  -0.075174  -0.061735  -0.115339  -0.042000   0.116579
    12  N    0.005156  -0.003105   0.025071  -0.115345  -0.042000  -0.097302
    13  C    0.145133  -0.112991   0.072130  -0.099097   0.420523  -0.469921
    14  C    0.175566  -0.067357   0.042524   0.062720  -0.294610  -0.291485
    15  C    0.039908   0.006695  -0.025961   0.062723  -0.294620  -0.004112
    16  C   -0.086299  -0.025678   0.010868  -0.099104   0.420516  -0.341863
    17  H    0.078794   0.093448   0.013374  -0.012116   0.148251   0.012883
    18  H   -0.022330   0.239524   0.027862   0.032100   0.017756   0.035623
    19  H    0.020926   0.037968   0.191566   0.013209   0.100180   0.007323
    20  H   -0.007613   0.013295  -0.081015   0.013209   0.100180  -0.004638
    21  H   -0.002846   0.002988  -0.017900   0.032096   0.017754  -0.005494
    22  H    0.001977  -0.001440   0.009134  -0.012123   0.148266   0.007015
    23  H   -0.082065  -0.009568   0.001713  -0.004966   0.147043  -0.111337
    24  H   -0.008000   0.000786   0.000958   0.004845  -0.012832   0.002789
    25  H    0.097573  -0.002975   0.000194   0.002548  -0.069742  -0.027044
    26  H    0.057633   0.011953   0.003840   0.004455  -0.022792  -0.087090
    27  H    0.089268   0.024149   0.007727   0.000744  -0.044538  -0.114180
    28  H   -0.062117  -0.016744  -0.000557   0.000497   0.024566   0.072806
    29  H    0.002474  -0.000046  -0.000091   0.004458  -0.022801   0.007182
    30  H   -0.002075   0.000395  -0.000270   0.000743  -0.044537  -0.010935
    31  H    0.001161  -0.000132   0.000097   0.000496   0.024568   0.000050
    32  H    0.042422  -0.009014   0.012277  -0.004963   0.147025   0.023092
    33  H    0.009887  -0.000566  -0.000926   0.004847  -0.012839   0.021018
    34  H   -0.015141   0.001808  -0.000370   0.002545  -0.069734  -0.029733
               7          8          9         10         11         12
     1  C    0.290858   0.163697  -0.554221  -2.590904  -0.084107   0.005156
     2  C   -0.142783  -0.565989   0.163703   1.263565  -0.075174  -0.003105
     3  C    1.812507  -0.142792   0.290904  -2.386831  -0.061735   0.025071
     4  C   -2.754269   0.109506   1.778046   0.569937  -0.115339  -0.115345
     5  C   -2.181871   0.126239  -5.077205  -1.915167  -0.042000  -0.042000
     6  C   -2.386838   1.263607  -2.590993   0.676163   0.116579  -0.097302
     7  C   13.265654  -1.853442   0.197558  -0.449165   0.025082  -0.061725
     8  C   -1.853442   8.763787  -1.561511   0.040231  -0.003109  -0.075185
     9  C    0.197558  -1.561511  15.142426  -1.889720   0.005204  -0.084016
    10  C   -0.449165   0.040231  -1.889720  13.993721  -0.097247   0.116545
    11  N    0.025082  -0.003109   0.005204  -0.097247   7.538418  -0.132691
    12  N   -0.061725  -0.075185  -0.084016   0.116545  -0.132691   7.538466
    13  C    0.010872  -0.025681  -0.086299  -0.341855   0.171244   0.032169
    14  C   -0.025960   0.006695   0.039908  -0.004095   0.075238  -0.011160
    15  C    0.042525  -0.067367   0.175595  -0.291499  -0.011162   0.075240
    16  C    0.072134  -0.112987   0.145184  -0.469980   0.032169   0.171250
    17  H    0.009135  -0.001440   0.001978   0.007015  -0.042288   0.000233
    18  H   -0.017899   0.002988  -0.002846  -0.005494  -0.001593   0.000076
    19  H   -0.081016   0.013294  -0.007613  -0.004638   0.000388   0.000116
    20  H    0.191571   0.037961   0.020926   0.007322   0.000116   0.000389
    21  H    0.027862   0.239528  -0.022327   0.035623   0.000076  -0.001593
    22  H    0.013371   0.093454   0.078765   0.012904   0.000233  -0.042290
    23  H    0.012276  -0.009015   0.042426   0.023078  -0.046614  -0.013221
    24  H   -0.000926  -0.000567   0.009883   0.021009  -0.063503   0.000737
    25  H   -0.000370   0.001808  -0.015139  -0.029720  -0.078201   0.002439
    26  H   -0.000092  -0.000046   0.002473   0.007181  -0.049425  -0.001454
    27  H   -0.000270   0.000395  -0.002075  -0.010936  -0.061805  -0.000986
    28  H    0.000097  -0.000132   0.001161   0.000052  -0.082562   0.001364
    29  H    0.003841   0.011954   0.057650  -0.087101  -0.001454  -0.049427
    30  H    0.007726   0.024149   0.089255  -0.114177  -0.000986  -0.061802
    31  H   -0.000557  -0.016745  -0.062118   0.072810   0.001364  -0.082563
    32  H    0.001712  -0.009567  -0.082068  -0.111319  -0.013222  -0.046619
    33  H    0.000958   0.000786  -0.008003   0.002788   0.000735  -0.063502
    34  H    0.000194  -0.002974   0.097583  -0.027055   0.002440  -0.078199
              13         14         15         16         17         18
     1  C    0.145133   0.175566   0.039908  -0.086299   0.078794  -0.022330
     2  C   -0.112991  -0.067357   0.006695  -0.025678   0.093448   0.239524
     3  C    0.072130   0.042524  -0.025961   0.010868   0.013374   0.027862
     4  C   -0.099097   0.062720   0.062723  -0.099104  -0.012116   0.032100
     5  C    0.420523  -0.294610  -0.294620   0.420516   0.148251   0.017756
     6  C   -0.469921  -0.291485  -0.004112  -0.341863   0.012883   0.035623
     7  C    0.010872  -0.025960   0.042525   0.072134   0.009135  -0.017899
     8  C   -0.025681   0.006695  -0.067367  -0.112987  -0.001440   0.002988
     9  C   -0.086299   0.039908   0.175595   0.145184   0.001978  -0.002846
    10  C   -0.341855  -0.004095  -0.291499  -0.469980   0.007015  -0.005494
    11  N    0.171244   0.075238  -0.011162   0.032169  -0.042288  -0.001593
    12  N    0.032169  -0.011160   0.075240   0.171250   0.000233   0.000076
    13  C    5.410599  -0.074216  -0.021328   0.000981  -0.003425   0.000004
    14  C   -0.074216   5.423230   0.007476  -0.021327  -0.007426   0.000988
    15  C   -0.021328   0.007476   5.423243  -0.074212   0.000120  -0.000001
    16  C    0.000981  -0.021327  -0.074212   5.410607  -0.000353   0.000099
    17  H   -0.003425  -0.007426   0.000120  -0.000353   0.582444  -0.005989
    18  H    0.000004   0.000988  -0.000001   0.000099  -0.005989   0.566976
    19  H    0.000113   0.000180  -0.000043   0.000200  -0.000193  -0.005317
    20  H    0.000200  -0.000043   0.000180   0.000113   0.000000  -0.000010
    21  H    0.000099  -0.000001   0.000988   0.000004  -0.000000  -0.000000
    22  H   -0.000353   0.000120  -0.007426  -0.003425  -0.000000  -0.000000
    23  H    0.412784   0.003286  -0.006892   0.002054   0.000018   0.000000
    24  H    0.408266  -0.016560   0.000666   0.000226  -0.000014  -0.000000
    25  H    0.432406   0.011402   0.000601  -0.001123   0.000025   0.000002
    26  H    0.003126   0.428272  -0.000365  -0.001154  -0.002188  -0.000004
    27  H    0.007492   0.427117   0.000319   0.000846  -0.000421   0.000013
    28  H   -0.010250   0.420466  -0.000316  -0.001040   0.000288  -0.000000
    29  H   -0.001155  -0.000365   0.428273   0.003125  -0.000000   0.000000
    30  H    0.000846   0.000319   0.427119   0.007494   0.000000  -0.000000
    31  H   -0.001040  -0.000316   0.420466  -0.010251  -0.000000   0.000000
    32  H    0.002053  -0.006890   0.003285   0.412778  -0.000007  -0.000000
    33  H    0.000225   0.000665  -0.016560   0.408265  -0.000000  -0.000000
    34  H   -0.001123   0.000601   0.011403   0.432413   0.000000  -0.000000
              19         20         21         22         23         24
     1  C    0.020926  -0.007613  -0.002846   0.001977  -0.082065  -0.008000
     2  C    0.037968   0.013295   0.002988  -0.001440  -0.009568   0.000786
     3  C    0.191566  -0.081015  -0.017900   0.009134   0.001713   0.000958
     4  C    0.013209   0.013209   0.032096  -0.012123  -0.004966   0.004845
     5  C    0.100180   0.100180   0.017754   0.148266   0.147043  -0.012832
     6  C    0.007323  -0.004638  -0.005494   0.007015  -0.111337   0.002789
     7  C   -0.081016   0.191571   0.027862   0.013371   0.012276  -0.000926
     8  C    0.013294   0.037961   0.239528   0.093454  -0.009015  -0.000567
     9  C   -0.007613   0.020926  -0.022327   0.078765   0.042426   0.009883
    10  C   -0.004638   0.007322   0.035623   0.012904   0.023078   0.021009
    11  N    0.000388   0.000116   0.000076   0.000233  -0.046614  -0.063503
    12  N    0.000116   0.000389  -0.001593  -0.042290  -0.013221   0.000737
    13  C    0.000113   0.000200   0.000099  -0.000353   0.412784   0.408266
    14  C    0.000180  -0.000043  -0.000001   0.000120   0.003286  -0.016560
    15  C   -0.000043   0.000180   0.000988  -0.007426  -0.006892   0.000666
    16  C    0.000200   0.000113   0.000004  -0.003425   0.002054   0.000226
    17  H   -0.000193   0.000000  -0.000000  -0.000000   0.000018  -0.000014
    18  H   -0.005317  -0.000010  -0.000000  -0.000000   0.000000  -0.000000
    19  H    0.575069   0.003347  -0.000010   0.000000   0.000000   0.000000
    20  H    0.003347   0.575068  -0.005317  -0.000193  -0.000000  -0.000000
    21  H   -0.000010  -0.005317   0.566976  -0.005989  -0.000000  -0.000000
    22  H    0.000000  -0.000193  -0.005989   0.582446  -0.000007  -0.000000
    23  H    0.000000  -0.000000  -0.000000  -0.000007   0.504154  -0.021719
    24  H    0.000000  -0.000000  -0.000000  -0.000000  -0.021719   0.557183
    25  H    0.000000   0.000000  -0.000000   0.000000  -0.030819  -0.044251
    26  H    0.000000  -0.000000   0.000000  -0.000000  -0.000207   0.000293
    27  H    0.000000   0.000000  -0.000000   0.000000  -0.000114  -0.001932
    28  H   -0.000000   0.000000   0.000000  -0.000000   0.000335   0.004809
    29  H   -0.000000   0.000000  -0.000004  -0.002188   0.000281  -0.000034
    30  H    0.000000   0.000000   0.000013  -0.000421  -0.000023   0.000003
    31  H    0.000000  -0.000000  -0.000000   0.000288   0.000052   0.000120
    32  H   -0.000000   0.000000   0.000000   0.000018  -0.000037   0.000076
    33  H   -0.000000   0.000000  -0.000000  -0.000014   0.000076   0.000182
    34  H    0.000000   0.000000   0.000002   0.000025  -0.000023  -0.000014
              25         26         27         28         29         30
     1  C    0.097573   0.057633   0.089268  -0.062117   0.002474  -0.002075
     2  C   -0.002975   0.011953   0.024149  -0.016744  -0.000046   0.000395
     3  C    0.000194   0.003840   0.007727  -0.000557  -0.000091  -0.000270
     4  C    0.002548   0.004455   0.000744   0.000497   0.004458   0.000743
     5  C   -0.069742  -0.022792  -0.044538   0.024566  -0.022801  -0.044537
     6  C   -0.027044  -0.087090  -0.114180   0.072806   0.007182  -0.010935
     7  C   -0.000370  -0.000092  -0.000270   0.000097   0.003841   0.007726
     8  C    0.001808  -0.000046   0.000395  -0.000132   0.011954   0.024149
     9  C   -0.015139   0.002473  -0.002075   0.001161   0.057650   0.089255
    10  C   -0.029720   0.007181  -0.010936   0.000052  -0.087101  -0.114177
    11  N   -0.078201  -0.049425  -0.061805  -0.082562  -0.001454  -0.000986
    12  N    0.002439  -0.001454  -0.000986   0.001364  -0.049427  -0.061802
    13  C    0.432406   0.003126   0.007492  -0.010250  -0.001155   0.000846
    14  C    0.011402   0.428272   0.427117   0.420466  -0.000365   0.000319
    15  C    0.000601  -0.000365   0.000319  -0.000316   0.428273   0.427119
    16  C   -0.001123  -0.001154   0.000846  -0.001040   0.003125   0.007494
    17  H    0.000025  -0.002188  -0.000421   0.000288  -0.000000   0.000000
    18  H    0.000002  -0.000004   0.000013  -0.000000   0.000000  -0.000000
    19  H    0.000000   0.000000   0.000000  -0.000000  -0.000000   0.000000
    20  H    0.000000  -0.000000   0.000000   0.000000   0.000000   0.000000
    21  H   -0.000000   0.000000  -0.000000   0.000000  -0.000004   0.000013
    22  H    0.000000  -0.000000   0.000000  -0.000000  -0.002188  -0.000421
    23  H   -0.030819  -0.000207  -0.000114   0.000335   0.000281  -0.000023
    24  H   -0.044251   0.000293  -0.001932   0.004809  -0.000034   0.000003
    25  H    0.591001  -0.000211   0.009355  -0.002624  -0.000000   0.000000
    26  H   -0.000211   0.527063  -0.038063  -0.018976  -0.000000   0.000000
    27  H    0.009355  -0.038063   0.588872  -0.041399   0.000000  -0.000000
    28  H   -0.002624  -0.018976  -0.041399   0.545481   0.000000   0.000000
    29  H   -0.000000  -0.000000   0.000000   0.000000   0.527062  -0.038063
    30  H    0.000000   0.000000  -0.000000   0.000000  -0.038063   0.588874
    31  H   -0.000002   0.000000   0.000000   0.000001  -0.018976  -0.041399
    32  H   -0.000023   0.000281  -0.000023   0.000052  -0.000207  -0.000114
    33  H   -0.000014  -0.000034   0.000003   0.000120   0.000293  -0.001932
    34  H    0.000001  -0.000000   0.000000  -0.000002  -0.000211   0.009356
              31         32         33         34
     1  C    0.001161   0.042422   0.009887  -0.015141
     2  C   -0.000132  -0.009014  -0.000566   0.001808
     3  C    0.000097   0.012277  -0.000926  -0.000370
     4  C    0.000496  -0.004963   0.004847   0.002545
     5  C    0.024568   0.147025  -0.012839  -0.069734
     6  C    0.000050   0.023092   0.021018  -0.029733
     7  C   -0.000557   0.001712   0.000958   0.000194
     8  C   -0.016745  -0.009567   0.000786  -0.002974
     9  C   -0.062118  -0.082068  -0.008003   0.097583
    10  C    0.072810  -0.111319   0.002788  -0.027055
    11  N    0.001364  -0.013222   0.000735   0.002440
    12  N   -0.082563  -0.046619  -0.063502  -0.078199
    13  C   -0.001040   0.002053   0.000225  -0.001123
    14  C   -0.000316  -0.006890   0.000665   0.000601
    15  C    0.420466   0.003285  -0.016560   0.011403
    16  C   -0.010251   0.412778   0.408265   0.432413
    17  H   -0.000000  -0.000007  -0.000000   0.000000
    18  H    0.000000  -0.000000  -0.000000  -0.000000
    19  H    0.000000  -0.000000  -0.000000   0.000000
    20  H   -0.000000   0.000000   0.000000   0.000000
    21  H   -0.000000   0.000000  -0.000000   0.000002
    22  H    0.000288   0.000018  -0.000014   0.000025
    23  H    0.000052  -0.000037   0.000076  -0.000023
    24  H    0.000120   0.000076   0.000182  -0.000014
    25  H   -0.000002  -0.000023  -0.000014   0.000001
    26  H    0.000000   0.000281  -0.000034  -0.000000
    27  H    0.000000  -0.000023   0.000003   0.000000
    28  H    0.000001   0.000052   0.000120  -0.000002
    29  H   -0.018976  -0.000207   0.000293  -0.000211
    30  H   -0.041399  -0.000114  -0.001932   0.009356
    31  H    0.545480   0.000335   0.004809  -0.002624
    32  H    0.000335   0.504152  -0.021720  -0.030817
    33  H    0.004809  -0.021720   0.557180  -0.044251
    34  H   -0.002624  -0.030817  -0.044251   0.591000
 Mulliken charges:
               1
     1  C   -0.294555
     2  C   -0.451546
     3  C   -0.028748
     4  C   -0.153047
     5  C   -0.062926
     6  C   -0.022982
     7  C   -0.028747
     8  C   -0.451530
     9  C   -0.294476
    10  C   -0.023038
    11  N    0.094928
    12  N    0.094934
    13  C   -0.282532
    14  C   -0.304960
    15  C   -0.304959
    16  C   -0.282529
    17  H    0.127853
    18  H    0.137473
    19  H    0.134951
    20  H    0.134951
    21  H    0.137473
    22  H    0.127853
    23  H    0.187052
    24  H    0.157522
    25  H    0.152903
    26  H    0.175530
    27  H    0.160444
    28  H    0.164626
    29  H    0.175531
    30  H    0.160443
    31  H    0.164626
    32  H    0.187052
    33  H    0.157525
    34  H    0.152903
 Sum of Mulliken charges =  -0.00000
 Mulliken charges with hydrogens summed into heavy atoms:
               1
     1  C   -0.166702
     2  C   -0.314073
     3  C    0.106203
     4  C   -0.153047
     5  C   -0.062926
     6  C   -0.022982
     7  C    0.106204
     8  C   -0.314056
     9  C   -0.166623
    10  C   -0.023038
    11  N    0.094928
    12  N    0.094934
    13  C    0.214944
    14  C    0.195641
    15  C    0.195641
    16  C    0.214951
 Electronic spatial extent (au):  <R**2>=           3343.2595
 Charge=             -0.0000 electrons
 Dipole moment (field-independent basis, Debye):
    X=             -1.8875    Y=              0.0009    Z=              0.0000  Tot=              1.8875
 Quadrupole moment (field-independent basis, Debye-Ang):
   XX=            -90.7387   YY=            -90.6466   ZZ=           -101.5114
   XY=              0.0001   XZ=              0.0008   YZ=              1.7897
 Traceless Quadrupole moment (field-independent basis, Debye-Ang):
   XX=              3.5602   YY=              3.6523   ZZ=             -7.2125
   XY=              0.0001   XZ=              0.0008   YZ=              1.7897
 Octapole moment (field-independent basis, Debye-Ang**2):
  XXX=             -5.8683  YYY=              0.0096  ZZZ=              0.0004  XYY=             -6.2340
  XXY=             -0.0033  XXZ=              0.0020  XZZ=            -15.6833  YZZ=              0.0076
  YYZ=             -0.0021  XYZ=              2.0417
 Hexadecapole moment (field-independent basis, Debye-Ang**3):
 XXXX=          -2023.1102 YYYY=          -2060.5354 ZZZZ=           -429.6112 XXXY=             -0.0142
 XXXZ=              0.0189 YYYX=             -0.0114 YYYZ=             32.9657 ZZZX=             -0.0014
 ZZZY=             -1.6980 XXYY=           -681.5532 XXZZ=           -454.3006 YYZZ=           -452.0132
 XXYZ=             13.1254 YYXZ=              0.0029 ZZXY=              0.0001
 N-N= 1.119819637869D+03 E-N=-3.752864170348D+03  KE= 6.467376309430D+02
 Calling FoFJK, ICntrl=      2527 FMM=F ISym2X=0 I1Cent= 0 IOpClX= 0 NMat=1 NMatS=1 NMatT=0.
 ***** Axes restored to original set *****
 -------------------------------------------------------------------
 Center     Atomic                   Forces (Hartrees/Bohr)
 Number     Number              X              Y              Z
 -------------------------------------------------------------------
      1        6          -0.002842342    0.001379295   -0.001464699
      2        6           0.003226321    0.002268679   -0.000673754
      3        6          -0.000093541   -0.003645711    0.000592161
      4        6          -0.001515328   -0.000000800    0.000000633
      5        6           0.003170440   -0.000000199   -0.000000766
      6        6           0.004161908   -0.003921658    0.000989120
      7        6          -0.000095182    0.003644496   -0.000592594
      8        6           0.003226661   -0.002263917    0.000673745
      9        6          -0.002840636   -0.001382419    0.001464443
     10        6           0.004154294    0.003925733   -0.000988693
     11        7           0.000288857   -0.001383086   -0.000730612
     12        7           0.000288612    0.001380225    0.000728093
     13        6          -0.000897769    0.001216922   -0.004445273
     14        6          -0.002562346   -0.003369116    0.001422692
     15        6          -0.002563634    0.003365365   -0.001421683
     16        6          -0.000897655   -0.001217428    0.004446288
     17        1           0.003012863    0.005272373    0.000079076
     18        1          -0.002639589    0.004651477   -0.000826842
     19        1          -0.005484075   -0.000497535   -0.000016365
     20        1          -0.005485766    0.000492353    0.000016390
     21        1          -0.002635055   -0.004654217    0.000826884
     22        1           0.003018380   -0.005267028   -0.000079329
     23        1          -0.003262628   -0.005068146    0.000915411
     24        1           0.005013145   -0.001322519   -0.000390649
     25        1          -0.000938438    0.003599900    0.003202264
     26        1          -0.001583014    0.000912731   -0.004847609
     27        1          -0.001150669    0.004105737    0.003163578
     28        1           0.004923510   -0.001009224    0.000348936
     29        1          -0.001582534   -0.000914438    0.004847890
     30        1          -0.001146808   -0.004107388   -0.003163193
     31        1           0.004922279    0.001014836   -0.000349305
     32        1          -0.003268189    0.005067752   -0.000914448
     33        1           0.005012604    0.001327858    0.000390269
     34        1          -0.000934676   -0.003600905   -0.003202059
 -------------------------------------------------------------------
 Cartesian Forces:  Max     0.005485766 RMS     0.002770048

 GradGradGradGradGradGradGradGradGradGradGradGradGradGradGradGradGradGrad
 Berny optimization.
 FormGI is forming the generalized inverse of G from B-inverse, IUseBI=4.
 Internal  Forces:  Max     0.009113365 RMS     0.002417033
 Search for a local minimum.
 Step number   1 out of a maximum of  181
 All quantities printed in internal units (Hartrees-Bohrs-Radians)
 Mixed Optimization -- RFO/linear search
 Second derivative matrix not updated -- first step.
 ITU=  0
     Eigenvalues ---    0.00849   0.00849   0.00982   0.00982   0.01484
     Eigenvalues ---    0.01484   0.01503   0.01585   0.01656   0.01706
     Eigenvalues ---    0.01713   0.01891   0.01927   0.02056   0.02061
     Eigenvalues ---    0.02102   0.02117   0.02131   0.02131   0.02161
     Eigenvalues ---    0.02170   0.02262   0.02268   0.07088   0.07088
     Eigenvalues ---    0.07291   0.07291   0.07469   0.07469   0.07661
     Eigenvalues ---    0.07661   0.15959   0.15960   0.15978   0.15978
     Eigenvalues ---    0.16000   0.16000   0.16000   0.16000   0.16000
     Eigenvalues ---    0.16000   0.16000   0.16000   0.16000   0.16000
     Eigenvalues ---    0.16000   0.16000   0.16000   0.16000   0.19288
     Eigenvalues ---    0.19288   0.21248   0.21248   0.22052   0.22120
     Eigenvalues ---    0.23136   0.23624   0.24688   0.24860   0.24997
     Eigenvalues ---    0.24997   0.33038   0.33038   0.33139   0.33139
     Eigenvalues ---    0.34209   0.34209   0.34231   0.34231   0.34428
     Eigenvalues ---    0.34428   0.35079   0.35079   0.35228   0.35228
     Eigenvalues ---    0.35242   0.35243   0.35466   0.35611   0.35611
     Eigenvalues ---    0.36499   0.36499   0.36815   0.36934   0.37773
     Eigenvalues ---    0.37773   0.40666   0.40881   0.42963   0.43084
     Eigenvalues ---    0.43116   0.43116   0.45863   0.45955   0.49164
     Eigenvalues ---    0.49277
 RFO step:  Lambda=-3.90981660D-03 EMin= 8.48508324D-03
 Linear search not attempted -- first point.
 Iteration  1 RMS(Cart)=  0.10300236 RMS(Int)=  0.00187572
 Iteration  2 RMS(Cart)=  0.00490705 RMS(Int)=  0.00003909
 Iteration  3 RMS(Cart)=  0.00000800 RMS(Int)=  0.00003891
 Iteration  4 RMS(Cart)=  0.00000000 RMS(Int)=  0.00003891
 Variable       Old X    -DE/DX   Delta X   Delta X   Delta X     New X
                                 (Linear)    (Quad)   (Total)
    R1        2.66496   0.00393   0.00000   0.00927   0.00931   2.67427
    R2        2.63054   0.00699   0.00000   0.01478   0.01478   2.64533
    R3        2.04694   0.00606   0.00000   0.01684   0.01684   2.06378
    R4        2.59418   0.00911   0.00000   0.01828   0.01832   2.61250
    R5        2.05306   0.00541   0.00000   0.01519   0.01519   2.06825
    R6        2.68741   0.00382   0.00000   0.00899   0.00898   2.69639
    R7        2.05283   0.00550   0.00000   0.01543   0.01543   2.06826
    R8        2.72512   0.00379   0.00000   0.00864   0.00857   2.73368
    R9        2.68741   0.00382   0.00000   0.00899   0.00898   2.69639
   R10        2.74595  -0.00039   0.00000  -0.00150  -0.00154   2.74441
   R11        2.74595  -0.00040   0.00000  -0.00151  -0.00155   2.74440
   R12        2.67527  -0.00058   0.00000  -0.00132  -0.00132   2.67394
   R13        2.59418   0.00911   0.00000   0.01828   0.01831   2.61249
   R14        2.05283   0.00550   0.00000   0.01543   0.01543   2.06826
   R15        2.66496   0.00393   0.00000   0.00927   0.00931   2.67427
   R16        2.05306   0.00541   0.00000   0.01519   0.01519   2.06826
   R17        2.63054   0.00699   0.00000   0.01477   0.01478   2.64532
   R18        2.04695   0.00606   0.00000   0.01684   0.01684   2.06378
   R19        2.67527  -0.00057   0.00000  -0.00132  -0.00132   2.67395
   R20        2.76608  -0.00018   0.00000  -0.00048  -0.00048   2.76561
   R21        2.74697   0.00034   0.00000   0.00090   0.00090   2.74786
   R22        2.74696   0.00034   0.00000   0.00090   0.00090   2.74787
   R23        2.76608  -0.00018   0.00000  -0.00048  -0.00048   2.76560
   R24        2.05547   0.00605   0.00000   0.01704   0.01704   2.07252
   R25        2.06978   0.00519   0.00000   0.01500   0.01500   2.08479
   R26        2.08807   0.00490   0.00000   0.01460   0.01460   2.10268
   R27        2.06613   0.00516   0.00000   0.01481   0.01481   2.08094
   R28        2.08984   0.00531   0.00000   0.01589   0.01589   2.10573
   R29        2.06941   0.00503   0.00000   0.01453   0.01453   2.08394
   R30        2.06613   0.00516   0.00000   0.01481   0.01481   2.08094
   R31        2.08984   0.00531   0.00000   0.01589   0.01589   2.10573
   R32        2.06941   0.00503   0.00000   0.01453   0.01453   2.08394
   R33        2.05547   0.00605   0.00000   0.01705   0.01705   2.07252
   R34        2.06978   0.00519   0.00000   0.01500   0.01500   2.08479
   R35        2.08807   0.00490   0.00000   0.01460   0.01460   2.10268
    A1        2.13102  -0.00150   0.00000  -0.00491  -0.00496   2.12606
    A2        2.06406   0.00112   0.00000   0.00502   0.00502   2.06908
    A3        2.08624   0.00039   0.00000   0.00054   0.00053   2.08677
    A4        2.09169  -0.00029   0.00000   0.00128   0.00127   2.09296
    A5        2.08380   0.00005   0.00000  -0.00106  -0.00107   2.08272
    A6        2.10596   0.00025   0.00000   0.00024   0.00024   2.10620
    A7        2.10188  -0.00025   0.00000   0.00054   0.00049   2.10236
    A8        2.11154   0.00043   0.00000   0.00162   0.00164   2.11318
    A9        2.06976  -0.00018   0.00000  -0.00215  -0.00212   2.06764
   A10        2.10338  -0.00085   0.00000  -0.00337  -0.00343   2.09995
   A11        2.07642   0.00171   0.00000   0.00674   0.00687   2.08329
   A12        2.10338  -0.00085   0.00000  -0.00337  -0.00343   2.09995
   A13        2.04313   0.00200   0.00000   0.00747   0.00739   2.05052
   A14        2.04313   0.00200   0.00000   0.00747   0.00739   2.05052
   A15        2.19693  -0.00399   0.00000  -0.01495  -0.01479   2.18215
   A16        2.07838   0.00102   0.00000   0.00410   0.00396   2.08234
   A17        2.09419   0.00317   0.00000   0.01254   0.01256   2.10675
   A18        2.11050  -0.00419   0.00000  -0.01643  -0.01641   2.09409
   A19        2.10187  -0.00025   0.00000   0.00054   0.00048   2.10236
   A20        2.06976  -0.00018   0.00000  -0.00215  -0.00212   2.06764
   A21        2.11154   0.00043   0.00000   0.00162   0.00164   2.11318
   A22        2.09169  -0.00029   0.00000   0.00128   0.00127   2.09296
   A23        2.10596   0.00025   0.00000   0.00024   0.00024   2.10620
   A24        2.08380   0.00005   0.00000  -0.00106  -0.00107   2.08272
   A25        2.13102  -0.00150   0.00000  -0.00491  -0.00496   2.12606
   A26        2.06406   0.00113   0.00000   0.00503   0.00502   2.06909
   A27        2.08624   0.00039   0.00000   0.00053   0.00052   2.08677
   A28        2.07838   0.00102   0.00000   0.00410   0.00396   2.08234
   A29        2.11051  -0.00419   0.00000  -0.01644  -0.01642   2.09409
   A30        2.09419   0.00317   0.00000   0.01255   0.01257   2.10676
   A31        2.02241  -0.00077   0.00000  -0.00040  -0.00046   2.02196
   A32        2.05720  -0.00054   0.00000   0.00069   0.00065   2.05785
   A33        1.94625   0.00160   0.00000   0.01037   0.01035   1.95660
   A34        2.05719  -0.00054   0.00000   0.00072   0.00067   2.05786
   A35        2.02241  -0.00077   0.00000  -0.00041  -0.00046   2.02195
   A36        1.94624   0.00161   0.00000   0.01040   0.01037   1.95662
   A37        1.93112  -0.00114   0.00000  -0.00787  -0.00788   1.92324
   A38        1.91412   0.00005   0.00000   0.00065   0.00064   1.91476
   A39        1.94070  -0.00016   0.00000  -0.00038  -0.00038   1.94032
   A40        1.88793   0.00032   0.00000   0.00075   0.00074   1.88867
   A41        1.89510   0.00059   0.00000   0.00300   0.00300   1.89810
   A42        1.89367   0.00039   0.00000   0.00412   0.00412   1.89779
   A43        1.92668  -0.00060   0.00000  -0.00383  -0.00383   1.92285
   A44        1.98554   0.00008   0.00000   0.00052   0.00052   1.98606
   A45        1.89223  -0.00029   0.00000  -0.00162  -0.00163   1.89061
   A46        1.89352   0.00026   0.00000   0.00135   0.00135   1.89487
   A47        1.88885   0.00041   0.00000   0.00246   0.00246   1.89131
   A48        1.87415   0.00018   0.00000   0.00140   0.00140   1.87555
   A49        1.92668  -0.00060   0.00000  -0.00383  -0.00383   1.92285
   A50        1.98554   0.00008   0.00000   0.00052   0.00052   1.98606
   A51        1.89224  -0.00029   0.00000  -0.00163  -0.00164   1.89060
   A52        1.89352   0.00026   0.00000   0.00135   0.00135   1.89487
   A53        1.88885   0.00042   0.00000   0.00246   0.00246   1.89131
   A54        1.87415   0.00018   0.00000   0.00141   0.00141   1.87556
   A55        1.93112  -0.00114   0.00000  -0.00788  -0.00789   1.92323
   A56        1.91412   0.00005   0.00000   0.00065   0.00064   1.91476
   A57        1.94070  -0.00016   0.00000  -0.00037  -0.00038   1.94032
   A58        1.88793   0.00032   0.00000   0.00074   0.00073   1.88867
   A59        1.89510   0.00059   0.00000   0.00302   0.00301   1.89811
   A60        1.89367   0.00039   0.00000   0.00412   0.00412   1.89779
    D1        0.05737  -0.00006   0.00000  -0.00328  -0.00331   0.05406
    D2        3.13616   0.00017   0.00000   0.00509   0.00505   3.14121
    D3       -3.01839  -0.00034   0.00000  -0.01476  -0.01479  -3.03318
    D4        0.06040  -0.00011   0.00000  -0.00640  -0.00643   0.05397
    D5        0.08251  -0.00049   0.00000  -0.01759  -0.01752   0.06499
    D6       -3.04354  -0.00078   0.00000  -0.03287  -0.03294  -3.07649
    D7       -3.12572  -0.00019   0.00000  -0.00581  -0.00577  -3.13150
    D8        0.03140  -0.00048   0.00000  -0.02109  -0.02119   0.01022
    D9       -0.08198   0.00032   0.00000   0.00966   0.00961  -0.07237
   D10        3.06464   0.00024   0.00000   0.00719   0.00716   3.07181
   D11        3.12322   0.00009   0.00000   0.00123   0.00119   3.12441
   D12       -0.01334   0.00001   0.00000  -0.00123  -0.00126  -0.01460
   D13       -0.03342   0.00013   0.00000   0.00545   0.00544  -0.02798
   D14        3.10817   0.00013   0.00000   0.00547   0.00546   3.11363
   D15        3.10327   0.00021   0.00000   0.00787   0.00784   3.11110
   D16       -0.03833   0.00021   0.00000   0.00789   0.00785  -0.03048
   D17        0.16739  -0.00046   0.00000  -0.02496  -0.02498   0.14241
   D18       -2.97421  -0.00046   0.00000  -0.02493  -0.02494  -2.99915
   D19       -2.97420  -0.00046   0.00000  -0.02498  -0.02499  -2.99919
   D20        0.16739  -0.00046   0.00000  -0.02495  -0.02496   0.14243
   D21        3.10819   0.00013   0.00000   0.00541   0.00539   3.11358
   D22       -0.03832   0.00021   0.00000   0.00785   0.00782  -0.03051
   D23       -0.03341   0.00013   0.00000   0.00543   0.00541  -0.02800
   D24        3.10326   0.00021   0.00000   0.00787   0.00783   3.11110
   D25       -0.18957   0.00050   0.00000   0.03015   0.03022  -0.15935
   D26        2.93633   0.00086   0.00000   0.04585   0.04578   2.98212
   D27        2.95203   0.00050   0.00000   0.03011   0.03018   2.98221
   D28       -0.20525   0.00086   0.00000   0.04581   0.04575  -0.15950
   D29       -0.18958   0.00050   0.00000   0.03016   0.03023  -0.15935
   D30        2.93634   0.00086   0.00000   0.04582   0.04576   2.98210
   D31        2.95201   0.00050   0.00000   0.03020   0.03027   2.98227
   D32       -0.20526   0.00086   0.00000   0.04586   0.04580  -0.15946
   D33        2.03710   0.00207   0.00000   0.08987   0.08983   2.12693
   D34       -0.33392   0.00101   0.00000   0.07211   0.07210  -0.26182
   D35       -1.08866   0.00173   0.00000   0.07412   0.07412  -1.01454
   D36        2.82350   0.00067   0.00000   0.05635   0.05639   2.87989
   D37       -0.08198   0.00032   0.00000   0.00966   0.00962  -0.07236
   D38        3.12322   0.00009   0.00000   0.00125   0.00120   3.12442
   D39        3.06465   0.00024   0.00000   0.00718   0.00715   3.07179
   D40       -0.01334   0.00001   0.00000  -0.00124  -0.00127  -0.01461
   D41        0.05736  -0.00006   0.00000  -0.00326  -0.00329   0.05407
   D42       -3.01839  -0.00034   0.00000  -0.01475  -0.01478  -3.03317
   D43        3.13616   0.00017   0.00000   0.00510   0.00506   3.14122
   D44        0.06041  -0.00011   0.00000  -0.00640  -0.00643   0.05397
   D45        0.08252  -0.00049   0.00000  -0.01762  -0.01755   0.06497
   D46       -3.04354  -0.00078   0.00000  -0.03287  -0.03294  -3.07648
   D47       -3.12572  -0.00019   0.00000  -0.00582  -0.00579  -3.13151
   D48        0.03140  -0.00047   0.00000  -0.02107  -0.02117   0.01023
   D49        2.82348   0.00067   0.00000   0.05647   0.05652   2.88000
   D50       -1.08871   0.00173   0.00000   0.07431   0.07432  -1.01439
[...]
 83,0.00034206,-0.00005045,0.00002150,-0.00004578,-0.01109328,-0.057759
 33,0.05163136,0.00437449,-0.00393780,0.00074964,0.00000538,-0.00000513
 ,0.00001434,-0.00000251,-0.00000266,0.00000135,0.00000100,0.00000702,0
 .00000189,0.00000935,-0.00001045,0.00001604,0.00000655,0.00001413,0.00
 001256,-0.00017614,-0.00005393,-0.00009560,0.00026474,-0.00015311,-0.0
 0006021,-0.00013563,-0.00006204,0.00005575,-0.00000416,0.00009042,-0.0
 0007894,-0.00000346,0.00005598,-0.00002971,0.00000613,-0.00001320,-0.0
 0000767,-0.00001013,-0.00000044,0.00002807,0.01144032,0.06901043,0.000
 01846,0.00003333,-0.00001500,0.00005650,-0.00003664,0.00002953,-0.0000
 3672,-0.00002592,-0.00003006,0.00004576,-0.00002098,-0.00001744,-0.000
 36071,0.00020772,0.00007212,0.00013762,-0.00013809,0.00005737,-0.00006
 659,0.00005480,-0.00003241,0.00026788,-0.00045718,0.00007845,0.0000478
 0,0.00037554,0.00043902,0.00219158,0.00024101,0.00016729,-0.00014311,0
 .00008849,0.00022335,0.00022694,0.00455160,-0.00660338,-0.00010943,0.0
 0011304,-0.00003984,0.00000988,-0.00002585,-0.00001744,0.05361740,0.05
 767567,-0.27498351,-0.00242778,0.00140244,0.00026681,-0.00000082,-0.00
 000756,-0.00000192,-0.00000267,0.00000432,0.00000520,-0.00000360,-0.00
 000111,-0.00001133,0.00003336,-0.00003948,0.00002279,-0.00002781,-0.00
 000864,-0.00001498,-0.00030966,-0.00069997,-0.00026914,-0.00000324,0.0
 0016782,-0.00000177,0.00004724,0.00000722,-0.00002772,0.00001683,0.000
 03137,0.00000753,0.00001181,-0.00002970,0.00000577,-0.00000128,0.00000
 348,0.00001208,-0.00000219,-0.00000859,-0.00001793,-0.05842615,-0.0664
 0244,0.29665562,-0.00016586,0.00005247,0.00001541,0.00011672,0.0000508
 7,-0.00001073,-0.00007772,-0.00010351,0.00007241,0.00038576,0.00047231
 ,-0.00026151,-0.00076548,0.00033085,-0.00072872,0.00011314,-0.00037074
 ,0.00010425,0.00021773,-0.00057340,0.00009393,-0.00056752,0.00009043,-
 0.00064129,0.00085676,-0.00068757,0.00052812,0.00247204,0.00118210,0.0
 0035264,0.00012221,0.00027787,0.00013065,0.00352221,0.01687841,0.01043
 488,-0.00026523,0.00006484,-0.00015852,-0.00008159,-0.00000105,0.00005
 667,-0.05951954,-0.04192343,-0.03576590,-0.00020580,-0.00022437,0.0013
 2277,-0.00000107,0.00000021,-0.00000647,0.00000475,-0.00000572,-0.0000
 0892,-0.00001682,0.00001250,-0.00000097,-0.00000203,0.00000377,0.00015
 065,-0.00001223,0.00000338,0.00003857,-0.00165975,0.00016007,0.0013315
 6,-0.00000198,-0.00003447,-0.00002316,0.00010877,0.00005262,0.00001015
 ,0.00006597,0.00000558,-0.00000026,0.00000654,-0.00000611,0.00000128,0
 .00002142,0.00004622,-0.00000402,0.00001809,0.00001188,-0.00000672,0.0
 0097509,0.00518047,0.00514147,0.06218366,-0.00005633,-0.00016203,0.000
 05579,-0.00004704,0.00002194,-0.00003026,0.00008496,0.00003585,0.00000
 088,-0.00012293,-0.00009056,0.00023182,0.00131707,-0.00051409,0.000171
 24,-0.00028286,0.00056965,-0.00005633,0.00045269,-0.00023865,-0.000053
 55,-0.00050276,0.00055534,-0.00013419,0.00138233,0.00086654,-0.0007002
 4,-0.00800867,-0.00004737,0.00139654,-0.00009483,-0.00074554,-0.000064
 64,0.00824071,-0.03568712,-0.00779958,0.00013609,0.00015130,0.00041940
 ,0.00018681,0.00007406,-0.00020579,-0.04346507,-0.16312205,-0.10143971
 ,0.00124058,0.00073720,-0.00607327,-0.00000347,-0.00002403,-0.00001724
 ,0.00001474,-0.00003333,0.00000487,0.00004694,-0.00001941,0.00002104,-
 0.00000740,0.00003514,-0.00000246,0.00010889,0.00005024,0.00005713,0.0
 0045425,0.00058044,-0.00035378,0.00005730,-0.00001236,0.00013891,-0.00
 006469,0.00000376,0.00002985,-0.00002854,-0.00011799,-0.00003112,0.000
 00741,-0.00001319,0.00000349,-0.00004603,-0.00016543,-0.00001032,-0.00
 004320,-0.00000292,0.00000285,0.00103329,0.00620621,0.00412578,0.04157
 744,0.19422330,0.00006314,-0.00007884,0.00004453,-0.00006928,0.0000024
 9,-0.00002016,0.00001766,0.00002671,0.00001601,-0.00007030,0.00001348,
 -0.00003137,0.00026966,-0.00011609,-0.00021354,-0.00014019,0.00015195,
 0.00001271,0.00007030,-0.00003781,0.00001641,-0.00014449,0.00052409,-0
 .00013893,0.00023310,-0.00121240,-0.00056753,-0.00164866,0.00025232,0.
 00103250,0.00005667,-0.00001574,0.00018478,0.00676172,0.00542198,0.007
 64732,-0.00004396,0.00027950,0.00000562,0.00005520,-0.00000385,0.00001
 933,-0.03536134,-0.09888022,-0.13184906,-0.00008187,0.00178628,0.00352
 119,-0.00000256,0.00000369,-0.00000602,0.00000707,-0.00001093,-0.00000
 241,0.00000720,-0.00000183,0.00000333,-0.00003284,0.00005521,0.0000038
 1,0.00004835,-0.00000532,-0.00001746,0.00048329,0.00044208,-0.00013716
 ,-0.00012648,0.00013387,0.00004104,0.00009155,0.00006150,-0.00000580,0
 .00000960,-0.00007250,0.00002758,-0.00000289,-0.00000769,0.00001209,0.
 00000403,-0.00001030,-0.00001416,0.00001255,0.00001380,-0.00000548,-0.
 00815846,-0.02093720,-0.01662097,0.03740427,0.11248349,0.13615853,0.00
 018682,0.00004936,0.00008247,-0.00011402,-0.00001355,-0.00001308,0.000
 02766,0.00005439,0.00000797,-0.00009161,0.00008270,0.00015599,-0.00049
 703,-0.00021031,-0.00014935,-0.00048544,-0.00019321,-0.00015864,-0.000
 22349,0.00014593,-0.00002756,0.00028253,0.00003475,-0.00020176,0.00004
 341,-0.00009438,0.00025148,0.00095932,0.00097205,-0.00296366,0.0004900
 2,-0.00000420,0.00014158,-0.01905897,0.00512202,0.00279746,-0.00037466
 ,0.00022427,-0.00013187,-0.00005419,-0.00006353,0.00007889,-0.28535127
 ,-0.04594215,0.01822822,0.00099156,-0.00070391,0.00184737,-0.00000712,
 0.00003832,0.00000564,-0.00000069,0.00001724,-0.00001098,-0.00002389,0
 .00002147,-0.00000420,-0.00002182,0.00003309,0.00002954,-0.00004827,-0
 .00003002,-0.00000618,-0.00001659,0.00026157,0.00017278,-0.00004651,-0
 .00002006,-0.00006904,0.00015648,0.00006880,0.00002820,0.00008103,0.00
 002628,0.00004108,-0.00001547,0.00001010,0.00000221,0.00001806,0.00004
 323,-0.00001255,0.00005904,0.00002363,0.00000743,-0.00394263,-0.001168
 79,-0.00047239,-0.00759922,-0.00272670,0.00090669,0.31434328,-0.000040
 83,-0.00006352,-0.00001931,-0.00001360,0.00000177,-0.00000863,0.000058
 35,0.00006545,-0.00000903,-0.00011097,-0.00038620,-0.00018781,0.001350
 88,0.00007365,-0.00025376,0.00034952,0.00033496,0.00009193,0.00004852,
 0.00010013,0.00004616,0.00007865,0.00041435,-0.00011674,-0.00032736,-0
 .00110971,-0.00013380,0.00083572,-0.00388248,0.00319485,-0.00029489,0.
 00008701,0.00004664,0.03489294,-0.00189422,-0.00232659,0.00027926,-0.0
 0002101,0.00011223,-0.00000338,-0.00002797,-0.00003953,-0.05277748,-0.
 05187535,0.00474105,0.00198199,0.00129645,-0.00059506,0.00000898,-0.00
 001696,0.00000694,-0.00000526,-0.00000449,0.00000230,0.00002082,-0.000
 03184,0.00000292,-0.00002910,0.00005346,-0.00000809,0.00004203,-0.0000
 0804,-0.00001785,-0.00021556,0.00077122,-0.00002529,0.00004131,0.00002
 492,0.00002372,-0.00016316,0.00000876,-0.00002275,-0.00010979,0.000065
 43,-0.00001202,0.00000218,-0.00000041,-0.00000859,-0.00001186,-0.00000
 290,0.00001378,-0.00002354,-0.00002671,0.00000116,-0.00615164,-0.00176
 408,-0.00101451,-0.02205833,-0.00397509,0.00221288,0.04354452,0.062327
 19,-0.00017862,0.00006580,-0.00004068,0.00010597,0.00005625,0.00001110
 ,-0.00003342,-0.00009077,-0.00000858,0.00031846,0.00029506,0.00002536,
 -0.00048430,0.00041943,0.00028036,-0.00001224,-0.00017987,0.00003057,0
 .00008426,-0.00039898,-0.00004003,-0.00039765,0.00010343,0.00029495,0.
 00084773,0.00004514,0.00055704,0.00024643,0.00104624,-0.00070292,-0.00
 005134,0.00000396,-0.00018964,-0.00849520,0.00102089,-0.00009700,0.000
 31066,-0.00005920,0.00014264,-0.00002161,-0.00000368,0.,0.02052966,0.0
 0401072,-0.04658085,-0.00178431,-0.00027538,0.00025984,-0.00000056,-0.
 00000235,-0.00000457,-0.00000030,-0.00000156,0.00000242,-0.00000007,0.
 00000669,-0.00000254,0.00000676,-0.00002548,-0.00002547,0.00000473,0.0
 0001972,0.00003661,0.00022176,-0.00032153,-0.00057939,0.00007926,0.000
 01466,0.00000489,-0.00016293,-0.00005215,0.00003635,-0.00008871,0.0000
 3051,-0.00002799,-0.00000919,0.00002806,-0.00001792,0.00000672,0.00000
 286,-0.00000547,-0.00000743,0.00000113,0.00002401,0.02725833,0.0044496
 2,0.00035232,-0.01909000,-0.00477587,0.00083812,-0.01937628,-0.0054080
 5,0.04532731,-0.00057869,0.00021918,-0.00045511,0.00034549,0.00022876,
 -0.00007462,0.00001406,-0.00034896,0.00013829,-0.00009671,0.00014048,-
 0.00014770,-0.00086140,-0.00010860,0.00080756,0.00177046,0.00080925,0.
 00152901,-0.00008049,-0.00021650,0.00001039,-0.00019150,0.00014223,0.0
 0008948,0.00035696,0.00024367,0.00004249,0.00048998,-0.00133831,0.0008
 3518,-0.00147436,0.00088704,0.00165290,0.00533839,-0.00993304,0.004339
 15,-0.00034432,0.00008945,-0.00043144,-0.00018914,-0.00032190,-0.00033
 132,-0.00081554,-0.00100235,0.00173163,-0.13921416,0.12562875,-0.04595
 560,0.00003149,-0.00006981,-0.00000513,0.00000646,-0.00000408,0.000020
 37,0.00001534,-0.00000847,0.00004225,0.00001418,-0.00000547,-0.0000247
 0,0.00001141,0.00000754,-0.00002103,0.00002281,0.00000144,-0.00005182,
 -0.00002448,-0.00004840,0.00008266,0.00014765,-0.00001600,-0.00000281,
 0.00010232,-0.00006635,0.00006186,0.00011389,-0.00026414,0.00000344,-0
 .00000187,-0.00005726,0.00012619,-0.00004625,-0.00004123,-0.00007912,0
 .00063097,-0.00043663,0.00036131,-0.00001295,0.00015489,-0.00004707,0.
 00049021,-0.00002885,0.00011102,0.14670682,-0.00008148,0.00008168,0.00
 012908,0.00018627,-0.00002537,0.00012270,-0.00016517,-0.00007351,-0.00
 009682,-0.00047325,-0.00000797,-0.00000958,0.00022704,0.00034905,-0.00
 072424,0.00124224,-0.00028619,-0.00111221,-0.00002327,0.00018881,-0.00
 000347,0.00028265,-0.00006533,0.00002381,-0.00035277,-0.00046226,-0.00
 001100,0.00159388,0.00010941,-0.00027557,-0.00014633,-0.00135126,-0.00
 213599,0.00522448,-0.01076938,0.00371009,-0.00019503,0.00001201,-0.000
 11980,-0.00002170,0.00005768,-0.00037996,-0.00169282,-0.00006856,0.002
 80954,0.12041869,-0.19948217,0.06142806,0.00000208,-0.00003493,-0.0000
 1297,-0.00001602,0.00001196,0.00000448,-0.00000126,-0.00001574,0.00000
 138,-0.00000378,0.00001438,0.00001333,0.00000698,-0.00001111,0.0000041
 8,0.00005066,0.00006518,0.00001535,0.00004837,-0.00001391,0.00002860,0
 .00004284,-0.00004497,0.00001076,0.00000300,0.00001521,-0.00005535,0.0
 0001074,-0.00015301,0.00016653,0.00003442,-0.00001247,0.00013376,0.000
 02004,0.00002475,0.00001444,0.00050936,-0.00046450,0.00019211,0.000052
 52,0.00031269,-0.00017541,0.00005168,0.00004582,-0.00018695,-0.1323900
 9,0.21796698,0.00011116,-0.00000037,-0.00021833,-0.00008060,-0.0000878
 6,0.00006133,-0.00021887,0.00013411,-0.00007953,0.00048382,0.00000432,
 0.00014196,0.00023055,0.00033326,-0.00015054,0.00206318,-0.00137117,-0
 .00105068,0.00006176,-0.00026915,-0.00001508,-0.00034887,0.00005808,-0
 .00013339,0.00042367,0.00013006,-0.00012901,-0.00258001,0.00104279,0.0
 0079579,-0.00079433,-0.00091327,-0.00051584,-0.01604848,0.02343427,-0.
 01139115,-0.00020664,0.00029238,-0.00054268,-0.00020087,-0.00053113,0.
 00009518,0.00272375,0.00074525,-0.00477935,-0.03768525,0.05333780,-0.0
 6304072,0.00000705,0.00002204,-0.00003423,-0.00003079,0.00002421,0.000
 01502,-0.00002345,-0.00000324,-0.00000421,-0.00002455,-0.00002350,0.00
 004209,0.00001007,-0.00000625,0.00002634,-0.00008360,-0.00009875,0.000
 00407,-0.00008273,0.00002852,0.00008602,0.00017680,0.,0.00007101,0.000
 07691,-0.00005237,0.00015680,-0.00002908,-0.00006081,-0.00000202,0.000
 02299,0.00013877,0.00004103,0.00006904,0.00002374,0.00000488,-0.000599
 99,0.00176265,-0.00031310,0.00011876,0.00039093,0.00004647,0.00009508,
 -0.00033369,0.00000539,0.04198529,-0.06468560,0.07527175,0.00048901,-0
 .00017438,0.00032281,-0.00030252,-0.00005668,0.00001464,0.00014029,0.0
 0017999,-0.00003517,0.00009142,-0.00006790,0.00008398,0.00022525,-0.00
 010684,-0.00021189,-0.00156174,-0.00025626,-0.00041801,-0.00012461,0.0
 0013918,0.00001952,0.00017330,-0.00032800,-0.00001854,-0.00085774,0.00
 039050,0.00067646,0.00187184,-0.00337912,0.00010079,0.00155703,-0.0005
 0801,-0.00084866,-0.01084062,-0.00149421,0.00801428,-0.00006457,0.0002
 6319,0.00059613,-0.00008202,0.00015797,0.00013534,0.00019050,0.0013294
 5,-0.00068357,-0.26347299,-0.07559311,-0.02918866,-0.00001675,0.000070
 59,-0.00001036,0.00000205,0.00000722,-0.00002055,-0.00002140,0.0000164
 5,-0.00001996,-0.00002075,0.00001410,-0.00000185,-0.00011728,-0.000030
 01,-0.00005933,0.00005757,-0.00006116,0.00001341,0.00014773,-0.0000425
 1,-0.00017683,-0.00008274,-0.00001980,0.00029598,-0.00002208,0.0001061
 3,0.00001190,-0.00014150,0.00013569,-0.00004725,0.00010869,0.00006477,
 -0.00009159,0.00015654,0.00016352,0.00016304,0.00045873,0.00000784,0.0
 0009624,-0.00021291,-0.00056896,-0.00028717,0.00014375,-0.00073863,0.0
 0031064,-0.01412859,-0.00673080,-0.00220367,0.28729573,-0.00022083,0.0
 0011042,-0.00021796,0.00013075,0.00009425,-0.00001309,-0.00000208,-0.0
 0015094,0.00006941,-0.00006964,0.00008622,-0.00005375,0.00008233,0.000
 19954,-0.00032753,0.00073939,0.00012036,0.00029818,-0.00005477,-0.0000
 7517,-0.00000037,-0.00004552,-0.00010331,0.00005220,-0.00045385,0.0002
 9357,0.00010958,0.00088862,-0.00203345,0.00025951,-0.00069812,0.000367
 52,0.00054719,-0.01004726,-0.00285989,0.00582482,-0.00009141,0.0000321
 4,-0.00025062,0.00005759,-0.00020454,-0.00006832,-0.00226477,0.0007816
 7,-0.00037218,-0.07563418,-0.07036396,-0.00985479,0.00001200,-0.000009
 77,0.00000830,-0.00000306,0.00000764,0.00000541,-0.00000376,-0.0000038
 5,0.00000977,-0.00000525,0.00000443,-0.00001213,-0.00006026,-0.0000014
 2,0.00001714,0.00000315,-0.00001068,-0.00006533,0.00001625,-0.00004501
 ,-0.00000018,0.00001958,0.00006019,0.00006976,0.00000316,0.00005118,0.
 00002250,0.00005517,-0.00006209,0.00000727,-0.00005242,0.00000387,0.00
 006137,-0.00006878,0.00000972,-0.00005140,0.00021831,0.00016442,-0.000
 12384,0.00012746,-0.00013399,-0.00031362,0.00072813,-0.00015675,0.0002
 1077,0.02146354,0.00875227,0.00188775,0.08646660,0.07256450,-0.0001403
 4,-0.00000481,-0.00006204,0.00008160,-0.00001932,0.00001282,-0.0000328
 1,-0.00001283,0.00000056,0.00003514,-0.00003408,-0.00000292,-0.0001029
 2,0.00010607,0.00011532,0.00035608,0.00012721,0.00001725,0.00005439,-0
 .00000754,0.00000674,0.00012298,0.00045563,-0.00003971,0.00169698,-0.0
 0070304,-0.00055068,0.00134781,0.00503250,-0.00218721,-0.00041801,0.00
 021250,0.00005287,0.03199124,0.01005183,-0.00566087,0.00048321,-0.0000
 2034,0.00000133,0.00002196,-0.00019349,-0.00000005,0.00203976,-0.00128
 237,0.00062474,-0.03419827,-0.01038530,-0.04586924,0.00000936,-0.00002
 008,-0.00000399,-0.00000781,-0.00000061,0.00000669,0.00001132,-0.00001
 288,-0.00000416,0.00001549,-0.00001826,-0.00000035,0.00018190,0.000023
 76,0.00001725,-0.00006877,0.00002009,-0.00003332,0.00000278,0.00001070
 ,0.00007110,-0.00029637,0.00006930,-0.00016375,-0.00018607,0.00004385,
 -0.00001288,-0.00005772,0.00005557,-0.00002768,-0.00001018,0.00002987,
 -0.00000578,-0.00002853,-0.00002289,0.00003647,0.00010948,-0.00025652,
 0.00006450,-0.00048990,0.00036298,-0.00020503,-0.00080803,-0.00000596,
 0.00036562,-0.00687186,-0.00410317,-0.00109669,0.02443138,0.00633470,0
 .05612868,0.00003870,-0.00008734,-0.00000087,0.00000513,0.00007769,0.0
 0000507,0.00003581,-0.00005833,0.00002527,0.00039739,0.00019573,-0.000
 06074,-0.00059892,0.00075038,-0.00001334,-0.00025640,-0.00034926,0.000
 12693,-0.00018952,-0.00029055,0.00008700,-0.00023779,0.00013377,-0.000
 22097,0.00002596,-0.00055824,-0.00039314,0.00315911,0.00073271,0.00030
 176,0.00040023,-0.00014242,-0.00008589,-0.00038320,0.00736077,0.013204
 12,-0.00013088,0.00018378,0.00035020,-0.00012868,0.00005233,0.00001850
 ,-0.00003076,0.00050983,-0.00092657,-0.04833808,-0.00749080,-0.0081123
 2,-0.00000345,0.00002393,-0.00002621,0.00000144,0.00000225,0.00000057,
 -0.00001164,0.00001009,0.00001112,-0.00000382,-0.00000258,0.00001634,0
 .00000906,0.00000617,0.00002332,0.00004293,0.00002082,0.00011093,0.000
 10229,-0.00000284,-0.00007689,-0.00002195,-0.00000326,0.00018598,0.000
 04987,0.00007174,0.00005580,-0.00003764,0.00000408,-0.00001684,0.00006
 591,0.00002870,-0.00000953,0.00008090,0.00010974,0.00008866,-0.0002105
 0,0.00003703,0.00006607,-0.00002317,-0.00042692,-0.00028448,-0.0003003
 0,-0.00043143,-0.00024823,0.00145155,0.01228580,0.01258192,-0.00103862
 ,-0.02123607,-0.01927528,0.04607903,0.00026238,-0.00010914,0.00035050,
 -0.00019685,-0.00006333,0.00000640,0.00013918,0.00009739,0.00000065,-0
 .00021474,-0.00010780,-0.00007336,0.00015786,-0.00015443,-0.00045237,-
 0.00155636,0.00022880,-0.00029764,0.00006526,0.00025523,0.00007089,0.0
 0025254,-0.00010045,-0.00021423,-0.00005485,-0.00049423,-0.00053592,0.
 00171537,0.00057515,0.00105342,0.00141737,-0.00095691,-0.00148080,-0.0
 0080884,0.00933659,0.01082232,0.00009498,-0.00005054,0.00055212,0.0002
 6169,0.00055348,-0.00004530,0.00063438,0.00352147,0.00268209,-0.006942
 83,-0.16832436,-0.11181618,-0.00000829,0.00000125,-0.00001530,0.000026
 44,-0.00002785,-0.00002107,0.00002321,0.00000292,-0.00002116,0.0000274
 2,0.00000842,0.00000720,0.00004811,0.00002472,-0.00002618,-0.00003082,
 0.00005632,0.00012852,0.00006643,0.00001529,-0.00005244,-0.00010610,0.
 00005106,0.00004405,-0.00007162,-0.00002454,-0.00016679,-0.00000146,0.
 00009032,0.00003134,-0.00000538,-0.00011792,-0.00007251,-0.00002623,0.
 00006549,0.00003060,0.00004392,0.00022983,-0.00023521,-0.00064556,0.00
 068147,-0.00198556,-0.00038272,-0.00042285,-0.00004912,-0.00330976,-0.
 01466524,-0.01535375,0.00064319,-0.00748910,-0.00583309,0.00848269,0.1
 7731349,-0.00006738,-0.00038877,0.00004287,-0.00000423,0.00001869,-0.0
 0001518,-0.00013380,-0.00007815,0.00001796,0.00007859,0.00018156,0.000
 08757,0.00085784,-0.00090157,0.00013371,0.00081537,0.00067356,0.000265
 24,0.00073826,-0.00023463,-0.00005252,-0.00076930,0.00000166,0.0002079
 4,0.00141652,0.00147790,-0.00088790,-0.00821549,-0.00074635,0.00003080
 ,-0.00075630,0.00040841,0.00054496,0.01119177,-0.00889553,-0.03580015,
 0.00013476,0.00013496,-0.00024246,0.00001171,-0.00001746,-0.00009323,0
 .00195133,-0.00355758,0.00145869,-0.00883249,-0.11419917,-0.14532351,0
 .00001670,-0.00004172,-0.00006437,0.00000319,-0.00003585,0.00001610,0.
 00002572,0.00000333,0.00003537,-0.00000215,-0.00002371,-0.00002937,0.0
 0002668,0.00005919,0.00003016,0.00002655,0.00007124,-0.00012583,-0.000
 06188,-0.00005554,0.00015693,-0.00001199,0.00002250,-0.00001289,-0.000
 05573,-0.00016696,0.00001006,0.00003207,-0.00007890,0.00000751,0.00000
 030,-0.00003108,0.00002757,-0.00004104,-0.00001204,-0.00002798,0.00015
 310,0.00033289,0.00055819,-0.00011132,0.00185136,0.00020372,-0.0004745
 0,0.00005049,-0.00027185,0.00052888,0.00527988,0.00663139,-0.00096347,
 -0.00407050,-0.00159562,0.00249171,0.12296789,0.17407613\\0.00007553,-
 0.00004456,0.00002602,-0.00006385,-0.00001270,-0.00000940,-0.00002154,
 0.00004436,-0.00000460,0.00011764,0.00000045,-0.00000048,-0.00012302,0
 .00000134,-0.00000063,0.00004971,0.00007217,-0.00002126,-0.00002261,-0
 .00004363,0.00000558,-0.00006204,0.00001223,0.00000828,0.00007424,0.00
 004160,-0.00002464,0.00005272,-0.00007260,0.00002367,-0.00003181,-0.00
 004836,0.00003070,-0.00003208,0.00005555,-0.00002730,0.00000972,0.0000
 0239,-0.00003816,0.00001025,0.00005253,-0.00000165,0.00001274,-0.00005
 440,0.00000157,0.00001166,-0.00000295,0.00003315,-0.00000572,0.0000176
 8,-0.00000883,0.00001032,0.00001229,0.00000062,-0.00000508,-0.00000765
 ,-0.00000066,-0.00000499,0.00000791,0.00000061,0.00001020,-0.00001210,
 -0.00000052,-0.00000806,-0.00001723,0.00000886,-0.00001568,-0.00000415
 ,0.00000185,-0.00000337,0.00000731,0.00000142,-0.00000020,0.00000193,0
 .00001102,-0.00000550,-0.00000503,-0.00000618,-0.00000303,-0.00001170,
 -0.00000757,0.00000028,-0.00000564,-0.00000091,-0.00000490,0.00000646,
 0.00000498,-0.00000222,0.00001135,0.00000827,-0.00000071,0.00000648,0.
 00000118,-0.00001439,-0.00000233,-0.00000343,-0.00000280,-0.00000648,-
 0.00000203,-0.00000141,-0.00000252,-0.00000952\\\@


 THE RED LIGHT IS ALWAYS LONGER THAN THE GREEN LIGHT.

                     -- PETER'S THEORY OF RELATIVITY
 Job cpu time:       0 days  1 hours 22 minutes 45.7 seconds.
 File lengths (MBytes):  RWF=    514 Int=      0 D2E=      0 Chk=     13 Scr=      1
 Normal termination of Gaussian 09 at Thu Jun 20 14:47:03 2024.
