 Entering Gaussian System, Link 0=g09
 Input=b3lypD3DMAN.gjf
 Output=b3lypD3DMAN.log
 Initial command:
 /home/c612/g09E/g09/l1.exe "/mnt/ja_sm883/scratch/Gau-1712404.inp" -scrdir="/mnt/ja_sm883/scratch/"
 Default is to use a total of  18 processors:
                               18 via shared-memory
                                1 via Linda
 Entering Link 1 = /home/c612/g09E/g09/l1.exe PID=   1712411.
  
 Copyright (c) 1988,1990,1992,1993,1995,1998,2003,2009,2015,
            Gaussian, Inc.  All Rights Reserved.
  
 This is part of the Gaussian(R) 09 program.  It is based on
 the Gaussian(R) 03 system (copyright 2003, Gaussian, Inc.),
 the Gaussian(R) 98 system (copyright 1998, Gaussian, Inc.),
 the Gaussian(R) 94 system (copyright 1995, Gaussian, Inc.),
 the Gaussian 92(TM) system (copyright 1992, Gaussian, Inc.),
 the Gaussian 90(TM) system (copyright 1990, Gaussian, Inc.),
 the Gaussian 88(TM) system (copyright 1988, Gaussian, Inc.),
 the Gaussian 86(TM) system (copyright 1986, Carnegie Mellon
 University), and the Gaussian 82(TM) system (copyright 1983,
 Carnegie Mellon University). Gaussian is a federally registered
 trademark of Gaussian, Inc.
  
 This software contains proprietary and confidential information,
 including trade secrets, belonging to Gaussian, Inc.
  
 This software is provided under written license and may be
 used, copied, transmitted, or stored only in accord with that
 written license.
  
 The following legend is applicable only to US Government
 contracts under FAR:
  
                    RESTRICTED RIGHTS LEGEND
  
 Use, reproduction and disclosure by the US Government is
 subject to restrictions as set forth in subparagraphs (a)
 and (c) of the Commercial Computer Software - Restricted
 Rights clause in FAR 52.227-19.
  
 Gaussian, Inc.
 340 Quinnipiac St., Bldg. 40, Wallingford CT 06492
  
  
 ---------------------------------------------------------------
 Warning -- This program may not be used in any manner that
 competes with the business of Gaussian, Inc. or will provide
 assistance to any competitor of Gaussian, Inc.  The licensee
 of this program is prohibited from giving any competitor of
 Gaussian, Inc. access to this program.  By using this program,
 the user acknowledges that Gaussian, Inc. is engaged in the
 business of creating and licensing software in the field of
 computational chemistry and represents and warrants to the
 licensee that it is not a competitor of Gaussian, Inc. and that
 it will not use this program in any manner prohibited above.
 ---------------------------------------------------------------
  

 Cite this work as:
 Gaussian 09, Revision E.01,
 M. J. Frisch, G. W. Trucks, H. B. Schlegel, G. E. Scuseria, 
 M. A. Robb, J. R. Cheeseman, G. Scalmani, V. Barone, B. Mennucci, 
 G. A. Petersson, H. Nakatsuji, M. Caricato, X. Li, H. P. Hratchian, 
 A. F. Izmaylov, J. Bloino, G. Zheng, J. L. Sonnenberg, M. Hada, 
 M. Ehara, K. Toyota, R. Fukuda, J. Hasegawa, M. Ishida, T. Nakajima, 
 Y. Honda, O. Kitao, H. Nakai, T. Vreven, J. A. Montgomery, Jr., 
 J. E. Peralta, F. Ogliaro, M. Bearpark, J. J. Heyd, E. Brothers, 
 K. N. Kudin, V. N. Staroverov, T. Keith, R. Kobayashi, J. Normand, 
 K. Raghavachari, A. Rendell, J. C. Burant, S. S. Iyengar, J. Tomasi, 
 M. Cossi, N. Rega, J. M. Millam, M. Klene, J. E. Knox, J. B. Cross, 
 V. Bakken, C. Adamo, J. Jaramillo, R. Gomperts, R. E. Stratmann, 
 O. Yazyev, A. J. Austin, R. Cammi, C. Pomelli, J. W. Ochterski, 
 R. L. Martin, K. Morokuma, V. G. Zakrzewski, G. A. Voth, 
 P. Salvador, J. J. Dannenberg, S. Dapprich, A. D. Daniels, 
 O. Farkas, J. B. Foresman, J. V. Ortiz, J. Cioslowski, 
 and D. J. Fox, Gaussian, Inc., Wallingford CT, 2013.
 
 ******************************************
 Gaussian 09:  ES64L-G09RevE.01 30-Nov-2015
                17-Dec-2024 
 ******************************************
 %chk=b3lypD3DMAN.chk
 ----------------------------------------------------
 # opt freq b3lyp/6-31+g(d,p) EmpiricalDispersion=GD3
 ----------------------------------------------------
 1/14=-1,18=20,19=15,26=3,38=1/1,3;
 2/9=110,12=2,17=6,18=5,40=1/2;
 3/5=1,6=6,7=111,11=2,16=1,25=1,30=1,71=1,74=-5,124=31/1,2,3;
 4//1;
 5/5=2,38=5/2;
 6/7=2,8=2,9=2,10=2,28=1/1;
 7//1,2,3,16;
 1/14=-1,18=20,19=15,26=3/3(2);
 2/9=110/2;
 99//99;
 2/9=110/2;
 3/5=1,6=6,7=111,11=2,16=1,25=1,30=1,71=1,74=-5,124=31/1,2,3;
 4/5=5,16=3,69=1/1;
 5/5=2,38=5/2;
 7//1,2,3,16;
 1/14=-1,18=20,19=15,26=3/3(-5);
 2/9=110/2;
 6/7=2,8=2,9=2,10=2,19=2,28=1/1;
 99/9=1/99;
 ----------
 [No Title]
 ----------
 Symbolic Z-matrix:
 Charge =  0 Multiplicity = 1
 C                     0.68179   2.43436   0.23277 
 C                     2.0813    2.39137   0.37759 
 C                     2.74936   1.20545   0.21114 
 C                     2.02994   0.0002    0. 
 C                     0.59207   0.00006   0. 
 C                    -0.06945   1.28941  -0.00738 
 C                     2.74959  -1.20492  -0.21114 
 C                     2.08176  -2.39097  -0.37759 
 C                     0.68226  -2.43423  -0.23277 
 C                    -0.0692   -1.28943   0.00738 
 N                    -1.44898   1.39117  -0.27144 
 N                    -1.44871  -1.39145   0.27144 
 C                    -1.89088   0.90343  -1.57118 
 C                    -2.11867   2.62062   0.09382 
 C                    -2.11816  -2.62103  -0.09382 
 C                    -1.89071  -0.90378   1.57117 
 H                     0.19219   3.40148   0.24579 
 H                     2.62705   3.31363   0.55855 
 H                     3.83484   1.16519   0.24297 
 H                     3.83507  -1.16445  -0.24296 
 H                     2.62769  -3.31312  -0.55855 
 H                     0.19285  -3.40144  -0.24579 
 H                    -1.33551   0.01158  -1.85542 
 H                    -2.95412   0.64353  -1.52848 
 H                    -1.74814   1.66924  -2.35444 
 H                    -1.87608   2.89594   1.12411 
 H                    -1.87322   3.4744   -0.56486 
 H                    -3.19993   2.45898   0.02984 
 H                    -1.87552  -2.89631  -1.1241 
 H                    -1.87254  -3.47477   0.56487 
 H                    -3.19945  -2.4596   -0.02983 
 H                    -1.33552  -0.01182   1.8554 
 H                    -2.95401  -0.6441    1.52846 
 H                    -1.74781  -1.66955   2.35444 
 

 GradGradGradGradGradGradGradGradGradGradGradGradGradGradGradGradGradGrad
 Berny optimization.
 Initialization pass.
                           ----------------------------
                           !    Initial Parameters    !
                           ! (Angstroms and Degrees)  !
 --------------------------                            --------------------------
 ! Name  Definition              Value          Derivative Info.                !
 --------------------------------------------------------------------------------
 ! R1    R(1,2)                  1.4076         estimate D2E/DX2                !
 ! R2    R(1,6)                  1.3903         estimate D2E/DX2                !
 ! R3    R(1,17)                 1.0841         estimate D2E/DX2                !
 ! R4    R(2,3)                  1.3713         estimate D2E/DX2                !
 ! R5    R(2,18)                 1.0868         estimate D2E/DX2                !
 ! R6    R(3,4)                  1.4194         estimate D2E/DX2                !
 ! R7    R(3,19)                 1.0867         estimate D2E/DX2                !
 ! R8    R(4,5)                  1.4379         estimate D2E/DX2                !
 ! R9    R(4,7)                  1.4194         estimate D2E/DX2                !
 ! R10   R(5,6)                  1.4492         estimate D2E/DX2                !
 ! R11   R(5,10)                 1.4492         estimate D2E/DX2                !
 ! R12   R(6,11)                 1.4083         estimate D2E/DX2                !
 ! R13   R(7,8)                  1.3713         estimate D2E/DX2                !
 ! R14   R(7,20)                 1.0867         estimate D2E/DX2                !
 ! R15   R(8,9)                  1.4076         estimate D2E/DX2                !
 ! R16   R(8,21)                 1.0868         estimate D2E/DX2                !
 ! R17   R(9,10)                 1.3903         estimate D2E/DX2                !
 ! R18   R(9,22)                 1.0841         estimate D2E/DX2                !
 ! R19   R(10,12)                1.4083         estimate D2E/DX2                !
 ! R20   R(11,13)                1.4569         estimate D2E/DX2                !
 ! R21   R(11,14)                1.4469         estimate D2E/DX2                !
 ! R22   R(12,15)                1.4469         estimate D2E/DX2                !
 ! R23   R(12,16)                1.4569         estimate D2E/DX2                !
 ! R24   R(13,23)                1.0884         estimate D2E/DX2                !
 ! R25   R(13,24)                1.0954         estimate D2E/DX2                !
 ! R26   R(13,25)                1.1047         estimate D2E/DX2                !
 ! R27   R(14,26)                1.0937         estimate D2E/DX2                !
 ! R28   R(14,27)                1.1059         estimate D2E/DX2                !
 ! R29   R(14,28)                1.0952         estimate D2E/DX2                !
 ! R30   R(15,29)                1.0937         estimate D2E/DX2                !
 ! R31   R(15,30)                1.1059         estimate D2E/DX2                !
 ! R32   R(15,31)                1.0952         estimate D2E/DX2                !
 ! R33   R(16,32)                1.0884         estimate D2E/DX2                !
 ! R34   R(16,33)                1.0954         estimate D2E/DX2                !
 ! R35   R(16,34)                1.1047         estimate D2E/DX2                !
 ! A1    A(2,1,6)              121.9951         estimate D2E/DX2                !
 ! A2    A(2,1,17)             118.3612         estimate D2E/DX2                !
 ! A3    A(6,1,17)             119.5199         estimate D2E/DX2                !
 ! A4    A(1,2,3)              119.8865         estimate D2E/DX2                !
 ! A5    A(1,2,18)             119.3722         estimate D2E/DX2                !
 ! A6    A(3,2,18)             120.6274         estimate D2E/DX2                !
 ! A7    A(2,3,4)              120.3628         estimate D2E/DX2                !
 ! A8    A(2,3,19)             121.0054         estimate D2E/DX2                !
 ! A9    A(4,3,19)             118.631          estimate D2E/DX2                !
 ! A10   A(3,4,5)              120.4585         estimate D2E/DX2                !
 ! A11   A(3,4,7)              119.0828         estimate D2E/DX2                !
 ! A12   A(5,4,7)              120.4586         estimate D2E/DX2                !
 ! A13   A(4,5,6)              117.1546         estimate D2E/DX2                !
 ! A14   A(4,5,10)             117.1545         estimate D2E/DX2                !
 ! A15   A(6,5,10)             125.6909         estimate D2E/DX2                !
 ! A16   A(1,6,5)              119.0238         estimate D2E/DX2                !
 ! A17   A(1,6,11)             120.1459         estimate D2E/DX2                !
 ! A18   A(5,6,11)             120.8245         estimate D2E/DX2                !
 ! A19   A(4,7,8)              120.3627         estimate D2E/DX2                !
 ! A20   A(4,7,20)             118.631          estimate D2E/DX2                !
 ! A21   A(8,7,20)             121.0054         estimate D2E/DX2                !
 ! A22   A(7,8,9)              119.8864         estimate D2E/DX2                !
 ! A23   A(7,8,21)             120.6274         estimate D2E/DX2                !
 ! A24   A(9,8,21)             119.3722         estimate D2E/DX2                !
 ! A25   A(8,9,10)             121.9951         estimate D2E/DX2                !
 ! A26   A(8,9,22)             118.3612         estimate D2E/DX2                !
 ! A27   A(10,9,22)            119.5198         estimate D2E/DX2                !
 ! A28   A(5,10,9)             119.0238         estimate D2E/DX2                !
 ! A29   A(5,10,12)            120.8245         estimate D2E/DX2                !
 ! A30   A(9,10,12)            120.1459         estimate D2E/DX2                !
 ! A31   A(6,11,13)            116.1185         estimate D2E/DX2                !
 ! A32   A(6,11,14)            117.8704         estimate D2E/DX2                !
 ! A33   A(13,11,14)           111.6728         estimate D2E/DX2                !
 ! A34   A(10,12,15)           117.8704         estimate D2E/DX2                !
 ! A35   A(10,12,16)           116.1185         estimate D2E/DX2                !
 ! A36   A(15,12,16)           111.6728         estimate D2E/DX2                !
 ! A37   A(11,13,23)           110.6427         estimate D2E/DX2                !
 ! A38   A(11,13,24)           109.8208         estimate D2E/DX2                !
 ! A39   A(11,13,25)           111.1787         estimate D2E/DX2                !
 ! A40   A(23,13,24)           108.1231         estimate D2E/DX2                !
 ! A41   A(23,13,25)           108.4778         estimate D2E/DX2                !
 ! A42   A(24,13,25)           108.5145         estimate D2E/DX2                !
 ! A43   A(11,14,26)           110.4301         estimate D2E/DX2                !
 ! A44   A(11,14,27)           113.7608         estimate D2E/DX2                !
 ! A45   A(11,14,28)           108.4708         estimate D2E/DX2                !
 ! A46   A(26,14,27)           108.5119         estimate D2E/DX2                !
 ! A47   A(26,14,28)           108.1307         estimate D2E/DX2                !
 ! A48   A(27,14,28)           107.3536         estimate D2E/DX2                !
 ! A49   A(12,15,29)           110.43           estimate D2E/DX2                !
 ! A50   A(12,15,30)           113.7608         estimate D2E/DX2                !
 ! A51   A(12,15,31)           108.4706         estimate D2E/DX2                !
 ! A52   A(29,15,30)           108.512          estimate D2E/DX2                !
 ! A53   A(29,15,31)           108.1308         estimate D2E/DX2                !
 ! A54   A(30,15,31)           107.3537         estimate D2E/DX2                !
 ! A55   A(12,16,32)           110.6428         estimate D2E/DX2                !
 ! A56   A(12,16,33)           109.8207         estimate D2E/DX2                !
 ! A57   A(12,16,34)           111.1787         estimate D2E/DX2                !
 ! A58   A(32,16,33)           108.123          estimate D2E/DX2                !
 ! A59   A(32,16,34)           108.4778         estimate D2E/DX2                !
 ! A60   A(33,16,34)           108.5145         estimate D2E/DX2                !
 ! D1    D(6,1,2,3)              3.4924         estimate D2E/DX2                !
 ! D2    D(6,1,2,18)           179.6371         estimate D2E/DX2                !
 ! D3    D(17,1,2,3)          -172.4402         estimate D2E/DX2                !
 ! D4    D(17,1,2,18)            3.7045         estimate D2E/DX2                !
 ! D5    D(2,1,6,5)              5.1451         estimate D2E/DX2                !
 ! D6    D(2,1,6,11)          -173.9853         estimate D2E/DX2                !
 ! D7    D(17,1,6,5)          -178.9682         estimate D2E/DX2                !
 ! D8    D(17,1,6,11)            1.9015         estimate D2E/DX2                !
 ! D9    D(1,2,3,4)             -5.0862         estimate D2E/DX2                !
 ! D10   D(1,2,3,19)           175.2525         estimate D2E/DX2                !
 ! D11   D(18,2,3,4)           178.8183         estimate D2E/DX2                !
 ! D12   D(18,2,3,19)           -0.8431         estimate D2E/DX2                !
 ! D13   D(2,3,4,5)             -1.9714         estimate D2E/DX2                !
 ! D14   D(2,3,4,7)            178.0287         estimate D2E/DX2                !
 ! D15   D(19,3,4,5)           177.6979         estimate D2E/DX2                !
 ! D16   D(19,3,4,7)            -2.302          estimate D2E/DX2                !
 ! D17   D(3,4,5,6)             10.2648         estimate D2E/DX2                !
 ! D18   D(3,4,5,10)          -169.7352         estimate D2E/DX2                !
 ! D19   D(7,4,5,6)           -169.7352         estimate D2E/DX2                !
 ! D20   D(7,4,5,10)            10.2648         estimate D2E/DX2                !
 ! D21   D(3,4,7,8)            178.0286         estimate D2E/DX2                !
 ! D22   D(3,4,7,20)            -2.3021         estimate D2E/DX2                !
 ! D23   D(5,4,7,8)             -1.9714         estimate D2E/DX2                !
 ! D24   D(5,4,7,20)           177.698          estimate D2E/DX2                !
 ! D25   D(4,5,6,1)            -11.7081         estimate D2E/DX2                !
 ! D26   D(4,5,6,11)           167.4162         estimate D2E/DX2                !
 ! D27   D(10,5,6,1)           168.2919         estimate D2E/DX2                !
 ! D28   D(10,5,6,11)          -12.5838         estimate D2E/DX2                !
 ! D29   D(4,5,10,9)           -11.7081         estimate D2E/DX2                !
 ! D30   D(4,5,10,12)          167.4163         estimate D2E/DX2                !
 ! D31   D(6,5,10,9)           168.2919         estimate D2E/DX2                !
 ! D32   D(6,5,10,12)          -12.5837         estimate D2E/DX2                !
 ! D33   D(1,6,11,13)          118.6793         estimate D2E/DX2                !
 ! D34   D(1,6,11,14)          -17.7519         estimate D2E/DX2                !
 ! D35   D(5,6,11,13)          -60.4352         estimate D2E/DX2                !
 ! D36   D(5,6,11,14)          163.1337         estimate D2E/DX2                !
 ! D37   D(4,7,8,9)             -5.0862         estimate D2E/DX2                !
 ! D38   D(4,7,8,21)           178.8183         estimate D2E/DX2                !
 ! D39   D(20,7,8,9)           175.2524         estimate D2E/DX2                !
 ! D40   D(20,7,8,21)           -0.8431         estimate D2E/DX2                !
 ! D41   D(7,8,9,10)             3.4924         estimate D2E/DX2                !
 ! D42   D(7,8,9,22)          -172.4401         estimate D2E/DX2                !
 ! D43   D(21,8,9,10)          179.6371         estimate D2E/DX2                !
 ! D44   D(21,8,9,22)            3.7045         estimate D2E/DX2                !
 ! D45   D(8,9,10,5)             5.145          estimate D2E/DX2                !
 ! D46   D(8,9,10,12)         -173.9854         estimate D2E/DX2                !
 ! D47   D(22,9,10,5)         -178.9682         estimate D2E/DX2                !
 ! D48   D(22,9,10,12)           1.9014         estimate D2E/DX2                !
 ! D49   D(5,10,12,15)         163.134          estimate D2E/DX2                !
 ! D50   D(5,10,12,16)         -60.4346         estimate D2E/DX2                !
 ! D51   D(9,10,12,15)         -17.7514         estimate D2E/DX2                !
 ! D52   D(9,10,12,16)         118.6799         estimate D2E/DX2                !
 ! D53   D(6,11,13,23)          37.6468         estimate D2E/DX2                !
 ! D54   D(6,11,13,24)         156.9294         estimate D2E/DX2                !
 ! D55   D(6,11,13,25)         -82.9621         estimate D2E/DX2                !
 ! D56   D(14,11,13,23)        176.6795         estimate D2E/DX2                !
 ! D57   D(14,11,13,24)        -64.0379         estimate D2E/DX2                !
 ! D58   D(14,11,13,25)         56.0706         estimate D2E/DX2                !
 ! D59   D(6,11,14,26)         -49.4178         estimate D2E/DX2                !
 ! D60   D(6,11,14,27)          72.8704         estimate D2E/DX2                !
 ! D61   D(6,11,14,28)        -167.7467         estimate D2E/DX2                !
 ! D62   D(13,11,14,26)        172.3352         estimate D2E/DX2                !
 ! D63   D(13,11,14,27)        -65.3766         estimate D2E/DX2                !
 ! D64   D(13,11,14,28)         54.0063         estimate D2E/DX2                !
 ! D65   D(10,12,15,29)        -49.4181         estimate D2E/DX2                !
 ! D66   D(10,12,15,30)         72.8701         estimate D2E/DX2                !
 ! D67   D(10,12,15,31)       -167.747          estimate D2E/DX2                !
 ! D68   D(16,12,15,29)        172.3347         estimate D2E/DX2                !
 ! D69   D(16,12,15,30)        -65.377          estimate D2E/DX2                !
 ! D70   D(16,12,15,31)         54.0058         estimate D2E/DX2                !
 ! D71   D(10,12,16,32)         37.6473         estimate D2E/DX2                !
 ! D72   D(10,12,16,33)        156.9298         estimate D2E/DX2                !
 ! D73   D(10,12,16,34)        -82.9618         estimate D2E/DX2                !
 ! D74   D(15,12,16,32)        176.6801         estimate D2E/DX2                !
 ! D75   D(15,12,16,33)        -64.0374         estimate D2E/DX2                !
 ! D76   D(15,12,16,34)         56.0711         estimate D2E/DX2                !
 --------------------------------------------------------------------------------
 Trust Radius=3.00D-01 FncErr=1.00D-07 GrdErr=1.00D-06
 Number of steps in this run=    181 maximum allowed number of steps=    204.
 GradGradGradGradGradGradGradGradGradGradGradGradGradGradGradGradGradGrad

                          Input orientation:                          
 ---------------------------------------------------------------------
 Center     Atomic      Atomic             Coordinates (Angstroms)
 Number     Number       Type             X           Y           Z
 ---------------------------------------------------------------------
      1          6           0        0.681787    2.434356    0.232772
      2          6           0        2.081296    2.391374    0.377594
      3          6           0        2.749356    1.205451    0.211140
      4          6           0        2.029943    0.000195    0.000000
      5          6           0        0.592068    0.000057    0.000000
      6          6           0       -0.069448    1.289413   -0.007378
      7          6           0        2.749590   -1.204921   -0.211139
      8          6           0        2.081759   -2.390974   -0.377593
      9          6           0        0.682259   -2.434226   -0.232771
     10          6           0       -0.069198   -1.289428    0.007378
     11          7           0       -1.448978    1.391169   -0.271439
     12          7           0       -1.448709   -1.391451    0.271437
     13          6           0       -1.890881    0.903425   -1.571175
     14          6           0       -2.118666    2.620615    0.093823
     15          6           0       -2.118156   -2.621030   -0.093817
     16          6           0       -1.890711   -0.903780    1.571167
     17          1           0        0.192189    3.401476    0.245792
     18          1           0        2.627048    3.313626    0.558547
     19          1           0        3.834841    1.165192    0.242965
     20          1           0        3.835067   -1.164452   -0.242963
     21          1           0        2.627689   -3.313121   -0.558545
     22          1           0        0.192847   -3.401440   -0.245790
     23          1           0       -1.335508    0.011584   -1.855416
     24          1           0       -2.954122    0.643530   -1.528475
     25          1           0       -1.748137    1.669235   -2.354440
     26          1           0       -1.876084    2.895937    1.124106
     27          1           0       -1.873221    3.474403   -0.564862
     28          1           0       -3.199932    2.458979    0.029838
     29          1           0       -1.875523   -2.896308   -1.124099
     30          1           0       -1.872542   -3.474766    0.564872
     31          1           0       -3.199453   -2.459603   -0.029829
     32          1           0       -1.335521   -0.011822    1.855399
     33          1           0       -2.954005   -0.644101    1.528462
     34          1           0       -1.747814   -1.669551    2.354442
 ---------------------------------------------------------------------
                    Distance matrix (angstroms):
                    1          2          3          4          5
     1  C    0.000000
     2  C    1.407639   0.000000
     3  C    2.405310   1.371286   0.000000
     4  C    2.792284   2.421353   1.419428   0.000000
     5  C    2.447048   2.842318   2.480211   1.437875   0.000000
     6  C    1.390295   2.447084   2.828508   2.463652   1.449171
     7  C    4.209181   3.704937   2.447083   1.419428   2.480212
     8  C    5.061252   4.841607   3.704938   2.421353   2.842320
     9  C    4.890789   5.061251   4.209180   2.792282   2.447049
    10  C    3.805437   4.279017   3.769640   2.463651   1.449172
    11  N    2.425413   3.726190   4.230057   3.756512   2.484903
    12  N    4.379190   5.175130   4.936728   3.756511   2.484903
    13  C    3.495225   4.667963   4.979926   4.319407   3.074036
    14  C    2.810078   4.215775   5.070906   4.907786   3.771499
    15  C    5.788201   6.556052   6.199002   4.907784   3.771500
    16  C    4.421787   5.297121   5.275296   4.319406   3.074033
    17  H    1.084065   2.146253   3.370880   3.873818   3.433652
    18  H    2.159464   1.086802   2.140106   3.412819   3.928468
    19  H    3.398916   2.143961   1.086697   2.161922   3.454294
    20  H    4.808422   4.013066   2.646019   2.161922   3.454295
    21  H    6.119331   5.806562   4.585271   3.412819   3.928470
    22  H    5.875764   6.124667   5.288475   3.873817   3.433653
    23  H    3.781512   4.724858   4.730971   3.843040   2.675491
    24  H    4.419150   5.660697   5.989297   5.252715   3.914812
    25  H    3.630924   4.759207   5.198532   4.754258   3.715656
    26  H    2.747770   4.058660   5.008587   4.990589   3.967557
    27  H    2.871582   4.207063   5.207546   5.255842   4.297418
    28  H    3.887098   5.293097   6.082617   5.779109   4.519563
    29  H    6.066046   6.772819   6.324302   4.990590   3.967560
    30  H    6.446131   7.076688   6.587222   5.255837   4.297415
    31  H    6.251705   7.182220   6.991353   5.779107   4.519563
    32  H    3.561774   4.431015   4.568540   3.843045   2.675490
    33  H    4.937073   5.991065   6.138771   5.252718   3.914814
    34  H    5.219818   5.921243   5.751862   4.754250   3.715647
                    6          7          8          9         10
     6  C    0.000000
     7  C    3.769641   0.000000
     8  C    4.279018   1.371287   0.000000
     9  C    3.805437   2.405310   1.407638   0.000000
    10  C    2.578883   2.828508   2.447084   1.390296   0.000000
    11  N    1.408256   4.936729   5.175131   4.379191   3.027727
    12  N    3.027727   4.230058   3.726190   2.425413   1.408257
    13  C    2.431474   5.275300   5.297129   4.421797   3.258675
    14  C    2.445738   6.199003   6.556053   5.788200   4.415453
    15  C    4.415455   5.070905   4.215773   2.810076   2.445738
    16  C    3.258665   4.979929   4.667968   3.495230   2.431475
    17  H    2.143212   5.288476   6.124668   5.875765   4.704226
    18  H    3.418889   4.585270   5.806562   6.119329   5.362988
    19  H    3.914278   2.646019   4.013067   4.808421   4.617595
    20  H    4.617596   1.086697   2.143961   3.398916   3.914278
    21  H    5.362989   2.140107   1.086802   2.159464   3.418889
    22  H    4.704226   3.370880   2.146253   1.084065   2.143212
    23  H    2.578953   4.568540   4.431022   3.561790   2.601187
    24  H    3.324492   6.138768   5.991063   4.937074   3.797099
    25  H    2.910492   5.751874   5.921260   5.219837   4.141341
    26  H    2.669290   6.324300   6.772817   6.066043   4.693527
    27  H    2.887658   6.587228   7.076693   6.446135   5.126016
    28  H    3.342035   6.991355   7.182221   6.251706   4.883908
    29  H    4.693531   5.008588   4.058659   2.747769   2.669291
    30  H    5.126014   5.207542   4.207059   2.871579   2.887655
    31  H    4.883908   6.082616   5.293095   3.887096   3.342034
    32  H    2.601171   4.730983   4.724872   3.781525   2.578960
    33  H    3.797098   5.989301   5.660700   4.419152   3.324493
    34  H    4.141325   5.198531   4.759212   3.630930   2.910490
                   11         12         13         14         15
    11  N    0.000000
    12  N    2.835082   0.000000
    13  C    1.456875   2.976103   0.000000
    14  C    1.446871   4.071494   2.402675   0.000000
    15  C    4.071497   1.446871   3.828319   5.245003   0.000000
    16  C    2.976091   1.456876   3.624956   3.828298   2.402676
    17  H    2.646184   5.066098   3.725696   2.443950   6.459381
    18  H    4.582434   6.231531   5.545851   4.818510   7.626446
    19  H    5.313607   5.869679   6.011948   6.130640   7.063078
    20  H    5.869680   5.313608   6.231111   7.063080   6.130638
    21  H    6.231532   4.582435   6.262759   7.626447   4.818507
    22  H    5.066098   2.646183   4.962905   6.459379   2.443946
    23  H    2.103595   2.550456   1.088399   3.349614   3.262886
    24  H    2.098705   3.105978   1.095377   2.690484   3.662572
    25  H    2.122666   4.043845   1.104692   2.652623   4.863507
    26  H    2.096257   4.392196   3.351845   1.093678   5.654985
    27  H    2.146146   4.955415   2.760961   1.105922   6.118511
    28  H    2.072879   4.236858   2.587780   1.095151   5.195385
    29  H    4.392201   2.096255   3.825975   5.654988   1.093677
    30  H    4.955416   2.146145   4.871508   6.118507   1.105922
    31  H    4.236860   2.072876   3.924037   5.195383   1.095151
    32  H    2.550431   2.103598   3.589918   3.262850   3.349616
    33  H    3.105974   2.098704   3.623923   3.662561   2.690480
    34  H    4.043830   2.122667   4.695864   4.863482   2.652628
                   16         17         18         19         20
    16  C    0.000000
    17  H    4.962894   0.000000
    18  H    6.262752   2.456435   0.000000
    19  H    6.231108   4.274329   2.484779   0.000000
    20  H    6.011951   5.861496   4.706900   2.379783   0.000000
    21  H    5.545858   7.187797   6.720243   4.706901   2.484780
    22  H    3.725702   6.820654   7.187795   5.861496   4.274329
    23  H    3.589932   4.270867   5.694958   5.697940   5.542374
    24  H    3.623919   4.544619   6.529512   7.035634   7.142438
    25  H    4.695862   3.677870   5.507428   6.178205   6.607593
    26  H    3.825954   2.303206   4.557688   6.032127   7.139530
    27  H    4.871490   2.219999   4.641155   6.210234   7.362550
    28  H    3.924016   3.527240   5.913007   7.155930   7.918010
    29  H    3.351844   6.768613   7.852880   7.139531   6.032128
    30  H    2.760965   7.186629   8.144238   7.362544   6.210229
    31  H    2.587775   6.777274   8.223410   7.918008   7.155929
    32  H    1.088399   4.071282   5.333140   5.542378   5.697952
    33  H    1.095377   5.283036   6.910318   7.142442   7.035639
    34  H    1.104692   5.824546   6.869986   6.607582   6.178203
                   21         22         23         24         25
    21  H    0.000000
    22  H    2.456435   0.000000
    23  H    5.333148   4.071302   0.000000
    24  H    6.910316   5.283037   1.768094   0.000000
    25  H    6.870005   5.824566   1.779633   1.785690   0.000000
    26  H    7.852878   6.768608   4.182017   3.643033   3.690725
    27  H    8.144244   7.186631   3.734405   3.179739   2.544969
    28  H    8.223412   6.777273   3.608324   2.405123   2.901066
    29  H    4.557686   2.303202   3.046683   3.722546   4.730132
    30  H    4.641150   2.219996   4.277948   4.744711   5.915962
    31  H    5.913004   3.527236   3.593581   3.454788   4.955546
    32  H    5.694974   4.270880   3.710889   3.807881   4.551807
    33  H    6.529516   4.544619   3.807898   3.317056   4.677881
    34  H    5.507435   3.677881   4.551826   4.677881   5.772440
                   26         27         28         29         30
    26  H    0.000000
    27  H    1.785285   0.000000
    28  H    1.772266   1.773391   0.000000
    29  H    6.213254   6.395210   5.636021   0.000000
    30  H    6.395202   7.040401   6.103897   1.785286   0.000000
    31  H    5.636016   6.103899   4.918944   1.772267   1.773392
    32  H    3.046647   4.277914   3.593544   4.182017   3.734412
    33  H    3.722538   4.744700   3.454773   3.643026   3.179738
    34  H    4.730102   5.915938   4.955521   3.690730   2.544979
                   31         32         33         34
    31  H    0.000000
    32  H    3.608318   0.000000
    33  H    2.405112   1.768094   0.000000
    34  H    2.901066   1.779633   1.785690   0.000000
 Stoichiometry    C14H18N2
 Framework group  C1[X(C14H18N2)]
 Deg. of freedom    96
 Full point group                 C1      NOp   1
 Largest Abelian subgroup         C1      NOp   1
 Largest concise Abelian subgroup C1      NOp   1
                         Standard orientation:                         
 ---------------------------------------------------------------------
 Center     Atomic      Atomic             Coordinates (Angstroms)
 Number     Number       Type             X           Y           Z
 ---------------------------------------------------------------------
      1          6           0        0.681780   -2.434358   -0.232772
      2          6           0        2.081289   -2.391380   -0.377594
      3          6           0        2.749352   -1.205459   -0.211140
      4          6           0        2.029943   -0.000201   -0.000000
      5          6           0        0.592068   -0.000059   -0.000000
      6          6           0       -0.069452   -1.289413    0.007378
      7          6           0        2.749594    1.204913    0.211139
      8          6           0        2.081766    2.390968    0.377593
      9          6           0        0.682266    2.434224    0.232771
     10          6           0       -0.069194    1.289428   -0.007378
     11          7           0       -1.448982   -1.391165    0.271439
     12          7           0       -1.448705    1.391455   -0.271437
     13          6           0       -1.890884   -0.903420    1.571175
     14          6           0       -2.118674   -2.620609   -0.093823
     15          6           0       -2.118148    2.621036    0.093817
     16          6           0       -1.890708    0.903785   -1.571167
     17          1           0        0.192179   -3.401477   -0.245792
     18          1           0        2.627038   -3.313634   -0.558547
     19          1           0        3.834838   -1.165203   -0.242965
     20          1           0        3.835070    1.164441    0.242963
     21          1           0        2.627699    3.313113    0.558545
     22          1           0        0.192857    3.401439    0.245790
     23          1           0       -1.335508   -0.011580    1.855416
     24          1           0       -2.954124   -0.643521    1.528475
     25          1           0       -1.748142   -1.669230    2.354440
     26          1           0       -1.876093   -2.895932   -1.124106
     27          1           0       -1.873231   -3.474398    0.564862
     28          1           0       -3.199939   -2.458970   -0.029838
     29          1           0       -1.875514    2.896313    1.124099
     30          1           0       -1.872532    3.474771   -0.564872
     31          1           0       -3.199446    2.459612    0.029829
     32          1           0       -1.335521    0.011826   -1.855399
     33          1           0       -2.954003    0.644110   -1.528462
     34          1           0       -1.747809    1.669556   -2.354442
 ---------------------------------------------------------------------
 Rotational constants (GHZ):      0.6355933      0.6302430      0.3587761
 Standard basis: 6-31+G(d,p) (6D, 7F)
 There are   394 symmetry adapted cartesian basis functions of A   symmetry.
 There are   394 symmetry adapted basis functions of A   symmetry.
   394 basis functions,   638 primitive gaussians,   394 cartesian basis functions
    58 alpha electrons       58 beta electrons
       nuclear repulsion energy      1123.7428048948 Hartrees.
 NAtoms=   34 NActive=   34 NUniq=   34 SFac= 1.00D+00 NAtFMM=   60 NAOKFM=F Big=F
 Integral buffers will be    131072 words long.
 Raffenetti 2 integral format.
 Two-electron integral symmetry is turned on.
 Nuclear repulsion after empirical dispersion term =     1123.7078476918 Hartrees.
 One-electron integrals computed using PRISM.
 NBasis=   394 RedAO= T EigKep=  1.16D-06  NBF=   394
 NBsUse=   391 1.00D-06 EigRej=  9.80D-07 NBFU=   391
 ExpMin= 4.38D-02 ExpMax= 4.17D+03 ExpMxC= 6.27D+02 IAcc=2 IRadAn=         4 AccDes= 0.00D+00
 Harris functional with IExCor=  402 and IRadAn=       4 diagonalized for initial guess.
 HarFok:  IExCor=  402 AccDes= 0.00D+00 IRadAn=         4 IDoV= 1 UseB2=F ITyADJ=14
 ICtDFT=  3500011 ScaDFX=  1.000000  1.000000  1.000000  1.000000
 FoFCou: FMM=F IPFlag=           0 FMFlag=      100000 FMFlg1=           0
         NFxFlg=           0 DoJE=T BraDBF=F KetDBF=T FulRan=T
         wScrn=  0.000000 ICntrl=     500 IOpCl=  0 I1Cent=   200000004 NGrid=           0
         NMat0=    1 NMatS0=      1 NMatT0=    0 NMatD0=    1 NMtDS0=    0 NMtDT0=    0
 Petite list used in FoFCou.
 Requested convergence on RMS density matrix=1.00D-08 within 128 cycles.
 Requested convergence on MAX density matrix=1.00D-06.
 Requested convergence on             energy=1.00D-06.
 No special actions if energy rises.
 SCF Done:  E(RB3LYP) =  -653.887457543     A.U. after   14 cycles
            NFock= 14  Conv=0.74D-08     -V/T= 2.0097

 **********************************************************************

            Population analysis using the SCF density.

 **********************************************************************

 Orbital symmetries:
       Occupied  (A) (A) (A) (A) (A) (A) (A) (A) (A) (A) (A) (A)
                 (A) (A) (A) (A) (A) (A) (A) (A) (A) (A) (A) (A)
                 (A) (A) (A) (A) (A) (A) (A) (A) (A) (A) (A) (A)
                 (A) (A) (A) (A) (A) (A) (A) (A) (A) (A) (A) (A)
                 (A) (A) (A) (A) (A) (A) (A) (A) (A) (A)
       Virtual   (A) (A) (A) (A) (A) (A) (A) (A) (A) (A) (A) (A)
                 (A) (A) (A) (A) (A) (A) (A) (A) (A) (A) (A) (A)
                 (A) (A) (A) (A) (A) (A) (A) (A) (A) (A) (A) (A)
                 (A) (A) (A) (A) (A) (A) (A) (A) (A) (A) (A) (A)
                 (A) (A) (A) (A) (A) (A) (A) (A) (A) (A) (A) (A)
                 (A) (A) (A) (A) (A) (A) (A) (A) (A) (A) (A) (A)
                 (A) (A) (A) (A) (A) (A) (A) (A) (A) (A) (A) (A)
                 (A) (A) (A) (A) (A) (A) (A) (A) (A) (A) (A) (A)
                 (A) (A) (A) (A) (A) (A) (A) (A) (A) (A) (A) (A)
                 (A) (A) (A) (A) (A) (A) (A) (A) (A) (A) (A) (A)
                 (A) (A) (A) (A) (A) (A) (A) (A) (A) (A) (A) (A)
                 (A) (A) (A) (A) (A) (A) (A) (A) (A) (A) (A) (A)
                 (A) (A) (A) (A) (A) (A) (A) (A) (A) (A) (A) (A)
                 (A) (A) (A) (A) (A) (A) (A) (A) (A) (A) (A) (A)
                 (A) (A) (A) (A) (A) (A) (A) (A) (A) (A) (A) (A)
                 (A) (A) (A) (A) (A) (A) (A) (A) (A) (A) (A) (A)
                 (A) (A) (A) (A) (A) (A) (A) (A) (A) (A) (A) (A)
                 (A) (A) (A) (A) (A) (A) (A) (A) (A) (A) (A) (A)
                 (A) (A) (A) (A) (A) (A) (A) (A) (A) (A) (A) (A)
                 (A) (A) (A) (A) (A) (A) (A) (A) (A) (A) (A) (A)
                 (A) (A) (A) (A) (A) (A) (A) (A) (A) (A) (A) (A)
                 (A) (A) (A) (A) (A) (A) (A) (A) (A) (A) (A) (A)
                 (A) (A) (A) (A) (A) (A) (A) (A) (A) (A) (A) (A)
                 (A) (A) (A) (A) (A) (A) (A) (A) (A) (A) (A) (A)
                 (A) (A) (A) (A) (A) (A) (A) (A) (A) (A) (A) (A)
                 (A) (A) (A) (A) (A) (A) (A) (A) (A) (A) (A) (A)
                 (A) (A) (A) (A) (A) (A) (A) (A) (A) (A) (A) (A)
                 (A) (A) (A) (A) (A) (A) (A) (A) (A)
 The electronic state is 1-A.
 Alpha  occ. eigenvalues --  -14.34392 -14.34392 -10.22815 -10.22815 -10.21247
 Alpha  occ. eigenvalues --  -10.21247 -10.20624 -10.20624 -10.20014 -10.19783
 Alpha  occ. eigenvalues --  -10.18913 -10.18913 -10.18349 -10.18349 -10.18278
 Alpha  occ. eigenvalues --  -10.18277  -0.95122  -0.93598  -0.86077  -0.81399
 Alpha  occ. eigenvalues --   -0.76554  -0.74332  -0.72460  -0.71288  -0.71037
 Alpha  occ. eigenvalues --   -0.65462  -0.65440  -0.61125  -0.59900  -0.55955
 Alpha  occ. eigenvalues --   -0.52006  -0.51242  -0.50226  -0.48092  -0.47230
 Alpha  occ. eigenvalues --   -0.46595  -0.45973  -0.45391  -0.44373  -0.42327
 Alpha  occ. eigenvalues --   -0.41101  -0.40689  -0.39761  -0.39547  -0.39219
 Alpha  occ. eigenvalues --   -0.38169  -0.38066  -0.37369  -0.37217  -0.36947
 Alpha  occ. eigenvalues --   -0.34375  -0.33632  -0.32679  -0.28999  -0.25993
 Alpha  occ. eigenvalues --   -0.24289  -0.20322  -0.18844
 Alpha virt. eigenvalues --   -0.03664  -0.01610  -0.00122   0.00876   0.01465
 Alpha virt. eigenvalues --    0.01865   0.02753   0.02854   0.03272   0.03603
 Alpha virt. eigenvalues --    0.04821   0.04961   0.05002   0.05420   0.05846
 Alpha virt. eigenvalues --    0.06049   0.07416   0.07516   0.07959   0.08170
 Alpha virt. eigenvalues --    0.08744   0.09017   0.09178   0.10273   0.10937
 Alpha virt. eigenvalues --    0.11162   0.11672   0.11947   0.12239   0.12769
 Alpha virt. eigenvalues --    0.13685   0.13712   0.14152   0.15351   0.15554
 Alpha virt. eigenvalues --    0.15815   0.16543   0.16611   0.17351   0.17370
 Alpha virt. eigenvalues --    0.17998   0.18380   0.19424   0.19514   0.20261
 Alpha virt. eigenvalues --    0.20482   0.20628   0.20814   0.21592   0.21706
 Alpha virt. eigenvalues --    0.22033   0.22167   0.22354   0.23098   0.23658
 Alpha virt. eigenvalues --    0.23875   0.24085   0.24300   0.25132   0.25696
 Alpha virt. eigenvalues --    0.25988   0.26068   0.26858   0.27200   0.27622
 Alpha virt. eigenvalues --    0.27636   0.28087   0.28153   0.28623   0.29206
 Alpha virt. eigenvalues --    0.29435   0.29657   0.29874   0.31290   0.31340
 Alpha virt. eigenvalues --    0.31441   0.32209   0.32328   0.33727   0.33978
 Alpha virt. eigenvalues --    0.34043   0.34710   0.35466   0.35600   0.35681
 Alpha virt. eigenvalues --    0.37187   0.37823   0.38038   0.40705   0.40895
 Alpha virt. eigenvalues --    0.41261   0.43392   0.44677   0.45717   0.45962
 Alpha virt. eigenvalues --    0.48325   0.49216   0.54195   0.55734   0.61370
 Alpha virt. eigenvalues --    0.64584   0.65519   0.66883   0.68865   0.69012
 Alpha virt. eigenvalues --    0.69128   0.70135   0.71022   0.71034   0.71928
 Alpha virt. eigenvalues --    0.72568   0.73827   0.74306   0.74758   0.75372
 Alpha virt. eigenvalues --    0.76047   0.76674   0.78698   0.79225   0.79339
 Alpha virt. eigenvalues --    0.80010   0.81291   0.83009   0.83387   0.85010
 Alpha virt. eigenvalues --    0.86291   0.87330   0.87843   0.88491   0.89460
 Alpha virt. eigenvalues --    0.90036   0.91126   0.91639   0.91842   0.94065
 Alpha virt. eigenvalues --    0.94898   0.95611   0.95660   0.97176   0.98394
 Alpha virt. eigenvalues --    0.98994   0.99667   1.00620   1.00989   1.03841
 Alpha virt. eigenvalues --    1.04356   1.04576   1.05606   1.05750   1.07085
 Alpha virt. eigenvalues --    1.08456   1.08678   1.09009   1.13920   1.14532
 Alpha virt. eigenvalues --    1.15795   1.15982   1.16376   1.16529   1.16741
 Alpha virt. eigenvalues --    1.17132   1.19909   1.22110   1.24480   1.24870
 Alpha virt. eigenvalues --    1.26019   1.26538   1.27199   1.28562   1.30801
 Alpha virt. eigenvalues --    1.31096   1.33286   1.33747   1.34157   1.36317
 Alpha virt. eigenvalues --    1.36400   1.37764   1.39663   1.40289   1.41961
 Alpha virt. eigenvalues --    1.41977   1.42796   1.45421   1.49718   1.50259
 Alpha virt. eigenvalues --    1.54512   1.55571   1.56609   1.60864   1.61687
 Alpha virt. eigenvalues --    1.64018   1.65350   1.73236   1.75314   1.76200
 Alpha virt. eigenvalues --    1.78161   1.79739   1.81113   1.83098   1.85355
 Alpha virt. eigenvalues --    1.86543   1.87136   1.87814   1.90685   1.91756
 Alpha virt. eigenvalues --    1.91841   1.93314   1.94644   1.94868   1.96935
 Alpha virt. eigenvalues --    1.97632   1.99583   1.99922   2.00573   2.01876
 Alpha virt. eigenvalues --    2.03389   2.03839   2.03957   2.04818   2.04956
 Alpha virt. eigenvalues --    2.05117   2.06282   2.07445   2.08300   2.09210
 Alpha virt. eigenvalues --    2.10533   2.12050   2.12150   2.12841   2.15462
 Alpha virt. eigenvalues --    2.16118   2.16163   2.17879   2.19193   2.19754
 Alpha virt. eigenvalues --    2.21589   2.24134   2.25806   2.27764   2.27878
 Alpha virt. eigenvalues --    2.30532   2.30603   2.33494   2.37738   2.38362
 Alpha virt. eigenvalues --    2.39727   2.40628   2.41267   2.42021   2.43586
 Alpha virt. eigenvalues --    2.44897   2.45016   2.47901   2.49252   2.49611
 Alpha virt. eigenvalues --    2.52760   2.53041   2.54725   2.57044   2.57877
 Alpha virt. eigenvalues --    2.58124   2.58832   2.61240   2.62016   2.63705
 Alpha virt. eigenvalues --    2.64178   2.66071   2.67299   2.67339   2.67980
 Alpha virt. eigenvalues --    2.70876   2.72002   2.72361   2.72953   2.73948
 Alpha virt. eigenvalues --    2.74828   2.75273   2.76575   2.78419   2.78914
 Alpha virt. eigenvalues --    2.80060   2.83648   2.85637   2.85788   2.86961
 Alpha virt. eigenvalues --    2.89943   2.93597   2.94076   2.95696   2.97275
 Alpha virt. eigenvalues --    3.03586   3.04607   3.11827   3.12094   3.13379
 Alpha virt. eigenvalues --    3.17731   3.21181   3.26056   3.26406   3.26923
 Alpha virt. eigenvalues --    3.28230   3.29394   3.29502   3.33380   3.37958
 Alpha virt. eigenvalues --    3.43838   3.44401   3.44737   3.45275   3.46202
 Alpha virt. eigenvalues --    3.46611   3.50948   3.51093   3.55075   3.56519
 Alpha virt. eigenvalues --    3.78519   3.83958   4.31399   4.31994   4.35766
 Alpha virt. eigenvalues --    4.36153   4.41494   4.44213   4.44544   4.51555
 Alpha virt. eigenvalues --    4.53435   4.58862   4.60940   4.63413   4.66140
 Alpha virt. eigenvalues --    4.66605   4.71772   4.93423
          Condensed to atoms (all electrons):
               1          2          3          4          5          6
     1  C   12.868366  -1.161858  -0.551438   0.292939  -0.977497  -0.915329
     2  C   -1.161858   8.194361  -1.430323   0.245281  -0.591922   0.085704
     3  C   -0.551438  -1.430323  12.710108  -3.673988   0.032680  -0.508039
     4  C    0.292939   0.245281  -3.673988  11.097708   0.089896   0.487903
     5  C   -0.977497  -0.591922   0.032680   0.089896  12.996466  -1.998925
     6  C   -0.915329   0.085704  -0.508039   0.487903  -1.998925  12.669089
     7  C   -0.197814  -0.133239   2.014100  -3.673962   0.032576  -2.317792
     8  C    0.225369  -0.466461  -0.133254   0.245253  -0.591805   1.234096
     9  C   -1.147996   0.225384  -0.197819   0.293047  -0.977864  -2.718410
    10  C   -2.718399   1.234106  -2.317782   0.487969  -1.999120   1.007281
    11  N    0.054073  -0.032862  -0.075795  -0.041532  -0.236308   0.161386
    12  N    0.023190  -0.000344   0.019379  -0.041530  -0.236310  -0.050199
    13  C    0.201066  -0.104209   0.087689   0.002666   0.198437  -0.460354
    14  C    0.112732  -0.025994  -0.004339  -0.011549  -0.121774  -0.222584
    15  C    0.006779   0.009237  -0.041524  -0.011547  -0.121788  -0.030893
    16  C   -0.020844  -0.030495   0.023489   0.002669   0.198430  -0.329282
    17  H    0.165428   0.028016   0.022643   0.009261   0.103380  -0.001107
    18  H    0.008713   0.245864   0.058371   0.033746  -0.025824   0.003280
    19  H    0.040470  -0.000738   0.297335  -0.010062   0.005469   0.002610
    20  H   -0.003491   0.010630  -0.040285  -0.010064   0.005468  -0.006340
    21  H   -0.001635   0.002439  -0.009999   0.033745  -0.025824  -0.003960
    22  H    0.004007  -0.001827   0.013200   0.009260   0.103386   0.011138
    23  H   -0.071625  -0.010393   0.006248   0.021221   0.105169  -0.118305
    24  H   -0.018140   0.000919   0.000547  -0.000359  -0.001893  -0.003560
    25  H    0.105188  -0.000981  -0.001533  -0.002427  -0.069878  -0.015209
    26  H    0.043104   0.017570   0.002604  -0.006175  -0.003778  -0.085613
    27  H    0.101782   0.027184   0.006686   0.001553  -0.051719  -0.117675
    28  H   -0.075266  -0.019704  -0.000561   0.000779   0.029950   0.082617
    29  H    0.000923   0.000026  -0.000860  -0.006175  -0.003779  -0.002139
    30  H   -0.002358   0.000426  -0.000237   0.001553  -0.051722  -0.011192
    31  H    0.001753  -0.000140   0.000094   0.000779   0.029951   0.002172
    32  H    0.064639  -0.013700   0.016646   0.021219   0.105177   0.009721
    33  H    0.008237  -0.000289  -0.001546  -0.000359  -0.001891   0.027917
    34  H   -0.019384   0.002409  -0.000853  -0.002426  -0.069883  -0.037513
               7          8          9         10         11         12
     1  C   -0.197814   0.225369  -1.147996  -2.718399   0.054073   0.023190
     2  C   -0.133239  -0.466461   0.225384   1.234106  -0.032862  -0.000344
     3  C    2.014100  -0.133254  -0.197819  -2.317782  -0.075795   0.019379
     4  C   -3.673962   0.245253   0.293047   0.487969  -0.041532  -0.041530
     5  C    0.032576  -0.591805  -0.977864  -1.999120  -0.236308  -0.236310
     6  C   -2.317792   1.234096  -2.718410   1.007281   0.161386  -0.050199
     7  C   12.710118  -1.430335  -0.551358  -0.508054   0.019378  -0.075796
     8  C   -1.430335   8.194376  -1.161896   0.085697  -0.000344  -0.032860
     9  C   -0.551358  -1.161896  12.868593  -0.915307   0.023184   0.054051
    10  C   -0.508054   0.085697  -0.915307  12.669208  -0.050223   0.161386
    11  N    0.019378  -0.000344   0.023184  -0.050223   7.475676  -0.137024
    12  N   -0.075796  -0.032860   0.054051   0.161386  -0.137024   7.475668
    13  C    0.023487  -0.030494  -0.020850  -0.329292   0.162520   0.012538
    14  C   -0.041523   0.009236   0.006782  -0.030888   0.097283   0.000999
    15  C   -0.004335  -0.025994   0.112749  -0.222584   0.001000   0.097282
    16  C    0.087687  -0.104208   0.201056  -0.460351   0.012537   0.162519
    17  H    0.013201  -0.001827   0.004007   0.011137  -0.040791  -0.000142
    18  H   -0.010000   0.002440  -0.001635  -0.003960  -0.001483   0.000044
    19  H   -0.040284   0.010631  -0.003492  -0.006341   0.000224   0.000058
    20  H    0.297335  -0.000734   0.040469   0.002610   0.000058   0.000224
    21  H    0.058369   0.245865   0.008714   0.003280   0.000043  -0.001483
    22  H    0.022640   0.028017   0.165419  -0.001100  -0.000142  -0.040791
    23  H    0.016646  -0.013700   0.064638   0.009723  -0.053602  -0.016297
    24  H   -0.001546  -0.000289   0.008238   0.027919  -0.055579  -0.000464
    25  H   -0.000853   0.002409  -0.019384  -0.037515  -0.077520   0.003267
    26  H   -0.000860   0.000026   0.000923  -0.002138  -0.046250  -0.000373
    27  H   -0.000237   0.000426  -0.002358  -0.011192  -0.055718  -0.000737
    28  H    0.000094  -0.000140   0.001753   0.002172  -0.086700   0.000946
    29  H    0.002604   0.017570   0.043105  -0.085615  -0.000373  -0.046250
    30  H    0.006686   0.027184   0.101786  -0.117676  -0.000737  -0.055719
    31  H   -0.000561  -0.019704  -0.075266   0.082617   0.000946  -0.086700
    32  H    0.006248  -0.010393  -0.071626  -0.118309  -0.016297  -0.053600
    33  H    0.000547   0.000919  -0.018139  -0.003560  -0.000464  -0.055579
    34  H   -0.001533  -0.000981   0.105188  -0.015207   0.003267  -0.077520
              13         14         15         16         17         18
     1  C    0.201066   0.112732   0.006779  -0.020844   0.165428   0.008713
     2  C   -0.104209  -0.025994   0.009237  -0.030495   0.028016   0.245864
     3  C    0.087689  -0.004339  -0.041524   0.023489   0.022643   0.058371
     4  C    0.002666  -0.011549  -0.011547   0.002669   0.009261   0.033746
     5  C    0.198437  -0.121774  -0.121788   0.198430   0.103380  -0.025824
     6  C   -0.460354  -0.222584  -0.030893  -0.329282  -0.001107   0.003280
     7  C    0.023487  -0.041523  -0.004335   0.087687   0.013201  -0.010000
     8  C   -0.030494   0.009236  -0.025994  -0.104208  -0.001827   0.002440
     9  C   -0.020850   0.006782   0.112749   0.201056   0.004007  -0.001635
    10  C   -0.329292  -0.030888  -0.222584  -0.460351   0.011137  -0.003960
    11  N    0.162520   0.097283   0.001000   0.012537  -0.040791  -0.001483
    12  N    0.012538   0.000999   0.097282   0.162519  -0.000142   0.000044
    13  C    5.252490  -0.049303  -0.014576  -0.010962  -0.003898  -0.000196
    14  C   -0.049303   5.244798   0.007378  -0.014576  -0.006785   0.000900
    15  C   -0.014576   0.007378   5.244798  -0.049303   0.000103  -0.000002
    16  C   -0.010962  -0.014576  -0.049303   5.252487  -0.000873   0.000025
    17  H   -0.003898  -0.006785   0.000103  -0.000873   0.592257  -0.005464
    18  H   -0.000196   0.000900  -0.000002   0.000025  -0.005464   0.578998
    19  H   -0.000030   0.000245  -0.000040   0.000127  -0.000189  -0.004751
    20  H    0.000127  -0.000040   0.000245  -0.000030   0.000000  -0.000009
    21  H    0.000025  -0.000002   0.000900  -0.000196  -0.000000  -0.000000
    22  H   -0.000873   0.000103  -0.006785  -0.003898  -0.000000  -0.000000
    23  H    0.424567   0.002369  -0.004363   0.000402   0.000012   0.000000
    24  H    0.410463  -0.015940  -0.000182   0.001139  -0.000012  -0.000000
    25  H    0.432423   0.012431   0.000442  -0.000846  -0.000010   0.000001
    26  H    0.003800   0.435524  -0.000332   0.000824  -0.002285  -0.000005
    27  H    0.006272   0.425183   0.000327   0.000658  -0.001030   0.000010
    28  H   -0.009741   0.425583  -0.000325  -0.001547   0.000309  -0.000000
    29  H    0.000824  -0.000332   0.435524   0.003800   0.000000   0.000000
    30  H    0.000658   0.000327   0.425183   0.006272   0.000000  -0.000000
    31  H   -0.001547  -0.000325   0.425583  -0.009741  -0.000000   0.000000
    32  H    0.000403  -0.004363   0.002370   0.424568  -0.000016  -0.000001
    33  H    0.001139  -0.000182  -0.015941   0.410463   0.000000  -0.000000
    34  H   -0.000846   0.000442   0.012431   0.432422   0.000000  -0.000000
              19         20         21         22         23         24
     1  C    0.040470  -0.003491  -0.001635   0.004007  -0.071625  -0.018140
     2  C   -0.000738   0.010630   0.002439  -0.001827  -0.010393   0.000919
     3  C    0.297335  -0.040285  -0.009999   0.013200   0.006248   0.000547
     4  C   -0.010062  -0.010064   0.033745   0.009260   0.021221  -0.000359
     5  C    0.005469   0.005468  -0.025824   0.103386   0.105169  -0.001893
     6  C    0.002610  -0.006340  -0.003960   0.011138  -0.118305  -0.003560
     7  C   -0.040284   0.297335   0.058369   0.022640   0.016646  -0.001546
     8  C    0.010631  -0.000734   0.245865   0.028017  -0.013700  -0.000289
     9  C   -0.003492   0.040469   0.008714   0.165419   0.064638   0.008238
    10  C   -0.006341   0.002610   0.003280  -0.001100   0.009723   0.027919
    11  N    0.000224   0.000058   0.000043  -0.000142  -0.053602  -0.055579
    12  N    0.000058   0.000224  -0.001483  -0.040791  -0.016297  -0.000464
    13  C   -0.000030   0.000127   0.000025  -0.000873   0.424567   0.410463
    14  C    0.000245  -0.000040  -0.000002   0.000103   0.002369  -0.015940
    15  C   -0.000040   0.000245   0.000900  -0.006785  -0.004363  -0.000182
    16  C    0.000127  -0.000030  -0.000196  -0.003898   0.000402   0.001139
    17  H   -0.000189   0.000000  -0.000000  -0.000000   0.000012  -0.000012
    18  H   -0.004751  -0.000009  -0.000000  -0.000000   0.000000  -0.000000
    19  H    0.586964   0.003099  -0.000009   0.000000  -0.000000   0.000000
    20  H    0.003099   0.586964  -0.004751  -0.000189  -0.000000  -0.000000
    21  H   -0.000009  -0.004751   0.578998  -0.005464  -0.000001  -0.000000
    22  H    0.000000  -0.000189  -0.005464   0.592258  -0.000016   0.000000
    23  H   -0.000000  -0.000000  -0.000001  -0.000016   0.530584  -0.022476
    24  H    0.000000  -0.000000  -0.000000   0.000000  -0.022476   0.580259
    25  H    0.000000   0.000000  -0.000000   0.000000  -0.031637  -0.045438
    26  H    0.000000  -0.000000   0.000000   0.000000  -0.000202   0.000284
    27  H    0.000000   0.000000  -0.000000   0.000000  -0.000101  -0.001739
    28  H   -0.000000   0.000000   0.000000  -0.000000   0.000329   0.004386
    29  H   -0.000000   0.000000  -0.000005  -0.002285   0.000347  -0.000046
    30  H    0.000000   0.000000   0.000010  -0.001030  -0.000029   0.000002
    31  H    0.000000  -0.000000  -0.000000   0.000309   0.000056   0.000140
    32  H   -0.000000  -0.000000   0.000000   0.000012  -0.000070   0.000113
    33  H   -0.000000   0.000000  -0.000000  -0.000012   0.000113   0.000267
    34  H    0.000000   0.000000   0.000001  -0.000010  -0.000025  -0.000016
              25         26         27         28         29         30
     1  C    0.105188   0.043104   0.101782  -0.075266   0.000923  -0.002358
     2  C   -0.000981   0.017570   0.027184  -0.019704   0.000026   0.000426
     3  C   -0.001533   0.002604   0.006686  -0.000561  -0.000860  -0.000237
     4  C   -0.002427  -0.006175   0.001553   0.000779  -0.006175   0.001553
     5  C   -0.069878  -0.003778  -0.051719   0.029950  -0.003779  -0.051722
     6  C   -0.015209  -0.085613  -0.117675   0.082617  -0.002139  -0.011192
     7  C   -0.000853  -0.000860  -0.000237   0.000094   0.002604   0.006686
     8  C    0.002409   0.000026   0.000426  -0.000140   0.017570   0.027184
     9  C   -0.019384   0.000923  -0.002358   0.001753   0.043105   0.101786
    10  C   -0.037515  -0.002138  -0.011192   0.002172  -0.085615  -0.117676
    11  N   -0.077520  -0.046250  -0.055718  -0.086700  -0.000373  -0.000737
    12  N    0.003267  -0.000373  -0.000737   0.000946  -0.046250  -0.055719
    13  C    0.432423   0.003800   0.006272  -0.009741   0.000824   0.000658
    14  C    0.012431   0.435524   0.425183   0.425583  -0.000332   0.000327
    15  C    0.000442  -0.000332   0.000327  -0.000325   0.435524   0.425183
    16  C   -0.000846   0.000824   0.000658  -0.001547   0.003800   0.006272
    17  H   -0.000010  -0.002285  -0.001030   0.000309   0.000000   0.000000
    18  H    0.000001  -0.000005   0.000010  -0.000000   0.000000  -0.000000
    19  H    0.000000   0.000000   0.000000  -0.000000  -0.000000   0.000000
    20  H    0.000000  -0.000000   0.000000   0.000000   0.000000   0.000000
    21  H   -0.000000   0.000000  -0.000000   0.000000  -0.000005   0.000010
    22  H    0.000000   0.000000   0.000000  -0.000000  -0.002285  -0.001030
    23  H   -0.031637  -0.000202  -0.000101   0.000329   0.000347  -0.000029
    24  H   -0.045438   0.000284  -0.001739   0.004386  -0.000046   0.000002
    25  H    0.613967  -0.000200   0.008788  -0.002675  -0.000000   0.000000
    26  H   -0.000200   0.552168  -0.039090  -0.019917  -0.000000   0.000000
    27  H    0.008788  -0.039090   0.608213  -0.042040   0.000000  -0.000000
    28  H   -0.002675  -0.019917  -0.042040   0.569555   0.000000   0.000000
    29  H   -0.000000  -0.000000   0.000000   0.000000   0.552168  -0.039090
    30  H    0.000000   0.000000  -0.000000   0.000000  -0.039090   0.608213
    31  H   -0.000002   0.000000   0.000000   0.000001  -0.019916  -0.042040
    32  H   -0.000025   0.000347  -0.000029   0.000056  -0.000202  -0.000101
    33  H   -0.000016  -0.000046   0.000002   0.000140   0.000284  -0.001739
    34  H    0.000001  -0.000000   0.000000  -0.000002  -0.000200   0.008787
              31         32         33         34
     1  C    0.001753   0.064639   0.008237  -0.019384
     2  C   -0.000140  -0.013700  -0.000289   0.002409
     3  C    0.000094   0.016646  -0.001546  -0.000853
     4  C    0.000779   0.021219  -0.000359  -0.002426
     5  C    0.029951   0.105177  -0.001891  -0.069883
     6  C    0.002172   0.009721   0.027917  -0.037513
     7  C   -0.000561   0.006248   0.000547  -0.001533
     8  C   -0.019704  -0.010393   0.000919  -0.000981
     9  C   -0.075266  -0.071626  -0.018139   0.105188
    10  C    0.082617  -0.118309  -0.003560  -0.015207
    11  N    0.000946  -0.016297  -0.000464   0.003267
    12  N   -0.086700  -0.053600  -0.055579  -0.077520
    13  C   -0.001547   0.000403   0.001139  -0.000846
    14  C   -0.000325  -0.004363  -0.000182   0.000442
    15  C    0.425583   0.002370  -0.015941   0.012431
    16  C   -0.009741   0.424568   0.410463   0.432422
    17  H   -0.000000  -0.000016   0.000000   0.000000
    18  H    0.000000  -0.000001  -0.000000  -0.000000
    19  H    0.000000  -0.000000  -0.000000   0.000000
    20  H   -0.000000  -0.000000   0.000000   0.000000
    21  H   -0.000000   0.000000  -0.000000   0.000001
    22  H    0.000309   0.000012  -0.000012  -0.000010
    23  H    0.000056  -0.000070   0.000113  -0.000025
    24  H    0.000140   0.000113   0.000267  -0.000016
    25  H   -0.000002  -0.000025  -0.000016   0.000001
    26  H    0.000000   0.000347  -0.000046  -0.000000
    27  H    0.000000  -0.000029   0.000002   0.000000
    28  H    0.000001   0.000056   0.000140  -0.000002
    29  H   -0.019916  -0.000202   0.000284  -0.000200
    30  H   -0.042040  -0.000101  -0.001739   0.008787
    31  H    0.569555   0.000329   0.004386  -0.002675
    32  H    0.000329   0.530585  -0.022476  -0.031637
    33  H    0.004386  -0.022476   0.580260  -0.045438
    34  H   -0.002675  -0.031637  -0.045438   0.613967
 Mulliken charges:
               1
     1  C   -0.445683
     2  C   -0.304077
     3  C   -0.321644
     4  C    0.113709
     5  C    0.123070
     6  C    0.169503
     7  C   -0.321634
     8  C   -0.304096
     9  C   -0.445684
    10  C    0.169503
    11  N   -0.001832
    12  N   -0.001831
    13  C   -0.184422
    14  C   -0.231816
    15  C   -0.231816
    16  C   -0.184424
    17  H    0.114674
    18  H    0.120939
    19  H    0.118707
    20  H    0.118707
    21  H    0.120939
    22  H    0.114674
    23  H    0.160413
    24  H    0.133001
    25  H    0.127232
    26  H    0.150092
    27  H    0.136581
    28  H    0.139946
    29  H    0.150092
    30  H    0.136582
    31  H    0.139946
    32  H    0.160413
    33  H    0.133001
    34  H    0.127232
 Sum of Mulliken charges =  -0.00000
 Mulliken charges with hydrogens summed into heavy atoms:
               1
     1  C   -0.331008
     2  C   -0.183137
     3  C   -0.202937
     4  C    0.113709
     5  C    0.123070
     6  C    0.169503
     7  C   -0.202926
     8  C   -0.183157
     9  C   -0.331010
    10  C    0.169503
    11  N   -0.001832
    12  N   -0.001831
    13  C    0.236224
    14  C    0.194804
    15  C    0.194804
    16  C    0.236222
 Electronic spatial extent (au):  <R**2>=           3318.8284
 Charge=             -0.0000 electrons
 Dipole moment (field-independent basis, Debye):
    X=             -1.7308    Y=              0.0002    Z=              0.0000  Tot=              1.7308
 Quadrupole moment (field-independent basis, Debye-Ang):
   XX=            -91.3059   YY=            -90.8601   ZZ=           -101.7492
   XY=              0.0001   XZ=              0.0002   YZ=              1.7348
 Traceless Quadrupole moment (field-independent basis, Debye-Ang):
   XX=              3.3325   YY=              3.7783   ZZ=             -7.1108
   XY=              0.0001   XZ=              0.0002   YZ=              1.7348
 Octapole moment (field-independent basis, Debye-Ang**2):
  XXX=             -5.8559  YYY=              0.0019  ZZZ=              0.0001  XYY=             -6.2694
  XXY=             -0.0007  XXZ=              0.0005  XZZ=            -15.5145  YZZ=              0.0015
  YYZ=             -0.0005  XYZ=              2.4549
 Hexadecapole moment (field-independent basis, Debye-Ang**3):
 XXXX=          -2011.4873 YYYY=          -2040.7090 ZZZZ=           -433.0736 XXXY=             -0.0027
 XXXZ=              0.0038 YYYX=             -0.0015 YYYZ=             32.4079 ZZZX=             -0.0004
 ZZZY=             -2.8563 XXYY=           -677.3555 XXZZ=           -451.8938 YYZZ=           -449.0932
 XXYZ=             12.8528 YYXZ=              0.0007 ZZXY=              0.0001
 N-N= 1.123707847692D+03 E-N=-3.761447581897D+03  KE= 6.476084305304D+02
 Calling FoFJK, ICntrl=      2127 FMM=F ISym2X=0 I1Cent= 0 IOpClX= 0 NMat=1 NMatS=1 NMatT=0.
 ***** Axes restored to original set *****
 -------------------------------------------------------------------
 Center     Atomic                   Forces (Hartrees/Bohr)
 Number     Number              X              Y              Z
 -------------------------------------------------------------------
      1        6          -0.001586007    0.002366333   -0.000073565
      2        6           0.001516113    0.001963914    0.000340457
      3        6           0.002236316    0.000272163    0.000227086
      4        6           0.000666387    0.000000559    0.000000179
      5        6           0.000046709   -0.000000605   -0.000000219
      6        6           0.001728396    0.000074068    0.000490993
      7        6           0.002235786   -0.000272532   -0.000227272
      8        6           0.001517072   -0.001963127   -0.000340328
      9        6          -0.001586206   -0.002366504    0.000073692
     10        6           0.001727929   -0.000073296   -0.000491065
     11        7          -0.000600230   -0.000740158    0.001156820
     12        7          -0.000599440    0.000741150   -0.001156783
     13        6          -0.000941519   -0.002294393   -0.003218397
     14        6          -0.002728519    0.002340486    0.001693123
     15        6          -0.002728401   -0.002340595   -0.001692517
     16        6          -0.000942663    0.002294148    0.003218624
     17        1           0.000944609   -0.000506550    0.000062488
     18        1          -0.000114402   -0.000194545   -0.000034739
     19        1          -0.000231511    0.000170915    0.000039181
     20        1          -0.000231374   -0.000170949   -0.000039186
     21        1          -0.000114436    0.000194647    0.000034739
     22        1           0.000944733    0.000506496   -0.000062609
     23        1          -0.000634137    0.000381604   -0.000425680
     24        1           0.000033917   -0.000297201    0.000025157
     25        1           0.000171779    0.000210337   -0.000104542
     26        1          -0.000212413    0.000002421   -0.000008232
     27        1           0.000114876    0.000049133   -0.000138641
     28        1          -0.000053891    0.000090219    0.000109550
     29        1          -0.000212382   -0.000002737    0.000007832
     30        1           0.000114744   -0.000049220    0.000138643
     31        1          -0.000053949   -0.000090604   -0.000109716
     32        1          -0.000633912   -0.000382334    0.000425544
     33        1           0.000034104    0.000297196   -0.000025151
     34        1           0.000171925   -0.000210436    0.000104535
 -------------------------------------------------------------------
 Cartesian Forces:  Max     0.003218624 RMS     0.001082984

 GradGradGradGradGradGradGradGradGradGradGradGradGradGradGradGradGradGrad
 Berny optimization.
 FormGI is forming the generalized inverse of G from B-inverse, IUseBI=4.
 Internal  Forces:  Max     0.004903761 RMS     0.001148052
 Search for a local minimum.
 Step number   1 out of a maximum of  181
 All quantities printed in internal units (Hartrees-Bohrs-Radians)
 Mixed Optimization -- RFO/linear search
 Second derivative matrix not updated -- first step.
 ITU=  0
     Eigenvalues ---    0.00939   0.00939   0.01072   0.01072   0.01555
     Eigenvalues ---    0.01583   0.01583   0.01639   0.01705   0.01766
     Eigenvalues ---    0.01768   0.01926   0.01962   0.02086   0.02091
     Eigenvalues ---    0.02130   0.02145   0.02186   0.02186   0.02190
     Eigenvalues ---    0.02200   0.02288   0.02294   0.07135   0.07135
     Eigenvalues ---    0.07345   0.07345   0.07502   0.07502   0.07705
     Eigenvalues ---    0.07705   0.15953   0.15953   0.15974   0.15975
     Eigenvalues ---    0.16000   0.16000   0.16000   0.16000   0.16000
     Eigenvalues ---    0.16000   0.16000   0.16000   0.16000   0.16000
     Eigenvalues ---    0.16000   0.16000   0.16000   0.16000   0.19429
     Eigenvalues ---    0.19429   0.21341   0.21341   0.22050   0.22119
     Eigenvalues ---    0.23115   0.23617   0.24660   0.24848   0.24997
     Eigenvalues ---    0.24997   0.33036   0.33036   0.33169   0.33169
     Eigenvalues ---    0.34199   0.34199   0.34224   0.34224   0.34391
     Eigenvalues ---    0.34391   0.34998   0.34998   0.35185   0.35185
     Eigenvalues ---    0.35197   0.35197   0.35508   0.35508   0.35849
     Eigenvalues ---    0.37268   0.37358   0.37358   0.37374   0.38658
     Eigenvalues ---    0.38658   0.41011   0.41281   0.43352   0.43500
     Eigenvalues ---    0.44279   0.44279   0.46160   0.46247   0.49445
     Eigenvalues ---    0.49549
 RFO step:  Lambda=-9.04760716D-04 EMin= 9.39423649D-03
 Linear search not attempted -- first point.
 Iteration  1 RMS(Cart)=  0.04583323 RMS(Int)=  0.00049319
 Iteration  2 RMS(Cart)=  0.00091401 RMS(Int)=  0.00002927
 Iteration  3 RMS(Cart)=  0.00000028 RMS(Int)=  0.00002927
 Variable       Old X    -DE/DX   Delta X   Delta X   Delta X     New X
                                 (Linear)    (Quad)   (Total)
    R1        2.66005   0.00265   0.00000   0.00601   0.00601   2.66606
    R2        2.62728   0.00250   0.00000   0.00530   0.00531   2.63258
    R3        2.04859  -0.00088   0.00000  -0.00247  -0.00247   2.04612
    R4        2.59135   0.00229   0.00000   0.00454   0.00454   2.59589
    R5        2.05376  -0.00023   0.00000  -0.00065  -0.00065   2.05311
    R6        2.68233   0.00247   0.00000   0.00577   0.00577   2.68810
    R7        2.05356  -0.00024   0.00000  -0.00067  -0.00067   2.05289
    R8        2.71719   0.00221   0.00000   0.00540   0.00540   2.72259
    R9        2.68233   0.00247   0.00000   0.00577   0.00577   2.68810
   R10        2.73854   0.00186   0.00000   0.00478   0.00478   2.74332
   R11        2.73854   0.00186   0.00000   0.00478   0.00478   2.74332
   R12        2.66122   0.00490   0.00000   0.01105   0.01105   2.67227
   R13        2.59136   0.00229   0.00000   0.00454   0.00453   2.59589
   R14        2.05356  -0.00024   0.00000  -0.00067  -0.00067   2.05289
   R15        2.66005   0.00265   0.00000   0.00601   0.00601   2.66606
   R16        2.05376  -0.00023   0.00000  -0.00065  -0.00065   2.05311
   R17        2.62728   0.00250   0.00000   0.00530   0.00531   2.63258
   R18        2.04859  -0.00088   0.00000  -0.00247  -0.00247   2.04612
   R19        2.66122   0.00490   0.00000   0.01105   0.01105   2.67227
   R20        2.75310   0.00441   0.00000   0.01177   0.01177   2.76487
   R21        2.73419   0.00386   0.00000   0.00996   0.00996   2.74415
   R22        2.73419   0.00386   0.00000   0.00996   0.00996   2.74415
   R23        2.75310   0.00441   0.00000   0.01177   0.01177   2.76487
   R24        2.05678  -0.00052   0.00000  -0.00150  -0.00150   2.05528
   R25        2.06996   0.00004   0.00000   0.00011   0.00011   2.07007
   R26        2.08757   0.00024   0.00000   0.00073   0.00073   2.08829
   R27        2.06675  -0.00005   0.00000  -0.00016  -0.00016   2.06659
   R28        2.08989   0.00015   0.00000   0.00044   0.00044   2.09033
   R29        2.06954   0.00003   0.00000   0.00010   0.00010   2.06963
   R30        2.06675  -0.00005   0.00000  -0.00016  -0.00016   2.06659
   R31        2.08989   0.00015   0.00000   0.00044   0.00044   2.09033
   R32        2.06954   0.00003   0.00000   0.00010   0.00010   2.06963
   R33        2.05678  -0.00053   0.00000  -0.00150  -0.00150   2.05528
   R34        2.06996   0.00004   0.00000   0.00011   0.00011   2.07007
   R35        2.08757   0.00024   0.00000   0.00073   0.00073   2.08829
    A1        2.12922  -0.00027   0.00000  -0.00087  -0.00086   2.12835
    A2        2.06579  -0.00049   0.00000  -0.00342  -0.00342   2.06237
    A3        2.08602   0.00076   0.00000   0.00436   0.00436   2.09037
    A4        2.09241   0.00034   0.00000   0.00199   0.00198   2.09440
    A5        2.08344  -0.00017   0.00000  -0.00084  -0.00085   2.08259
    A6        2.10534  -0.00017   0.00000  -0.00084  -0.00084   2.10451
    A7        2.10073  -0.00005   0.00000   0.00003   0.00002   2.10075
    A8        2.11194  -0.00015   0.00000  -0.00108  -0.00108   2.11086
    A9        2.07050   0.00020   0.00000   0.00106   0.00106   2.07156
   A10        2.10240  -0.00058   0.00000  -0.00228  -0.00228   2.10012
   A11        2.07839   0.00116   0.00000   0.00456   0.00456   2.08295
   A12        2.10240  -0.00058   0.00000  -0.00228  -0.00228   2.10012
   A13        2.04473   0.00097   0.00000   0.00387   0.00387   2.04860
   A14        2.04473   0.00097   0.00000   0.00388   0.00387   2.04860
   A15        2.19372  -0.00194   0.00000  -0.00775  -0.00774   2.18598
   A16        2.07736  -0.00038   0.00000  -0.00134  -0.00135   2.07600
   A17        2.09694   0.00251   0.00000   0.00998   0.00996   2.10690
   A18        2.10879  -0.00213   0.00000  -0.00850  -0.00852   2.10027
   A19        2.10073  -0.00005   0.00000   0.00003   0.00002   2.10075
   A20        2.07050   0.00020   0.00000   0.00106   0.00106   2.07156
   A21        2.11194  -0.00015   0.00000  -0.00108  -0.00108   2.11086
   A22        2.09241   0.00034   0.00000   0.00199   0.00199   2.09440
   A23        2.10535  -0.00017   0.00000  -0.00084  -0.00084   2.10451
   A24        2.08344  -0.00017   0.00000  -0.00084  -0.00085   2.08259
   A25        2.12922  -0.00027   0.00000  -0.00087  -0.00086   2.12835
   A26        2.06579  -0.00049   0.00000  -0.00342  -0.00342   2.06237
   A27        2.08601   0.00076   0.00000   0.00436   0.00436   2.09038
   A28        2.07736  -0.00038   0.00000  -0.00134  -0.00136   2.07600
   A29        2.10879  -0.00213   0.00000  -0.00850  -0.00852   2.10027
   A30        2.09694   0.00251   0.00000   0.00998   0.00996   2.10690
   A31        2.02665  -0.00038   0.00000   0.00349   0.00333   2.02998
   A32        2.05723   0.00122   0.00000   0.01176   0.01167   2.06890
   A33        1.94906  -0.00042   0.00000   0.00333   0.00319   1.95224
   A34        2.05723   0.00122   0.00000   0.01176   0.01167   2.06890
   A35        2.02665  -0.00038   0.00000   0.00349   0.00333   2.02998
   A36        1.94906  -0.00042   0.00000   0.00333   0.00318   1.95224
   A37        1.93108   0.00098   0.00000   0.00623   0.00623   1.93731
   A38        1.91673  -0.00004   0.00000  -0.00035  -0.00035   1.91638
   A39        1.94043  -0.00034   0.00000  -0.00215  -0.00215   1.93828
   A40        1.88710  -0.00047   0.00000  -0.00288  -0.00288   1.88422
   A41        1.89330  -0.00031   0.00000  -0.00172  -0.00172   1.89158
   A42        1.89394   0.00016   0.00000   0.00073   0.00073   1.89467
   A43        1.92737   0.00018   0.00000   0.00113   0.00113   1.92850
   A44        1.98550  -0.00021   0.00000  -0.00121  -0.00121   1.98429
   A45        1.89317   0.00017   0.00000   0.00095   0.00095   1.89413
   A46        1.89389   0.00004   0.00000   0.00039   0.00039   1.89428
   A47        1.88724  -0.00021   0.00000  -0.00148  -0.00148   1.88576
   A48        1.87367   0.00002   0.00000   0.00015   0.00015   1.87382
   A49        1.92737   0.00018   0.00000   0.00113   0.00113   1.92849
   A50        1.98550  -0.00021   0.00000  -0.00121  -0.00121   1.98429
   A51        1.89317   0.00017   0.00000   0.00096   0.00096   1.89413
   A52        1.89389   0.00004   0.00000   0.00038   0.00038   1.89428
   A53        1.88724  -0.00021   0.00000  -0.00148  -0.00148   1.88576
   A54        1.87368   0.00002   0.00000   0.00014   0.00014   1.87382
   A55        1.93108   0.00098   0.00000   0.00623   0.00623   1.93731
   A56        1.91673  -0.00004   0.00000  -0.00035  -0.00035   1.91638
   A57        1.94043  -0.00034   0.00000  -0.00215  -0.00215   1.93828
   A58        1.88710  -0.00047   0.00000  -0.00288  -0.00288   1.88422
   A59        1.89330  -0.00031   0.00000  -0.00172  -0.00172   1.89158
   A60        1.89394   0.00016   0.00000   0.00074   0.00073   1.89467
    D1        0.06095  -0.00012   0.00000  -0.00506  -0.00507   0.05589
    D2        3.13526   0.00002   0.00000   0.00019   0.00019   3.13545
    D3       -3.00965  -0.00017   0.00000  -0.00650  -0.00652  -3.01617
    D4        0.06466  -0.00003   0.00000  -0.00125  -0.00126   0.06340
    D5        0.08980  -0.00005   0.00000  -0.00080  -0.00079   0.08900
    D6       -3.03662  -0.00021   0.00000  -0.01055  -0.01060  -3.04721
    D7       -3.12358  -0.00005   0.00000   0.00035   0.00037  -3.12322
    D8        0.03319  -0.00020   0.00000  -0.00940  -0.00944   0.02375
    D9       -0.08877   0.00012   0.00000   0.00486   0.00487  -0.08390
   D10        3.05873   0.00012   0.00000   0.00441   0.00442   3.06315
   D11        3.12097  -0.00001   0.00000  -0.00045  -0.00046   3.12051
   D12       -0.01471  -0.00001   0.00000  -0.00090  -0.00091  -0.01562
   D13       -0.03441   0.00004   0.00000   0.00102   0.00102  -0.03338
   D14        3.10719   0.00004   0.00000   0.00102   0.00102   3.10821
   D15        3.10141   0.00004   0.00000   0.00146   0.00146   3.10287
   D16       -0.04018   0.00004   0.00000   0.00145   0.00145  -0.03872
   D17        0.17915  -0.00008   0.00000  -0.00622  -0.00623   0.17292
   D18       -2.96244  -0.00008   0.00000  -0.00623  -0.00624  -2.96868
   D19       -2.96244  -0.00008   0.00000  -0.00622  -0.00623  -2.96867
   D20        0.17915  -0.00008   0.00000  -0.00622  -0.00624   0.17292
   D21        3.10719   0.00004   0.00000   0.00103   0.00103   3.10822
   D22       -0.04018   0.00004   0.00000   0.00146   0.00146  -0.03872
   D23       -0.03441   0.00004   0.00000   0.00103   0.00103  -0.03338
   D24        3.10141   0.00004   0.00000   0.00146   0.00146   3.10287
   D25       -0.20434   0.00007   0.00000   0.00598   0.00600  -0.19835
   D26        2.92196   0.00027   0.00000   0.01597   0.01593   2.93789
   D27        2.93725   0.00007   0.00000   0.00599   0.00600   2.94325
   D28       -0.21963   0.00027   0.00000   0.01598   0.01593  -0.20370
   D29       -0.20434   0.00007   0.00000   0.00598   0.00599  -0.19835
   D30        2.92196   0.00027   0.00000   0.01597   0.01593   2.93789
   D31        2.93725   0.00007   0.00000   0.00597   0.00599   2.94323
   D32       -0.21963   0.00027   0.00000   0.01596   0.01592  -0.20371
   D33        2.07134  -0.00027   0.00000  -0.01403  -0.01400   2.05735
   D34       -0.30983  -0.00061   0.00000  -0.03907  -0.03909  -0.34892
   D35       -1.05479  -0.00044   0.00000  -0.02403  -0.02400  -1.07880
   D36        2.84722  -0.00079   0.00000  -0.04907  -0.04910   2.79812
   D37       -0.08877   0.00012   0.00000   0.00486   0.00487  -0.08390
   D38        3.12097  -0.00002   0.00000  -0.00046  -0.00046   3.12051
   D39        3.05873   0.00012   0.00000   0.00442   0.00442   3.06315
   D40       -0.01471  -0.00001   0.00000  -0.00090  -0.00091  -0.01562
   D41        0.06095  -0.00012   0.00000  -0.00506  -0.00507   0.05588
   D42       -3.00965  -0.00017   0.00000  -0.00650  -0.00652  -3.01617
   D43        3.13526   0.00002   0.00000   0.00019   0.00019   3.13545
   D44        0.06466  -0.00003   0.00000  -0.00125  -0.00126   0.06340
   D45        0.08980  -0.00005   0.00000  -0.00079  -0.00079   0.08901
   D46       -3.03662  -0.00021   0.00000  -0.01055  -0.01059  -3.04721
   D47       -3.12358  -0.00005   0.00000   0.00036   0.00037  -3.12321
   D48        0.03319  -0.00020   0.00000  -0.00940  -0.00944   0.02375
   D49        2.84723  -0.00079   0.00000  -0.04910  -0.04913   2.79810
   D50       -1.05478  -0.00044   0.00000  -0.02407  -0.02404  -1.07883
   D51       -0.30982  -0.00061   0.00000  -0.03909  -0.03912  -0.34894
[...]
 453,-0.06077203,-0.04920564,-0.00431019,-0.00405494,-0.00059300,-0.000
 00435,-0.00000552,-0.00001315,0.00000205,-0.00000251,-0.00000094,-0.00
 000093,0.00000505,-0.00000233,-0.00000871,-0.00000926,-0.00001483,-0.0
 0000775,0.00001007,-0.00001187,0.00023846,-0.00007764,0.00020854,-0.00
 024663,-0.00008296,0.00006890,0.00008550,-0.00002806,-0.00003300,-0.00
 000475,0.00010251,0.00007871,0.00000403,0.00005430,0.00003282,-0.00000
 660,-0.00001366,0.00000947,0.00000730,0.00000393,-0.00002660,-0.012853
 18,0.07082093,-0.00002476,-0.00005712,-0.00002446,0.00009260,0.0000305
 9,0.00002878,-0.00005188,0.00005412,-0.00001893,0.00011433,-0.00004666
 ,-0.00004171,-0.00044170,-0.00025577,0.00005950,0.00019463,0.00018696,
 0.00005258,-0.00005794,0.00007629,-0.00003012,0.00009243,0.00032686,0.
 00015850,-0.00010884,-0.00032070,0.00056201,0.00219275,-0.00026569,0.0
 0015248,-0.00016631,-0.00009633,0.00023331,0.00066820,-0.00493260,-0.0
 0799397,-0.00005025,-0.00012747,-0.00007436,0.00001207,0.00003114,-0.0
 0001596,0.06318623,-0.05555759,-0.28344844,-0.00250339,-0.00166860,0.0
 0050611,-0.00000043,0.00000840,-0.00000496,-0.00000251,-0.00000286,0.0
 0000391,-0.00000248,-0.00000040,-0.00000905,0.00002638,0.00003779,0.00
 000375,-0.00003054,0.00000472,-0.00001188,-0.00027068,0.00076259,-0.00
 044919,-0.00001769,-0.00014325,0.00001417,0.00003751,-0.00001234,-0.00
 002038,0.00000700,-0.00001565,0.00001289,0.00001118,0.00003281,0.00000
 657,-0.00000223,-0.00000795,0.00001465,-0.00000647,0.00001120,-0.00001
 900,-0.06935833,0.06437992,0.30579390,-0.00013045,-0.00004898,0.000012
 14,0.00009888,-0.00004262,-0.00000643,-0.00006994,0.00010489,0.0000547
 2,0.00032844,-0.00043196,-0.00019180,-0.00072817,-0.00031087,-0.000620
 56,0.00012615,0.00035051,0.00006377,0.00017662,0.00050096,0.00005263,-
 0.00044297,-0.00006974,-0.00058732,0.00040676,0.00046508,0.00065539,0.
 00231319,-0.00118928,0.00042387,0.00010037,-0.00034481,0.00013672,0.00
 361440,-0.01804250,0.01043943,-0.00026768,-0.00003544,-0.00017663,-0.0
 0009089,0.00000479,0.00006351,-0.06133459,0.03855564,-0.03176544,-0.00
 021529,0.00041625,0.00144204,-0.00000131,-0.00000124,-0.00000450,0.000
 00325,0.00000357,-0.00000653,-0.00001543,-0.00001108,-0.00000007,-0.00
 000079,0.00000701,0.00012438,-0.00001434,0.00000046,0.00003737,-0.0022
 1683,-0.00027504,0.00129443,-0.00002326,0.00002995,-0.00002559,0.00012
 099,-0.00005827,0.00001093,0.00007018,-0.00000282,0.00000831,0.0000067
 5,0.00000660,0.00000224,0.00002378,-0.00004771,-0.00000327,0.00002134,
 -0.00000931,-0.00000888,0.00159646,-0.00663114,0.00585860,0.06359288,0
 .00002908,-0.00016251,-0.00006042,0.00006731,0.00003766,0.00002984,-0.
 00012170,0.00004171,-0.00000848,0.00010974,-0.00015909,-0.00020391,-0.
 00135486,-0.00028268,-0.00011600,0.00043100,0.00053787,0.00000363,-0.0
 0034103,-0.00014838,0.00007023,0.00036599,0.00059548,0.00016066,-0.001
 42379,0.00048258,0.00048372,0.00769550,-0.00041118,-0.00112750,-0.0000
 1008,-0.00087038,0.00010369,-0.00855652,-0.03672489,0.00773362,-0.0000
 8700,0.00016269,-0.00041068,-0.00020771,0.00009154,0.00021297,0.039551
 84,-0.17653302,0.10592125,-0.00116581,0.00052290,0.00569398,0.00000401
 ,-0.00002102,0.00001271,-0.00001559,-0.00003069,-0.00000146,-0.0000438
 8,-0.00002198,-0.00001580,0.00000327,0.00004134,-0.00000397,-0.0001234
 6,0.00003848,-0.00004863,-0.00025511,0.00077209,0.00018934,-0.00003110
 ,0.00001240,-0.00016237,0.00004527,0.00000596,-0.00002148,0.00001459,-
 0.00011687,0.00002822,-0.00000761,-0.00001366,-0.00000792,0.00004773,-
 0.00016225,0.00000758,0.00004188,0.00000346,-0.00000171,-0.00095824,0.
 00674857,-0.00365914,-0.03746282,0.20924839,0.00004966,0.00005724,0.00
 004672,-0.00005795,-0.00002434,-0.00001760,0.00003360,-0.00001328,0.00
 002208,-0.00003514,-0.00004203,-0.00003607,0.00017744,-0.00001309,-0.0
 0025435,-0.00022673,-0.00007716,0.00001063,0.00002813,0.00006255,0.000
 01041,-0.00013337,-0.00053541,-0.00015228,0.00035541,0.00144322,-0.000
 50240,-0.00114665,-0.00027410,0.00089554,0.00012220,0.00001268,0.00019
 813,0.00588760,-0.00721085,0.00878176,-0.00003606,-0.00030062,-0.00004
 215,0.00006315,-0.00000244,0.00002702,-0.03103004,0.10343239,-0.138119
 97,0.00006604,-0.00204685,0.00365963,-0.00000374,-0.00000697,-0.000005
 44,0.00000725,0.00000866,-0.00000470,0.00000465,0.00000120,0.00000044,
 -0.00002833,-0.00005227,0.00001554,0.00004948,0.00000670,-0.00001721,0
 .00028622,-0.00056910,0.00010963,-0.00014500,-0.00013935,0.00005477,0.
 00009007,-0.00006357,0.00000069,0.00001283,0.00008426,0.00003302,-0.00
 000433,0.00000939,0.00001463,0.00000327,0.00000764,-0.00001818,0.00001
 577,-0.00001545,-0.00000624,-0.00770141,0.02263935,-0.01730460,0.03360
 188,-0.11728882,0.14170802,0.00020044,-0.00004154,0.00007781,-0.000114
 08,0.00000985,-0.00000910,0.00002781,-0.00005626,0.00000710,-0.0001097
 7,-0.00005874,0.00016417,-0.00050358,0.00028311,-0.00018187,-0.0004779
 5,0.00016476,-0.00014321,-0.00023264,-0.00016490,-0.00001341,0.0003076
 5,-0.00003226,-0.00018863,-0.00002076,0.00008387,0.00023510,0.00112207
 ,-0.00105456,-0.00308355,0.00046411,-0.00005281,0.00014184,-0.01963257
 ,-0.00543820,0.00215961,-0.00041467,-0.00017759,-0.00015408,-0.0000682
 3,0.00006285,0.00008814,-0.29605777,0.04982285,0.00929214,0.00059057,0
 .00086386,0.00160591,-0.00000735,-0.00004037,0.00000330,-0.00000114,-0
 .00001938,-0.00000942,-0.00002409,-0.00002014,-0.00000326,-0.00002558,
 -0.00002983,0.00002449,-0.00005230,0.00002929,-0.00000725,0.00002964,-
 0.00022986,0.00020098,-0.00005498,0.00001068,-0.00007199,0.00021068,-0
 .00010669,0.00003032,0.00009260,-0.00002065,0.00003841,-0.00001345,-0.
 00000734,0.00000645,0.00002135,-0.00004187,-0.00001579,0.00006698,-0.0
 0002574,0.00000383,-0.00527143,0.00162225,0.00005206,-0.00675022,0.003
 12686,0.00026172,0.32593245,0.00005712,-0.00007073,0.00002212,0.000021
 64,0.00000703,0.00001121,-0.00005252,0.00006027,0.00000487,0.00008926,
 -0.00033650,0.00020125,-0.00130252,0.00011250,0.00016797,-0.00033773,0
 .00030235,-0.00009698,-0.00008978,0.00009405,-0.00004716,-0.00002772,0
 .00039695,0.00012492,0.00014997,-0.00109279,0.00029037,-0.00075560,-0.
 00384675,-0.00349037,0.00029089,0.00011089,-0.00005050,-0.03647789,-0.
 00083537,0.00116092,-0.00024906,-0.00001754,-0.00010034,0.00000696,-0.
 00003651,0.00003389,0.05701044,-0.05701082,-0.00285133,-0.00187915,0.0
 0095744,0.00045280,-0.00000904,-0.00001742,-0.00000587,0.00000480,-0.0
 0000567,-0.00000224,-0.00001765,-0.00002762,0.00000092,0.00002523,0.00
 004825,0.00000349,-0.00004785,-0.00000296,0.00001471,0.00020345,0.0007
 9091,-0.00002705,-0.00005773,0.00001150,-0.00001625,0.00014933,-0.0000
 8776,0.00006638,0.00010436,0.00006501,0.00001599,-0.00000005,0.0000039
 0,0.00001119,0.00000931,0.00000349,-0.00001547,0.00002575,-0.00002880,
 -0.00000362,0.00606396,-0.00156405,0.00102342,0.02402464,-0.00445336,-
 0.00136105,-0.04801143,0.06717479,-0.00017221,-0.00007466,-0.00002627,
 0.00011720,-0.00005855,0.00000823,-0.00003408,0.00011391,-0.00000430,0
 .00030244,-0.00032900,0.00003623,-0.00053929,-0.00040661,0.00023748,-0
 .00001147,0.00019589,0.00000663,0.00005636,0.00041829,-0.00005803,-0.0
 0043246,-0.00015382,0.00024165,0.00078403,0.00003527,0.00067325,0.0002
 6348,-0.00111943,-0.00082807,-0.00004159,0.00000431,-0.00017476,-0.010
 20429,-0.00103632,0.00034919,0.00023890,0.00003658,0.00013461,-0.00002
 442,0.00000515,0.00000415,0.01188442,-0.00241188,-0.05034591,-0.002007
 83,0.00014970,0.00017530,-0.00000156,0.00000075,-0.00000285,0.00000029
 ,0.00000105,0.00000221,-0.00000181,-0.00000786,-0.00000098,0.00000332,
 0.00001593,-0.00001727,0.00000119,-0.00001394,0.00003602,0.00025654,0.
 00022550,-0.00052796,0.00008631,-0.00001981,-0.00000733,-0.00014638,0.
 00011381,0.00000579,-0.00007536,-0.00003379,-0.00002950,-0.00000913,-0
 .00002662,-0.00001903,0.00000889,-0.00000169,-0.00000627,-0.00000382,-
 0.00000367,0.00002295,0.02904341,-0.00520664,0.00167285,-0.02024718,0.
 00532714,0.00066987,-0.00942172,0.00455497,0.04783098,-0.00053971,-0.0
 0019094,-0.00035875,0.00031218,-0.00019336,-0.00007628,0.00000302,0.00
 031145,0.00010374,0.00005395,-0.00015741,-0.00012559,-0.00103440,-0.00
 011806,0.00123590,0.00139294,-0.00070921,0.00146506,-0.00004841,0.0002
 7987,-0.00000877,-0.00026958,-0.00015284,0.00011128,0.00039143,-0.0002
 7558,-0.00001625,0.00015824,0.00166643,0.00089438,-0.00119936,-0.00094
 591,0.00182498,0.00578473,0.01088669,0.00448674,-0.00030139,-0.0000802
 4,-0.00038919,-0.00017951,0.00032651,-0.00031246,-0.00097500,0.0008789
 6,0.00187228,-0.13127019,-0.12413847,-0.04367101,0.00002807,0.00006409
 ,0.00000270,0.00000356,0.00000618,0.00002253,0.00001442,0.00001099,0.0
 0003575,0.00001240,0.00000652,-0.00001713,0.00000983,-0.00001113,-0.00
 000471,0.00001835,-0.00000840,-0.00006444,-0.00004797,0.00005440,0.000
 07191,0.00011488,0.00000242,-0.00000109,0.00009478,0.00005225,0.000098
 37,0.00014550,0.00024713,0.00001704,-0.00002343,0.00003109,0.00014555,
 -0.00005563,0.00005902,-0.00008773,0.00069480,0.00039230,0.00036178,-0
 .00003585,-0.00016118,-0.00002842,0.00057274,-0.00001361,0.00010066,0.
 13767900,0.00006586,0.00013745,-0.00013225,-0.00011918,-0.00005875,-0.
 00008060,0.00014952,-0.00001091,0.00008010,0.00049675,-0.00007677,0.00
 002248,-0.00006876,0.00020830,0.00070564,-0.00121159,-0.00032221,0.001
 42074,0.00003693,0.00027065,-0.00000510,-0.00036317,-0.00009581,-0.000
 03570,0.00048138,-0.00052712,0.00000668,-0.00175047,0.00028709,0.00017
 380,-0.00013600,-0.00160617,0.00239380,-0.00397815,-0.00961274,-0.0041
 0859,0.00012061,-0.00005957,0.00008505,-0.00001092,0.00008735,0.000365
 86,0.00198935,0.00020708,-0.00220537,-0.11952730,-0.22447134,-0.065958
 28,-0.00000313,-0.00002771,0.00000139,0.00001193,0.00000729,-0.0000045
 3,0.00000074,-0.00001187,-0.00000082,0.00000089,0.00001472,-0.00001071
 ,-0.00000282,-0.00000915,0.00000107,-0.00005126,0.00007768,-0.00001277
 ,-0.00005447,-0.00002339,-0.00001149,-0.00000182,-0.00003029,-0.000006
 34,0.00002178,0.00002981,0.00006815,0.00000106,-0.00008187,-0.00014664
 ,-0.00003017,0.00001257,-0.00014006,-0.00001084,0.00001188,-0.00002012
 ,-0.00049251,-0.00035552,-0.00020529,-0.00003902,0.00030857,0.00022000
 ,-0.00011352,0.00008186,0.00020182,0.13162525,0.24360707,0.00000457,-0
 .00007534,-0.00019495,-0.00004099,0.00008095,0.00004738,-0.00020386,-0
 .00011528,-0.00006224,0.00044245,-0.00000216,0.00011043,0.00052229,-0.
 00020024,-0.00038244,0.00223525,0.00143709,-0.00120983,0.00004228,0.00
 025953,-0.00002401,-0.00032289,-0.00007733,-0.00012211,0.00048904,-0.0
 0008079,-0.00009064,-0.00219458,-0.00119252,0.00068835,-0.00054431,0.0
 0082291,-0.00047506,-0.01679995,-0.02635606,-0.01220890,-0.00022471,-0
 .00030209,-0.00055553,-0.00023338,0.00055409,0.00009190,0.00331599,-0.
 00060579,-0.00501979,-0.03506825,-0.05640013,-0.06730294,0.00000523,-0
 .00001573,-0.00002218,-0.00003092,-0.00001870,0.00001070,-0.00002141,0
 .00000401,-0.00000205,-0.00001881,0.00002327,0.00003350,0.00001661,0.0
 0000704,0.00001160,-0.00007980,0.00010120,0.00000691,-0.00007175,-0.00
 001168,0.00012553,0.00016291,-0.00000408,0.00006970,0.00007286,0.00005
 344,0.00019638,-0.00001527,0.00006707,0.00001425,0.00002565,-0.0001626
 6,0.00005475,0.00007209,-0.00001602,-0.00000763,-0.00067278,-0.0018377
 5,-0.00043283,0.00009106,-0.00049886,0.00008011,0.00007693,0.00035869,
 0.00006784,0.03876793,0.06888658,0.07989948,0.00041499,0.00012386,0.00
 020556,-0.00021988,0.00002428,0.00002274,0.00011847,-0.00012580,-0.000
 01354,0.00010813,0.00003800,0.00006333,0.00021699,0.00016291,-0.000187
 05,-0.00124831,0.00028294,-0.00032221,-0.00012589,-0.00004842,0.000022
 49,0.00007562,0.00024274,-0.00008447,-0.00071777,-0.00043161,0.0005851
 2,0.00180881,0.00324465,0.00058051,0.00140820,0.00044262,-0.00067892,-
 0.01147502,0.00100257,0.00725638,-0.00019243,-0.00022698,0.00042409,-0
 .00018413,-0.00012205,0.00012567,0.00003062,-0.00106897,-0.00084990,-0
 .28657874,0.06497873,-0.02343460,-0.00001817,-0.00006862,-0.00001467,0
 .00000250,-0.00001217,-0.00001504,-0.00001965,-0.00001538,-0.00001617,
 -0.00002247,-0.00001340,0.00000366,-0.00010803,0.00002288,-0.00004675,
 0.00005886,0.00005660,0.00001469,0.00011454,0.00000211,-0.00016279,-0.
 00000819,0.00000017,0.00017550,0.00001210,-0.00006778,-0.00001451,-0.0
 0012217,-0.00008598,-0.00003757,0.00012120,-0.00004525,-0.00009026,0.0
 0020964,-0.00014792,0.00014628,0.00055343,-0.00002862,0.00012436,-0.00
 021147,0.00046745,-0.00021285,0.00045258,0.00061214,0.00027474,-0.0143
 3355,0.00524996,-0.00197330,0.31229603,0.00022603,0.00014090,0.0001790
 9,-0.00012185,0.00006516,0.00000773,0.00001026,-0.00011705,-0.00003963
 ,0.00015528,0.00002889,0.00005650,-0.00013590,0.00005680,0.00025150,-0
 .00073565,0.00014744,-0.00019985,0.00001105,-0.00002672,0.00000218,0.0
 0001862,-0.00008989,0.00003105,0.00033948,0.00027867,-0.00003998,-0.00
 048414,-0.00155153,-0.00073586,0.00069588,0.00051749,-0.00063809,0.009
 67489,-0.00163854,-0.00475992,0.00006015,-0.00001417,0.00024004,-0.000
 07125,-0.00021464,0.00005893,0.00222063,0.00024395,0.00017460,0.064702
 31,-0.06716830,0.00685926,-0.00001305,-0.00001804,-0.00000860,0.000003
 29,0.00000592,-0.00000701,0.00000101,-0.00000611,-0.00000541,0.0000028
 7,0.00000725,-0.00000027,0.00004339,0.00000044,-0.00002385,-0.00000038
 ,-0.00000811,0.00004224,-0.00000220,-0.00003013,-0.00000451,0.00000021
 ,-0.00006376,0.00013319,-0.00000529,0.00003696,-0.00002276,-0.00005657
 ,-0.00002788,-0.00001211,0.00005851,0.00000585,-0.00006372,0.00010765,
 -0.00009600,0.00011767,-0.00019729,0.00013954,0.00016473,-0.00006219,-
 0.00014493,0.00022181,-0.00065675,-0.00038242,-0.00057308,-0.02446750,
 0.00879155,-0.00146376,-0.07468157,0.06735769,-0.00013708,0.00001671,-
 0.00004496,0.00006902,0.00002270,0.00000354,-0.00002670,0.00000267,0.0
 0000213,0.00004166,0.00002542,0.00002101,-0.00008303,-0.00014383,0.000
 08662,0.00031967,-0.00008861,-0.00000309,0.00007600,0.00000607,-0.0000
 0697,0.00014291,-0.00044479,0.00014469,0.00176176,0.00066320,-0.000419
 05,0.00127857,-0.00507551,-0.00288898,-0.00039518,-0.00029344,0.000067
 30,0.03458467,-0.00784482,-0.00590906,0.00035903,0.00001861,-0.0000301
 9,0.00002119,0.00015903,-0.00001126,0.00210020,0.00090058,0.00065689,-
 0.02988381,0.00722256,-0.04921502,0.00000811,0.00002066,0.00000252,-0.
 00000647,0.00000303,0.00000447,0.00001092,0.00001243,-0.00000318,0.000
 01472,0.00001905,-0.00001592,0.00016949,-0.00001733,0.00000363,-0.0000
 6937,-0.00003044,-0.00011274,0.00000107,-0.00000668,0.00007003,-0.0001
 7107,0.00013088,-0.00024668,-0.00013622,-0.00002409,-0.00000973,-0.000
 04677,-0.00003369,-0.00002043,-0.00001094,-0.00002152,0.00000065,-0.00
 003044,0.00006824,0.00000457,0.00009267,0.00031684,0.00010141,-0.00051
 230,-0.00032822,-0.00025117,-0.00080950,-0.00038485,-0.00000937,-0.007
 78785,0.00376896,-0.00070311,0.01957067,-0.00341330,0.05960398,-0.0000
 1479,0.00002899,-0.00000499,0.00004947,-0.00007510,0.00001048,0.000018
 43,0.00007708,0.00002432,0.00034401,-0.00022400,-0.00006473,-0.0005557
 8,-0.00070904,-0.00016243,-0.00010919,0.00036270,0.00005670,-0.0001300
 0,0.00031152,0.00007412,-0.00025534,-0.00016454,-0.00018764,0.00021964
 ,0.00062441,-0.00055354,0.00342518,-0.00101581,0.00047510,0.00033961,0
 .00006316,0.00005577,0.00082832,-0.00814548,0.01355617,-0.00018618,-0.
 00016867,0.00032085,-0.00016652,-0.00004874,0.00000660,-0.00006152,-0.
 00033572,-0.00100550,-0.05541972,0.01835211,-0.01811241,-0.00000446,-0
 .00001892,-0.00002312,0.00000248,-0.00000044,0.00000166,-0.00000708,-0
 .00000809,0.00000717,-0.00000077,0.00000456,0.00002161,0.00001939,-0.0
 0000617,0.00001970,0.00005231,-0.00001553,0.00012611,0.00009461,-0.000
 02158,-0.00007285,0.00001206,0.00000517,0.00013622,0.00006244,-0.00006
 333,0.00003452,-0.00002726,0.00000479,-0.00000704,0.00007027,-0.000014
 60,-0.00001287,0.00009278,-0.00010461,0.00007549,-0.00015203,-0.000076
 11,0.00006430,-0.00005097,0.00032595,-0.00032635,-0.00025908,0.0004800
 7,-0.00004757,0.00282914,-0.01228691,0.01217382,-0.00241684,0.02336006
 ,-0.02051561,0.05135738,-0.00020960,-0.00009986,-0.00027496,0.00014150
 ,-0.00001414,-0.00000388,-0.00013612,0.00004230,-0.00002766,0.00016394
 ,-0.00003571,0.00007692,-0.00013002,-0.00012603,0.00046117,0.00148586,
 0.00021630,0.00013696,-0.00008884,0.00013803,-0.00007308,-0.00015378,-
 0.00000554,0.00016708,-0.00028056,-0.00048397,0.00056657,-0.00165289,0
 .00072319,-0.00092110,-0.00118667,-0.00080803,0.00141958,-0.00044154,0
 .00977413,-0.00954229,-0.00010849,-0.00007644,-0.00048695,-0.00025297,
 0.00055722,0.00001136,-0.00049145,0.00344700,-0.00244673,0.01792172,-0
 .17847848,0.11287320,0.00001183,0.00000753,0.00001399,-0.00002731,-0.0
 0002469,0.00002003,-0.00002413,0.00000333,0.00001787,-0.00002608,0.000
 00485,-0.00000465,-0.00005384,0.00002570,0.00002837,0.00002630,0.00004
 990,-0.00010501,-0.00005228,0.00002965,0.00005365,0.00006807,0.0000369
 7,-0.00002396,0.00006355,-0.00003193,0.00018708,0.00001090,0.00010289,
 -0.00001569,0.00000288,-0.00011707,0.00008428,0.00002077,0.00006508,-0
 .00003380,-0.00002843,0.00024330,0.00024388,0.00064651,0.00060518,0.00
 182966,0.00032020,-0.00040413,0.00007732,0.00472230,-0.01675971,0.0167
 8110,0.00023590,-0.00622628,0.00477349,-0.02049720,0.18761944,-0.00005
 579,0.00033075,0.00001174,-0.00004340,-0.00001280,-0.00001502,-0.00008
 166,0.00003126,0.00000732,-0.00003125,-0.00007388,0.00009164,0.0010049
 9,0.00086376,0.00019933,0.00067408,-0.00059999,0.00021558,0.00070017,0
 .00008906,-0.00005889,-0.00059030,0.00008355,0.00007134,0.00138867,-0.
 00143233,-0.00065591,-0.00840193,0.00060798,0.00023283,-0.00065214,-0.
 00043577,0.00063695,0.00965174,0.01116872,-0.03882935,0.00011386,-0.00
 015740,-0.00032084,0.00002331,0.00005237,-0.00009902,0.00191170,0.0039
 0606,0.00126653,-0.01890155,0.11551285,-0.14750149,0.00001334,0.000038
 04,-0.00005295,0.00000394,0.00003317,0.00001178,0.00002423,0.00000241,
 0.00002530,0.00000716,0.00001781,-0.00001909,0.00004681,-0.00005426,0.
 00002486,-0.00000344,-0.00007832,-0.00009205,-0.00009803,0.00006757,0.
 00019610,0.00001459,-0.00002274,-0.00000981,-0.00003431,0.00018658,0.0
 0004619,0.00002824,0.00007869,0.00001294,-0.00000832,0.00002831,0.0000
 3302,-0.00003846,0.00001602,-0.00002950,0.00016233,-0.00045719,0.00052
 244,-0.00021690,-0.00201323,0.00039371,-0.00035755,-0.00006698,-0.0001
 1734,0.00133111,-0.00531747,0.00730744,-0.00144121,0.00347118,-0.00087
 253,0.01385594,-0.12586379,0.17736677\\0.00000856,0.00000093,0.0000051
 2,-0.00000559,0.00000195,-0.00000287,0.00000026,-0.00000100,-0.0000003
 7,-0.00000237,0.00000053,-0.00000028,0.00000517,-0.00000952,-0.0000071
 7,-0.00003142,-0.00001107,0.00000358,-0.00000279,0.00000087,0.00000246
 ,0.,-0.00000135,0.00000160,0.00000683,0.00000737,0.00000614,0.00000479
 ,-0.00000185,-0.00000505,0.00002406,-0.00000690,0.00001569,0.00000731,
 -0.00000884,0.00000862,-0.00000759,0.00000032,-0.00001347,0.00000132,0
 .00000914,-0.00000103,-0.00000268,-0.00001522,-0.00000493,-0.00000681,
 0.00000299,-0.00000243,0.00000499,0.00000548,-0.00000273,0.00000009,0.
 00000168,-0.00000300,0.00000105,-0.00000008,0.00000043,0.00000156,0.00
 000057,0.00000070,0.00000062,-0.00000204,0.00000266,-0.00000422,0.0000
 0115,0.00000376,-0.00000289,0.00001230,-0.00000685,0.00000125,-0.00000
 405,-0.00000218,-0.00000290,-0.00000022,0.00000462,-0.00000334,-0.0000
 0254,-0.00000671,-0.00000126,-0.00000587,-0.00000425,-0.00000209,0.000
 00127,-0.00000267,0.00000075,-0.00000031,0.00000565,-0.00000014,0.0000
 0147,0.00000378,-0.00000096,0.00000198,0.00000215,0.00001012,0.0000109
 5,-0.00000217,0.00000144,0.00000534,0.00000171,-0.00000311,0.00000458,
 -0.00000053\\\@


 YOU WILL NEVER "FIND" TIME FOR ANYTHING.
 IF YOU WANT TIME, YOU MUST MAKE IT.

                        -- CHARLES BIXTON
 Job cpu time:       0 days  1 hours 46 minutes 48.3 seconds.
 File lengths (MBytes):  RWF=    514 Int=      0 D2E=      0 Chk=     13 Scr=      1
 Normal termination of Gaussian 09 at Tue Dec 17 17:33:39 2024.
