 Entering Gaussian System, Link 0=g09
 Input=b3lypD3DMANyang.gjf
 Output=b3lypD3DMANyang.log
 Initial command:
 /home/c612/g09E/g09/l1.exe "/mnt/ja_sm883/scratch/Gau-1810838.inp" -scrdir="/mnt/ja_sm883/scratch/"
 Default is to use a total of  18 processors:
                               18 via shared-memory
                                1 via Linda
 Entering Link 1 = /home/c612/g09E/g09/l1.exe PID=   1810840.
  
 Copyright (c) 1988,1990,1992,1993,1995,1998,2003,2009,2015,
            Gaussian, Inc.  All Rights Reserved.
  
 This is part of the Gaussian(R) 09 program.  It is based on
 the Gaussian(R) 03 system (copyright 2003, Gaussian, Inc.),
 the Gaussian(R) 98 system (copyright 1998, Gaussian, Inc.),
 the Gaussian(R) 94 system (copyright 1995, Gaussian, Inc.),
 the Gaussian 92(TM) system (copyright 1992, Gaussian, Inc.),
 the Gaussian 90(TM) system (copyright 1990, Gaussian, Inc.),
 the Gaussian 88(TM) system (copyright 1988, Gaussian, Inc.),
 the Gaussian 86(TM) system (copyright 1986, Carnegie Mellon
 University), and the Gaussian 82(TM) system (copyright 1983,
 Carnegie Mellon University). Gaussian is a federally registered
 trademark of Gaussian, Inc.
  
 This software contains proprietary and confidential information,
 including trade secrets, belonging to Gaussian, Inc.
  
 This software is provided under written license and may be
 used, copied, transmitted, or stored only in accord with that
 written license.
  
 The following legend is applicable only to US Government
 contracts under FAR:
  
                    RESTRICTED RIGHTS LEGEND
  
 Use, reproduction and disclosure by the US Government is
 subject to restrictions as set forth in subparagraphs (a)
 and (c) of the Commercial Computer Software - Restricted
 Rights clause in FAR 52.227-19.
  
 Gaussian, Inc.
 340 Quinnipiac St., Bldg. 40, Wallingford CT 06492
  
  
 ---------------------------------------------------------------
 Warning -- This program may not be used in any manner that
 competes with the business of Gaussian, Inc. or will provide
 assistance to any competitor of Gaussian, Inc.  The licensee
 of this program is prohibited from giving any competitor of
 Gaussian, Inc. access to this program.  By using this program,
 the user acknowledges that Gaussian, Inc. is engaged in the
 business of creating and licensing software in the field of
 computational chemistry and represents and warrants to the
 licensee that it is not a competitor of Gaussian, Inc. and that
 it will not use this program in any manner prohibited above.
 ---------------------------------------------------------------
  

 Cite this work as:
 Gaussian 09, Revision E.01,
 M. J. Frisch, G. W. Trucks, H. B. Schlegel, G. E. Scuseria, 
 M. A. Robb, J. R. Cheeseman, G. Scalmani, V. Barone, B. Mennucci, 
 G. A. Petersson, H. Nakatsuji, M. Caricato, X. Li, H. P. Hratchian, 
 A. F. Izmaylov, J. Bloino, G. Zheng, J. L. Sonnenberg, M. Hada, 
 M. Ehara, K. Toyota, R. Fukuda, J. Hasegawa, M. Ishida, T. Nakajima, 
 Y. Honda, O. Kitao, H. Nakai, T. Vreven, J. A. Montgomery, Jr., 
 J. E. Peralta, F. Ogliaro, M. Bearpark, J. J. Heyd, E. Brothers, 
 K. N. Kudin, V. N. Staroverov, T. Keith, R. Kobayashi, J. Normand, 
 K. Raghavachari, A. Rendell, J. C. Burant, S. S. Iyengar, J. Tomasi, 
 M. Cossi, N. Rega, J. M. Millam, M. Klene, J. E. Knox, J. B. Cross, 
 V. Bakken, C. Adamo, J. Jaramillo, R. Gomperts, R. E. Stratmann, 
 O. Yazyev, A. J. Austin, R. Cammi, C. Pomelli, J. W. Ochterski, 
 R. L. Martin, K. Morokuma, V. G. Zakrzewski, G. A. Voth, 
 P. Salvador, J. J. Dannenberg, S. Dapprich, A. D. Daniels, 
 O. Farkas, J. B. Foresman, J. V. Ortiz, J. Cioslowski, 
 and D. J. Fox, Gaussian, Inc., Wallingford CT, 2013.
 
 ******************************************
 Gaussian 09:  ES64L-G09RevE.01 30-Nov-2015
                17-Dec-2024 
 ******************************************
 %chk=b3lypD3DMANyang.chk
 ----------------------------------------------------
 # opt freq b3lyp/6-31+g(d,p) EmpiricalDispersion=GD3
 ----------------------------------------------------
 1/14=-1,18=20,19=15,26=3,38=1/1,3;
 2/9=110,12=2,17=6,18=5,40=1/2;
 3/5=1,6=6,7=111,11=2,16=1,25=1,30=1,71=1,74=-5,124=31/1,2,3;
 4//1;
 5/5=2,38=5/2;
 6/7=2,8=2,9=2,10=2,28=1/1;
 7//1,2,3,16;
 1/14=-1,18=20,19=15,26=3/3(2);
 2/9=110/2;
 99//99;
 2/9=110/2;
 3/5=1,6=6,7=111,11=2,16=1,25=1,30=1,71=1,74=-5,124=31/1,2,3;
 4/5=5,16=3,69=1/1;
 5/5=2,38=5/2;
 7//1,2,3,16;
 1/14=-1,18=20,19=15,26=3/3(-5);
 2/9=110/2;
 6/7=2,8=2,9=2,10=2,19=2,28=1/1;
 99/9=1/99;
 ----------
 [No Title]
 ----------
 Symbolic Z-matrix:
 Charge =  1 Multiplicity = 1
 C                     0.75988  -2.4345    0.00011 
 C                     2.16894  -2.3914    0.00009 
 C                     2.81248  -1.17758   0.00003 
 C                     2.08644   0.04068  -0.00002 
 C                     0.64965   0.01714  -0.00001 
 C                     0.0313   -1.26886   0.00006 
 C                     2.76718   1.28422  -0.00009 
 C                     2.07197   2.46871  -0.00014 
 C                     0.66199   2.45507  -0.00013 
 C                    -0.04062   1.27005  -0.00006 
 N                    -1.44253  -1.32698   0.00008 
 N                    -1.49984   1.26805  -0.00005 
 C                    -2.00145  -1.94679  -1.23313 
 C                    -2.00142  -1.9467    1.23336 
 C                    -2.06852   1.87955   1.21836 
 C                    -2.06854   1.87949  -1.21849 
 H                     0.25805  -3.39797   0.00016 
 H                     2.73366  -3.31779   0.00013 
 H                     3.89781  -1.13423   0.00002 
 H                     3.85331   1.28322  -0.0001 
 H                     2.59908   3.41739  -0.00019 
 H                     0.12447   3.39904  -0.00017 
 H                    -1.6973   -0.22796   0.00005 
 H                    -3.08714  -1.82946  -1.2259 
 H                    -1.57834  -1.44703  -2.10502 
 H                    -1.75115  -3.00874  -1.26858 
 H                    -3.08711  -1.82938   1.22614 
 H                    -1.57829  -1.44688   2.1052 
 H                    -1.75111  -3.00865   1.26888 
 H                    -1.63295   1.41157   2.10387 
 H                    -1.8736    2.95787   1.26454 
 H                    -3.15099   1.72385   1.22488 
 H                    -1.63297   1.41148  -2.10398 
 H                    -3.151     1.72378  -1.22499 
 H                    -1.87363   2.95781  -1.26472 
 

 GradGradGradGradGradGradGradGradGradGradGradGradGradGradGradGradGradGrad
 Berny optimization.
 Initialization pass.
                           ----------------------------
                           !    Initial Parameters    !
                           ! (Angstroms and Degrees)  !
 --------------------------                            --------------------------
 ! Name  Definition              Value          Derivative Info.                !
 --------------------------------------------------------------------------------
 ! R1    R(1,2)                  1.4097         estimate D2E/DX2                !
 ! R2    R(1,6)                  1.3746         estimate D2E/DX2                !
 ! R3    R(1,17)                 1.0863         estimate D2E/DX2                !
 ! R4    R(2,3)                  1.3739         estimate D2E/DX2                !
 ! R5    R(2,18)                 1.0849         estimate D2E/DX2                !
 ! R6    R(3,4)                  1.4182         estimate D2E/DX2                !
 ! R7    R(3,19)                 1.0862         estimate D2E/DX2                !
 ! R8    R(4,5)                  1.437          estimate D2E/DX2                !
 ! R9    R(4,7)                  1.4177         estimate D2E/DX2                !
 ! R10   R(5,6)                  1.4269         estimate D2E/DX2                !
 ! R11   R(5,10)                 1.4305         estimate D2E/DX2                !
 ! R12   R(6,11)                 1.475          estimate D2E/DX2                !
 ! R13   R(7,8)                  1.3734         estimate D2E/DX2                !
 ! R14   R(7,20)                 1.0861         estimate D2E/DX2                !
 ! R15   R(8,9)                  1.41           estimate D2E/DX2                !
 ! R16   R(8,21)                 1.0853         estimate D2E/DX2                !
 ! R17   R(9,10)                 1.3776         estimate D2E/DX2                !
 ! R18   R(9,22)                 1.0863         estimate D2E/DX2                !
 ! R19   R(10,12)                1.4592         estimate D2E/DX2                !
 ! R20   R(11,13)                1.4891         estimate D2E/DX2                !
 ! R21   R(11,14)                1.4891         estimate D2E/DX2                !
 ! R22   R(11,23)                1.1282         estimate D2E/DX2                !
 ! R23   R(12,15)                1.4771         estimate D2E/DX2                !
 ! R24   R(12,16)                1.4771         estimate D2E/DX2                !
 ! R25   R(13,24)                1.092          estimate D2E/DX2                !
 ! R26   R(13,25)                1.0904         estimate D2E/DX2                !
 ! R27   R(13,26)                1.0916         estimate D2E/DX2                !
 ! R28   R(14,27)                1.092          estimate D2E/DX2                !
 ! R29   R(14,28)                1.0904         estimate D2E/DX2                !
 ! R30   R(14,29)                1.0916         estimate D2E/DX2                !
 ! R31   R(15,30)                1.0922         estimate D2E/DX2                !
 ! R32   R(15,31)                1.0968         estimate D2E/DX2                !
 ! R33   R(15,32)                1.0936         estimate D2E/DX2                !
 ! R34   R(16,33)                1.0922         estimate D2E/DX2                !
 ! R35   R(16,34)                1.0936         estimate D2E/DX2                !
 ! R36   R(16,35)                1.0968         estimate D2E/DX2                !
 ! A1    A(2,1,6)              120.2555         estimate D2E/DX2                !
 ! A2    A(2,1,17)             119.265          estimate D2E/DX2                !
 ! A3    A(6,1,17)             120.4794         estimate D2E/DX2                !
 ! A4    A(1,2,3)              119.6833         estimate D2E/DX2                !
 ! A5    A(1,2,18)             119.6139         estimate D2E/DX2                !
 ! A6    A(3,2,18)             120.7028         estimate D2E/DX2                !
 ! A7    A(2,3,4)              121.2753         estimate D2E/DX2                !
 ! A8    A(2,3,19)             120.2187         estimate D2E/DX2                !
 ! A9    A(4,3,19)             118.506          estimate D2E/DX2                !
 ! A10   A(3,4,5)              119.8548         estimate D2E/DX2                !
 ! A11   A(3,4,7)              120.5095         estimate D2E/DX2                !
 ! A12   A(5,4,7)              119.6357         estimate D2E/DX2                !
 ! A13   A(4,5,6)              116.6184         estimate D2E/DX2                !
 ! A14   A(4,5,10)             117.9131         estimate D2E/DX2                !
 ! A15   A(6,5,10)             125.4685         estimate D2E/DX2                !
 ! A16   A(1,6,5)              122.3127         estimate D2E/DX2                !
 ! A17   A(1,6,11)             119.7492         estimate D2E/DX2                !
 ! A18   A(5,6,11)             117.9381         estimate D2E/DX2                !
 ! A19   A(4,7,8)              120.8928         estimate D2E/DX2                !
 ! A20   A(4,7,20)             118.6442         estimate D2E/DX2                !
 ! A21   A(8,7,20)             120.463          estimate D2E/DX2                !
 ! A22   A(7,8,9)              119.8554         estimate D2E/DX2                !
 ! A23   A(7,8,21)             120.532          estimate D2E/DX2                !
 ! A24   A(9,8,21)             119.6125         estimate D2E/DX2                !
 ! A25   A(8,9,10)             121.2186         estimate D2E/DX2                !
 ! A26   A(8,9,22)             119.1033         estimate D2E/DX2                !
 ! A27   A(10,9,22)            119.6781         estimate D2E/DX2                !
 ! A28   A(5,10,9)             120.4843         estimate D2E/DX2                !
 ! A29   A(5,10,12)            118.7731         estimate D2E/DX2                !
 ! A30   A(9,10,12)            120.7426         estimate D2E/DX2                !
 ! A31   A(6,11,13)            113.0443         estimate D2E/DX2                !
 ! A32   A(6,11,14)            113.0444         estimate D2E/DX2                !
 ! A33   A(6,11,23)            100.7934         estimate D2E/DX2                !
 ! A34   A(13,11,14)           111.826          estimate D2E/DX2                !
 ! A35   A(13,11,23)           108.7051         estimate D2E/DX2                !
 ! A36   A(14,11,23)           108.7047         estimate D2E/DX2                !
 ! A37   A(10,12,15)           112.6085         estimate D2E/DX2                !
 ! A38   A(10,12,16)           112.6085         estimate D2E/DX2                !
 ! A39   A(15,12,16)           111.1507         estimate D2E/DX2                !
 ! A40   A(11,13,24)           108.8417         estimate D2E/DX2                !
 ! A41   A(11,13,25)           109.0137         estimate D2E/DX2                !
 ! A42   A(11,13,26)           110.2278         estimate D2E/DX2                !
 ! A43   A(24,13,25)           109.9885         estimate D2E/DX2                !
 ! A44   A(24,13,26)           109.4323         estimate D2E/DX2                !
 ! A45   A(25,13,26)           109.3251         estimate D2E/DX2                !
 ! A46   A(11,14,27)           108.8418         estimate D2E/DX2                !
 ! A47   A(11,14,28)           109.0136         estimate D2E/DX2                !
 ! A48   A(11,14,29)           110.2277         estimate D2E/DX2                !
 ! A49   A(27,14,28)           109.9884         estimate D2E/DX2                !
 ! A50   A(27,14,29)           109.4324         estimate D2E/DX2                !
 ! A51   A(28,14,29)           109.325          estimate D2E/DX2                !
 ! A52   A(12,15,30)           109.7461         estimate D2E/DX2                !
 ! A53   A(12,15,31)           111.9209         estimate D2E/DX2                !
 ! A54   A(12,15,32)           109.0895         estimate D2E/DX2                !
 ! A55   A(30,15,31)           108.4368         estimate D2E/DX2                !
 ! A56   A(30,15,32)           109.2026         estimate D2E/DX2                !
 ! A57   A(31,15,32)           108.399          estimate D2E/DX2                !
 ! A58   A(12,16,33)           109.7461         estimate D2E/DX2                !
 ! A59   A(12,16,34)           109.0895         estimate D2E/DX2                !
 ! A60   A(12,16,35)           111.9209         estimate D2E/DX2                !
 ! A61   A(33,16,34)           109.2027         estimate D2E/DX2                !
 ! A62   A(33,16,35)           108.4368         estimate D2E/DX2                !
 ! A63   A(34,16,35)           108.3989         estimate D2E/DX2                !
 ! D1    D(6,1,2,3)              0.0            estimate D2E/DX2                !
 ! D2    D(6,1,2,18)           179.9999         estimate D2E/DX2                !
 ! D3    D(17,1,2,3)          -179.9999         estimate D2E/DX2                !
 ! D4    D(17,1,2,18)            0.0            estimate D2E/DX2                !
 ! D5    D(2,1,6,5)              0.0            estimate D2E/DX2                !
 ! D6    D(2,1,6,11)          -179.9998         estimate D2E/DX2                !
 ! D7    D(17,1,6,5)           179.9999         estimate D2E/DX2                !
 ! D8    D(17,1,6,11)            0.0001         estimate D2E/DX2                !
 ! D9    D(1,2,3,4)             -0.0001         estimate D2E/DX2                !
 ! D10   D(1,2,3,19)          -180.0            estimate D2E/DX2                !
 ! D11   D(18,2,3,4)          -179.9999         estimate D2E/DX2                !
 ! D12   D(18,2,3,19)            0.0002         estimate D2E/DX2                !
 ! D13   D(2,3,4,5)              0.0            estimate D2E/DX2                !
 ! D14   D(2,3,4,7)           -180.0            estimate D2E/DX2                !
 ! D15   D(19,3,4,5)           179.9999         estimate D2E/DX2                !
 ! D16   D(19,3,4,7)            -0.0001         estimate D2E/DX2                !
 ! D17   D(3,4,5,6)              0.0001         estimate D2E/DX2                !
 ! D18   D(3,4,5,10)          -180.0            estimate D2E/DX2                !
 ! D19   D(7,4,5,6)           -179.9999         estimate D2E/DX2                !
 ! D20   D(7,4,5,10)             0.0            estimate D2E/DX2                !
 ! D21   D(3,4,7,8)            179.9999         estimate D2E/DX2                !
 ! D22   D(3,4,7,20)             0.0            estimate D2E/DX2                !
 ! D23   D(5,4,7,8)             -0.0001         estimate D2E/DX2                !
 ! D24   D(5,4,7,20)          -180.0            estimate D2E/DX2                !
 ! D25   D(4,5,6,1)             -0.0001         estimate D2E/DX2                !
 ! D26   D(4,5,6,11)           179.9997         estimate D2E/DX2                !
 ! D27   D(10,5,6,1)           179.9999         estimate D2E/DX2                !
 ! D28   D(10,5,6,11)           -0.0002         estimate D2E/DX2                !
 ! D29   D(4,5,10,9)            -0.0001         estimate D2E/DX2                !
 ! D30   D(4,5,10,12)          179.9999         estimate D2E/DX2                !
 ! D31   D(6,5,10,9)           179.9999         estimate D2E/DX2                !
 ! D32   D(6,5,10,12)           -0.0002         estimate D2E/DX2                !
 ! D33   D(1,6,11,13)          -64.1597         estimate D2E/DX2                !
 ! D34   D(1,6,11,14)           64.158          estimate D2E/DX2                !
 ! D35   D(1,6,11,23)          179.9989         estimate D2E/DX2                !
 ! D36   D(5,6,11,13)          115.8404         estimate D2E/DX2                !
 ! D37   D(5,6,11,14)         -115.8418         estimate D2E/DX2                !
 ! D38   D(5,6,11,23)           -0.0009         estimate D2E/DX2                !
 ! D39   D(4,7,8,9)              0.0001         estimate D2E/DX2                !
 ! D40   D(4,7,8,21)          -180.0            estimate D2E/DX2                !
 ! D41   D(20,7,8,9)          -180.0            estimate D2E/DX2                !
 ! D42   D(20,7,8,21)            0.0            estimate D2E/DX2                !
 ! D43   D(7,8,9,10)            -0.0001         estimate D2E/DX2                !
 ! D44   D(7,8,9,22)          -179.9999         estimate D2E/DX2                !
 ! D45   D(21,8,9,10)          179.9999         estimate D2E/DX2                !
 ! D46   D(21,8,9,22)            0.0001         estimate D2E/DX2                !
 ! D47   D(8,9,10,5)             0.0001         estimate D2E/DX2                !
 ! D48   D(8,9,10,12)         -179.9998         estimate D2E/DX2                !
 ! D49   D(22,9,10,5)          179.9999         estimate D2E/DX2                !
 ! D50   D(22,9,10,12)           0.0            estimate D2E/DX2                !
 ! D51   D(5,10,12,15)         116.6776         estimate D2E/DX2                !
 ! D52   D(5,10,12,16)        -116.6804         estimate D2E/DX2                !
 ! D53   D(9,10,12,15)         -63.3224         estimate D2E/DX2                !
 ! D54   D(9,10,12,16)          63.3195         estimate D2E/DX2                !
 ! D55   D(6,11,13,24)        -172.1663         estimate D2E/DX2                !
 ! D56   D(6,11,13,25)         -52.1916         estimate D2E/DX2                !
 ! D57   D(6,11,13,26)          67.8088         estimate D2E/DX2                !
 ! D58   D(14,11,13,24)         58.8865         estimate D2E/DX2                !
 ! D59   D(14,11,13,25)        178.8612         estimate D2E/DX2                !
 ! D60   D(14,11,13,26)        -61.1383         estimate D2E/DX2                !
 ! D61   D(23,11,13,24)        -61.1346         estimate D2E/DX2                !
 ! D62   D(23,11,13,25)         58.8401         estimate D2E/DX2                !
 ! D63   D(23,11,13,26)        178.8405         estimate D2E/DX2                !
 ! D64   D(6,11,14,27)         172.1666         estimate D2E/DX2                !
 ! D65   D(6,11,14,28)          52.1919         estimate D2E/DX2                !
 ! D66   D(6,11,14,29)         -67.8084         estimate D2E/DX2                !
 ! D67   D(13,11,14,27)        -58.8863         estimate D2E/DX2                !
 ! D68   D(13,11,14,28)       -178.8609         estimate D2E/DX2                !
 ! D69   D(13,11,14,29)         61.1387         estimate D2E/DX2                !
 ! D70   D(23,11,14,27)         61.1351         estimate D2E/DX2                !
 ! D71   D(23,11,14,28)        -58.8396         estimate D2E/DX2                !
 ! D72   D(23,11,14,29)       -178.8399         estimate D2E/DX2                !
 ! D73   D(10,12,15,30)        -52.5693         estimate D2E/DX2                !
 ! D74   D(10,12,15,31)         67.872          estimate D2E/DX2                !
 ! D75   D(10,12,15,32)       -172.1745         estimate D2E/DX2                !
 ! D76   D(16,12,15,30)       -179.9873         estimate D2E/DX2                !
 ! D77   D(16,12,15,31)        -59.546          estimate D2E/DX2                !
 ! D78   D(16,12,15,32)         60.4075         estimate D2E/DX2                !
 ! D79   D(10,12,16,33)         52.5687         estimate D2E/DX2                !
 ! D80   D(10,12,16,34)        172.174          estimate D2E/DX2                !
 ! D81   D(10,12,16,35)        -67.8726         estimate D2E/DX2                !
 ! D82   D(15,12,16,33)        179.9868         estimate D2E/DX2                !
 ! D83   D(15,12,16,34)        -60.408          estimate D2E/DX2                !
 ! D84   D(15,12,16,35)         59.5454         estimate D2E/DX2                !
 --------------------------------------------------------------------------------
 Trust Radius=3.00D-01 FncErr=1.00D-07 GrdErr=1.00D-06
 Number of steps in this run=    193 maximum allowed number of steps=    210.
 GradGradGradGradGradGradGradGradGradGradGradGradGradGradGradGradGradGrad

                          Input orientation:                          
 ---------------------------------------------------------------------
 Center     Atomic      Atomic             Coordinates (Angstroms)
 Number     Number       Type             X           Y           Z
 ---------------------------------------------------------------------
      1          6           0        0.759884   -2.434495    0.000109
      2          6           0        2.168943   -2.391396    0.000093
      3          6           0        2.812478   -1.177577    0.000029
      4          6           0        2.086443    0.040679   -0.000023
      5          6           0        0.649649    0.017141   -0.000009
      6          6           0        0.031299   -1.268855    0.000060
      7          6           0        2.767183    1.284224   -0.000089
      8          6           0        2.071967    2.468714   -0.000141
      9          6           0        0.661986    2.455065   -0.000127
     10          6           0       -0.040617    1.270052   -0.000064
     11          7           0       -1.442525   -1.326975    0.000082
     12          7           0       -1.499842    1.268051   -0.000054
     13          6           0       -2.001447   -1.946790   -1.233134
     14          6           0       -2.001415   -1.946702    1.233356
     15          6           0       -2.068522    1.879546    1.218361
     16          6           0       -2.068539    1.879488   -1.218490
     17          1           0        0.258049   -3.397974    0.000162
     18          1           0        2.733658   -3.317788    0.000134
     19          1           0        3.897810   -1.134226    0.000016
     20          1           0        3.853308    1.283221   -0.000099
     21          1           0        2.599081    3.417390   -0.000192
     22          1           0        0.124472    3.399039   -0.000170
     23          1           0       -1.697297   -0.227962    0.000051
     24          1           0       -3.087138   -1.829462   -1.225896
     25          1           0       -1.578342   -1.447034   -2.105025
     26          1           0       -1.751147   -3.008739   -1.268583
     27          1           0       -3.087106   -1.829379    1.226137
     28          1           0       -1.578291   -1.446880    2.105201
     29          1           0       -1.751108   -3.008647    1.268877
     30          1           0       -1.632947    1.411568    2.103869
     31          1           0       -1.873601    2.957866    1.264541
     32          1           0       -3.150988    1.723849    1.224878
     33          1           0       -1.632969    1.411475   -2.103981
     34          1           0       -3.151004    1.723783   -1.224989
     35          1           0       -1.873627    2.957807   -1.264719
 ---------------------------------------------------------------------
                    Distance matrix (angstroms):
                    1          2          3          4          5
     1  C    0.000000
     2  C    1.409718   0.000000
     3  C    2.406862   1.373861   0.000000
     4  C    2.808246   2.433474   1.418194   0.000000
     5  C    2.454113   2.847684   2.470866   1.436987   0.000000
     6  C    1.374610   2.414461   2.782676   2.436903   1.426935
     7  C    4.225887   3.723986   2.462218   1.417678   2.467681
     8  C    5.075729   4.861077   3.720725   2.428078   2.834290
     9  C    4.890540   5.075343   4.221458   2.803273   2.437955
    10  C    3.790049   4.276489   3.759127   2.456775   1.430473
    11  N    2.465199   3.765062   4.257625   3.784718   2.486733
    12  N    4.337650   5.181847   4.957540   3.790499   2.486984
    13  C    3.063281   4.371576   5.028544   4.709718   3.522206
    14  C    3.063268   4.371565   5.028540   4.709723   3.522216
    15  C    5.300469   6.138504   5.886807   4.704214   3.513037
    16  C    5.300510   6.138538   5.886830   4.704227   3.513058
    17  H    1.086338   2.159795   3.384564   3.894529   3.437493
    18  H    2.162404   1.084945   2.141662   3.420261   3.932537
    19  H    3.396657   2.137629   1.086197   2.159040   3.446186
    20  H    4.836392   4.042264   2.671863   2.160028   3.444763
    21  H    6.134102   5.824690   4.599920   3.415403   3.919436
    22  H    5.868038   6.140765   5.307616   3.889462   3.422433
    23  H    3.302503   4.430379   4.608670   3.793265   2.359710
    24  H    4.082736   5.426344   6.060802   5.636145   4.344689
    25  H    3.297570   4.400623   4.876798   4.480510   3.396887
    26  H    2.871343   4.166264   5.078307   5.063131   4.065594
    27  H    4.082725   5.426334   6.060798   5.636151   4.344699
    28  H    3.297553   4.400608   4.876795   4.480522   3.396908
    29  H    2.871324   4.166247   5.078298   5.063131   4.065599
    30  H    4.994362   5.774320   5.558023   4.487712   3.403083
    31  H    6.132829   6.823166   6.376536   5.078489   4.075996
    32  H    5.838391   6.836447   6.743994   5.635967   4.342585
    33  H    4.994439   5.774382   5.558061   4.487733   3.403118
    34  H    5.838423   6.836473   6.744010   5.635977   4.342599
    35  H    6.132870   6.823203   6.376564   5.078508   4.076019
                    6          7          8          9         10
     6  C    0.000000
     7  C    3.742095   0.000000
     8  C    4.258374   1.373442   0.000000
     9  C    3.776949   2.408884   1.410047   0.000000
    10  C    2.539925   2.807836   2.428951   1.377645   0.000000
    11  N    1.474970   4.953787   5.172901   4.328140   2.951253
    12  N    2.963155   4.267056   3.768211   2.466273   1.459226
    13  C    2.472331   5.890644   6.132671   5.290606   3.964012
    14  C    2.472331   5.890653   6.132687   5.290627   3.964033
    15  C    3.975668   5.022258   4.356089   3.044932   2.443039
    16  C    3.975707   5.022255   4.356071   3.044908   2.443039
    17  H    2.141159   5.312131   6.140711   5.866961   4.677571
    18  H    3.391293   4.602134   5.824212   6.133323   5.361425
    19  H    3.868854   2.669685   4.039168   4.832553   4.614300
    20  H    4.595742   1.086125   2.139759   3.399670   3.893947
    21  H    5.343631   2.139779   1.085281   2.162962   3.402803
    22  H    4.668824   3.384725   2.158296   1.086282   2.135378
    23  H    2.017796   4.713628   4.634589   3.572793   2.233525
    24  H    3.397337   6.743198   6.825918   5.823711   4.515633
    25  H    2.655951   5.547442   5.752250   4.967499   3.765371
    26  H    2.795311   6.360339   6.799091   6.106173   4.779446
    27  H    3.397337   6.743208   6.825935   5.823734   4.515655
    28  H    2.655954   5.547461   5.752280   4.967537   3.765409
    29  H    2.795308   6.360344   6.799102   6.106189   4.779462
    30  H    3.792149   4.878934   4.389852   3.283657   2.642362
    31  H    4.805489   5.092862   4.172073   2.877741   2.794239
    32  H    4.536894   6.059584   5.416157   4.071128   3.373547
    33  H    3.792222   4.878923   4.389812   3.283611   2.642357
    34  H    4.536924   6.059582   5.416143   4.071112   3.373547
    35  H    4.805526   5.092866   4.172060   2.877721   2.794243
                   11         12         13         14         15
    11  N    0.000000
    12  N    2.595659   0.000000
    13  C    1.489089   3.479554   0.000000
    14  C    1.489088   3.479585   2.466490   0.000000
    15  C    3.486811   1.477111   4.544796   3.826866   0.000000
    16  C    3.486863   1.477111   3.826894   4.544864   2.436851
    17  H    2.679737   4.986178   2.955043   2.955019   5.894842
    18  H    4.626429   6.241189   5.081516   5.081499   7.180341
    19  H    5.343812   5.908095   6.081295   6.081291   6.794432
    20  H    5.904149   5.353171   6.799375   6.799382   6.075222
    21  H    6.232462   4.628264   7.173523   7.173541   5.063235
    22  H    4.979025   2.679460   5.883674   5.883700   2.933070
    23  H    1.128157   1.508988   2.137200   2.137194   2.462453
    24  H    2.111934   3.690093   1.092036   2.690810   4.557270
    25  H    2.112898   3.436386   1.090398   3.401977   4.727717
    26  H    2.129105   4.468026   1.091624   2.729516   5.493719
    27  H    2.111934   3.690125   2.690809   1.092036   3.846258
    28  H    2.112897   3.436438   3.401978   1.090399   3.477344
    29  H    2.129104   4.468049   2.729518   1.091624   4.898748
    30  H    3.458583   2.113009   4.748679   3.488773   1.092178
    31  H    4.488268   2.143448   5.505486   4.906332   1.096768
    32  H    3.704929   2.105824   4.564741   3.846366   1.093625
    33  H    3.458679   2.113008   3.488853   4.748781   3.383305
    34  H    3.704973   2.105824   3.846382   4.564808   2.676936
    35  H    4.488310   2.143448   4.906364   5.505535   2.714096
                   16         17         18         19         20
    16  C    0.000000
    17  H    5.894890   0.000000
    18  H    7.180377   2.476907   0.000000
    19  H    6.794450   4.286306   2.474509   0.000000
    20  H    6.075219   5.902497   4.735282   2.417857   0.000000
    21  H    5.063207   7.206221   6.736522   4.733276   2.475432
    22  H    2.933025   6.798325   7.205804   5.898184   4.287296
    23  H    2.462521   3.724561   5.401887   5.668028   5.752642
    24  H    3.846285   3.892778   6.131878   7.125708   7.704620
    25  H    3.477353   3.407391   5.150219   5.875141   6.433337
    26  H    4.898776   2.407922   4.671042   6.085545   7.172161
    27  H    4.557343   3.892758   6.131863   7.125704   7.704627
    28  H    4.727789   3.407360   5.150195   5.875137   6.433351
    29  H    5.493780   2.407888   4.671017   6.085535   7.172162
    30  H    3.383306   5.579708   6.771983   6.441781   5.877257
    31  H    2.714101   6.821971   7.887293   7.187032   6.099282
    32  H    2.676932   6.273319   7.845200   7.704183   7.124246
    33  H    1.092178   5.579800   6.772050   6.441810   5.877245
    34  H    1.093626   6.273359   7.845229   7.704196   7.124243
    35  H    1.096768   6.822017   7.887333   7.187056   6.099286
                   21         22         23         24         25
    21  H    0.000000
    22  H    2.474677   0.000000
    23  H    5.634488   4.058815   0.000000
    24  H    7.833575   6.257321   2.449369   0.000000
    25  H    6.748615   5.551073   2.435494   1.787620   0.000000
    26  H    7.863106   6.796060   3.056968   1.782523   1.780005
    27  H    7.833594   6.257349   2.449366   2.452033   3.676846
    28  H    6.748647   5.551119   2.435484   3.676846   4.210226
    29  H    7.863118   6.796081   3.056963   3.065835   3.721787
    30  H    5.134243   3.386081   2.668005   4.868910   5.088160
    31  H    4.670717   2.405499   3.432130   5.531135   5.553764
    32  H    6.118184   3.877582   2.724516   4.316988   4.859626
    33  H    5.134186   3.386005   2.668116   3.659141   2.859031
    34  H    6.118162   3.877552   2.724573   3.553819   3.647165
    35  H    4.670692   2.405446   3.432180   4.938832   4.493988
                   26         27         28         29         30
    26  H    0.000000
    27  H    3.065828   0.000000
    28  H    3.721787   1.787619   0.000000
    29  H    2.537460   1.782524   1.780006   0.000000
    30  H    5.561162   3.659061   2.858971   4.499942   0.000000
    31  H    6.483216   4.938804   4.493963   5.967772   1.775788
    32  H    5.529402   3.553802   3.647172   4.935394   1.781739
    33  H    4.500016   4.869018   5.088261   5.561259   4.207850
    34  H    4.935409   4.317066   4.859701   5.529464   3.671957
    35  H    5.967804   5.531188   5.553814   6.483263   3.714319
                   31         32         33         34         35
    31  H    0.000000
    32  H    1.776538   0.000000
    33  H    3.714320   3.671956   0.000000
    34  H    3.058182   2.449867   1.781739   0.000000
    35  H    2.529260   3.058169   1.775787   1.776538   0.000000
 Stoichiometry    C14H19N2(1+)
 Framework group  C1[X(C14H19N2)]
 Deg. of freedom    99
 Full point group                 C1      NOp   1
 Largest Abelian subgroup         C1      NOp   1
 Largest concise Abelian subgroup C1      NOp   1
                         Standard orientation:                         
 ---------------------------------------------------------------------
 Center     Atomic      Atomic             Coordinates (Angstroms)
 Number     Number       Type             X           Y           Z
 ---------------------------------------------------------------------
      1          6           0        0.759885   -2.434495    0.000109
      2          6           0        2.168944   -2.391395    0.000093
      3          6           0        2.812478   -1.177576    0.000029
      4          6           0        2.086443    0.040680   -0.000023
      5          6           0        0.649649    0.017141   -0.000009
      6          6           0        0.031299   -1.268855    0.000060
      7          6           0        2.767183    1.284225   -0.000089
      8          6           0        2.071966    2.468715   -0.000141
      9          6           0        0.661985    2.455065   -0.000127
     10          6           0       -0.040617    1.270052   -0.000064
     11          7           0       -1.442525   -1.326975    0.000082
     12          7           0       -1.499842    1.268051   -0.000054
     13          6           0       -2.001446   -1.946791   -1.233134
     14          6           0       -2.001414   -1.946703    1.233356
     15          6           0       -2.068523    1.879545    1.218361
     16          6           0       -2.068540    1.879487   -1.218490
     17          1           0        0.258050   -3.397974    0.000162
     18          1           0        2.733659   -3.317787    0.000134
     19          1           0        3.897810   -1.134225    0.000016
     20          1           0        3.853308    1.283222   -0.000099
     21          1           0        2.599080    3.417391   -0.000192
     22          1           0        0.124471    3.399039   -0.000170
     23          1           0       -1.697297   -0.227963    0.000051
     24          1           0       -3.087137   -1.829463   -1.225896
     25          1           0       -1.578342   -1.447034   -2.105025
     26          1           0       -1.751146   -3.008740   -1.268583
     27          1           0       -3.087105   -1.829380    1.226137
     28          1           0       -1.578291   -1.446880    2.105201
     29          1           0       -1.751107   -3.008648    1.268877
     30          1           0       -1.632947    1.411568    2.103869
     31          1           0       -1.873602    2.957865    1.264541
     32          1           0       -3.150988    1.723848    1.224878
     33          1           0       -1.632969    1.411475   -2.103981
     34          1           0       -3.151004    1.723782   -1.224989
     35          1           0       -1.873628    2.957806   -1.264719
 ---------------------------------------------------------------------
 Rotational constants (GHZ):      0.6382957      0.6046595      0.3552615
 Standard basis: 6-31+G(d,p) (6D, 7F)
 There are   399 symmetry adapted cartesian basis functions of A   symmetry.
 There are   399 symmetry adapted basis functions of A   symmetry.
   399 basis functions,   645 primitive gaussians,   399 cartesian basis functions
    58 alpha electrons       58 beta electrons
       nuclear repulsion energy      1138.7788830633 Hartrees.
 NAtoms=   35 NActive=   35 NUniq=   35 SFac= 1.00D+00 NAtFMM=   60 NAOKFM=F Big=F
 Integral buffers will be    131072 words long.
 Raffenetti 2 integral format.
 Two-electron integral symmetry is turned on.
 Nuclear repulsion after empirical dispersion term =     1138.7419501475 Hartrees.
 One-electron integrals computed using PRISM.
 NBasis=   399 RedAO= T EigKep=  1.57D-06  NBF=   399
 NBsUse=   395 1.00D-06 EigRej=  8.29D-07 NBFU=   395
 ExpMin= 4.38D-02 ExpMax= 4.17D+03 ExpMxC= 6.27D+02 IAcc=2 IRadAn=         4 AccDes= 0.00D+00
 Harris functional with IExCor=  402 and IRadAn=       4 diagonalized for initial guess.
 HarFok:  IExCor=  402 AccDes= 0.00D+00 IRadAn=         4 IDoV= 1 UseB2=F ITyADJ=14
 ICtDFT=  3500011 ScaDFX=  1.000000  1.000000  1.000000  1.000000
 FoFCou: FMM=F IPFlag=           0 FMFlag=      100000 FMFlg1=           0
         NFxFlg=           0 DoJE=T BraDBF=F KetDBF=T FulRan=T
         wScrn=  0.000000 ICntrl=     500 IOpCl=  0 I1Cent=   200000004 NGrid=           0
         NMat0=    1 NMatS0=      1 NMatT0=    0 NMatD0=    1 NMtDS0=    0 NMtDT0=    0
 Petite list used in FoFCou.
 Requested convergence on RMS density matrix=1.00D-08 within 128 cycles.
 Requested convergence on MAX density matrix=1.00D-06.
 Requested convergence on             energy=1.00D-06.
 No special actions if energy rises.
 SCF Done:  E(RB3LYP) =  -654.295158902     A.U. after   15 cycles
            NFock= 15  Conv=0.25D-08     -V/T= 2.0096

 **********************************************************************

            Population analysis using the SCF density.

 **********************************************************************

 Orbital symmetries:
       Occupied  (A) (A) (A) (A) (A) (A) (A) (A) (A) (A) (A) (A)
                 (A) (A) (A) (A) (A) (A) (A) (A) (A) (A) (A) (A)
                 (A) (A) (A) (A) (A) (A) (A) (A) (A) (A) (A) (A)
                 (A) (A) (A) (A) (A) (A) (A) (A) (A) (A) (A) (A)
                 (A) (A) (A) (A) (A) (A) (A) (A) (A) (A)
       Virtual   (A) (A) (A) (A) (A) (A) (A) (A) (A) (A) (A) (A)
                 (A) (A) (A) (A) (A) (A) (A) (A) (A) (A) (A) (A)
                 (A) (A) (A) (A) (A) (A) (A) (A) (A) (A) (A) (A)
                 (A) (A) (A) (A) (A) (A) (A) (A) (A) (A) (A) (A)
                 (A) (A) (A) (A) (A) (A) (A) (A) (A) (A) (A) (A)
                 (A) (A) (A) (A) (A) (A) (A) (A) (A) (A) (A) (A)
                 (A) (A) (A) (A) (A) (A) (A) (A) (A) (A) (A) (A)
                 (A) (A) (A) (A) (A) (A) (A) (A) (A) (A) (A) (A)
                 (A) (A) (A) (A) (A) (A) (A) (A) (A) (A) (A) (A)
                 (A) (A) (A) (A) (A) (A) (A) (A) (A) (A) (A) (A)
                 (A) (A) (A) (A) (A) (A) (A) (A) (A) (A) (A) (A)
                 (A) (A) (A) (A) (A) (A) (A) (A) (A) (A) (A) (A)
                 (A) (A) (A) (A) (A) (A) (A) (A) (A) (A) (A) (A)
                 (A) (A) (A) (A) (A) (A) (A) (A) (A) (A) (A) (A)
                 (A) (A) (A) (A) (A) (A) (A) (A) (A) (A) (A) (A)
                 (A) (A) (A) (A) (A) (A) (A) (A) (A) (A) (A) (A)
                 (A) (A) (A) (A) (A) (A) (A) (A) (A) (A) (A) (A)
                 (A) (A) (A) (A) (A) (A) (A) (A) (A) (A) (A) (A)
                 (A) (A) (A) (A) (A) (A) (A) (A) (A) (A) (A) (A)
                 (A) (A) (A) (A) (A) (A) (A) (A) (A) (A) (A) (A)
                 (A) (A) (A) (A) (A) (A) (A) (A) (A) (A) (A) (A)
                 (A) (A) (A) (A) (A) (A) (A) (A) (A) (A) (A) (A)
                 (A) (A) (A) (A) (A) (A) (A) (A) (A) (A) (A) (A)
                 (A) (A) (A) (A) (A) (A) (A) (A) (A) (A) (A) (A)
                 (A) (A) (A) (A) (A) (A) (A) (A) (A) (A) (A) (A)
                 (A) (A) (A) (A) (A) (A) (A) (A) (A) (A) (A) (A)
                 (A) (A) (A) (A) (A) (A) (A) (A) (A) (A) (A) (A)
                 (A) (A) (A) (A) (A) (A) (A) (A) (A) (A) (A) (A)
                 (A)
 The electronic state is 1-A.
 Alpha  occ. eigenvalues --  -14.57013 -14.51014 -10.37970 -10.37593 -10.37593
 Alpha  occ. eigenvalues --  -10.36676 -10.35146 -10.34943 -10.34943 -10.33998
 Alpha  occ. eigenvalues --  -10.33908 -10.32950 -10.32717 -10.32648 -10.32274
 Alpha  occ. eigenvalues --  -10.32208  -1.14376  -1.08898  -1.01037  -0.95914
 Alpha  occ. eigenvalues --   -0.91523  -0.88651  -0.88452  -0.86578  -0.85387
 Alpha  occ. eigenvalues --   -0.82627  -0.79513  -0.76797  -0.74882  -0.72088
 Alpha  occ. eigenvalues --   -0.68372  -0.66694  -0.65948  -0.63737  -0.63518
 Alpha  occ. eigenvalues --   -0.62433  -0.60254  -0.59941  -0.59409  -0.57458
 Alpha  occ. eigenvalues --   -0.56671  -0.56637  -0.55388  -0.54912  -0.54288
 Alpha  occ. eigenvalues --   -0.53855  -0.52969  -0.52423  -0.52291  -0.51345
 Alpha  occ. eigenvalues --   -0.50965  -0.48371  -0.47846  -0.46387  -0.42318
 Alpha  occ. eigenvalues --   -0.39445  -0.38507  -0.35498
 Alpha virt. eigenvalues --   -0.18545  -0.15399  -0.12538  -0.11919  -0.10062
 Alpha virt. eigenvalues --   -0.09478  -0.09356  -0.08835  -0.08194  -0.07255
 Alpha virt. eigenvalues --   -0.07075  -0.06762  -0.05747  -0.05527  -0.05248
 Alpha virt. eigenvalues --   -0.04984  -0.04746  -0.04210  -0.03968  -0.03953
 Alpha virt. eigenvalues --   -0.03222  -0.02505  -0.02171  -0.02139  -0.01131
 Alpha virt. eigenvalues --   -0.00240   0.00083   0.00858   0.00965   0.01054
 Alpha virt. eigenvalues --    0.01766   0.02348   0.02433   0.02753   0.03182
 Alpha virt. eigenvalues --    0.03286   0.04079   0.04241   0.04444   0.05456
 Alpha virt. eigenvalues --    0.06325   0.06522   0.06585   0.07001   0.07310
 Alpha virt. eigenvalues --    0.07364   0.07663   0.08112   0.08263   0.08790
 Alpha virt. eigenvalues --    0.08971   0.09139   0.09377   0.10597   0.10927
 Alpha virt. eigenvalues --    0.11100   0.11337   0.12388   0.12511   0.13321
 Alpha virt. eigenvalues --    0.13378   0.13588   0.14231   0.14713   0.15413
 Alpha virt. eigenvalues --    0.15596   0.15860   0.15976   0.16135   0.16183
 Alpha virt. eigenvalues --    0.16477   0.16928   0.16950   0.17071   0.17990
 Alpha virt. eigenvalues --    0.18529   0.19477   0.20128   0.20432   0.21755
 Alpha virt. eigenvalues --    0.22295   0.22671   0.22911   0.23296   0.23324
 Alpha virt. eigenvalues --    0.25683   0.26289   0.27036   0.27072   0.27797
 Alpha virt. eigenvalues --    0.29220   0.29284   0.32161   0.32379   0.33152
 Alpha virt. eigenvalues --    0.35597   0.39488   0.41235   0.42969   0.48779
 Alpha virt. eigenvalues --    0.51363   0.52309   0.52691   0.53273   0.54289
 Alpha virt. eigenvalues --    0.54588   0.56094   0.56517   0.58231   0.58640
 Alpha virt. eigenvalues --    0.59133   0.59777   0.60893   0.61032   0.61991
 Alpha virt. eigenvalues --    0.63453   0.63940   0.64375   0.64978   0.65139
 Alpha virt. eigenvalues --    0.65997   0.66490   0.66770   0.68150   0.68421
 Alpha virt. eigenvalues --    0.70428   0.72059   0.73536   0.73668   0.74066
 Alpha virt. eigenvalues --    0.75831   0.76414   0.77502   0.78503   0.79349
 Alpha virt. eigenvalues --    0.81003   0.81701   0.82209   0.83966   0.84366
 Alpha virt. eigenvalues --    0.84628   0.85049   0.86410   0.87152   0.87797
 Alpha virt. eigenvalues --    0.89111   0.89376   0.90241   0.90971   0.91429
 Alpha virt. eigenvalues --    0.92132   0.93212   0.94607   0.97837   0.98551
 Alpha virt. eigenvalues --    0.99476   1.01402   1.01785   1.03305   1.03808
 Alpha virt. eigenvalues --    1.03976   1.05663   1.05708   1.06688   1.08597
 Alpha virt. eigenvalues --    1.08960   1.10280   1.13354   1.13627   1.14797
 Alpha virt. eigenvalues --    1.15345   1.17355   1.17621   1.19031   1.21153
 Alpha virt. eigenvalues --    1.22233   1.24721   1.26827   1.27965   1.28607
 Alpha virt. eigenvalues --    1.29952   1.30529   1.32352   1.33688   1.36268
 Alpha virt. eigenvalues --    1.36763   1.39782   1.40200   1.41557   1.41862
 Alpha virt. eigenvalues --    1.44194   1.45691   1.45869   1.55200   1.60899
 Alpha virt. eigenvalues --    1.63588   1.64061   1.64947   1.67818   1.68683
 Alpha virt. eigenvalues --    1.70694   1.72600   1.74201   1.76057   1.76624
 Alpha virt. eigenvalues --    1.77892   1.78184   1.79070   1.79104   1.80470
 Alpha virt. eigenvalues --    1.80854   1.82731   1.84184   1.86074   1.86269
 Alpha virt. eigenvalues --    1.86631   1.87376   1.87563   1.88470   1.89355
 Alpha virt. eigenvalues --    1.89569   1.90499   1.90654   1.91838   1.94930
 Alpha virt. eigenvalues --    1.95005   1.95889   1.96311   1.96970   1.98731
 Alpha virt. eigenvalues --    1.99306   1.99564   2.01108   2.01849   2.02960
 Alpha virt. eigenvalues --    2.03875   2.04313   2.10101   2.11689   2.12169
 Alpha virt. eigenvalues --    2.15270   2.15355   2.17154   2.19691   2.21228
 Alpha virt. eigenvalues --    2.22394   2.24500   2.25698   2.26021   2.27118
 Alpha virt. eigenvalues --    2.27824   2.28485   2.29560   2.29704   2.31969
 Alpha virt. eigenvalues --    2.33511   2.37365   2.37725   2.38838   2.39464
 Alpha virt. eigenvalues --    2.43430   2.44315   2.44973   2.46349   2.46911
 Alpha virt. eigenvalues --    2.47078   2.48148   2.49044   2.50903   2.52782
 Alpha virt. eigenvalues --    2.52904   2.55791   2.56000   2.57268   2.58071
 Alpha virt. eigenvalues --    2.58892   2.59839   2.61056   2.61324   2.61469
 Alpha virt. eigenvalues --    2.63188   2.64614   2.67060   2.67970   2.72259
 Alpha virt. eigenvalues --    2.72464   2.73601   2.73988   2.76569   2.76603
 Alpha virt. eigenvalues --    2.77431   2.79892   2.81452   2.85894   2.88617
 Alpha virt. eigenvalues --    2.93436   2.97112   2.99198   3.05715   3.07576
 Alpha virt. eigenvalues --    3.12981   3.13217   3.13582   3.14713   3.14956
 Alpha virt. eigenvalues --    3.16455   3.19883   3.23941   3.25543   3.26980
 Alpha virt. eigenvalues --    3.30399   3.30558   3.31200   3.32152   3.33270
 Alpha virt. eigenvalues --    3.35396   3.37595   3.41213   3.51163   3.64445
 Alpha virt. eigenvalues --    3.72658   4.15925   4.20084   4.21337   4.26865
 Alpha virt. eigenvalues --    4.30245   4.33258   4.35002   4.40019   4.41450
 Alpha virt. eigenvalues --    4.42280   4.45669   4.51888   4.55304   4.58430
 Alpha virt. eigenvalues --    4.59876   4.81233
          Condensed to atoms (all electrons):
               1          2          3          4          5          6
     1  C    6.908149   0.899401  -2.078071   0.424524   0.237574  -1.218182
     2  C    0.899401   6.291651  -0.817410  -0.332576   0.530938  -0.858197
     3  C   -2.078071  -0.817410  13.272947  -3.554729  -3.288967   2.370343
     4  C    0.424524  -0.332576  -3.554729  11.635007   2.033995  -0.013018
     5  C    0.237574   0.530938  -3.288967   2.033995   8.850587  -0.041273
     6  C   -1.218182  -0.858197   2.370343  -0.013018  -0.041273   9.602552
     7  C    0.419131   0.225914   0.567798  -3.491055  -3.238142  -1.134196
     8  C   -0.171404  -0.215271   0.071071  -0.272868   0.712223   0.156373
     9  C    0.084022  -0.161756   0.500229   0.482919   0.112421   0.269260
    10  C    0.193117   0.127039  -0.996787   0.010763   0.130344  -1.310113
    11  N   -0.111180   0.062288  -0.000865  -0.159433   0.018856  -0.451888
    12  N    0.040226   0.033442  -0.105939  -0.148505  -0.012237  -0.067383
    13  C    0.050676   0.026087  -0.002724  -0.081226  -0.034392  -0.592620
    14  C    0.050678   0.026086  -0.002725  -0.081222  -0.034397  -0.592618
    15  C    0.041788   0.009616  -0.059111  -0.066323  -0.038798   0.052356
    16  C    0.041792   0.009616  -0.059110  -0.066318  -0.038808   0.052356
    17  H    0.216248   0.081047   0.067832  -0.027357  -0.020149  -0.057213
    18  H   -0.000160   0.257454   0.018560   0.004414   0.006696   0.041590
    19  H    0.007228   0.053340   0.206871   0.035265   0.061707  -0.007637
    20  H   -0.002256   0.001919  -0.054566   0.035673   0.063673   0.003167
    21  H   -0.000191   0.001311  -0.006168   0.011557   0.008837   0.000798
    22  H   -0.000767   0.001092  -0.001106  -0.023471  -0.013177  -0.006155
    23  H   -0.042752  -0.007919   0.014975   0.027202  -0.002676   0.022411
    24  H   -0.007999   0.000760  -0.000937  -0.000013   0.008907   0.070521
    25  H    0.007406  -0.001993  -0.003278   0.004398  -0.009018  -0.056316
    26  H    0.010125  -0.007583  -0.000292  -0.007628  -0.001178  -0.040881
    27  H   -0.008000   0.000760  -0.000937  -0.000014   0.008907   0.070523
    28  H    0.007412  -0.001994  -0.003278   0.004400  -0.009022  -0.056323
    29  H    0.010121  -0.007583  -0.000291  -0.007629  -0.001177  -0.040879
    30  H    0.002961  -0.000299   0.002350   0.008163  -0.017470   0.012913
    31  H   -0.000331   0.000006  -0.001022  -0.005752   0.005156  -0.002432
    32  H   -0.000153   0.000069  -0.000004  -0.001047   0.008268  -0.010584
    33  H    0.002961  -0.000299   0.002350   0.008165  -0.017472   0.012914
    34  H   -0.000153   0.000069  -0.000004  -0.001047   0.008268  -0.010585
    35  H   -0.000331   0.000006  -0.001022  -0.005753   0.005155  -0.002432
               7          8          9         10         11         12
     1  C    0.419131  -0.171404   0.084022   0.193117  -0.111180   0.040226
     2  C    0.225914  -0.215271  -0.161756   0.127039   0.062288   0.033442
     3  C    0.567798   0.071071   0.500229  -0.996787  -0.000865  -0.105939
     4  C   -3.491055  -0.272868   0.482919   0.010763  -0.159433  -0.148505
     5  C   -3.238142   0.712223   0.112421   0.130344   0.018856  -0.012237
     6  C   -1.134196   0.156373   0.269260  -1.310113  -0.451888  -0.067383
     7  C   13.580980  -0.974367  -2.083049   2.198659  -0.114532   0.038816
     8  C   -0.974367   6.343206   0.799438  -0.766016   0.038137   0.062778
     9  C   -2.083049   0.799438   6.778879  -1.046324   0.041188  -0.121688
    10  C    2.198659  -0.766016  -1.046324   9.187996  -0.060099  -0.425682
    11  N   -0.114532   0.038137   0.041188  -0.060099   7.802447  -0.213790
    12  N    0.038816   0.062778  -0.121688  -0.425682  -0.213790   7.978991
    13  C   -0.062168   0.012522   0.032473   0.058160   0.267032  -0.010010
    14  C   -0.062165   0.012522   0.032476   0.058161   0.267028  -0.010012
    15  C    0.007638   0.016917   0.045950  -0.583857  -0.011202   0.262146
    16  C    0.007638   0.016912   0.045956  -0.583849  -0.011207   0.262149
    17  H   -0.001478   0.001228  -0.000824  -0.006099   0.032928  -0.000567
    18  H   -0.007944   0.001374  -0.000038   0.000122  -0.000675  -0.000021
    19  H   -0.053869   0.002950  -0.002354   0.001902  -0.000096   0.000229
    20  H    0.198445   0.061830   0.005549  -0.008011   0.000234  -0.000115
    21  H    0.004405   0.262216   0.002099   0.037458  -0.000022  -0.001115
    22  H    0.061989   0.071774   0.220472  -0.053125  -0.000410   0.026551
    23  H   -0.001351  -0.004887  -0.029656   0.051446   0.150269   0.088884
    24  H    0.000221   0.000081  -0.000531  -0.013693  -0.058938   0.004387
    25  H    0.001832   0.000074   0.001250   0.012801  -0.023646  -0.003234
    26  H   -0.001381  -0.000100   0.000282  -0.001227  -0.019745  -0.000657
    27  H    0.000221   0.000081  -0.000531  -0.013693  -0.058939   0.004387
    28  H    0.001833   0.000074   0.001251   0.012801  -0.023645  -0.003234
    29  H   -0.001381  -0.000100   0.000282  -0.001227  -0.019744  -0.000657
    30  H   -0.001176  -0.003685   0.018594  -0.066539  -0.002728  -0.029037
    31  H   -0.003175  -0.006555  -0.008428  -0.000230  -0.001437  -0.044516
    32  H   -0.000935   0.000400  -0.007201   0.054950   0.006178  -0.066396
    33  H   -0.001176  -0.003684   0.018600  -0.066542  -0.002730  -0.029041
    34  H   -0.000935   0.000400  -0.007201   0.054950   0.006178  -0.066395
    35  H   -0.003174  -0.006557  -0.008434  -0.000230  -0.001437  -0.044513
              13         14         15         16         17         18
     1  C    0.050676   0.050678   0.041788   0.041792   0.216248  -0.000160
     2  C    0.026087   0.026086   0.009616   0.009616   0.081047   0.257454
     3  C   -0.002724  -0.002725  -0.059111  -0.059110   0.067832   0.018560
     4  C   -0.081226  -0.081222  -0.066323  -0.066318  -0.027357   0.004414
     5  C   -0.034392  -0.034397  -0.038798  -0.038808  -0.020149   0.006696
     6  C   -0.592620  -0.592618   0.052356   0.052356  -0.057213   0.041590
     7  C   -0.062168  -0.062165   0.007638   0.007638  -0.001478  -0.007944
     8  C    0.012522   0.012522   0.016917   0.016912   0.001228   0.001374
     9  C    0.032473   0.032476   0.045950   0.045956  -0.000824  -0.000038
    10  C    0.058160   0.058161  -0.583857  -0.583849  -0.006099   0.000122
    11  N    0.267032   0.267028  -0.011202  -0.011207   0.032928  -0.000675
    12  N   -0.010010  -0.010012   0.262146   0.262149  -0.000567  -0.000021
    13  C    5.372430  -0.047115  -0.031657  -0.035191   0.011322  -0.000387
    14  C   -0.047115   5.372431  -0.035193  -0.031656   0.011321  -0.000387
    15  C   -0.031657  -0.035193   5.333785  -0.036322  -0.000352  -0.000003
    16  C   -0.035191  -0.031656  -0.036322   5.333778  -0.000352  -0.000003
    17  H    0.011322   0.011321  -0.000352  -0.000352   0.554266  -0.004563
    18  H   -0.000387  -0.000387  -0.000003  -0.000003  -0.004563   0.525748
    19  H   -0.000028  -0.000028   0.000064   0.000064  -0.000167  -0.004329
    20  H    0.000064   0.000064  -0.000054  -0.000054   0.000000  -0.000007
    21  H    0.000006   0.000006  -0.000546  -0.000546  -0.000000  -0.000000
    22  H   -0.000266  -0.000266   0.012307   0.012306  -0.000000  -0.000000
    23  H   -0.018986  -0.018987  -0.028792  -0.028792  -0.000012   0.000002
    24  H    0.375873  -0.025693   0.002816   0.004282   0.000019  -0.000000
    25  H    0.421401   0.017304  -0.000717  -0.005884   0.000139  -0.000000
    26  H    0.434163  -0.009059   0.000170  -0.000959  -0.000207   0.000004
    27  H   -0.025694   0.375873   0.004282   0.002816   0.000019  -0.000000
    28  H    0.017304   0.421402  -0.005884  -0.000717   0.000139  -0.000000
    29  H   -0.009058   0.434163  -0.000958   0.000169  -0.000207   0.000004
    30  H   -0.000807  -0.006741   0.426756   0.016948   0.000000  -0.000000
    31  H    0.000723   0.000039   0.428386  -0.013726  -0.000000  -0.000000
    32  H    0.001751   0.002720   0.393565  -0.023781   0.000000   0.000000
    33  H   -0.006741  -0.000808   0.016946   0.426759   0.000000  -0.000000
    34  H    0.002720   0.001752  -0.023781   0.393566   0.000000   0.000000
    35  H    0.000039   0.000723  -0.013722   0.428387  -0.000000  -0.000000
              19         20         21         22         23         24
     1  C    0.007228  -0.002256  -0.000191  -0.000767  -0.042752  -0.007999
     2  C    0.053340   0.001919   0.001311   0.001092  -0.007919   0.000760
     3  C    0.206871  -0.054566  -0.006168  -0.001106   0.014975  -0.000937
     4  C    0.035265   0.035673   0.011557  -0.023471   0.027202  -0.000013
     5  C    0.061707   0.063673   0.008837  -0.013177  -0.002676   0.008907
     6  C   -0.007637   0.003167   0.000798  -0.006155   0.022411   0.070521
     7  C   -0.053869   0.198445   0.004405   0.061989  -0.001351   0.000221
     8  C    0.002950   0.061830   0.262216   0.071774  -0.004887   0.000081
     9  C   -0.002354   0.005549   0.002099   0.220472  -0.029656  -0.000531
    10  C    0.001902  -0.008011   0.037458  -0.053125   0.051446  -0.013693
    11  N   -0.000096   0.000234  -0.000022  -0.000410   0.150269  -0.058938
    12  N    0.000229  -0.000115  -0.001115   0.026551   0.088884   0.004387
    13  C   -0.000028   0.000064   0.000006  -0.000266  -0.018986   0.375873
    14  C   -0.000028   0.000064   0.000006  -0.000266  -0.018987  -0.025693
    15  C    0.000064  -0.000054  -0.000546   0.012307  -0.028792   0.002816
    16  C    0.000064  -0.000054  -0.000546   0.012306  -0.028792   0.004282
    17  H   -0.000167   0.000000  -0.000000  -0.000000  -0.000012   0.000019
    18  H   -0.004329  -0.000007  -0.000000  -0.000000   0.000002  -0.000000
    19  H    0.538712   0.002788  -0.000007   0.000000  -0.000000   0.000000
    20  H    0.002788   0.540419  -0.004299  -0.000165  -0.000000   0.000000
    21  H   -0.000007  -0.004299   0.527693  -0.004598   0.000001   0.000000
    22  H    0.000000  -0.000165  -0.004598   0.552185   0.000006   0.000000
    23  H   -0.000000  -0.000000   0.000001   0.000006   0.357602  -0.003559
    24  H    0.000000   0.000000   0.000000   0.000000  -0.003559   0.504217
    25  H    0.000000  -0.000000  -0.000000   0.000000  -0.003134  -0.022488
    26  H   -0.000000  -0.000000  -0.000000  -0.000000   0.003228  -0.025504
    27  H    0.000000   0.000000   0.000000   0.000000  -0.003559   0.001664
    28  H    0.000000  -0.000000  -0.000000   0.000000  -0.003134   0.000151
    29  H   -0.000000  -0.000000  -0.000000  -0.000000   0.003228  -0.000450
    30  H   -0.000000   0.000000  -0.000001   0.000130  -0.002285   0.000000
    31  H    0.000000  -0.000000   0.000008   0.000274   0.001513   0.000000
    32  H    0.000000   0.000000  -0.000000  -0.000001  -0.002367   0.000008
    33  H   -0.000000   0.000000  -0.000001   0.000130  -0.002284  -0.000031
    34  H    0.000000   0.000000  -0.000000  -0.000001  -0.002367  -0.000052
    35  H    0.000000  -0.000000   0.000008   0.000274   0.001513   0.000006
              25         26         27         28         29         30
     1  C    0.007406   0.010125  -0.008000   0.007412   0.010121   0.002961
     2  C   -0.001993  -0.007583   0.000760  -0.001994  -0.007583  -0.000299
     3  C   -0.003278  -0.000292  -0.000937  -0.003278  -0.000291   0.002350
     4  C    0.004398  -0.007628  -0.000014   0.004400  -0.007629   0.008163
     5  C   -0.009018  -0.001178   0.008907  -0.009022  -0.001177  -0.017470
     6  C   -0.056316  -0.040881   0.070523  -0.056323  -0.040879   0.012913
     7  C    0.001832  -0.001381   0.000221   0.001833  -0.001381  -0.001176
     8  C    0.000074  -0.000100   0.000081   0.000074  -0.000100  -0.003685
     9  C    0.001250   0.000282  -0.000531   0.001251   0.000282   0.018594
    10  C    0.012801  -0.001227  -0.013693   0.012801  -0.001227  -0.066539
    11  N   -0.023646  -0.019745  -0.058939  -0.023645  -0.019744  -0.002728
    12  N   -0.003234  -0.000657   0.004387  -0.003234  -0.000657  -0.029037
    13  C    0.421401   0.434163  -0.025694   0.017304  -0.009058  -0.000807
    14  C    0.017304  -0.009059   0.375873   0.421402   0.434163  -0.006741
    15  C   -0.000717   0.000170   0.004282  -0.005884  -0.000958   0.426756
    16  C   -0.005884  -0.000959   0.002816  -0.000717   0.000169   0.016948
    17  H    0.000139  -0.000207   0.000019   0.000139  -0.000207   0.000000
    18  H   -0.000000   0.000004  -0.000000  -0.000000   0.000004  -0.000000
    19  H    0.000000  -0.000000   0.000000   0.000000  -0.000000  -0.000000
    20  H   -0.000000  -0.000000   0.000000  -0.000000  -0.000000   0.000000
    21  H   -0.000000  -0.000000   0.000000  -0.000000  -0.000000  -0.000001
    22  H    0.000000  -0.000000   0.000000   0.000000  -0.000000   0.000130
    23  H   -0.003134   0.003228  -0.003559  -0.003134   0.003228  -0.002285
    24  H   -0.022488  -0.025504   0.001664   0.000151  -0.000450   0.000000
    25  H    0.493351  -0.022597   0.000151  -0.000185   0.000002  -0.000001
    26  H   -0.022597   0.497255  -0.000450   0.000002   0.002924   0.000000
    27  H    0.000151  -0.000450   0.504217  -0.022488  -0.025504  -0.000031
    28  H   -0.000185   0.000002  -0.022488   0.493352  -0.022597   0.000157
    29  H    0.000002   0.002924  -0.025504  -0.022597   0.497256   0.000015
    30  H   -0.000001   0.000000  -0.000031   0.000157   0.000015   0.524231
    31  H    0.000000  -0.000000   0.000006   0.000018  -0.000000  -0.027398
    32  H    0.000000   0.000000  -0.000052  -0.000045   0.000004  -0.023641
    33  H    0.000157   0.000015   0.000000  -0.000001   0.000000  -0.000198
    34  H   -0.000045   0.000004   0.000008   0.000000   0.000000   0.000203
    35  H    0.000018  -0.000000   0.000000   0.000000  -0.000000  -0.000072
              31         32         33         34         35
     1  C   -0.000331  -0.000153   0.002961  -0.000153  -0.000331
     2  C    0.000006   0.000069  -0.000299   0.000069   0.000006
     3  C   -0.001022  -0.000004   0.002350  -0.000004  -0.001022
     4  C   -0.005752  -0.001047   0.008165  -0.001047  -0.005753
     5  C    0.005156   0.008268  -0.017472   0.008268   0.005155
     6  C   -0.002432  -0.010584   0.012914  -0.010585  -0.002432
     7  C   -0.003175  -0.000935  -0.001176  -0.000935  -0.003174
     8  C   -0.006555   0.000400  -0.003684   0.000400  -0.006557
     9  C   -0.008428  -0.007201   0.018600  -0.007201  -0.008434
    10  C   -0.000230   0.054950  -0.066542   0.054950  -0.000230
    11  N   -0.001437   0.006178  -0.002730   0.006178  -0.001437
    12  N   -0.044516  -0.066396  -0.029041  -0.066395  -0.044513
    13  C    0.000723   0.001751  -0.006741   0.002720   0.000039
    14  C    0.000039   0.002720  -0.000808   0.001752   0.000723
    15  C    0.428386   0.393565   0.016946  -0.023781  -0.013722
    16  C   -0.013726  -0.023781   0.426759   0.393566   0.428387
    17  H   -0.000000   0.000000   0.000000   0.000000  -0.000000
    18  H   -0.000000   0.000000  -0.000000   0.000000  -0.000000
    19  H    0.000000   0.000000  -0.000000   0.000000   0.000000
    20  H   -0.000000   0.000000   0.000000   0.000000  -0.000000
    21  H    0.000008  -0.000000  -0.000001  -0.000000   0.000008
    22  H    0.000274  -0.000001   0.000130  -0.000001   0.000274
    23  H    0.001513  -0.002367  -0.002284  -0.002367   0.001513
    24  H    0.000000   0.000008  -0.000031  -0.000052   0.000006
    25  H    0.000000   0.000000   0.000157  -0.000045   0.000018
    26  H   -0.000000   0.000000   0.000015   0.000004  -0.000000
    27  H    0.000006  -0.000052   0.000000   0.000008   0.000000
    28  H    0.000018  -0.000045  -0.000001   0.000000   0.000000
    29  H   -0.000000   0.000004   0.000000   0.000000  -0.000000
    30  H   -0.027398  -0.023641  -0.000198   0.000203  -0.000072
    31  H    0.531551  -0.029963  -0.000072  -0.000905   0.005340
    32  H   -0.029963   0.528254   0.000203   0.002482  -0.000905
    33  H   -0.000072   0.000203   0.524228  -0.023640  -0.027398
    34  H   -0.000905   0.002482  -0.023640   0.528254  -0.029964
    35  H    0.005340  -0.000905  -0.027398  -0.029964   0.531555
 Mulliken charges:
               1
     1  C   -0.013612
     2  C   -0.227031
     3  C   -0.055982
     4  C   -0.379459
     5  C    0.005839
     6  C   -0.167151
     7  C   -0.077873
     8  C   -0.219087
     9  C   -0.015574
    10  C   -0.187323
    11  N   -0.344376
    12  N   -0.398245
    13  C   -0.125681
    14  C   -0.125679
    15  C   -0.118214
    16  C   -0.118220
    17  H    0.143036
    18  H    0.162551
    19  H    0.157396
    20  H    0.155700
    21  H    0.161091
    22  H    0.144018
    23  H    0.485217
    24  H    0.185977
    25  H    0.192250
    26  H    0.191274
    27  H    0.185977
    28  H    0.192250
    29  H    0.191273
    30  H    0.168688
    31  H    0.172923
    32  H    0.168219
    33  H    0.168690
    34  H    0.168219
    35  H    0.172921
 Sum of Mulliken charges =   1.00000
 Mulliken charges with hydrogens summed into heavy atoms:
               1
     1  C    0.129424
     2  C   -0.064480
     3  C    0.101414
     4  C   -0.379459
     5  C    0.005839
     6  C   -0.167151
     7  C    0.077827
     8  C   -0.057996
     9  C    0.128444
    10  C   -0.187323
    11  N    0.140841
    12  N   -0.398245
    13  C    0.443819
    14  C    0.443820
    15  C    0.391616
    16  C    0.391610
 Electronic spatial extent (au):  <R**2>=           3323.0593
 Charge=              1.0000 electrons
 Dipole moment (field-independent basis, Debye):
    X=             -3.9195    Y=             -1.5596    Z=              0.0001  Tot=              4.2184
 Quadrupole moment (field-independent basis, Debye-Ang):
   XX=            -63.8523   YY=            -65.2663   ZZ=            -92.0512
   XY=              2.9925   XZ=             -0.0005   YZ=             -0.0014
 Traceless Quadrupole moment (field-independent basis, Debye-Ang):
   XX=              9.8710   YY=              8.4570   ZZ=            -18.3279
   XY=              2.9925   XZ=             -0.0005   YZ=             -0.0014
 Octapole moment (field-independent basis, Debye-Ang**2):
  XXX=             -2.4370  YYY=             -9.5898  ZZZ=              0.0013  XYY=            -10.3249
  XXY=             -7.1762  XXZ=             -0.0001  XZZ=            -28.4454  YZZ=             -3.8541
  YYZ=              0.0000  XYZ=             -0.0007
 Hexadecapole moment (field-independent basis, Debye-Ang**3):
 XXXX=          -1777.6584 YYYY=          -1701.8502 ZZZZ=           -393.6593 XXXY=             16.4893
 XXXZ=              0.0049 YYYX=             19.0462 YYYZ=              0.0253 ZZZX=              0.0081
 ZZZY=              0.0407 XXYY=           -555.7207 XXZZ=           -417.6252 YYZZ=           -401.1455
 XXYZ=              0.0071 YYXZ=              0.0018 ZZXY=              6.9631
 N-N= 1.138741950148D+03 E-N=-3.774732292482D+03  KE= 6.480465504384D+02
 Calling FoFJK, ICntrl=      2127 FMM=F ISym2X=0 I1Cent= 0 IOpClX= 0 NMat=1 NMatS=1 NMatT=0.
 ***** Axes restored to original set *****
 -------------------------------------------------------------------
 Center     Atomic                   Forces (Hartrees/Bohr)
 Number     Number              X              Y              Z
 -------------------------------------------------------------------
      1        6          -0.001447552   -0.002105193    0.000000162
      2        6           0.001524402   -0.002109793    0.000000170
      3        6           0.002429280   -0.000189881   -0.000000157
      4        6           0.000510119    0.000037035   -0.000000013
      5        6          -0.000295680   -0.000009568    0.000000058
      6        6           0.001750729   -0.000186113    0.000000150
      7        6           0.002412373    0.000313738   -0.000000159
      8        6           0.001443794    0.002114284    0.000000092
      9        6          -0.001610291    0.002126478   -0.000000347
     10        6           0.001961929    0.000151774    0.000000044
     11        7          -0.000145465    0.002896676    0.000001478
     12        7          -0.000143411   -0.001066549    0.000001697
     13        6          -0.001832844   -0.001138747   -0.003653483
     14        6          -0.001831666   -0.001139483    0.003654423
     15        6          -0.001891486    0.001027751    0.003545066
     16        6          -0.001892175    0.001025904   -0.003544696
     17        1           0.000053770    0.000554004   -0.000000092
     18        1          -0.000167718    0.000216467   -0.000000097
     19        1          -0.000263139   -0.000069882    0.000000081
     20        1          -0.000263012    0.000065090    0.000000010
     21        1          -0.000168157   -0.000215473   -0.000000004
     22        1           0.000148280   -0.000529286    0.000000142
     23        1          -0.000912854   -0.001753925   -0.000003976
     24        1          -0.000015506    0.000152561   -0.000074975
     25        1           0.000039326    0.000246054    0.000079015
     26        1           0.000083270    0.000110985    0.000030545
     27        1          -0.000015874    0.000152528    0.000074737
     28        1           0.000039223    0.000245731   -0.000079445
     29        1           0.000082812    0.000110922   -0.000030266
     30        1           0.000067127   -0.000316210   -0.000120900
     31        1           0.000116344    0.000005683   -0.000003535
     32        1           0.000025272   -0.000206495    0.000057421
     33        1           0.000067112   -0.000316486    0.000120610
     34        1           0.000025379   -0.000206520   -0.000057455
     35        1           0.000116288    0.000005938    0.000003697
 -------------------------------------------------------------------
 Cartesian Forces:  Max     0.003654423 RMS     0.001119278

 GradGradGradGradGradGradGradGradGradGradGradGradGradGradGradGradGradGrad
 Berny optimization.
 FormGI is forming the generalized inverse of G from B-inverse, IUseBI=4.
 GSVD:  received Info=                   1 from GESDD.
 Internal  Forces:  Max     0.004515203 RMS     0.000960603
 Search for a local minimum.
 Step number   1 out of a maximum of  193
 All quantities printed in internal units (Hartrees-Bohrs-Radians)
 Mixed Optimization -- En-DIIS/RFO-DIIS
 Second derivative matrix not updated -- first step.
 ITU=  0
     Eigenvalues ---    0.00513   0.00513   0.00672   0.00672   0.00700
     Eigenvalues ---    0.00908   0.01541   0.01676   0.01720   0.01736
     Eigenvalues ---    0.01769   0.01996   0.02045   0.02083   0.02094
     Eigenvalues ---    0.02175   0.02183   0.02194   0.02219   0.02286
     Eigenvalues ---    0.02301   0.02611   0.03477   0.04797   0.05862
     Eigenvalues ---    0.05862   0.05977   0.05977   0.06231   0.07191
     Eigenvalues ---    0.07191   0.07463   0.07463   0.16000   0.16000
     Eigenvalues ---    0.16000   0.16000   0.16000   0.16000   0.16000
     Eigenvalues ---    0.16000   0.16000   0.16000   0.16000   0.16000
     Eigenvalues ---    0.16000   0.16000   0.16000   0.16000   0.16000
     Eigenvalues ---    0.16000   0.17515   0.17605   0.18941   0.19220
     Eigenvalues ---    0.22061   0.22129   0.23305   0.23705   0.24873
     Eigenvalues ---    0.24943   0.25000   0.25000   0.30751   0.33550
     Eigenvalues ---    0.33550   0.34042   0.34042   0.34397   0.34397
     Eigenvalues ---    0.34562   0.34562   0.34578   0.34578   0.34626
     Eigenvalues ---    0.34626   0.34767   0.34767   0.34902   0.34902
     Eigenvalues ---    0.35152   0.35239   0.35246   0.35256   0.35264
     Eigenvalues ---    0.35364   0.35403   0.36265   0.37061   0.39340
     Eigenvalues ---    0.39770   0.41445   0.41813   0.43204   0.43322
     Eigenvalues ---    0.48015   0.48358   0.49428   0.49600
 RFO step:  Lambda=-6.29038123D-04 EMin= 5.13303230D-03
 Linear search not attempted -- first point.
 Iteration  1 RMS(Cart)=  0.02046979 RMS(Int)=  0.00013046
 Iteration  2 RMS(Cart)=  0.00024981 RMS(Int)=  0.00003462
 Iteration  3 RMS(Cart)=  0.00000003 RMS(Int)=  0.00003462
 Variable       Old X    -DE/DX   Delta X   Delta X   Delta X     New X
                                 (Linear)    (Quad)   (Total)
    R1        2.66398   0.00257   0.00000   0.00590   0.00590   2.66988
    R2        2.59764   0.00176   0.00000   0.00349   0.00349   2.60112
    R3        2.05288  -0.00052   0.00000  -0.00146  -0.00146   2.05142
    R4        2.59622   0.00242   0.00000   0.00490   0.00490   2.60112
    R5        2.05025  -0.00027   0.00000  -0.00077  -0.00077   2.04948
    R6        2.68000   0.00252   0.00000   0.00591   0.00591   2.68591
    R7        2.05262  -0.00027   0.00000  -0.00075  -0.00075   2.05186
    R8        2.71551   0.00236   0.00000   0.00573   0.00574   2.72125
    R9        2.67902   0.00262   0.00000   0.00617   0.00617   2.68519
   R10        2.69652   0.00217   0.00000   0.00513   0.00513   2.70165
   R11        2.70320   0.00153   0.00000   0.00358   0.00358   2.70678
   R12        2.78729   0.00452   0.00000   0.01282   0.01282   2.80011
   R13        2.59543   0.00246   0.00000   0.00501   0.00501   2.60044
   R14        2.05248  -0.00026   0.00000  -0.00074  -0.00074   2.05174
   R15        2.66460   0.00253   0.00000   0.00582   0.00582   2.67042
   R16        2.05088  -0.00027   0.00000  -0.00076  -0.00076   2.05012
   R17        2.60337   0.00172   0.00000   0.00344   0.00344   2.60681
   R18        2.05278  -0.00053   0.00000  -0.00151  -0.00151   2.05126
   R19        2.75754   0.00351   0.00000   0.00944   0.00944   2.76698
   R20        2.81397   0.00391   0.00000   0.01162   0.01162   2.82559
   R21        2.81397   0.00391   0.00000   0.01163   0.01163   2.82559
   R22        2.13191  -0.00150   0.00000  -0.00487  -0.00487   2.12703
   R23        2.79134   0.00373   0.00000   0.01066   0.01066   2.80200
   R24        2.79134   0.00373   0.00000   0.01066   0.01066   2.80200
   R25        2.06365   0.00003   0.00000   0.00009   0.00009   2.06374
   R26        2.06055   0.00006   0.00000   0.00019   0.00019   2.06074
   R27        2.06287  -0.00009   0.00000  -0.00026  -0.00026   2.06261
   R28        2.06365   0.00003   0.00000   0.00009   0.00009   2.06374
   R29        2.06056   0.00006   0.00000   0.00018   0.00018   2.06074
   R30        2.06287  -0.00009   0.00000  -0.00026  -0.00026   2.06261
   R31        2.06392   0.00006   0.00000   0.00019   0.00019   2.06410
   R32        2.07259   0.00003   0.00000   0.00008   0.00008   2.07267
   R33        2.06665   0.00000   0.00000   0.00001   0.00001   2.06666
   R34        2.06392   0.00006   0.00000   0.00019   0.00019   2.06410
   R35        2.06665   0.00000   0.00000   0.00001   0.00001   2.06666
   R36        2.07259   0.00003   0.00000   0.00008   0.00008   2.07267
    A1        2.09886   0.00006   0.00000   0.00026   0.00026   2.09911
    A2        2.08157   0.00018   0.00000   0.00121   0.00121   2.08277
    A3        2.10276  -0.00024   0.00000  -0.00146  -0.00146   2.10130
    A4        2.08887   0.00012   0.00000   0.00079   0.00079   2.08966
    A5        2.08766  -0.00009   0.00000  -0.00060  -0.00060   2.08706
    A6        2.10666  -0.00003   0.00000  -0.00019  -0.00019   2.10647
    A7        2.11665  -0.00010   0.00000  -0.00025  -0.00025   2.11640
    A8        2.09821  -0.00001   0.00000  -0.00026  -0.00026   2.09795
    A9        2.06832   0.00011   0.00000   0.00051   0.00051   2.06883
   A10        2.09186  -0.00043   0.00000  -0.00178  -0.00178   2.09008
   A11        2.10329   0.00083   0.00000   0.00341   0.00341   2.10670
   A12        2.08804  -0.00040   0.00000  -0.00163  -0.00163   2.08640
   A13        2.03537   0.00063   0.00000   0.00237   0.00237   2.03774
   A14        2.05797   0.00029   0.00000   0.00090   0.00090   2.05887
   A15        2.18984  -0.00092   0.00000  -0.00326  -0.00326   2.18658
   A16        2.13476  -0.00028   0.00000  -0.00139  -0.00139   2.13337
   A17        2.09002   0.00015   0.00000   0.00075   0.00075   2.09077
   A18        2.05841   0.00012   0.00000   0.00063   0.00063   2.05904
   A19        2.10998  -0.00004   0.00000   0.00017   0.00017   2.11015
   A20        2.07073   0.00008   0.00000   0.00032   0.00032   2.07105
   A21        2.10248  -0.00005   0.00000  -0.00049  -0.00049   2.10198
   A22        2.09187   0.00004   0.00000   0.00061   0.00061   2.09249
   A23        2.10368   0.00002   0.00000  -0.00004  -0.00004   2.10364
   A24        2.08763  -0.00006   0.00000  -0.00057  -0.00057   2.08706
   A25        2.11566  -0.00028   0.00000  -0.00123  -0.00123   2.11443
   A26        2.07874   0.00028   0.00000   0.00146   0.00146   2.08021
   A27        2.08878   0.00001   0.00000  -0.00023  -0.00023   2.08855
   A28        2.10285   0.00038   0.00000   0.00118   0.00118   2.10403
   A29        2.07298  -0.00163   0.00000  -0.00632  -0.00632   2.06666
   A30        2.10736   0.00124   0.00000   0.00514   0.00514   2.11250
   A31        1.97300  -0.00034   0.00000   0.00286   0.00281   1.97581
   A32        1.97300  -0.00034   0.00000   0.00287   0.00282   1.97582
   A33        1.75918   0.00068   0.00000   0.00585   0.00588   1.76505
   A34        1.95173   0.00119   0.00000   0.00771   0.00768   1.95941
   A35        1.89726  -0.00067   0.00000  -0.01068  -0.01067   1.88659
   A36        1.89726  -0.00067   0.00000  -0.01064  -0.01063   1.88662
   A37        1.96539  -0.00011   0.00000   0.00873   0.00846   1.97385
   A38        1.96539  -0.00011   0.00000   0.00874   0.00847   1.97386
   A39        1.93995   0.00113   0.00000   0.01445   0.01423   1.95418
   A40        1.89965   0.00006   0.00000   0.00042   0.00042   1.90007
   A41        1.90265  -0.00034   0.00000  -0.00267  -0.00267   1.89997
   A42        1.92384  -0.00002   0.00000   0.00034   0.00034   1.92417
   A43        1.91966   0.00003   0.00000  -0.00076  -0.00077   1.91889
   A44        1.90995   0.00011   0.00000   0.00173   0.00173   1.91169
   A45        1.90808   0.00017   0.00000   0.00092   0.00092   1.90900
   A46        1.89965   0.00006   0.00000   0.00042   0.00042   1.90007
   A47        1.90265  -0.00034   0.00000  -0.00267  -0.00267   1.89997
   A48        1.92384  -0.00002   0.00000   0.00034   0.00034   1.92418
   A49        1.91966   0.00003   0.00000  -0.00076  -0.00077   1.91889
   A50        1.90996   0.00011   0.00000   0.00173   0.00173   1.91169
   A51        1.90808   0.00017   0.00000   0.00092   0.00092   1.90900
   A52        1.91543  -0.00048   0.00000  -0.00359  -0.00360   1.91184
   A53        1.95339   0.00007   0.00000   0.00099   0.00099   1.95438
   A54        1.90397   0.00000   0.00000   0.00007   0.00007   1.90404
   A55        1.89258   0.00021   0.00000   0.00121   0.00121   1.89379
   A56        1.90595   0.00004   0.00000  -0.00091  -0.00091   1.90504
   A57        1.89192   0.00017   0.00000   0.00225   0.00225   1.89417
   A58        1.91543  -0.00048   0.00000  -0.00359  -0.00359   1.91184
   A59        1.90397   0.00000   0.00000   0.00007   0.00007   1.90404
   A60        1.95339   0.00007   0.00000   0.00099   0.00099   1.95438
   A61        1.90595   0.00004   0.00000  -0.00091  -0.00091   1.90503
   A62        1.89258   0.00021   0.00000   0.00121   0.00121   1.89379
   A63        1.89192   0.00017   0.00000   0.00225   0.00225   1.89417
    D1        0.00000  -0.00000   0.00000  -0.00001  -0.00001  -0.00001
    D2        3.14159   0.00000   0.00000   0.00001   0.00001  -3.14158
    D3       -3.14159  -0.00000   0.00000  -0.00004  -0.00004   3.14156
    D4       -0.00000  -0.00000   0.00000  -0.00001  -0.00001  -0.00002
    D5        0.00000  -0.00000   0.00000  -0.00003  -0.00003  -0.00003
    D6       -3.14159  -0.00000   0.00000  -0.00006  -0.00006   3.14153
    D7        3.14159  -0.00000   0.00000  -0.00000  -0.00000   3.14159
    D8        0.00000  -0.00000   0.00000  -0.00004  -0.00004  -0.00003
[...]
 743,-0.00000503,-0.00001814,0.00000228,0.00003275,0.00001563,0.0000012
 2,0.00006097,-0.00007568,-0.00002581,0.00022731,-0.00017634,0.00015043
 ,-0.00013585,-0.00010967,-0.00003335,-0.00004369,-0.00004552,-0.000040
 72,-0.00002073,0.00013649,-0.00002154,0.00044061,0.00028200,0.00035938
 ,-0.00174538,0.00040612,0.00000749,0.00020843,-0.00135930,-0.00016650,
 -0.01031376,0.00909616,-0.02655019,-0.00002072,-0.00002239,-0.00002253
 ,-0.00003135,0.00018940,-0.00050001,-0.08513838,0.09483553,-0.21557617
 ,0.00392715,-0.00344961,-0.00311737,-0.00000046,0.00000051,-0.00001303
 ,0.00000153,0.00000261,-0.00000263,0.00000011,-0.00000493,-0.00000192,
 0.00000166,-0.00000152,0.00000640,0.00001938,-0.00000187,-0.00000413,-
 0.00004792,-0.00004620,-0.00003151,-0.00021617,0.00184761,-0.00028686,
 0.00001318,0.00003471,-0.00001352,-0.00003194,0.00005334,0.00004016,0.
 00000164,-0.00002678,0.00000162,-0.00005150,-0.00005673,-0.00001619,0.
 00012437,-0.00010381,0.00031011,0.00001808,0.00007968,0.00020014,0.092
 95195,-0.10139816,0.24176624,-0.00007202,-0.00001746,0.00006945,0.0000
 2293,-0.00001602,0.00000720,-0.00005419,-0.00000199,0.00003617,0.00022
 572,0.00013752,0.00002474,-0.00050629,0.00019616,-0.00045104,0.0002363
 7,-0.00016826,-0.00000917,0.00008598,-0.00017443,-0.00005171,-0.000178
 52,-0.00005621,-0.00004801,-0.00000485,0.00007031,0.00039362,0.0018061
 9,0.00183592,-0.00064004,-0.00031711,0.00120050,-0.00036781,0.00228001
 ,0.01756513,0.00536513,-0.00012022,-0.00004339,-0.00009543,-0.00025532
 ,-0.00001525,0.00007189,-0.06063017,-0.05181601,-0.00215259,-0.0001805
 6,-0.00077204,-0.00120752,0.00000382,-0.00000812,0.00000260,-0.0000059
 6,-0.00000129,-0.00001535,-0.00000455,0.00000466,-0.00000065,0.0000095
 0,-0.00003414,0.00001539,0.00000848,-0.00000061,0.00005483,-0.00124499
 ,-0.00039647,0.00104691,-0.00030363,-0.00150040,0.00089410,0.00001300,
 0.00000096,0.00002057,0.00002314,-0.00001885,-0.00000770,0.00002683,0.
 00002308,0.00001471,0.00007946,0.00007605,0.00001619,-0.00002369,-0.00
 000322,0.00000596,0.00011275,0.00005525,-0.00003757,0.00272191,0.01384
 693,0.00027936,0.06070185,0.00006049,0.00002331,0.00000742,-0.00001446
 ,0.00006421,-0.00000068,0.00010350,-0.00000261,0.00001584,-0.00014315,
 -0.00011328,0.00002107,0.00054740,-0.00010603,-0.00009021,-0.00061032,
 0.00017208,-0.00001215,-0.00002930,0.00014673,-0.00007137,0.00035816,0
 .00029672,0.00014758,0.00053411,-0.00035998,0.00065799,-0.00247510,0.0
 0047883,-0.00007903,0.00023036,-0.00209937,0.00034440,0.00275886,-0.01
 547166,-0.00929591,0.00019583,0.00008019,0.00026111,0.00024597,-0.0002
 1561,-0.00008917,-0.04952559,-0.29711771,-0.00359914,0.00075261,0.0015
 2620,0.00120541,-0.00001765,0.00002824,0.00000139,0.00001862,-0.000002
 19,-0.00000290,0.00000934,-0.00000793,-0.00000337,-0.00000888,0.000030
 90,-0.00002148,0.00006080,-0.00000540,0.00001968,-0.00038217,0.0006251
 9,-0.00018993,0.00021662,0.00411481,-0.00051006,0.00000620,0.00001988,
 0.00000404,-0.00002068,0.00001227,-0.00001178,-0.00003085,-0.00006776,
 -0.00006088,0.00002618,0.00004865,0.00000118,-0.00006802,0.00004181,-0
 .00006500,-0.00006369,-0.00010268,0.00004799,-0.00375924,-0.01221840,-
 0.00013776,0.05207434,0.32284722,0.00011534,-0.00003323,-0.00002804,-0
 .00004216,-0.00002830,-0.00000210,0.00005033,0.00005287,-0.00003761,-0
 .00009647,-0.00019480,0.00002318,0.00049529,-0.00001297,0.00035948,-0.
 00040124,0.00018742,0.00003085,-0.00008477,0.00015827,0.00002974,0.000
 14283,0.00020243,-0.00004560,0.00009597,-0.00021341,-0.00016923,-0.002
 37727,-0.00008600,0.00027315,0.00015054,-0.00295174,0.00045423,-0.0008
 4314,-0.03535862,-0.01149286,0.00012953,0.00007158,0.00030602,0.000165
 00,-0.00002500,-0.00065492,-0.00145415,-0.00091881,-0.04904274,0.00040
 699,-0.00331133,0.00306512,-0.00000596,-0.00000222,-0.00001083,0.00000
 928,-0.00000231,0.00000818,0.00001136,-0.00000867,-0.00000027,-0.00000
 442,0.00002819,-0.00000396,0.00003273,-0.00000470,-0.00000221,0.000904
 30,0.00038664,-0.00032226,0.00068330,0.00365032,-0.00167864,-0.0000240
 0,0.00000776,-0.00001893,-0.00000500,0.00003613,0.00002663,-0.00002116
 ,-0.00004583,-0.00008060,-0.00008250,-0.00007851,-0.00002678,0.0001530
 2,-0.00011875,0.00017560,-0.00003515,-0.00000912,0.00027629,0.00579037
 ,0.02509704,0.00228308,-0.00291379,0.01205612,0.05586763,0.00012048,0.
 00002585,0.00000298,-0.00005550,0.00000528,0.00000444,0.00002777,0.000
 01741,-0.00001354,-0.00015256,-0.00006785,-0.00011397,-0.00007675,-0.0
 0057294,0.00027428,-0.00019229,0.00001503,-0.00004185,-0.00009382,0.00
 005502,0.00001934,0.00000428,0.00009261,-0.00005679,0.00019356,0.00049
 584,0.00017377,0.00040884,0.00043365,0.00250344,-0.00020240,0.00094383
 ,0.00001840,-0.01245373,0.00196035,0.00160571,-0.00003620,0.00000354,-
 0.00012476,-0.00021041,-0.00017462,0.00026348,-0.30927103,-0.04247892,
 -0.00377009,0.00019260,-0.00030250,-0.00106375,-0.00000437,0.00003075,
 0.00000974,0.00000361,0.00000715,-0.00000172,-0.00000675,0.00000862,-0
 .00000696,-0.00000152,0.00001212,0.00000354,-0.00002871,-0.00000347,-0
 .00001253,0.00001641,0.00001244,-0.00009381,-0.00019214,-0.00085733,0.
 00012652,0.00004741,0.00003144,0.00003911,-0.00001737,-0.00000184,-0.0
 0001617,0.00001842,0.00000005,0.00003225,0.00018641,0.00011853,0.00002
 878,-0.00013316,0.00001709,-0.00004795,0.00009016,-0.00002578,-0.00008
 236,-0.00950977,-0.00265076,0.00011169,-0.00450505,-0.00058798,-0.0009
 7180,0.33495511,-0.00009824,-0.00006446,0.00003838,-0.00001370,0.00002
 290,-0.00000994,0.00001590,0.00002487,-0.00000419,-0.00004768,-0.00004
 562,0.00015390,0.00039247,0.00022228,-0.00000337,0.00015927,0.00016716
 ,-0.00000140,0.00007232,0.00011928,-0.00005150,0.00019104,0.00007085,0
 .00041642,0.00019245,-0.00029433,0.00007117,0.00013928,-0.00023627,-0.
 00284882,-0.00017038,-0.00020468,-0.00008416,0.01807883,0.00045511,-0.
 00153687,-0.00001097,-0.00003023,-0.00002731,0.00007587,0.00005394,-0.
 00007436,-0.04582156,-0.05732989,0.00000801,-0.00021942,0.00015750,0.0
 0062934,0.00001017,-0.00002148,-0.00000172,-0.00000620,-0.00000479,-0.
 00000400,0.00000501,-0.00000857,0.00000482,-0.00001305,0.00001326,-0.0
 0005494,0.00004096,-0.00000155,0.00001230,0.00009294,0.00031227,-0.000
 48455,0.00051559,0.00042600,-0.00001175,-0.00002925,-0.00001493,-0.000
 03525,-0.00000388,0.00000671,0.00002111,-0.00000445,0.00000367,-0.0000
 0238,-0.00008336,-0.00018113,-0.00004208,0.00011879,0.00001469,0.00005
 327,-0.00006434,0.00003373,0.00007101,0.01469634,0.00251560,-0.0007346
 5,-0.03155112,-0.00316869,-0.00062456,0.04356116,0.05697702,-0.0001172
 8,-0.00002400,0.00000672,0.00005028,0.00003936,-0.00000927,0.00005811,
 -0.00001827,0.00003591,0.00015651,-0.00005789,0.00021064,0.00076384,0.
 00035325,-0.00019122,0.00006042,-0.00005022,-0.00012047,0.00011218,-0.
 00010277,-0.00007128,-0.00003720,0.00011017,0.00027327,0.00058237,-0.0
 0030779,0.00029684,0.00103045,-0.00155109,-0.00415894,0.00006499,-0.00
 029906,-0.00008693,0.03205929,0.00080422,-0.00419700,0.00004963,0.0000
 2003,0.00006449,-0.00001364,-0.00005391,-0.00001042,-0.01145281,-0.000
 14428,-0.05010057,0.00209026,0.00031009,0.00082651,-0.00000020,-0.0000
 0923,0.00000391,-0.00000079,-0.00000546,-0.00000186,0.00001125,-0.0000
 1743,0.00001408,-0.00000240,0.00000032,-0.00003200,0.00005216,0.000006
 41,-0.00001009,-0.00010236,0.00015259,-0.00015504,0.00005474,0.0006580
 5,0.00022987,-0.00003157,-0.00003885,-0.00000184,0.00002083,-0.0000158
 2,-0.00001223,-0.00001919,0.00000301,-0.00001805,0.00001640,0.00003937
 ,0.00009822,-0.00009458,-0.00004082,-0.00001923,0.00000603,-0.00000547
 ,-0.00002246,-0.02461806,-0.00567984,0.00215345,-0.00038044,0.00101197
 ,0.00045834,0.00054212,0.00507330,0.05534849,-0.00004349,-0.00003205,-
 0.00001457,-0.00000176,-0.00002503,-0.00000370,-0.00002087,0.00002221,
 0.00000935,0.00001482,-0.00004869,0.00003609,0.00024351,0.00028832,-0.
 00006114,0.00022444,0.00009575,-0.00000985,0.00003510,-0.00001303,-0.0
 0002523,-0.00008628,-0.00005261,0.00007860,0.00001112,0.00001264,0.000
 10497,0.00066408,-0.00097035,-0.00148946,-0.00005182,-0.00009052,-0.00
 003969,0.00461181,-0.00618186,-0.01496474,-0.00008011,0.00016514,0.000
 31609,-0.00009783,-0.00003071,-0.00001964,-0.00153281,0.00111378,-0.00
 203845,-0.09700615,0.05216657,0.09296733,0.00000990,-0.00002844,0.0000
 0549,-0.00000533,-0.00000375,0.00000180,0.00000459,-0.00000867,-0.0000
 0008,0.00000028,-0.00000357,-0.00000991,-0.00000377,0.00000088,-0.0000
 0409,0.00010791,-0.00001068,-0.00006141,0.00015612,-0.00023975,0.00035
 142,-0.00011331,-0.00012063,0.00008941,0.00031298,-0.00006085,-0.00010
 553,-0.00001257,0.00006666,-0.00014870,-0.00001724,0.00000921,0.000020
 77,0.00001380,0.00000435,-0.00003198,0.00002024,0.00000782,0.00000320,
 0.00081544,-0.00018595,-0.00071105,-0.00007789,0.00001771,0.00003300,0
 .00046991,0.00013111,-0.00016116,0.09822247,-0.00002379,-0.00002992,-0
 .00000267,-0.00000424,-0.00002822,0.00000100,-0.00003946,0.00001860,0.
 00001154,0.00008696,0.00007453,-0.00002594,-0.00033734,0.00009972,-0.0
 0001287,0.00017701,-0.00001393,-0.00002519,-0.00003137,-0.00008627,-0.
 00000380,-0.00015025,0.00014103,0.00010314,0.00018527,-0.00048544,0.00
 001964,-0.00034211,0.00090273,0.00033934,0.00010323,0.00007604,-0.0001
 0865,-0.00724583,0.00651057,0.01502191,-0.00009957,-0.00017250,0.00015
 294,-0.00008704,-0.00000628,0.00004681,0.00142083,-0.00087007,0.002078
 22,0.05217444,-0.10703255,-0.10063844,0.00000962,-0.00001714,0.0000035
 7,-0.00000428,0.00000167,-0.00000301,-0.00000510,0.00000166,0.00000160
 ,-0.00000849,0.00000239,-0.00001670,0.00001208,-0.00001095,-0.00001777
 ,0.00013244,0.00003746,-0.00010363,-0.00024297,0.00041297,0.00012410,-
 0.00001942,0.00000378,-0.00003284,0.00003968,-0.00028627,-0.00000909,-
 0.00000771,0.00001813,-0.00007399,-0.00000212,0.00000373,0.00001229,0.
 00000181,0.00000742,-0.00003344,0.00001453,0.00000355,-0.00002575,-0.0
 0018589,0.00069898,0.00078429,0.00011714,0.00029290,0.00052754,0.00009
 928,-0.00019670,-0.00007978,-0.05693257,0.10963124,-0.00005600,-0.0000
 1380,0.00002743,0.00000504,0.00001814,0.00000228,-0.00003275,-0.000015
 63,0.00000122,-0.00006089,0.00007571,-0.00002584,-0.00022738,0.0001764
 3,0.00015039,0.00013583,0.00010959,-0.00003335,0.00004369,0.00004545,-
 0.00004072,0.00002066,-0.00013646,-0.00002151,-0.00044049,-0.00028195,
 0.00035947,0.00174543,-0.00040618,0.00000770,-0.00020842,0.00135910,-0
 .00016665,0.01031238,-0.00909674,-0.02654994,0.00003134,-0.00018939,-0
 .00049998,0.00002071,0.00002241,-0.00002253,-0.00392718,0.00344951,-0.
 00311723,0.08513292,-0.09483939,-0.21558112,0.00000046,-0.00000051,-0.
 00001303,-0.00000153,-0.00000261,-0.00000263,-0.00000011,0.00000493,-0
 .00000192,-0.00000166,0.00000152,0.00000640,-0.00001938,0.00000187,-0.
 00000413,0.00004791,0.00004618,-0.00003154,0.00021619,-0.00184737,-0.0
 0028663,0.00005150,0.00005674,-0.00001619,-0.00012436,0.00010389,0.000
 30999,-0.00001807,-0.00007965,0.00020012,-0.00001318,-0.00003471,-0.00
 001352,0.00003194,-0.00005334,0.00004017,-0.00000163,0.00002678,0.0000
 0161,0.00071094,-0.00078433,-0.00133538,-0.00007071,-0.00007533,0.0001
 1784,0.00003289,0.00008415,0.00033211,-0.09294528,0.10140277,0.2417710
 0,0.00012049,0.00002585,-0.00000298,-0.00005550,0.00000528,-0.00000444
 ,0.00002777,0.00001741,0.00001354,-0.00015258,-0.00006782,0.00011400,-
 0.00007684,-0.00057298,-0.00027425,-0.00019228,0.00001505,0.00004183,-
 0.00009382,0.00005505,-0.00001935,0.00000431,0.00009260,0.00005676,0.0
 0019352,0.00049579,-0.00017377,0.00040875,0.00043363,-0.00250361,-0.00
 020241,0.00094382,-0.00001850,-0.01245549,0.00196035,-0.00160553,-0.00
 021040,-0.00017463,-0.00026346,-0.00003621,0.00000355,0.00012477,0.000
 19248,-0.00030246,0.00106371,-0.30926922,-0.04248193,0.00378322,-0.000
 00437,0.00003075,-0.00000974,0.00000361,0.00000715,0.00000171,-0.00000
 675,0.00000862,0.00000696,-0.00000152,0.00001212,-0.00000354,-0.000028
 71,-0.00000347,0.00001253,0.00001643,0.00001246,0.00009383,-0.00019209
 ,-0.00085739,-0.00012635,0.00018639,0.00011853,-0.00002878,-0.00013313
 ,0.00001709,0.00004794,0.00009015,-0.00002576,0.00008235,0.00004742,0.
 00003144,-0.00003911,-0.00001737,-0.00000183,0.00001617,0.00001843,0.0
 0000005,-0.00003226,0.00046993,0.00009929,-0.00003290,-0.00016764,-0.0
 0010487,-0.00007693,0.00057616,-0.00011824,-0.00054859,-0.00950875,-0.
 00265065,-0.00011110,0.33495394,-0.00009826,-0.00006445,-0.00003837,-0
 .00001369,0.00002291,0.00000994,0.00001591,0.00002485,0.00000419,-0.00
 004764,-0.00004562,-0.00015390,0.00039248,0.00022234,0.00000334,0.0001
 5926,0.00016712,0.00000139,0.00007231,0.00011923,0.00005149,0.00019095
 ,0.00007086,-0.00041642,0.00019242,-0.00029442,-0.00007115,0.00013942,
 -0.00023629,0.00284878,-0.00017038,-0.00020460,0.00008418,0.01807825,0
 .00045529,0.00153603,0.00007587,0.00005395,0.00007435,-0.00001097,-0.0
 0003023,0.00002732,-0.00021952,0.00015744,-0.00062931,-0.04582441,-0.0
 5733059,-0.00000574,0.00001017,-0.00002148,0.00000173,-0.00000620,-0.0
 0000479,0.00000400,0.00000501,-0.00000857,-0.00000481,-0.00001306,0.00
 001327,0.00005494,0.00004095,-0.00000155,-0.00001230,0.00009299,0.0003
 1239,0.00048450,0.00051552,0.00042594,0.00001165,-0.00008333,-0.000181
 11,0.00004209,0.00011878,0.00001468,-0.00005326,-0.00006434,0.00003372
 ,-0.00007101,-0.00002925,-0.00001493,0.00003526,-0.00000388,0.00000670
 ,-0.00002111,-0.00000445,0.00000367,0.00000237,0.00013112,-0.00019669,
 -0.00008413,-0.00023363,-0.00013841,0.00014515,-0.00011818,0.00034489,
 -0.00014576,0.01469673,0.00251593,0.00073396,0.04356428,0.05697782,0.0
 0011726,0.00002402,0.00000672,-0.00005026,-0.00003936,-0.00000926,-0.0
 0005812,0.00001825,0.00003591,-0.00015646,0.00005798,0.00021062,-0.000
 76396,-0.00035323,-0.00019115,-0.00006043,0.00005014,-0.00012047,-0.00
 011217,0.00010272,-0.00007129,0.00003716,-0.00011013,0.00027325,-0.000
 58226,0.00030785,0.00029691,-0.00103060,0.00155098,-0.00415887,-0.0000
 6497,0.00029898,-0.00008698,-0.03205936,-0.00080475,-0.00419553,0.0000
 1366,0.00005390,-0.00001042,-0.00004963,-0.00002002,0.00006449,-0.0020
 9021,-0.00031007,0.00082656,0.01146601,0.00014660,-0.05010140,0.000000
 20,0.00000923,0.00000391,0.00000079,0.00000546,-0.00000186,-0.00001125
 ,0.00001743,0.00001408,0.00000240,-0.00000033,-0.00003199,-0.00005216,
 -0.00000641,-0.00001008,0.00010237,-0.00015264,-0.00015504,-0.00005472
 ,-0.00065797,0.00023001,-0.00001639,-0.00003935,0.00009821,0.00009456,
 0.00004080,-0.00001923,-0.00000603,0.00000547,-0.00002246,0.00003157,0
 .00003885,-0.00000184,-0.00002083,0.00001582,-0.00001223,0.00001919,-0
 .00000301,-0.00001806,0.00016115,0.00007979,0.00033210,0.00020160,-0.0
 0006560,-0.00023494,0.00054864,0.00014577,-0.00089901,0.02461820,0.005
 68029,0.00215219,-0.00055621,-0.00507556,0.05534878,-0.00007202,-0.000
 01748,-0.00006944,0.00002293,-0.00001603,-0.00000720,-0.00005420,-0.00
 000200,-0.00003617,0.00022569,0.00013750,-0.00002476,-0.00050627,0.000
 19614,0.00045101,0.00023644,-0.00016824,0.00000920,0.00008599,-0.00017
 439,0.00005174,-0.00017846,-0.00005627,0.00004797,-0.00000518,0.000070
 50,-0.00039379,0.00180608,0.00183569,0.00064004,-0.00031711,0.00120085
 ,0.00036766,0.00228005,0.01756732,-0.00536621,-0.00025532,-0.00001525,
 -0.00007194,-0.00012024,-0.00004338,0.00009547,-0.00018050,-0.00077188
 ,0.00120775,-0.06062841,-0.05181232,0.00215418,0.00000382,-0.00000812,
 -0.00000260,-0.00000596,-0.00000129,0.00001535,-0.00000455,0.00000466,
 0.00000065,0.00000950,-0.00003415,-0.00001538,0.00000846,-0.00000062,-
 0.00005483,-0.00124524,-0.00039663,-0.00104675,-0.00030372,-0.00150088
 ,-0.00089393,0.00007945,0.00007605,-0.00001619,-0.00002369,-0.00000321
 ,-0.00000595,0.00011274,0.00005526,0.00003758,0.00001300,0.00000096,-0
 .00002057,0.00002314,-0.00001885,0.00000770,0.00002684,0.00002309,-0.0
 0001472,-0.00007790,0.00011711,0.00007071,0.00029473,-0.00037515,0.000
 07076,-0.00016764,-0.00023365,-0.00020160,0.00272146,0.01384588,-0.000
 27973,-0.00450466,-0.03155123,0.00038129,0.06070074,0.00006049,0.00002
 333,-0.00000743,-0.00001445,0.00006421,0.00000067,0.00010350,-0.000002
 62,-0.00001584,-0.00014313,-0.00011327,-0.00002106,0.00054739,-0.00010
 594,0.00009023,-0.00061035,0.00017204,0.00001213,-0.00002933,0.0001467
 1,0.00007136,0.00035812,0.00029678,-0.00014766,0.00053399,-0.00036018,
 -0.00065804,-0.00247517,0.00047873,0.00007923,0.00023035,-0.00209949,-
 0.00034407,0.00275963,-0.01547033,0.00929592,0.00024597,-0.00021557,0.
 00008922,0.00019584,0.00008014,-0.00026113,0.00075257,0.00152625,-0.00
 120538,-0.04952180,-0.29711844,0.00360680,-0.00001766,0.00002824,-0.00
 000139,0.00001862,-0.00000219,0.00000290,0.00000934,-0.00000793,0.0000
 0337,-0.00000888,0.00003090,0.00002148,0.00006080,-0.00000540,-0.00001
 968,-0.00038214,0.00062560,0.00018980,0.00021664,0.00411488,0.00050945
 ,0.00002618,0.00004865,-0.00000118,-0.00006802,0.00004182,0.00006499,-
 0.00006368,-0.00010268,-0.00004798,0.00000620,0.00001988,-0.00000404,-
 0.00002068,0.00001226,0.00001178,-0.00003085,-0.00006776,0.00006090,0.
 00001772,0.00029289,0.00007533,-0.00037506,0.00034756,0.00142141,-0.00
 010486,-0.00013842,0.00006560,-0.00375918,-0.01221879,0.00013826,-0.00
 058810,-0.00316928,-0.00101190,0.05206998,0.32284741,-0.00011533,0.000
 03321,-0.00002804,0.00004214,0.00002829,-0.00000211,-0.00005034,-0.000
 05285,-0.00003760,0.00009645,0.00019479,0.00002315,-0.00049527,0.00001
 300,0.00035941,0.00040130,-0.00018739,0.00003086,0.00008477,-0.0001582
 3,0.00002977,-0.00014279,-0.00020246,-0.00004558,-0.00009608,0.0002133
 4,-0.00016923,0.00237701,0.00008584,0.00027303,-0.00015053,0.00295195,
 0.00045392,0.00084253,0.03535812,-0.01149359,-0.00016503,0.00002497,-0
 .00065491,-0.00012956,-0.00007154,0.00030606,-0.00040677,0.00331146,0.
 00306508,0.00145557,0.00092650,-0.04904319,0.00000596,0.00000222,-0.00
 001082,-0.00000928,0.00000232,0.00000818,-0.00001136,0.00000867,-0.000
 00027,0.00000442,-0.00002819,-0.00000396,-0.00003273,0.00000470,-0.000
 00221,-0.00090433,-0.00038688,-0.00032178,-0.00068339,-0.00365072,-0.0
 0167807,0.00008249,0.00007849,-0.00002678,-0.00015299,0.00011874,0.000
 17555,0.00003516,0.00000916,0.00027627,0.00002400,-0.00000776,-0.00001
 893,0.00000499,-0.00003612,0.00002662,0.00002117,0.00004583,-0.0000806
 2,-0.00003299,-0.00052755,0.00011784,-0.00007089,-0.00142145,0.0000971
 4,0.00007693,-0.00014514,-0.00023494,-0.00579003,-0.02509746,0.0022839
 3,0.00097208,0.00062618,0.00045836,0.00291270,-0.01206403,0.05586745\\
 0.00001040,0.00001703,0.00000009,-0.00001436,0.00000450,-0.00000008,-0
 .00001157,0.00000279,0.00000005,0.00000559,0.00000053,0.00000006,-0.00
 000806,0.00000047,-0.00000062,-0.00004145,-0.00000892,-0.00000015,-0.0
 0000901,-0.00000663,0.00000003,-0.00000852,-0.00000883,0.,0.00000922,-
 0.00001683,0.00000012,0.00001867,0.00000478,-0.00000002,0.00002422,-0.
 00000146,0.00000013,0.00001415,-0.00000010,-0.00000027,0.00000050,-0.0
 0000485,0.00001016,0.00000047,-0.00000460,-0.00001050,-0.00001507,0.00
 001181,0.00001719,-0.00001472,0.00001249,-0.00001711,-0.00000077,-0.00
 000696,-0.00000005,-0.00000130,-0.00000438,0.00000006,0.00000302,-0.00
 000134,0.,0.00000316,-0.00000204,0.00000006,0.00000273,0.00000177,-0.0
 0000004,0.00001076,0.00000635,-0.00000010,0.00002182,0.00000361,0.0000
 0098,0.00000147,0.00000106,0.00000142,-0.00000123,-0.00000063,-0.00000
 081,-0.00000093,0.00000107,0.00000032,0.00000144,0.00000099,-0.0000013
 5,-0.00000125,-0.00000056,0.00000086,-0.00000114,0.00000109,-0.0000002
 2,-0.00000193,0.00000301,0.00000020,-0.00000038,-0.00000604,-0.0000021
 6,0.00000313,0.00000180,0.00000174,-0.00000188,0.00000315,-0.00000034,
 0.00000304,0.00000176,-0.00000170,-0.00000020,-0.00000590,0.00000208\\
 \@


 IF MATHEMATICALLY YOU END UP WITH THE INCORRECT ANSWER,
 TRY MULTIPLYING BY THE PAGE NUMBER.
 Job cpu time:       0 days  1 hours 46 minutes 46.3 seconds.
 File lengths (MBytes):  RWF=    535 Int=      0 D2E=      0 Chk=     13 Scr=      1
 Normal termination of Gaussian 09 at Tue Dec 17 18:48:02 2024.
