 Entering Gaussian System, Link 0=g09
 Input=camb3lypD3DMANyang.gjf
 Output=camb3lypD3DMANyang.log
 Initial command:
 /home/c612/g09E/g09/l1.exe "/mnt/ja_sm883/scratch/Gau-1813355.inp" -scrdir="/mnt/ja_sm883/scratch/"
 Default is to use a total of  18 processors:
                               18 via shared-memory
                                1 via Linda
 Entering Link 1 = /home/c612/g09E/g09/l1.exe PID=   1813357.
  
 Copyright (c) 1988,1990,1992,1993,1995,1998,2003,2009,2015,
            Gaussian, Inc.  All Rights Reserved.
  
 This is part of the Gaussian(R) 09 program.  It is based on
 the Gaussian(R) 03 system (copyright 2003, Gaussian, Inc.),
 the Gaussian(R) 98 system (copyright 1998, Gaussian, Inc.),
 the Gaussian(R) 94 system (copyright 1995, Gaussian, Inc.),
 the Gaussian 92(TM) system (copyright 1992, Gaussian, Inc.),
 the Gaussian 90(TM) system (copyright 1990, Gaussian, Inc.),
 the Gaussian 88(TM) system (copyright 1988, Gaussian, Inc.),
 the Gaussian 86(TM) system (copyright 1986, Carnegie Mellon
 University), and the Gaussian 82(TM) system (copyright 1983,
 Carnegie Mellon University). Gaussian is a federally registered
 trademark of Gaussian, Inc.
  
 This software contains proprietary and confidential information,
 including trade secrets, belonging to Gaussian, Inc.
  
 This software is provided under written license and may be
 used, copied, transmitted, or stored only in accord with that
 written license.
  
 The following legend is applicable only to US Government
 contracts under FAR:
  
                    RESTRICTED RIGHTS LEGEND
  
 Use, reproduction and disclosure by the US Government is
 subject to restrictions as set forth in subparagraphs (a)
 and (c) of the Commercial Computer Software - Restricted
 Rights clause in FAR 52.227-19.
  
 Gaussian, Inc.
 340 Quinnipiac St., Bldg. 40, Wallingford CT 06492
  
  
 ---------------------------------------------------------------
 Warning -- This program may not be used in any manner that
 competes with the business of Gaussian, Inc. or will provide
 assistance to any competitor of Gaussian, Inc.  The licensee
 of this program is prohibited from giving any competitor of
 Gaussian, Inc. access to this program.  By using this program,
 the user acknowledges that Gaussian, Inc. is engaged in the
 business of creating and licensing software in the field of
 computational chemistry and represents and warrants to the
 licensee that it is not a competitor of Gaussian, Inc. and that
 it will not use this program in any manner prohibited above.
 ---------------------------------------------------------------
  

 Cite this work as:
 Gaussian 09, Revision E.01,
 M. J. Frisch, G. W. Trucks, H. B. Schlegel, G. E. Scuseria, 
 M. A. Robb, J. R. Cheeseman, G. Scalmani, V. Barone, B. Mennucci, 
 G. A. Petersson, H. Nakatsuji, M. Caricato, X. Li, H. P. Hratchian, 
 A. F. Izmaylov, J. Bloino, G. Zheng, J. L. Sonnenberg, M. Hada, 
 M. Ehara, K. Toyota, R. Fukuda, J. Hasegawa, M. Ishida, T. Nakajima, 
 Y. Honda, O. Kitao, H. Nakai, T. Vreven, J. A. Montgomery, Jr., 
 J. E. Peralta, F. Ogliaro, M. Bearpark, J. J. Heyd, E. Brothers, 
 K. N. Kudin, V. N. Staroverov, T. Keith, R. Kobayashi, J. Normand, 
 K. Raghavachari, A. Rendell, J. C. Burant, S. S. Iyengar, J. Tomasi, 
 M. Cossi, N. Rega, J. M. Millam, M. Klene, J. E. Knox, J. B. Cross, 
 V. Bakken, C. Adamo, J. Jaramillo, R. Gomperts, R. E. Stratmann, 
 O. Yazyev, A. J. Austin, R. Cammi, C. Pomelli, J. W. Ochterski, 
 R. L. Martin, K. Morokuma, V. G. Zakrzewski, G. A. Voth, 
 P. Salvador, J. J. Dannenberg, S. Dapprich, A. D. Daniels, 
 O. Farkas, J. B. Foresman, J. V. Ortiz, J. Cioslowski, 
 and D. J. Fox, Gaussian, Inc., Wallingford CT, 2013.
 
 ******************************************
 Gaussian 09:  ES64L-G09RevE.01 30-Nov-2015
                17-Dec-2024 
 ******************************************
 %chk=camb3lypD3DMANyang.chk
 --------------------------------------------------------
 # opt freq cam-b3lyp/6-31+g(d,p) empiricaldispersion=gd3
 --------------------------------------------------------
 1/14=-1,18=20,19=15,26=3,38=1/1,3;
 2/9=110,12=2,17=6,18=5,40=1/2;
 3/5=1,6=6,7=111,11=2,16=1,25=1,30=1,71=1,74=-40,124=31/1,2,3;
 4//1;
 5/5=2,38=5/2;
 6/7=2,8=2,9=2,10=2,28=1/1;
 7//1,2,3,16;
 1/14=-1,18=20,19=15,26=3/3(2);
 2/9=110/2;
 99//99;
 2/9=110/2;
 3/5=1,6=6,7=111,11=2,16=1,25=1,30=1,71=1,74=-40,124=31/1,2,3;
 4/5=5,16=3,69=1/1;
 5/5=2,38=5/2;
 7//1,2,3,16;
 1/14=-1,18=20,19=15,26=3/3(-5);
 2/9=110/2;
 6/7=2,8=2,9=2,10=2,19=2,28=1/1;
 99/9=1/99;
 ----------
 [No Title]
 ----------
 Symbolic Z-matrix:
 Charge =  1 Multiplicity = 1
 C                     0.75988  -2.4345    0.00011 
 C                     2.16894  -2.3914    0.00009 
 C                     2.81248  -1.17758   0.00003 
 C                     2.08644   0.04068  -0.00002 
 C                     0.64965   0.01714  -0.00001 
 C                     0.0313   -1.26886   0.00006 
 C                     2.76718   1.28422  -0.00009 
 C                     2.07197   2.46871  -0.00014 
 C                     0.66199   2.45507  -0.00013 
 C                    -0.04062   1.27005  -0.00006 
 N                    -1.44253  -1.32698   0.00008 
 N                    -1.49984   1.26805  -0.00005 
 C                    -2.00145  -1.94679  -1.23313 
 C                    -2.00142  -1.9467    1.23336 
 C                    -2.06852   1.87955   1.21836 
 C                    -2.06854   1.87949  -1.21849 
 H                     0.25805  -3.39797   0.00016 
 H                     2.73366  -3.31779   0.00013 
 H                     3.89781  -1.13423   0.00002 
 H                     3.85331   1.28322  -0.0001 
 H                     2.59908   3.41739  -0.00019 
 H                     0.12447   3.39904  -0.00017 
 H                    -1.6973   -0.22796   0.00005 
 H                    -3.08714  -1.82946  -1.2259 
 H                    -1.57834  -1.44703  -2.10502 
 H                    -1.75115  -3.00874  -1.26858 
 H                    -3.08711  -1.82938   1.22614 
 H                    -1.57829  -1.44688   2.1052 
 H                    -1.75111  -3.00865   1.26888 
 H                    -1.63295   1.41157   2.10387 
 H                    -1.8736    2.95787   1.26454 
 H                    -3.15099   1.72385   1.22488 
 H                    -1.63297   1.41148  -2.10398 
 H                    -3.151     1.72378  -1.22499 
 H                    -1.87363   2.95781  -1.26472 
 

 GradGradGradGradGradGradGradGradGradGradGradGradGradGradGradGradGradGrad
 Berny optimization.
 Initialization pass.
                           ----------------------------
                           !    Initial Parameters    !
                           ! (Angstroms and Degrees)  !
 --------------------------                            --------------------------
 ! Name  Definition              Value          Derivative Info.                !
 --------------------------------------------------------------------------------
 ! R1    R(1,2)                  1.4097         estimate D2E/DX2                !
 ! R2    R(1,6)                  1.3746         estimate D2E/DX2                !
 ! R3    R(1,17)                 1.0863         estimate D2E/DX2                !
 ! R4    R(2,3)                  1.3739         estimate D2E/DX2                !
 ! R5    R(2,18)                 1.0849         estimate D2E/DX2                !
 ! R6    R(3,4)                  1.4182         estimate D2E/DX2                !
 ! R7    R(3,19)                 1.0862         estimate D2E/DX2                !
 ! R8    R(4,5)                  1.437          estimate D2E/DX2                !
 ! R9    R(4,7)                  1.4177         estimate D2E/DX2                !
 ! R10   R(5,6)                  1.4269         estimate D2E/DX2                !
 ! R11   R(5,10)                 1.4305         estimate D2E/DX2                !
 ! R12   R(6,11)                 1.475          estimate D2E/DX2                !
 ! R13   R(7,8)                  1.3734         estimate D2E/DX2                !
 ! R14   R(7,20)                 1.0861         estimate D2E/DX2                !
 ! R15   R(8,9)                  1.41           estimate D2E/DX2                !
 ! R16   R(8,21)                 1.0853         estimate D2E/DX2                !
 ! R17   R(9,10)                 1.3776         estimate D2E/DX2                !
 ! R18   R(9,22)                 1.0863         estimate D2E/DX2                !
 ! R19   R(10,12)                1.4592         estimate D2E/DX2                !
 ! R20   R(11,13)                1.4891         estimate D2E/DX2                !
 ! R21   R(11,14)                1.4891         estimate D2E/DX2                !
 ! R22   R(11,23)                1.1282         estimate D2E/DX2                !
 ! R23   R(12,15)                1.4771         estimate D2E/DX2                !
 ! R24   R(12,16)                1.4771         estimate D2E/DX2                !
 ! R25   R(13,24)                1.092          estimate D2E/DX2                !
 ! R26   R(13,25)                1.0904         estimate D2E/DX2                !
 ! R27   R(13,26)                1.0916         estimate D2E/DX2                !
 ! R28   R(14,27)                1.092          estimate D2E/DX2                !
 ! R29   R(14,28)                1.0904         estimate D2E/DX2                !
 ! R30   R(14,29)                1.0916         estimate D2E/DX2                !
 ! R31   R(15,30)                1.0922         estimate D2E/DX2                !
 ! R32   R(15,31)                1.0968         estimate D2E/DX2                !
 ! R33   R(15,32)                1.0936         estimate D2E/DX2                !
 ! R34   R(16,33)                1.0922         estimate D2E/DX2                !
 ! R35   R(16,34)                1.0936         estimate D2E/DX2                !
 ! R36   R(16,35)                1.0968         estimate D2E/DX2                !
 ! A1    A(2,1,6)              120.2555         estimate D2E/DX2                !
 ! A2    A(2,1,17)             119.265          estimate D2E/DX2                !
 ! A3    A(6,1,17)             120.4794         estimate D2E/DX2                !
 ! A4    A(1,2,3)              119.6833         estimate D2E/DX2                !
 ! A5    A(1,2,18)             119.6139         estimate D2E/DX2                !
 ! A6    A(3,2,18)             120.7028         estimate D2E/DX2                !
 ! A7    A(2,3,4)              121.2753         estimate D2E/DX2                !
 ! A8    A(2,3,19)             120.2187         estimate D2E/DX2                !
 ! A9    A(4,3,19)             118.506          estimate D2E/DX2                !
 ! A10   A(3,4,5)              119.8548         estimate D2E/DX2                !
 ! A11   A(3,4,7)              120.5095         estimate D2E/DX2                !
 ! A12   A(5,4,7)              119.6357         estimate D2E/DX2                !
 ! A13   A(4,5,6)              116.6184         estimate D2E/DX2                !
 ! A14   A(4,5,10)             117.9131         estimate D2E/DX2                !
 ! A15   A(6,5,10)             125.4685         estimate D2E/DX2                !
 ! A16   A(1,6,5)              122.3127         estimate D2E/DX2                !
 ! A17   A(1,6,11)             119.7492         estimate D2E/DX2                !
 ! A18   A(5,6,11)             117.9381         estimate D2E/DX2                !
 ! A19   A(4,7,8)              120.8928         estimate D2E/DX2                !
 ! A20   A(4,7,20)             118.6442         estimate D2E/DX2                !
 ! A21   A(8,7,20)             120.463          estimate D2E/DX2                !
 ! A22   A(7,8,9)              119.8554         estimate D2E/DX2                !
 ! A23   A(7,8,21)             120.532          estimate D2E/DX2                !
 ! A24   A(9,8,21)             119.6125         estimate D2E/DX2                !
 ! A25   A(8,9,10)             121.2186         estimate D2E/DX2                !
 ! A26   A(8,9,22)             119.1033         estimate D2E/DX2                !
 ! A27   A(10,9,22)            119.6781         estimate D2E/DX2                !
 ! A28   A(5,10,9)             120.4843         estimate D2E/DX2                !
 ! A29   A(5,10,12)            118.7731         estimate D2E/DX2                !
 ! A30   A(9,10,12)            120.7426         estimate D2E/DX2                !
 ! A31   A(6,11,13)            113.0443         estimate D2E/DX2                !
 ! A32   A(6,11,14)            113.0444         estimate D2E/DX2                !
 ! A33   A(6,11,23)            100.7934         estimate D2E/DX2                !
 ! A34   A(13,11,14)           111.826          estimate D2E/DX2                !
 ! A35   A(13,11,23)           108.7051         estimate D2E/DX2                !
 ! A36   A(14,11,23)           108.7047         estimate D2E/DX2                !
 ! A37   A(10,12,15)           112.6085         estimate D2E/DX2                !
 ! A38   A(10,12,16)           112.6085         estimate D2E/DX2                !
 ! A39   A(15,12,16)           111.1507         estimate D2E/DX2                !
 ! A40   A(11,13,24)           108.8417         estimate D2E/DX2                !
 ! A41   A(11,13,25)           109.0137         estimate D2E/DX2                !
 ! A42   A(11,13,26)           110.2278         estimate D2E/DX2                !
 ! A43   A(24,13,25)           109.9885         estimate D2E/DX2                !
 ! A44   A(24,13,26)           109.4323         estimate D2E/DX2                !
 ! A45   A(25,13,26)           109.3251         estimate D2E/DX2                !
 ! A46   A(11,14,27)           108.8418         estimate D2E/DX2                !
 ! A47   A(11,14,28)           109.0136         estimate D2E/DX2                !
 ! A48   A(11,14,29)           110.2277         estimate D2E/DX2                !
 ! A49   A(27,14,28)           109.9884         estimate D2E/DX2                !
 ! A50   A(27,14,29)           109.4324         estimate D2E/DX2                !
 ! A51   A(28,14,29)           109.325          estimate D2E/DX2                !
 ! A52   A(12,15,30)           109.7461         estimate D2E/DX2                !
 ! A53   A(12,15,31)           111.9209         estimate D2E/DX2                !
 ! A54   A(12,15,32)           109.0895         estimate D2E/DX2                !
 ! A55   A(30,15,31)           108.4368         estimate D2E/DX2                !
 ! A56   A(30,15,32)           109.2026         estimate D2E/DX2                !
 ! A57   A(31,15,32)           108.399          estimate D2E/DX2                !
 ! A58   A(12,16,33)           109.7461         estimate D2E/DX2                !
 ! A59   A(12,16,34)           109.0895         estimate D2E/DX2                !
 ! A60   A(12,16,35)           111.9209         estimate D2E/DX2                !
 ! A61   A(33,16,34)           109.2027         estimate D2E/DX2                !
 ! A62   A(33,16,35)           108.4368         estimate D2E/DX2                !
 ! A63   A(34,16,35)           108.3989         estimate D2E/DX2                !
 ! D1    D(6,1,2,3)              0.0            estimate D2E/DX2                !
 ! D2    D(6,1,2,18)           179.9999         estimate D2E/DX2                !
 ! D3    D(17,1,2,3)          -179.9999         estimate D2E/DX2                !
 ! D4    D(17,1,2,18)            0.0            estimate D2E/DX2                !
 ! D5    D(2,1,6,5)              0.0            estimate D2E/DX2                !
 ! D6    D(2,1,6,11)          -179.9998         estimate D2E/DX2                !
 ! D7    D(17,1,6,5)           179.9999         estimate D2E/DX2                !
 ! D8    D(17,1,6,11)            0.0001         estimate D2E/DX2                !
 ! D9    D(1,2,3,4)             -0.0001         estimate D2E/DX2                !
 ! D10   D(1,2,3,19)          -180.0            estimate D2E/DX2                !
 ! D11   D(18,2,3,4)          -179.9999         estimate D2E/DX2                !
 ! D12   D(18,2,3,19)            0.0002         estimate D2E/DX2                !
 ! D13   D(2,3,4,5)              0.0            estimate D2E/DX2                !
 ! D14   D(2,3,4,7)           -180.0            estimate D2E/DX2                !
 ! D15   D(19,3,4,5)           179.9999         estimate D2E/DX2                !
 ! D16   D(19,3,4,7)            -0.0001         estimate D2E/DX2                !
 ! D17   D(3,4,5,6)              0.0001         estimate D2E/DX2                !
 ! D18   D(3,4,5,10)          -180.0            estimate D2E/DX2                !
 ! D19   D(7,4,5,6)           -179.9999         estimate D2E/DX2                !
 ! D20   D(7,4,5,10)             0.0            estimate D2E/DX2                !
 ! D21   D(3,4,7,8)            179.9999         estimate D2E/DX2                !
 ! D22   D(3,4,7,20)             0.0            estimate D2E/DX2                !
 ! D23   D(5,4,7,8)             -0.0001         estimate D2E/DX2                !
 ! D24   D(5,4,7,20)          -180.0            estimate D2E/DX2                !
 ! D25   D(4,5,6,1)             -0.0001         estimate D2E/DX2                !
 ! D26   D(4,5,6,11)           179.9997         estimate D2E/DX2                !
 ! D27   D(10,5,6,1)           179.9999         estimate D2E/DX2                !
 ! D28   D(10,5,6,11)           -0.0002         estimate D2E/DX2                !
 ! D29   D(4,5,10,9)            -0.0001         estimate D2E/DX2                !
 ! D30   D(4,5,10,12)          179.9999         estimate D2E/DX2                !
 ! D31   D(6,5,10,9)           179.9999         estimate D2E/DX2                !
 ! D32   D(6,5,10,12)           -0.0002         estimate D2E/DX2                !
 ! D33   D(1,6,11,13)          -64.1597         estimate D2E/DX2                !
 ! D34   D(1,6,11,14)           64.158          estimate D2E/DX2                !
 ! D35   D(1,6,11,23)          179.9989         estimate D2E/DX2                !
 ! D36   D(5,6,11,13)          115.8404         estimate D2E/DX2                !
 ! D37   D(5,6,11,14)         -115.8418         estimate D2E/DX2                !
 ! D38   D(5,6,11,23)           -0.0009         estimate D2E/DX2                !
 ! D39   D(4,7,8,9)              0.0001         estimate D2E/DX2                !
 ! D40   D(4,7,8,21)          -180.0            estimate D2E/DX2                !
 ! D41   D(20,7,8,9)          -180.0            estimate D2E/DX2                !
 ! D42   D(20,7,8,21)            0.0            estimate D2E/DX2                !
 ! D43   D(7,8,9,10)            -0.0001         estimate D2E/DX2                !
 ! D44   D(7,8,9,22)          -179.9999         estimate D2E/DX2                !
 ! D45   D(21,8,9,10)          179.9999         estimate D2E/DX2                !
 ! D46   D(21,8,9,22)            0.0001         estimate D2E/DX2                !
 ! D47   D(8,9,10,5)             0.0001         estimate D2E/DX2                !
 ! D48   D(8,9,10,12)         -179.9998         estimate D2E/DX2                !
 ! D49   D(22,9,10,5)          179.9999         estimate D2E/DX2                !
 ! D50   D(22,9,10,12)           0.0            estimate D2E/DX2                !
 ! D51   D(5,10,12,15)         116.6776         estimate D2E/DX2                !
 ! D52   D(5,10,12,16)        -116.6804         estimate D2E/DX2                !
 ! D53   D(9,10,12,15)         -63.3224         estimate D2E/DX2                !
 ! D54   D(9,10,12,16)          63.3195         estimate D2E/DX2                !
 ! D55   D(6,11,13,24)        -172.1663         estimate D2E/DX2                !
 ! D56   D(6,11,13,25)         -52.1916         estimate D2E/DX2                !
 ! D57   D(6,11,13,26)          67.8088         estimate D2E/DX2                !
 ! D58   D(14,11,13,24)         58.8865         estimate D2E/DX2                !
 ! D59   D(14,11,13,25)        178.8612         estimate D2E/DX2                !
 ! D60   D(14,11,13,26)        -61.1383         estimate D2E/DX2                !
 ! D61   D(23,11,13,24)        -61.1346         estimate D2E/DX2                !
 ! D62   D(23,11,13,25)         58.8401         estimate D2E/DX2                !
 ! D63   D(23,11,13,26)        178.8405         estimate D2E/DX2                !
 ! D64   D(6,11,14,27)         172.1666         estimate D2E/DX2                !
 ! D65   D(6,11,14,28)          52.1919         estimate D2E/DX2                !
 ! D66   D(6,11,14,29)         -67.8084         estimate D2E/DX2                !
 ! D67   D(13,11,14,27)        -58.8863         estimate D2E/DX2                !
 ! D68   D(13,11,14,28)       -178.8609         estimate D2E/DX2                !
 ! D69   D(13,11,14,29)         61.1387         estimate D2E/DX2                !
 ! D70   D(23,11,14,27)         61.1351         estimate D2E/DX2                !
 ! D71   D(23,11,14,28)        -58.8396         estimate D2E/DX2                !
 ! D72   D(23,11,14,29)       -178.8399         estimate D2E/DX2                !
 ! D73   D(10,12,15,30)        -52.5693         estimate D2E/DX2                !
 ! D74   D(10,12,15,31)         67.872          estimate D2E/DX2                !
 ! D75   D(10,12,15,32)       -172.1745         estimate D2E/DX2                !
 ! D76   D(16,12,15,30)       -179.9873         estimate D2E/DX2                !
 ! D77   D(16,12,15,31)        -59.546          estimate D2E/DX2                !
 ! D78   D(16,12,15,32)         60.4075         estimate D2E/DX2                !
 ! D79   D(10,12,16,33)         52.5687         estimate D2E/DX2                !
 ! D80   D(10,12,16,34)        172.174          estimate D2E/DX2                !
 ! D81   D(10,12,16,35)        -67.8726         estimate D2E/DX2                !
 ! D82   D(15,12,16,33)        179.9868         estimate D2E/DX2                !
 ! D83   D(15,12,16,34)        -60.408          estimate D2E/DX2                !
 ! D84   D(15,12,16,35)         59.5454         estimate D2E/DX2                !
 --------------------------------------------------------------------------------
 Trust Radius=3.00D-01 FncErr=1.00D-07 GrdErr=1.00D-06
 Number of steps in this run=    193 maximum allowed number of steps=    210.
 GradGradGradGradGradGradGradGradGradGradGradGradGradGradGradGradGradGrad

                          Input orientation:                          
 ---------------------------------------------------------------------
 Center     Atomic      Atomic             Coordinates (Angstroms)
 Number     Number       Type             X           Y           Z
 ---------------------------------------------------------------------
      1          6           0        0.759884   -2.434495    0.000109
      2          6           0        2.168943   -2.391396    0.000093
      3          6           0        2.812478   -1.177577    0.000029
      4          6           0        2.086443    0.040679   -0.000023
      5          6           0        0.649649    0.017141   -0.000009
      6          6           0        0.031299   -1.268855    0.000060
      7          6           0        2.767183    1.284224   -0.000089
      8          6           0        2.071967    2.468714   -0.000141
      9          6           0        0.661986    2.455065   -0.000127
     10          6           0       -0.040617    1.270052   -0.000064
     11          7           0       -1.442525   -1.326975    0.000082
     12          7           0       -1.499842    1.268051   -0.000054
     13          6           0       -2.001447   -1.946790   -1.233134
     14          6           0       -2.001415   -1.946702    1.233356
     15          6           0       -2.068522    1.879546    1.218361
     16          6           0       -2.068539    1.879488   -1.218490
     17          1           0        0.258049   -3.397974    0.000162
     18          1           0        2.733658   -3.317788    0.000134
     19          1           0        3.897810   -1.134226    0.000016
     20          1           0        3.853308    1.283221   -0.000099
     21          1           0        2.599081    3.417390   -0.000192
     22          1           0        0.124472    3.399039   -0.000170
     23          1           0       -1.697297   -0.227962    0.000051
     24          1           0       -3.087138   -1.829462   -1.225896
     25          1           0       -1.578342   -1.447034   -2.105025
     26          1           0       -1.751147   -3.008739   -1.268583
     27          1           0       -3.087106   -1.829379    1.226137
     28          1           0       -1.578291   -1.446880    2.105201
     29          1           0       -1.751108   -3.008647    1.268877
     30          1           0       -1.632947    1.411568    2.103869
     31          1           0       -1.873601    2.957866    1.264541
     32          1           0       -3.150988    1.723849    1.224878
     33          1           0       -1.632969    1.411475   -2.103981
     34          1           0       -3.151004    1.723783   -1.224989
     35          1           0       -1.873627    2.957807   -1.264719
 ---------------------------------------------------------------------
                    Distance matrix (angstroms):
                    1          2          3          4          5
     1  C    0.000000
     2  C    1.409718   0.000000
     3  C    2.406862   1.373861   0.000000
     4  C    2.808246   2.433474   1.418194   0.000000
     5  C    2.454113   2.847684   2.470866   1.436987   0.000000
     6  C    1.374610   2.414461   2.782676   2.436903   1.426935
     7  C    4.225887   3.723986   2.462218   1.417678   2.467681
     8  C    5.075729   4.861077   3.720725   2.428078   2.834290
     9  C    4.890540   5.075343   4.221458   2.803273   2.437955
    10  C    3.790049   4.276489   3.759127   2.456775   1.430473
    11  N    2.465199   3.765062   4.257625   3.784718   2.486733
    12  N    4.337650   5.181847   4.957540   3.790499   2.486984
    13  C    3.063281   4.371576   5.028544   4.709718   3.522206
    14  C    3.063268   4.371565   5.028540   4.709723   3.522216
    15  C    5.300469   6.138504   5.886807   4.704214   3.513037
    16  C    5.300510   6.138538   5.886830   4.704227   3.513058
    17  H    1.086338   2.159795   3.384564   3.894529   3.437493
    18  H    2.162404   1.084945   2.141662   3.420261   3.932537
    19  H    3.396657   2.137629   1.086197   2.159040   3.446186
    20  H    4.836392   4.042264   2.671863   2.160028   3.444763
    21  H    6.134102   5.824690   4.599920   3.415403   3.919436
    22  H    5.868038   6.140765   5.307616   3.889462   3.422433
    23  H    3.302503   4.430379   4.608670   3.793265   2.359710
    24  H    4.082736   5.426344   6.060802   5.636145   4.344689
    25  H    3.297570   4.400623   4.876798   4.480510   3.396887
    26  H    2.871343   4.166264   5.078307   5.063131   4.065594
    27  H    4.082725   5.426334   6.060798   5.636151   4.344699
    28  H    3.297553   4.400608   4.876795   4.480522   3.396908
    29  H    2.871324   4.166247   5.078298   5.063131   4.065599
    30  H    4.994362   5.774320   5.558023   4.487712   3.403083
    31  H    6.132829   6.823166   6.376536   5.078489   4.075996
    32  H    5.838391   6.836447   6.743994   5.635967   4.342585
    33  H    4.994439   5.774382   5.558061   4.487733   3.403118
    34  H    5.838423   6.836473   6.744010   5.635977   4.342599
    35  H    6.132870   6.823203   6.376564   5.078508   4.076019
                    6          7          8          9         10
     6  C    0.000000
     7  C    3.742095   0.000000
     8  C    4.258374   1.373442   0.000000
     9  C    3.776949   2.408884   1.410047   0.000000
    10  C    2.539925   2.807836   2.428951   1.377645   0.000000
    11  N    1.474970   4.953787   5.172901   4.328140   2.951253
    12  N    2.963155   4.267056   3.768211   2.466273   1.459226
    13  C    2.472331   5.890644   6.132671   5.290606   3.964012
    14  C    2.472331   5.890653   6.132687   5.290627   3.964033
    15  C    3.975668   5.022258   4.356089   3.044932   2.443039
    16  C    3.975707   5.022255   4.356071   3.044908   2.443039
    17  H    2.141159   5.312131   6.140711   5.866961   4.677571
    18  H    3.391293   4.602134   5.824212   6.133323   5.361425
    19  H    3.868854   2.669685   4.039168   4.832553   4.614300
    20  H    4.595742   1.086125   2.139759   3.399670   3.893947
    21  H    5.343631   2.139779   1.085281   2.162962   3.402803
    22  H    4.668824   3.384725   2.158296   1.086282   2.135378
    23  H    2.017796   4.713628   4.634589   3.572793   2.233525
    24  H    3.397337   6.743198   6.825918   5.823711   4.515633
    25  H    2.655951   5.547442   5.752250   4.967499   3.765371
    26  H    2.795311   6.360339   6.799091   6.106173   4.779446
    27  H    3.397337   6.743208   6.825935   5.823734   4.515655
    28  H    2.655954   5.547461   5.752280   4.967537   3.765409
    29  H    2.795308   6.360344   6.799102   6.106189   4.779462
    30  H    3.792149   4.878934   4.389852   3.283657   2.642362
    31  H    4.805489   5.092862   4.172073   2.877741   2.794239
    32  H    4.536894   6.059584   5.416157   4.071128   3.373547
    33  H    3.792222   4.878923   4.389812   3.283611   2.642357
    34  H    4.536924   6.059582   5.416143   4.071112   3.373547
    35  H    4.805526   5.092866   4.172060   2.877721   2.794243
                   11         12         13         14         15
    11  N    0.000000
    12  N    2.595659   0.000000
    13  C    1.489089   3.479554   0.000000
    14  C    1.489088   3.479585   2.466490   0.000000
    15  C    3.486811   1.477111   4.544796   3.826866   0.000000
    16  C    3.486863   1.477111   3.826894   4.544864   2.436851
    17  H    2.679737   4.986178   2.955043   2.955019   5.894842
    18  H    4.626429   6.241189   5.081516   5.081499   7.180341
    19  H    5.343812   5.908095   6.081295   6.081291   6.794432
    20  H    5.904149   5.353171   6.799375   6.799382   6.075222
    21  H    6.232462   4.628264   7.173523   7.173541   5.063235
    22  H    4.979025   2.679460   5.883674   5.883700   2.933070
    23  H    1.128157   1.508988   2.137200   2.137194   2.462453
    24  H    2.111934   3.690093   1.092036   2.690810   4.557270
    25  H    2.112898   3.436386   1.090398   3.401977   4.727717
    26  H    2.129105   4.468026   1.091624   2.729516   5.493719
    27  H    2.111934   3.690125   2.690809   1.092036   3.846258
    28  H    2.112897   3.436438   3.401978   1.090399   3.477344
    29  H    2.129104   4.468049   2.729518   1.091624   4.898748
    30  H    3.458583   2.113009   4.748679   3.488773   1.092178
    31  H    4.488268   2.143448   5.505486   4.906332   1.096768
    32  H    3.704929   2.105824   4.564741   3.846366   1.093625
    33  H    3.458679   2.113008   3.488853   4.748781   3.383305
    34  H    3.704973   2.105824   3.846382   4.564808   2.676936
    35  H    4.488310   2.143448   4.906364   5.505535   2.714096
                   16         17         18         19         20
    16  C    0.000000
    17  H    5.894890   0.000000
    18  H    7.180377   2.476907   0.000000
    19  H    6.794450   4.286306   2.474509   0.000000
    20  H    6.075219   5.902497   4.735282   2.417857   0.000000
    21  H    5.063207   7.206221   6.736522   4.733276   2.475432
    22  H    2.933025   6.798325   7.205804   5.898184   4.287296
    23  H    2.462521   3.724561   5.401887   5.668028   5.752642
    24  H    3.846285   3.892778   6.131878   7.125708   7.704620
    25  H    3.477353   3.407391   5.150219   5.875141   6.433337
    26  H    4.898776   2.407922   4.671042   6.085545   7.172161
    27  H    4.557343   3.892758   6.131863   7.125704   7.704627
    28  H    4.727789   3.407360   5.150195   5.875137   6.433351
    29  H    5.493780   2.407888   4.671017   6.085535   7.172162
    30  H    3.383306   5.579708   6.771983   6.441781   5.877257
    31  H    2.714101   6.821971   7.887293   7.187032   6.099282
    32  H    2.676932   6.273319   7.845200   7.704183   7.124246
    33  H    1.092178   5.579800   6.772050   6.441810   5.877245
    34  H    1.093626   6.273359   7.845229   7.704196   7.124243
    35  H    1.096768   6.822017   7.887333   7.187056   6.099286
                   21         22         23         24         25
    21  H    0.000000
    22  H    2.474677   0.000000
    23  H    5.634488   4.058815   0.000000
    24  H    7.833575   6.257321   2.449369   0.000000
    25  H    6.748615   5.551073   2.435494   1.787620   0.000000
    26  H    7.863106   6.796060   3.056968   1.782523   1.780005
    27  H    7.833594   6.257349   2.449366   2.452033   3.676846
    28  H    6.748647   5.551119   2.435484   3.676846   4.210226
    29  H    7.863118   6.796081   3.056963   3.065835   3.721787
    30  H    5.134243   3.386081   2.668005   4.868910   5.088160
    31  H    4.670717   2.405499   3.432130   5.531135   5.553764
    32  H    6.118184   3.877582   2.724516   4.316988   4.859626
    33  H    5.134186   3.386005   2.668116   3.659141   2.859031
    34  H    6.118162   3.877552   2.724573   3.553819   3.647165
    35  H    4.670692   2.405446   3.432180   4.938832   4.493988
                   26         27         28         29         30
    26  H    0.000000
    27  H    3.065828   0.000000
    28  H    3.721787   1.787619   0.000000
    29  H    2.537460   1.782524   1.780006   0.000000
    30  H    5.561162   3.659061   2.858971   4.499942   0.000000
    31  H    6.483216   4.938804   4.493963   5.967772   1.775788
    32  H    5.529402   3.553802   3.647172   4.935394   1.781739
    33  H    4.500016   4.869018   5.088261   5.561259   4.207850
    34  H    4.935409   4.317066   4.859701   5.529464   3.671957
    35  H    5.967804   5.531188   5.553814   6.483263   3.714319
                   31         32         33         34         35
    31  H    0.000000
    32  H    1.776538   0.000000
    33  H    3.714320   3.671956   0.000000
    34  H    3.058182   2.449867   1.781739   0.000000
    35  H    2.529260   3.058169   1.775787   1.776538   0.000000
 Stoichiometry    C14H19N2(1+)
 Framework group  C1[X(C14H19N2)]
 Deg. of freedom    99
 Full point group                 C1      NOp   1
 Largest Abelian subgroup         C1      NOp   1
 Largest concise Abelian subgroup C1      NOp   1
                         Standard orientation:                         
 ---------------------------------------------------------------------
 Center     Atomic      Atomic             Coordinates (Angstroms)
 Number     Number       Type             X           Y           Z
 ---------------------------------------------------------------------
      1          6           0        0.759885   -2.434495    0.000109
      2          6           0        2.168944   -2.391395    0.000093
      3          6           0        2.812478   -1.177576    0.000029
      4          6           0        2.086443    0.040680   -0.000023
      5          6           0        0.649649    0.017141   -0.000009
      6          6           0        0.031299   -1.268855    0.000060
      7          6           0        2.767183    1.284225   -0.000089
      8          6           0        2.071966    2.468715   -0.000141
      9          6           0        0.661985    2.455065   -0.000127
     10          6           0       -0.040617    1.270052   -0.000064
     11          7           0       -1.442525   -1.326975    0.000082
     12          7           0       -1.499842    1.268051   -0.000054
     13          6           0       -2.001446   -1.946791   -1.233134
     14          6           0       -2.001414   -1.946703    1.233356
     15          6           0       -2.068523    1.879545    1.218361
     16          6           0       -2.068540    1.879487   -1.218490
     17          1           0        0.258050   -3.397974    0.000162
     18          1           0        2.733659   -3.317787    0.000134
     19          1           0        3.897810   -1.134225    0.000016
     20          1           0        3.853308    1.283222   -0.000099
     21          1           0        2.599080    3.417391   -0.000192
     22          1           0        0.124471    3.399039   -0.000170
     23          1           0       -1.697297   -0.227963    0.000051
     24          1           0       -3.087137   -1.829463   -1.225896
     25          1           0       -1.578342   -1.447034   -2.105025
     26          1           0       -1.751146   -3.008740   -1.268583
     27          1           0       -3.087105   -1.829380    1.226137
     28          1           0       -1.578291   -1.446880    2.105201
     29          1           0       -1.751107   -3.008648    1.268877
     30          1           0       -1.632947    1.411568    2.103869
     31          1           0       -1.873602    2.957865    1.264541
     32          1           0       -3.150988    1.723848    1.224878
     33          1           0       -1.632969    1.411475   -2.103981
     34          1           0       -3.151004    1.723782   -1.224989
     35          1           0       -1.873628    2.957806   -1.264719
 ---------------------------------------------------------------------
 Rotational constants (GHZ):      0.6382957      0.6046595      0.3552615
 Standard basis: 6-31+G(d,p) (6D, 7F)
 There are   399 symmetry adapted cartesian basis functions of A   symmetry.
 There are   399 symmetry adapted basis functions of A   symmetry.
   399 basis functions,   645 primitive gaussians,   399 cartesian basis functions
    58 alpha electrons       58 beta electrons
       nuclear repulsion energy      1138.7788830633 Hartrees.
 NAtoms=   35 NActive=   35 NUniq=   35 SFac= 1.00D+00 NAtFMM=   60 NAOKFM=F Big=F
 Integral buffers will be    131072 words long.
 Raffenetti 2 integral format.
 Two-electron integral symmetry is turned on.
 Nuclear repulsion after empirical dispersion term =     1138.7533215526 Hartrees.
 One-electron integrals computed using PRISM.
 NBasis=   399 RedAO= T EigKep=  1.57D-06  NBF=   399
 NBsUse=   395 1.00D-06 EigRej=  8.29D-07 NBFU=   395
 ExpMin= 4.38D-02 ExpMax= 4.17D+03 ExpMxC= 6.27D+02 IAcc=2 IRadAn=         4 AccDes= 0.00D+00
 Harris functional with IExCor=20419 and IRadAn=       4 diagonalized for initial guess.
 HarFok:  IExCor=20419 AccDes= 0.00D+00 IRadAn=         4 IDoV= 1 UseB2=F ITyADJ=14
 ICtDFT=  3500011 ScaDFX=  1.000000  1.000000  1.000000  1.000000
 FoFCou: FMM=F IPFlag=           0 FMFlag=      100000 FMFlg1=           0
         NFxFlg=           0 DoJE=T BraDBF=F KetDBF=T FulRan=T
         wScrn=  0.000000 ICntrl=     500 IOpCl=  0 I1Cent=   200000004 NGrid=           0
         NMat0=    1 NMatS0=      1 NMatT0=    0 NMatD0=    1 NMtDS0=    0 NMtDT0=    0
 Petite list used in FoFCou.
 Requested convergence on RMS density matrix=1.00D-08 within 128 cycles.
 Requested convergence on MAX density matrix=1.00D-06.
 Requested convergence on             energy=1.00D-06.
 No special actions if energy rises.
 SCF Done:  E(RCAM-B3LYP) =  -653.905137109     A.U. after   15 cycles
            NFock= 15  Conv=0.42D-08     -V/T= 2.0095

 **********************************************************************

            Population analysis using the SCF density.

 **********************************************************************

 Orbital symmetries:
       Occupied  (A) (A) (A) (A) (A) (A) (A) (A) (A) (A) (A) (A)
                 (A) (A) (A) (A) (A) (A) (A) (A) (A) (A) (A) (A)
                 (A) (A) (A) (A) (A) (A) (A) (A) (A) (A) (A) (A)
                 (A) (A) (A) (A) (A) (A) (A) (A) (A) (A) (A) (A)
                 (A) (A) (A) (A) (A) (A) (A) (A) (A) (A)
       Virtual   (A) (A) (A) (A) (A) (A) (A) (A) (A) (A) (A) (A)
                 (A) (A) (A) (A) (A) (A) (A) (A) (A) (A) (A) (A)
                 (A) (A) (A) (A) (A) (A) (A) (A) (A) (A) (A) (A)
                 (A) (A) (A) (A) (A) (A) (A) (A) (A) (A) (A) (A)
                 (A) (A) (A) (A) (A) (A) (A) (A) (A) (A) (A) (A)
                 (A) (A) (A) (A) (A) (A) (A) (A) (A) (A) (A) (A)
                 (A) (A) (A) (A) (A) (A) (A) (A) (A) (A) (A) (A)
                 (A) (A) (A) (A) (A) (A) (A) (A) (A) (A) (A) (A)
                 (A) (A) (A) (A) (A) (A) (A) (A) (A) (A) (A) (A)
                 (A) (A) (A) (A) (A) (A) (A) (A) (A) (A) (A) (A)
                 (A) (A) (A) (A) (A) (A) (A) (A) (A) (A) (A) (A)
                 (A) (A) (A) (A) (A) (A) (A) (A) (A) (A) (A) (A)
                 (A) (A) (A) (A) (A) (A) (A) (A) (A) (A) (A) (A)
                 (A) (A) (A) (A) (A) (A) (A) (A) (A) (A) (A) (A)
                 (A) (A) (A) (A) (A) (A) (A) (A) (A) (A) (A) (A)
                 (A) (A) (A) (A) (A) (A) (A) (A) (A) (A) (A) (A)
                 (A) (A) (A) (A) (A) (A) (A) (A) (A) (A) (A) (A)
                 (A) (A) (A) (A) (A) (A) (A) (A) (A) (A) (A) (A)
                 (A) (A) (A) (A) (A) (A) (A) (A) (A) (A) (A) (A)
                 (A) (A) (A) (A) (A) (A) (A) (A) (A) (A) (A) (A)
                 (A) (A) (A) (A) (A) (A) (A) (A) (A) (A) (A) (A)
                 (A) (A) (A) (A) (A) (A) (A) (A) (A) (A) (A) (A)
                 (A) (A) (A) (A) (A) (A) (A) (A) (A) (A) (A) (A)
                 (A) (A) (A) (A) (A) (A) (A) (A) (A) (A) (A) (A)
                 (A) (A) (A) (A) (A) (A) (A) (A) (A) (A) (A) (A)
                 (A) (A) (A) (A) (A) (A) (A) (A) (A) (A) (A) (A)
                 (A) (A) (A) (A) (A) (A) (A) (A) (A) (A) (A) (A)
                 (A) (A) (A) (A) (A) (A) (A) (A) (A) (A) (A) (A)
                 (A)
 The electronic state is 1-A.
 Alpha  occ. eigenvalues --  -14.64277 -14.58159 -10.45358 -10.44845 -10.44845
 Alpha  occ. eigenvalues --  -10.44003 -10.42474 -10.42138 -10.42138 -10.41365
 Alpha  occ. eigenvalues --  -10.41212 -10.40255 -10.39998 -10.39927 -10.39531
 Alpha  occ. eigenvalues --  -10.39457  -1.22647  -1.17064  -1.09340  -1.04081
 Alpha  occ. eigenvalues --   -0.99548  -0.96591  -0.96337  -0.94391  -0.93202
 Alpha  occ. eigenvalues --   -0.90319  -0.87092  -0.84305  -0.82261  -0.79353
 Alpha  occ. eigenvalues --   -0.75480  -0.73721  -0.72941  -0.70645  -0.70208
 Alpha  occ. eigenvalues --   -0.69291  -0.66849  -0.66686  -0.66132  -0.64071
 Alpha  occ. eigenvalues --   -0.63208  -0.63175  -0.61835  -0.61365  -0.60627
 Alpha  occ. eigenvalues --   -0.60322  -0.59281  -0.59201  -0.58558  -0.57548
 Alpha  occ. eigenvalues --   -0.57198  -0.54469  -0.53834  -0.52706  -0.48074
 Alpha  occ. eigenvalues --   -0.45232  -0.43407  -0.40229
 Alpha virt. eigenvalues --   -0.14212  -0.10978  -0.09106  -0.07221  -0.06940
 Alpha virt. eigenvalues --   -0.06446  -0.06146  -0.05420  -0.04866  -0.04284
 Alpha virt. eigenvalues --   -0.04037  -0.03958  -0.02819  -0.02436  -0.02088
 Alpha virt. eigenvalues --   -0.01601  -0.00896  -0.00852  -0.00296  -0.00090
 Alpha virt. eigenvalues --    0.00323   0.00467   0.00772   0.00819   0.02294
 Alpha virt. eigenvalues --    0.03172   0.03587   0.04126   0.04354   0.04753
 Alpha virt. eigenvalues --    0.05230   0.05376   0.06079   0.06253   0.06910
 Alpha virt. eigenvalues --    0.07462   0.07550   0.07971   0.08041   0.09138
 Alpha virt. eigenvalues --    0.09806   0.10087   0.10140   0.10440   0.11000
 Alpha virt. eigenvalues --    0.11072   0.11679   0.12002   0.12408   0.12588
 Alpha virt. eigenvalues --    0.12665   0.13274   0.13717   0.14124   0.14343
 Alpha virt. eigenvalues --    0.15700   0.15727   0.16729   0.17079   0.17314
 Alpha virt. eigenvalues --    0.17393   0.17692   0.18652   0.18833   0.19177
 Alpha virt. eigenvalues --    0.19575   0.19659   0.19799   0.20242   0.20577
 Alpha virt. eigenvalues --    0.20843   0.21174   0.21244   0.21278   0.22264
 Alpha virt. eigenvalues --    0.22826   0.23444   0.24467   0.24659   0.26418
 Alpha virt. eigenvalues --    0.26591   0.27216   0.27437   0.27916   0.28014
 Alpha virt. eigenvalues --    0.30143   0.31517   0.31625   0.32042   0.32752
 Alpha virt. eigenvalues --    0.33838   0.34004   0.37076   0.37635   0.38105
 Alpha virt. eigenvalues --    0.40864   0.45697   0.46936   0.48851   0.55201
 Alpha virt. eigenvalues --    0.57219   0.57994   0.58891   0.58915   0.60067
 Alpha virt. eigenvalues --    0.60388   0.61854   0.62263   0.64137   0.64503
 Alpha virt. eigenvalues --    0.65067   0.65689   0.66774   0.67018   0.67796
 Alpha virt. eigenvalues --    0.69404   0.70006   0.70340   0.70991   0.71261
 Alpha virt. eigenvalues --    0.71967   0.72642   0.72911   0.73957   0.74545
 Alpha virt. eigenvalues --    0.76612   0.77926   0.79427   0.79847   0.80253
 Alpha virt. eigenvalues --    0.81805   0.82570   0.83660   0.84763   0.85441
 Alpha virt. eigenvalues --    0.87027   0.87988   0.88454   0.90104   0.90530
 Alpha virt. eigenvalues --    0.91068   0.91223   0.92657   0.93612   0.94171
 Alpha virt. eigenvalues --    0.95287   0.95582   0.96801   0.97364   0.97752
 Alpha virt. eigenvalues --    0.98307   0.99521   1.00968   1.04163   1.04874
 Alpha virt. eigenvalues --    1.05773   1.07680   1.08141   1.09669   1.10116
 Alpha virt. eigenvalues --    1.10520   1.12051   1.12246   1.12975   1.15375
 Alpha virt. eigenvalues --    1.15666   1.17271   1.19726   1.20666   1.21156
 Alpha virt. eigenvalues --    1.21638   1.24014   1.24728   1.25431   1.28287
 Alpha virt. eigenvalues --    1.28870   1.31891   1.34108   1.35211   1.35832
 Alpha virt. eigenvalues --    1.36443   1.36924   1.39065   1.40600   1.42948
 Alpha virt. eigenvalues --    1.43683   1.46981   1.46982   1.48432   1.48652
 Alpha virt. eigenvalues --    1.50805   1.52677   1.52741   1.62132   1.68137
 Alpha virt. eigenvalues --    1.70851   1.71169   1.72143   1.74773   1.75778
 Alpha virt. eigenvalues --    1.77734   1.79916   1.81321   1.83402   1.83832
 Alpha virt. eigenvalues --    1.85164   1.85500   1.86367   1.86418   1.87786
 Alpha virt. eigenvalues --    1.88097   1.89935   1.91538   1.93349   1.93675
 Alpha virt. eigenvalues --    1.94051   1.94959   1.94967   1.95812   1.96902
 Alpha virt. eigenvalues --    1.97006   1.98010   1.98201   1.99124   2.02433
 Alpha virt. eigenvalues --    2.02453   2.03219   2.03805   2.04341   2.06153
 Alpha virt. eigenvalues --    2.06814   2.07113   2.08605   2.09361   2.10432
 Alpha virt. eigenvalues --    2.11223   2.11797   2.17339   2.18850   2.19682
 Alpha virt. eigenvalues --    2.22746   2.22779   2.24655   2.27079   2.28767
 Alpha virt. eigenvalues --    2.29731   2.31995   2.33153   2.33354   2.34687
 Alpha virt. eigenvalues --    2.35347   2.35690   2.37125   2.37133   2.39508
 Alpha virt. eigenvalues --    2.40784   2.44681   2.45339   2.46354   2.46782
 Alpha virt. eigenvalues --    2.50688   2.51613   2.52171   2.53935   2.54209
 Alpha virt. eigenvalues --    2.54634   2.55668   2.56645   2.58127   2.60128
 Alpha virt. eigenvalues --    2.60470   2.63327   2.63359   2.64773   2.65423
 Alpha virt. eigenvalues --    2.66248   2.67231   2.68420   2.68959   2.69044
 Alpha virt. eigenvalues --    2.70621   2.72155   2.74303   2.75337   2.79724
 Alpha virt. eigenvalues --    2.80149   2.80917   2.81609   2.83923   2.84211
 Alpha virt. eigenvalues --    2.84880   2.87537   2.89089   2.93329   2.96158
 Alpha virt. eigenvalues --    3.00919   3.04549   3.06721   3.13032   3.15099
 Alpha virt. eigenvalues --    3.20583   3.20841   3.21192   3.22326   3.22615
 Alpha virt. eigenvalues --    3.24068   3.27517   3.31550   3.33117   3.34624
 Alpha virt. eigenvalues --    3.38068   3.38188   3.38852   3.39796   3.40885
 Alpha virt. eigenvalues --    3.43065   3.45179   3.48851   3.58674   3.72111
 Alpha virt. eigenvalues --    3.80324   4.22984   4.27118   4.28409   4.33865
 Alpha virt. eigenvalues --    4.37282   4.40325   4.42141   4.47068   4.48397
 Alpha virt. eigenvalues --    4.49386   4.52755   4.58959   4.62365   4.65398
 Alpha virt. eigenvalues --    4.66875   4.88416
          Condensed to atoms (all electrons):
               1          2          3          4          5          6
     1  C    6.742942   0.865356  -1.814503   0.376452   0.134933  -1.162068
     2  C    0.865356   6.145973  -0.702796  -0.299844   0.480712  -0.765154
     3  C   -1.814503  -0.702796  12.528966  -3.255779  -3.135619   2.082928
     4  C    0.376452  -0.299844  -3.255779  11.118133   1.978660  -0.030996
     5  C    0.134933   0.480712  -3.135619   1.978660   8.806972   0.081248
     6  C   -1.162068  -0.765154   2.082928  -0.030996   0.081248   9.432578
     7  C    0.387326   0.202186   0.675925  -3.214108  -3.116461  -1.009349
     8  C   -0.159101  -0.188553   0.062108  -0.238837   0.653378   0.147772
     9  C    0.102083  -0.148512   0.459193   0.431794   0.022956   0.224758
    10  C    0.159499   0.116320  -0.878669  -0.020582   0.228342  -1.211989
    11  N   -0.070960   0.060187   0.000347  -0.148094  -0.002201  -0.463365
    12  N    0.038814   0.027404  -0.094150  -0.142466  -0.026402  -0.058286
    13  C    0.057371   0.020520  -0.004199  -0.069265  -0.048651  -0.576091
    14  C    0.057373   0.020519  -0.004201  -0.069261  -0.048654  -0.576089
    15  C    0.042158   0.007122  -0.050867  -0.052425  -0.057001   0.051826
    16  C    0.042162   0.007122  -0.050866  -0.052419  -0.057010   0.051827
    17  H    0.242511   0.065457   0.059095  -0.019804  -0.023583  -0.059862
    18  H   -0.008464   0.278072   0.002719   0.009574   0.014969   0.039295
    19  H   -0.003791   0.045132   0.229644   0.047815   0.066759   0.001210
    20  H   -0.002175   0.002359  -0.075162   0.048324   0.068284   0.001300
    21  H   -0.000418   0.001440  -0.008054   0.016110   0.017893   0.000588
    22  H   -0.000540   0.001050   0.000073  -0.016714  -0.017717  -0.004516
    23  H   -0.040955  -0.006727   0.013301   0.024705  -0.000850   0.020887
    24  H   -0.009259   0.000754  -0.000922   0.000053   0.009592   0.076978
    25  H    0.008159  -0.002437  -0.003317   0.004864  -0.010238  -0.058243
    26  H    0.009353  -0.007542  -0.000376  -0.006197  -0.002587  -0.040952
    27  H   -0.009260   0.000754  -0.000922   0.000053   0.009592   0.076980
    28  H    0.008165  -0.002437  -0.003317   0.004866  -0.010242  -0.058249
    29  H    0.009350  -0.007542  -0.000376  -0.006198  -0.002586  -0.040951
    30  H    0.003172  -0.000499   0.002419   0.008945  -0.019686   0.011897
    31  H   -0.000314   0.000035  -0.000872  -0.004515   0.003647  -0.001194
    32  H   -0.000335   0.000062   0.000020  -0.000927   0.009068  -0.011259
    33  H    0.003172  -0.000499   0.002419   0.008947  -0.019688   0.011899
    34  H   -0.000335   0.000062   0.000020  -0.000928   0.009068  -0.011260
    35  H   -0.000314   0.000035  -0.000872  -0.004516   0.003646  -0.001194
               7          8          9         10         11         12
     1  C    0.387326  -0.159101   0.102083   0.159499  -0.070960   0.038814
     2  C    0.202186  -0.188553  -0.148512   0.116320   0.060187   0.027404
     3  C    0.675925   0.062108   0.459193  -0.878669   0.000347  -0.094150
     4  C   -3.214108  -0.238837   0.431794  -0.020582  -0.148094  -0.142466
     5  C   -3.116461   0.653378   0.022956   0.228342  -0.002201  -0.026402
     6  C   -1.009349   0.147772   0.224758  -1.211989  -0.463365  -0.058286
     7  C   12.864597  -0.861959  -1.821710   1.944625  -0.102427   0.037644
     8  C   -0.861959   6.194079   0.774903  -0.685938   0.030499   0.060448
     9  C   -1.821710   0.774903   6.626057  -1.009877   0.043339  -0.083984
    10  C    1.944625  -0.685938  -1.009877   9.055983  -0.053749  -0.440330
    11  N   -0.102427   0.030499   0.043339  -0.053749   7.772790  -0.214548
    12  N    0.037644   0.060448  -0.083984  -0.440330  -0.214548   7.965324
    13  C   -0.055570   0.010331   0.032713   0.056946   0.280558  -0.010435
    14  C   -0.055567   0.010331   0.032715   0.056948   0.280553  -0.010436
    15  C    0.007694   0.011255   0.058297  -0.567055  -0.012480   0.271447
    16  C    0.007693   0.011250   0.058303  -0.567050  -0.012484   0.271450
    17  H   -0.000197   0.001176  -0.000597  -0.004341   0.036068  -0.000630
    18  H   -0.009401   0.001519  -0.000291  -0.000123  -0.000598  -0.000008
    19  H   -0.076053   0.003665  -0.002298  -0.000031  -0.000077   0.000222
    20  H    0.219597   0.054731  -0.005237   0.000063   0.000227  -0.000089
    21  H   -0.011999   0.283822  -0.007792   0.036608  -0.000008  -0.000985
    22  H    0.054139   0.055785   0.248582  -0.056371  -0.000472   0.030263
    23  H   -0.002504  -0.003767  -0.028464   0.050223   0.161690   0.089786
    24  H    0.000234   0.000077  -0.000744  -0.014172  -0.057038   0.003703
    25  H    0.001864  -0.000093   0.001366   0.011678  -0.020459  -0.002908
    26  H   -0.001201  -0.000075   0.000336  -0.000048  -0.015472  -0.000549
    27  H    0.000234   0.000077  -0.000744  -0.014171  -0.057039   0.003703
    28  H    0.001865  -0.000093   0.001367   0.011679  -0.020458  -0.002909
    29  H   -0.001201  -0.000075   0.000336  -0.000048  -0.015472  -0.000549
    30  H   -0.000956  -0.004330   0.020353  -0.068832  -0.002644  -0.026113
    31  H   -0.003372  -0.005886  -0.009847  -0.001384  -0.001146  -0.037673
    32  H   -0.000902   0.000352  -0.008362   0.062684   0.005453  -0.065636
    33  H   -0.000957  -0.004329   0.020358  -0.068832  -0.002646  -0.026117
    34  H   -0.000902   0.000352  -0.008362   0.062682   0.005454  -0.065635
    35  H   -0.003371  -0.005887  -0.009851  -0.001385  -0.001146  -0.037669
              13         14         15         16         17         18
     1  C    0.057371   0.057373   0.042158   0.042162   0.242511  -0.008464
     2  C    0.020520   0.020519   0.007122   0.007122   0.065457   0.278072
     3  C   -0.004199  -0.004201  -0.050867  -0.050866   0.059095   0.002719
     4  C   -0.069265  -0.069261  -0.052425  -0.052419  -0.019804   0.009574
     5  C   -0.048651  -0.048654  -0.057001  -0.057010  -0.023583   0.014969
     6  C   -0.576091  -0.576089   0.051826   0.051827  -0.059862   0.039295
     7  C   -0.055570  -0.055567   0.007694   0.007693  -0.000197  -0.009401
     8  C    0.010331   0.010331   0.011255   0.011250   0.001176   0.001519
     9  C    0.032713   0.032715   0.058297   0.058303  -0.000597  -0.000291
    10  C    0.056946   0.056948  -0.567055  -0.567050  -0.004341  -0.000123
    11  N    0.280558   0.280553  -0.012480  -0.012484   0.036068  -0.000598
    12  N   -0.010435  -0.010436   0.271447   0.271450  -0.000630  -0.000008
    13  C    5.354725  -0.050427  -0.031744  -0.034807   0.009820  -0.000409
    14  C   -0.050427   5.354726  -0.034809  -0.031743   0.009820  -0.000409
    15  C   -0.031744  -0.034809   5.316415  -0.043013  -0.000367  -0.000001
    16  C   -0.034807  -0.031743  -0.043013   5.316408  -0.000367  -0.000001
    17  H    0.009820   0.009820  -0.000367  -0.000367   0.539675  -0.004152
    18  H   -0.000409  -0.000409  -0.000001  -0.000001  -0.004152   0.511184
    19  H    0.000015   0.000015   0.000062   0.000062  -0.000150  -0.003888
    20  H    0.000063   0.000063  -0.000007  -0.000007   0.000000  -0.000006
    21  H    0.000007   0.000007  -0.000574  -0.000574  -0.000000  -0.000000
    22  H   -0.000290  -0.000290   0.010783   0.010783  -0.000000  -0.000000
    23  H   -0.020001  -0.020002  -0.028357  -0.028357  -0.000033   0.000002
    24  H    0.376547  -0.029143   0.002845   0.004555   0.000025  -0.000000
    25  H    0.421820   0.018667  -0.000825  -0.005496   0.000124  -0.000000
    26  H    0.433953  -0.010280   0.000112  -0.001107  -0.000729   0.000003
    27  H   -0.029143   0.376547   0.004555   0.002846   0.000025  -0.000000
    28  H    0.018667   0.421821  -0.005496  -0.000825   0.000124  -0.000000
    29  H   -0.010278   0.433953  -0.001106   0.000112  -0.000729   0.000003
    30  H   -0.000960  -0.006423   0.427477   0.018616   0.000000  -0.000000
    31  H    0.000620  -0.000152   0.428810  -0.014865   0.000000  -0.000000
    32  H    0.001849   0.003092   0.394105  -0.027611   0.000000   0.000000
    33  H   -0.006423  -0.000960   0.018614   0.427479   0.000000  -0.000000
    34  H    0.003092   0.001849  -0.027611   0.394106   0.000000   0.000000
    35  H   -0.000152   0.000620  -0.014860   0.428811   0.000000  -0.000000
              19         20         21         22         23         24
     1  C   -0.003791  -0.002175  -0.000418  -0.000540  -0.040955  -0.009259
     2  C    0.045132   0.002359   0.001440   0.001050  -0.006727   0.000754
     3  C    0.229644  -0.075162  -0.008054   0.000073   0.013301  -0.000922
     4  C    0.047815   0.048324   0.016110  -0.016714   0.024705   0.000053
     5  C    0.066759   0.068284   0.017893  -0.017717  -0.000850   0.009592
     6  C    0.001210   0.001300   0.000588  -0.004516   0.020887   0.076978
     7  C   -0.076053   0.219597  -0.011999   0.054139  -0.002504   0.000234
     8  C    0.003665   0.054731   0.283822   0.055785  -0.003767   0.000077
     9  C   -0.002298  -0.005237  -0.007792   0.248582  -0.028464  -0.000744
    10  C   -0.000031   0.000063   0.036608  -0.056371   0.050223  -0.014172
    11  N   -0.000077   0.000227  -0.000008  -0.000472   0.161690  -0.057038
    12  N    0.000222  -0.000089  -0.000985   0.030263   0.089786   0.003703
    13  C    0.000015   0.000063   0.000007  -0.000290  -0.020001   0.376547
    14  C    0.000015   0.000063   0.000007  -0.000290  -0.020002  -0.029143
    15  C    0.000062  -0.000007  -0.000574   0.010783  -0.028357   0.002845
    16  C    0.000062  -0.000007  -0.000574   0.010783  -0.028357   0.004555
    17  H   -0.000150   0.000000  -0.000000  -0.000000  -0.000033   0.000025
    18  H   -0.003888  -0.000006  -0.000000  -0.000000   0.000002  -0.000000
    19  H    0.523765   0.002478  -0.000007   0.000000  -0.000000   0.000000
    20  H    0.002478   0.525654  -0.003858  -0.000149  -0.000000   0.000000
    21  H   -0.000007  -0.003858   0.513040  -0.004202   0.000001   0.000000
    22  H    0.000000  -0.000149  -0.004202   0.537958  -0.000006   0.000000
    23  H   -0.000000  -0.000000   0.000001  -0.000006   0.346110  -0.003744
    24  H    0.000000   0.000000   0.000000   0.000000  -0.003744   0.493476
    25  H    0.000000   0.000000  -0.000000   0.000000  -0.003190  -0.022095
    26  H   -0.000000  -0.000000  -0.000000  -0.000000   0.003153  -0.025113
    27  H    0.000000   0.000000   0.000000   0.000000  -0.003744   0.001402
    28  H    0.000000   0.000000  -0.000000   0.000000  -0.003190   0.000153
    29  H   -0.000000  -0.000000  -0.000000  -0.000000   0.003153  -0.000404
    30  H    0.000000   0.000000  -0.000001   0.000117  -0.002226   0.000000
    31  H    0.000000  -0.000000   0.000006  -0.000302   0.001408   0.000000
    32  H    0.000000   0.000000  -0.000000   0.000008  -0.002392   0.000006
    33  H    0.000000   0.000000  -0.000001   0.000117  -0.002225  -0.000021
    34  H    0.000000   0.000000  -0.000000   0.000008  -0.002392  -0.000035
    35  H    0.000000  -0.000000   0.000006  -0.000302   0.001408   0.000005
              25         26         27         28         29         30
     1  C    0.008159   0.009353  -0.009260   0.008165   0.009350   0.003172
     2  C   -0.002437  -0.007542   0.000754  -0.002437  -0.007542  -0.000499
     3  C   -0.003317  -0.000376  -0.000922  -0.003317  -0.000376   0.002419
     4  C    0.004864  -0.006197   0.000053   0.004866  -0.006198   0.008945
     5  C   -0.010238  -0.002587   0.009592  -0.010242  -0.002586  -0.019686
     6  C   -0.058243  -0.040952   0.076980  -0.058249  -0.040951   0.011897
     7  C    0.001864  -0.001201   0.000234   0.001865  -0.001201  -0.000956
     8  C   -0.000093  -0.000075   0.000077  -0.000093  -0.000075  -0.004330
     9  C    0.001366   0.000336  -0.000744   0.001367   0.000336   0.020353
    10  C    0.011678  -0.000048  -0.014171   0.011679  -0.000048  -0.068832
    11  N   -0.020459  -0.015472  -0.057039  -0.020458  -0.015472  -0.002644
    12  N   -0.002908  -0.000549   0.003703  -0.002909  -0.000549  -0.026113
    13  C    0.421820   0.433953  -0.029143   0.018667  -0.010278  -0.000960
    14  C    0.018667  -0.010280   0.376547   0.421821   0.433953  -0.006423
    15  C   -0.000825   0.000112   0.004555  -0.005496  -0.001106   0.427477
    16  C   -0.005496  -0.001107   0.002846  -0.000825   0.000112   0.018616
    17  H    0.000124  -0.000729   0.000025   0.000124  -0.000729   0.000000
    18  H   -0.000000   0.000003  -0.000000  -0.000000   0.000003  -0.000000
    19  H    0.000000  -0.000000   0.000000   0.000000  -0.000000   0.000000
    20  H    0.000000  -0.000000   0.000000   0.000000  -0.000000   0.000000
    21  H   -0.000000  -0.000000   0.000000  -0.000000  -0.000000  -0.000001
    22  H    0.000000  -0.000000   0.000000   0.000000  -0.000000   0.000117
    23  H   -0.003190   0.003153  -0.003744  -0.003190   0.003153  -0.002226
    24  H   -0.022095  -0.025113   0.001402   0.000153  -0.000404   0.000000
    25  H    0.484418  -0.022147   0.000153  -0.000166   0.000001  -0.000001
    26  H   -0.022147   0.488873  -0.000404   0.000001   0.002331   0.000000
    27  H    0.000153  -0.000404   0.493476  -0.022095  -0.025113  -0.000021
    28  H   -0.000166   0.000001  -0.022095   0.484419  -0.022148   0.000034
    29  H    0.000001   0.002331  -0.025113  -0.022148   0.488875   0.000013
    30  H   -0.000001   0.000000  -0.000021   0.000034   0.000013   0.515239
    31  H    0.000000  -0.000000   0.000005   0.000015  -0.000000  -0.026889
    32  H    0.000000   0.000000  -0.000035  -0.000036   0.000004  -0.023211
    33  H    0.000034   0.000013   0.000000  -0.000001   0.000000  -0.000177
    34  H   -0.000036   0.000004   0.000006   0.000000   0.000000   0.000204
    35  H    0.000015  -0.000000   0.000000   0.000000  -0.000000  -0.000068
              31         32         33         34         35
     1  C   -0.000314  -0.000335   0.003172  -0.000335  -0.000314
     2  C    0.000035   0.000062  -0.000499   0.000062   0.000035
     3  C   -0.000872   0.000020   0.002419   0.000020  -0.000872
     4  C   -0.004515  -0.000927   0.008947  -0.000928  -0.004516
     5  C    0.003647   0.009068  -0.019688   0.009068   0.003646
     6  C   -0.001194  -0.011259   0.011899  -0.011260  -0.001194
     7  C   -0.003372  -0.000902  -0.000957  -0.000902  -0.003371
     8  C   -0.005886   0.000352  -0.004329   0.000352  -0.005887
     9  C   -0.009847  -0.008362   0.020358  -0.008362  -0.009851
    10  C   -0.001384   0.062684  -0.068832   0.062682  -0.001385
    11  N   -0.001146   0.005453  -0.002646   0.005454  -0.001146
    12  N   -0.037673  -0.065636  -0.026117  -0.065635  -0.037669
    13  C    0.000620   0.001849  -0.006423   0.003092  -0.000152
    14  C   -0.000152   0.003092  -0.000960   0.001849   0.000620
    15  C    0.428810   0.394105   0.018614  -0.027611  -0.014860
    16  C   -0.014865  -0.027611   0.427479   0.394106   0.428811
    17  H    0.000000   0.000000   0.000000   0.000000   0.000000
    18  H   -0.000000   0.000000  -0.000000   0.000000  -0.000000
    19  H    0.000000   0.000000   0.000000   0.000000   0.000000
    20  H   -0.000000   0.000000   0.000000   0.000000  -0.000000
    21  H    0.000006  -0.000000  -0.000001  -0.000000   0.000006
    22  H   -0.000302   0.000008   0.000117   0.000008  -0.000302
    23  H    0.001408  -0.002392  -0.002225  -0.002392   0.001408
    24  H    0.000000   0.000006  -0.000021  -0.000035   0.000005
    25  H    0.000000   0.000000   0.000034  -0.000036   0.000015
    26  H   -0.000000   0.000000   0.000013   0.000004  -0.000000
    27  H    0.000005  -0.000035   0.000000   0.000006   0.000000
    28  H    0.000015  -0.000036  -0.000001   0.000000   0.000000
    29  H   -0.000000   0.000004   0.000000   0.000000  -0.000000
    30  H   -0.026889  -0.023211  -0.000177   0.000204  -0.000068
    31  H    0.521420  -0.029507  -0.000068  -0.000830   0.004428
    32  H   -0.029507   0.518025   0.000204   0.002163  -0.000830
    33  H   -0.000068   0.000204   0.515236  -0.023211  -0.026890
    34  H   -0.000830   0.002163  -0.023211   0.518025  -0.029507
    35  H    0.004428  -0.000830  -0.026890  -0.029507   0.521424
 Mulliken charges:
               1
     1  C   -0.007556
     2  C   -0.216093
     3  C   -0.033342
     4  C   -0.425419
     5  C   -0.000543
     6  C   -0.172904
     7  C   -0.055458
     8  C   -0.208987
     9  C   -0.013140
    10  C   -0.189303
    11  N   -0.402184
    12  N   -0.451704
    13  C   -0.130773
    14  C   -0.130772
    15  C   -0.124979
    16  C   -0.124985
    17  H    0.151618
    18  H    0.170409
    19  H    0.165451
    20  H    0.163545
    21  H    0.168945
    22  H    0.152206
    23  H    0.487300
    24  H    0.192283
    25  H    0.198486
    26  H    0.196648
    27  H    0.192284
    28  H    0.198486
    29  H    0.196647
    30  H    0.174550
    31  H    0.178419
    32  H    0.173949
    33  H    0.174552
    34  H    0.173948
    35  H    0.178417
 Sum of Mulliken charges =   1.00000
 Mulliken charges with hydrogens summed into heavy atoms:
               1
     1  C    0.144063
     2  C   -0.045684
     3  C    0.132108
     4  C   -0.425419
     5  C   -0.000543
     6  C   -0.172904
     7  C    0.108087
     8  C   -0.040042
     9  C    0.139066
    10  C   -0.189303
    11  N    0.085116
    12  N   -0.451704
    13  C    0.456644
    14  C    0.456644
    15  C    0.401939
    16  C    0.401932
 Electronic spatial extent (au):  <R**2>=           3323.0522
 Charge=              1.0000 electrons
 Dipole moment (field-independent basis, Debye):
    X=             -3.9786    Y=             -1.5889    Z=              0.0001  Tot=              4.2842
 Quadrupole moment (field-independent basis, Debye-Ang):
   XX=            -63.7918   YY=            -65.0723   ZZ=            -92.2962
   XY=              3.0067   XZ=             -0.0005   YZ=             -0.0014
 Traceless Quadrupole moment (field-independent basis, Debye-Ang):
   XX=              9.9283   YY=              8.6478   ZZ=            -18.5761
   XY=              3.0067   XZ=             -0.0005   YZ=             -0.0014
 Octapole moment (field-independent basis, Debye-Ang**2):
  XXX=             -2.1619  YYY=             -9.6136  ZZZ=              0.0013  XYY=            -10.5293
  XXY=             -7.2752  XXZ=             -0.0001  XZZ=            -28.9608  YZZ=             -3.8975
  YYZ=              0.0000  XYZ=             -0.0008
 Hexadecapole moment (field-independent basis, Debye-Ang**3):
 XXXX=          -1776.8723 YYYY=          -1699.0925 ZZZZ=           -394.7499 XXXY=             16.6288
 XXXZ=              0.0049 YYYX=             18.8413 YYYZ=              0.0250 ZZZX=              0.0081
 ZZZY=              0.0408 XXYY=           -556.0014 XXZZ=           -418.9986 YYZZ=           -402.1660
 XXYZ=              0.0071 YYXZ=              0.0018 ZZXY=              6.9928
 N-N= 1.138753321553D+03 E-N=-3.774305313192D+03  KE= 6.477483241741D+02
 Calling FoFJK, ICntrl=      2127 FMM=F ISym2X=0 I1Cent= 0 IOpClX= 0 NMat=1 NMatS=1 NMatT=0.
 ***** Axes restored to original set *****
 -------------------------------------------------------------------
 Center     Atomic                   Forces (Hartrees/Bohr)
 Number     Number              X              Y              Z
 -------------------------------------------------------------------
      1        6          -0.002398240    0.004133500   -0.000000145
      2        6           0.001634364    0.003792731   -0.000000097
      3        6          -0.002245569   -0.003451547    0.000000046
      4        6          -0.004779299   -0.000011375    0.000000048
      5        6           0.004718185    0.000108282    0.000000014
      6        6           0.002571711   -0.003601493    0.000000304
      7        6          -0.002376393    0.003408575   -0.000000278
      8        6           0.001930918   -0.003880581    0.000000384
      9        6          -0.002588567   -0.004114238   -0.000000029
     10        6           0.003069193    0.003514698   -0.000000136
     11        7           0.000534472    0.001772583    0.000001546
     12        7           0.000824012    0.001542096    0.000001602
     13        6          -0.000277367    0.000396604   -0.000231782
     14        6          -0.000276254    0.000395595    0.000232602
     15        6          -0.000444220   -0.000203297    0.000403322
     16        6          -0.000444873   -0.000204943   -0.000402944
     17        1           0.000123056    0.000930705   -0.000000103
     18        1          -0.000383850    0.000752915   -0.000000127
     19        1          -0.000768838   -0.000075899    0.000000088
     20        1          -0.000774143    0.000065073    0.000000011
     21        1          -0.000391195   -0.000771199    0.000000029
     22        1           0.000205761   -0.000919404    0.000000159
     23        1          -0.000392447   -0.003184369   -0.000003951
     24        1           0.000691600    0.000086191    0.000089363
     25        1          -0.000111701   -0.000014847    0.000583299
     26        1           0.000082742    0.000756832    0.000266407
     27        1           0.000691212    0.000086146   -0.000089612
     28        1          -0.000111830   -0.000015218   -0.000583708
     29        1           0.000082287    0.000756762   -0.000266184
     30        1          -0.000131125   -0.000034465   -0.000696193
     31        1           0.000145863   -0.000904190   -0.000335558
     32        1           0.000787860   -0.000086780   -0.000070185
     33        1          -0.000131137   -0.000034722    0.000695909
     34        1           0.000787971   -0.000086793    0.000070126
     35        1           0.000145841   -0.000903926    0.000335770
 -------------------------------------------------------------------
 Cartesian Forces:  Max     0.004779299 RMS     0.001488879

 GradGradGradGradGradGradGradGradGradGradGradGradGradGradGradGradGradGrad
 Berny optimization.
 FormGI is forming the generalized inverse of G from B-inverse, IUseBI=4.
 GSVD:  received Info=                   1 from GESDD.
 Internal  Forces:  Max     0.006596561 RMS     0.001149062
 Search for a local minimum.
 Step number   1 out of a maximum of  193
 All quantities printed in internal units (Hartrees-Bohrs-Radians)
 Mixed Optimization -- RFO/linear search
 Second derivative matrix not updated -- first step.
 ITU=  0
     Eigenvalues ---    0.00513   0.00513   0.00672   0.00672   0.00700
     Eigenvalues ---    0.00908   0.01541   0.01676   0.01720   0.01736
     Eigenvalues ---    0.01769   0.01996   0.02045   0.02083   0.02094
     Eigenvalues ---    0.02175   0.02183   0.02194   0.02219   0.02286
     Eigenvalues ---    0.02301   0.02611   0.03477   0.04797   0.05862
     Eigenvalues ---    0.05862   0.05977   0.05977   0.06231   0.07191
     Eigenvalues ---    0.07191   0.07463   0.07463   0.16000   0.16000
     Eigenvalues ---    0.16000   0.16000   0.16000   0.16000   0.16000
     Eigenvalues ---    0.16000   0.16000   0.16000   0.16000   0.16000
     Eigenvalues ---    0.16000   0.16000   0.16000   0.16000   0.16000
     Eigenvalues ---    0.16000   0.17515   0.17605   0.18941   0.19220
     Eigenvalues ---    0.22061   0.22129   0.23305   0.23705   0.24873
     Eigenvalues ---    0.24943   0.25000   0.25000   0.30751   0.33550
     Eigenvalues ---    0.33550   0.34042   0.34042   0.34397   0.34397
     Eigenvalues ---    0.34562   0.34562   0.34578   0.34578   0.34626
     Eigenvalues ---    0.34626   0.34767   0.34767   0.34902   0.34902
     Eigenvalues ---    0.35152   0.35239   0.35246   0.35256   0.35264
     Eigenvalues ---    0.35364   0.35403   0.36265   0.37061   0.39340
     Eigenvalues ---    0.39770   0.41445   0.41813   0.43204   0.43322
     Eigenvalues ---    0.48015   0.48358   0.49428   0.49600
 RFO step:  Lambda=-6.47920455D-04 EMin= 5.13303230D-03
 Linear search not attempted -- first point.
 Iteration  1 RMS(Cart)=  0.02251942 RMS(Int)=  0.00006830
 Iteration  2 RMS(Cart)=  0.00014614 RMS(Int)=  0.00000914
 Iteration  3 RMS(Cart)=  0.00000001 RMS(Int)=  0.00000914
 Variable       Old X    -DE/DX   Delta X   Delta X   Delta X     New X
                                 (Linear)    (Quad)   (Total)
    R1        2.66398  -0.00080   0.00000  -0.00179  -0.00180   2.66219
    R2        2.59764  -0.00618   0.00000  -0.01242  -0.01242   2.58521
    R3        2.05288  -0.00088   0.00000  -0.00250  -0.00250   2.05038
    R4        2.59622  -0.00473   0.00000  -0.00926  -0.00926   2.58696
    R5        2.05025  -0.00084   0.00000  -0.00238  -0.00238   2.04787
    R6        2.68000  -0.00111   0.00000  -0.00247  -0.00247   2.67753
    R7        2.05262  -0.00077   0.00000  -0.00218  -0.00218   2.05043
    R8        2.71551  -0.00660   0.00000  -0.01655  -0.01654   2.69897
    R9        2.67902  -0.00104   0.00000  -0.00229  -0.00229   2.67673
   R10        2.69652  -0.00268   0.00000  -0.00664  -0.00663   2.68988
   R11        2.70320  -0.00326   0.00000  -0.00815  -0.00815   2.69506
   R12        2.78729  -0.00095   0.00000  -0.00269  -0.00269   2.78459
   R13        2.59543  -0.00477   0.00000  -0.00930  -0.00930   2.58613
   R14        2.05248  -0.00077   0.00000  -0.00219  -0.00219   2.05029
   R15        2.66460  -0.00075   0.00000  -0.00165  -0.00165   2.66295
   R16        2.05088  -0.00086   0.00000  -0.00244  -0.00244   2.04844
   R17        2.60337  -0.00632   0.00000  -0.01287  -0.01287   2.59050
   R18        2.05278  -0.00090   0.00000  -0.00255  -0.00255   2.05022
   R19        2.75754  -0.00154   0.00000  -0.00416  -0.00416   2.75338
   R20        2.81397  -0.00124   0.00000  -0.00369  -0.00369   2.81028
   R21        2.81397  -0.00124   0.00000  -0.00369  -0.00369   2.81028
   R22        2.13191  -0.00301   0.00000  -0.00978  -0.00978   2.12213
   R23        2.79134  -0.00122   0.00000  -0.00350  -0.00350   2.78784
   R24        2.79134  -0.00122   0.00000  -0.00350  -0.00350   2.78784
   R25        2.06365  -0.00068   0.00000  -0.00195  -0.00195   2.06169
   R26        2.06055  -0.00052   0.00000  -0.00148  -0.00148   2.05907
   R27        2.06287  -0.00073   0.00000  -0.00209  -0.00209   2.06078
   R28        2.06365  -0.00068   0.00000  -0.00195  -0.00195   2.06169
   R29        2.06056  -0.00052   0.00000  -0.00148  -0.00148   2.05907
   R30        2.06287  -0.00073   0.00000  -0.00209  -0.00209   2.06078
   R31        2.06392  -0.00060   0.00000  -0.00174  -0.00174   2.06218
   R32        2.07259  -0.00088   0.00000  -0.00257  -0.00257   2.07002
   R33        2.06665  -0.00077   0.00000  -0.00223  -0.00223   2.06442
   R34        2.06392  -0.00060   0.00000  -0.00174  -0.00174   2.06218
   R35        2.06665  -0.00077   0.00000  -0.00223  -0.00223   2.06442
   R36        2.07259  -0.00088   0.00000  -0.00257  -0.00257   2.07002
    A1        2.09886  -0.00035   0.00000  -0.00177  -0.00177   2.09709
    A2        2.08157   0.00051   0.00000   0.00294   0.00294   2.08451
    A3        2.10276  -0.00015   0.00000  -0.00117  -0.00117   2.10159
    A4        2.08887   0.00002   0.00000   0.00053   0.00053   2.08940
    A5        2.08766   0.00005   0.00000   0.00014   0.00014   2.08780
    A6        2.10666  -0.00008   0.00000  -0.00067  -0.00067   2.10599
    A7        2.11665  -0.00026   0.00000  -0.00057  -0.00057   2.11608
    A8        2.09821   0.00008   0.00000  -0.00001  -0.00001   2.09820
    A9        2.06832   0.00018   0.00000   0.00058   0.00058   2.06890
   A10        2.09186  -0.00056   0.00000  -0.00213  -0.00213   2.08973
   A11        2.10329   0.00107   0.00000   0.00407   0.00407   2.10736
   A12        2.08804  -0.00051   0.00000  -0.00194  -0.00194   2.08610
   A13        2.03537   0.00113   0.00000   0.00435   0.00435   2.03973
   A14        2.05797   0.00087   0.00000   0.00326   0.00326   2.06123
   A15        2.18984  -0.00200   0.00000  -0.00761  -0.00762   2.18222
   A16        2.13476   0.00002   0.00000  -0.00042  -0.00041   2.13434
   A17        2.09002   0.00078   0.00000   0.00334   0.00334   2.09336
   A18        2.05841  -0.00079   0.00000  -0.00292  -0.00292   2.05549
   A19        2.10998  -0.00027   0.00000  -0.00051  -0.00051   2.10947
   A20        2.07073   0.00020   0.00000   0.00066   0.00066   2.07139
   A21        2.10248   0.00007   0.00000  -0.00015  -0.00015   2.10233
   A22        2.09187   0.00001   0.00000   0.00058   0.00058   2.09245
   A23        2.10368  -0.00004   0.00000  -0.00051  -0.00050   2.10318
   A24        2.08763   0.00003   0.00000  -0.00008  -0.00007   2.08756
   A25        2.11566  -0.00064   0.00000  -0.00303  -0.00303   2.11264
   A26        2.07874   0.00060   0.00000   0.00327   0.00327   2.08202
   A27        2.08878   0.00004   0.00000  -0.00025  -0.00025   2.08853
   A28        2.10285   0.00054   0.00000   0.00163   0.00164   2.10449
   A29        2.07298  -0.00207   0.00000  -0.00799  -0.00800   2.06498
   A30        2.10736   0.00153   0.00000   0.00636   0.00636   2.11371
   A31        1.97300  -0.00038   0.00000   0.00023   0.00022   1.97321
   A32        1.97300  -0.00038   0.00000   0.00023   0.00023   1.97322
   A33        1.75918   0.00069   0.00000   0.00753   0.00754   1.76671
   A34        1.95173   0.00100   0.00000   0.00502   0.00502   1.95675
   A35        1.89726  -0.00051   0.00000  -0.00695  -0.00694   1.89032
   A36        1.89726  -0.00051   0.00000  -0.00690  -0.00690   1.89035
   A37        1.96539  -0.00021   0.00000   0.00358   0.00351   1.96890
   A38        1.96539  -0.00020   0.00000   0.00359   0.00352   1.96891
   A39        1.93995   0.00087   0.00000   0.00883   0.00878   1.94872
   A40        1.89965  -0.00009   0.00000  -0.00035  -0.00035   1.89930
   A41        1.90265  -0.00034   0.00000  -0.00241  -0.00241   1.90024
   A42        1.92384  -0.00038   0.00000  -0.00225  -0.00225   1.92159
   A43        1.91966   0.00017   0.00000   0.00080   0.00080   1.92046
   A44        1.90995   0.00031   0.00000   0.00257   0.00257   1.91252
   A45        1.90808   0.00032   0.00000   0.00161   0.00160   1.90968
   A46        1.89965  -0.00009   0.00000  -0.00035  -0.00035   1.89929
   A47        1.90265  -0.00034   0.00000  -0.00241  -0.00241   1.90024
   A48        1.92384  -0.00038   0.00000  -0.00224  -0.00224   1.92159
   A49        1.91966   0.00017   0.00000   0.00080   0.00080   1.92046
   A50        1.90996   0.00031   0.00000   0.00257   0.00257   1.91252
   A51        1.90808   0.00032   0.00000   0.00161   0.00160   1.90968
   A52        1.91543  -0.00044   0.00000  -0.00315  -0.00315   1.91228
   A53        1.95339  -0.00045   0.00000  -0.00263  -0.00263   1.95075
   A54        1.90397  -0.00003   0.00000   0.00004   0.00004   1.90401
   A55        1.89258   0.00040   0.00000   0.00203   0.00202   1.89460
   A56        1.90595   0.00017   0.00000   0.00068   0.00068   1.90662
   A57        1.89192   0.00038   0.00000   0.00318   0.00318   1.89510
   A58        1.91543  -0.00044   0.00000  -0.00314  -0.00315   1.91228
   A59        1.90397  -0.00003   0.00000   0.00004   0.00004   1.90401
   A60        1.95339  -0.00045   0.00000  -0.00263  -0.00263   1.95075
   A61        1.90595   0.00017   0.00000   0.00068   0.00067   1.90662
   A62        1.89258   0.00040   0.00000   0.00203   0.00202   1.89460
   A63        1.89192   0.00038   0.00000   0.00318   0.00318   1.89510
    D1        0.00000  -0.00000   0.00000  -0.00001  -0.00001  -0.00001
    D2        3.14159   0.00000   0.00000   0.00001   0.00001  -3.14158
    D3       -3.14159  -0.00000   0.00000  -0.00003  -0.00003   3.14156
    D4       -0.00000  -0.00000   0.00000  -0.00001  -0.00001  -0.00001
    D5        0.00000  -0.00000   0.00000  -0.00003  -0.00003  -0.00003
    D6       -3.14159  -0.00000   0.00000  -0.00006  -0.00006   3.14154
    D7        3.14159  -0.00000   0.00000  -0.00000  -0.00000   3.14159
    D8        0.00000  -0.00000   0.00000  -0.00003  -0.00003  -0.00003
[...]
 0004415,-0.00005446,-0.00004932,-0.00004562,-0.00001170,0.00014197,-0.
 00002173,0.00044336,0.00029825,0.00038099,-0.00179649,0.00037260,0.000
 14446,0.00020692,-0.00133740,-0.00016137,-0.01059659,0.00938147,-0.026
 35464,-0.00002102,-0.00002186,-0.00002447,-0.00003219,0.00020361,-0.00
 048775,-0.08636265,0.09637303,-0.22099209,0.00386829,-0.00338791,-0.00
 317366,-0.00000048,0.00000032,-0.00001264,0.00000136,0.00000255,-0.000
 00229,0.00000016,-0.00000470,-0.00000119,0.00000197,-0.00000050,0.0000
 0663,0.00001533,-0.00000236,-0.00000199,-0.00003588,-0.00004091,-0.000
 03909,-0.00020470,0.00177440,-0.00035402,0.00001166,0.00003333,-0.0000
 1517,-0.00003192,0.00005150,0.00003578,0.00000170,-0.00002421,0.000002
 63,-0.00005067,-0.00006519,-0.00001863,0.00012865,-0.00010722,0.000317
 04,0.00001846,0.00007578,0.00019718,0.09429471,-0.10289146,0.24657050,
 -0.00007062,-0.00001645,0.00006270,0.00002620,-0.00001655,0.00000593,-
 0.00005310,-0.00000970,0.00003444,0.00023582,0.00015303,0.00002875,-0.
 00052621,0.00021570,-0.00044680,0.00023811,-0.00016766,-0.00000275,0.0
 0008073,-0.00019782,-0.00005347,-0.00021230,-0.00004568,-0.00003748,0.
 00004417,0.00006374,0.00035684,0.00184100,0.00174891,-0.00067449,-0.00
 032453,0.00116586,-0.00037476,0.00246827,0.01793162,0.00542195,-0.0001
 1137,-0.00005191,-0.00008982,-0.00024416,-0.00001139,0.00006587,-0.062
 05337,-0.05347239,-0.00216349,-0.00020006,-0.00076581,-0.00119977,0.00
 000385,-0.00000784,0.00000276,-0.00000594,-0.00000108,-0.00001316,-0.0
 0000383,0.00000427,-0.00000040,0.00000966,-0.00003278,0.00001435,0.000
 00616,-0.00000014,0.00005611,-0.00116616,-0.00036640,0.00103154,-0.000
 31587,-0.00145405,0.00088367,0.00001162,0.00000161,0.00002193,0.000023
 22,-0.00001990,-0.00000727,0.00002529,0.00002073,0.00001166,0.00007452
 ,0.00007923,0.00001769,-0.00002517,-0.00000178,0.00000630,0.00011138,0
 .00005077,-0.00003454,0.00287541,0.01389605,0.00042597,0.06149209,0.00
 005251,0.00001515,0.00000608,-0.00001767,0.00006959,-0.00000053,0.0001
 0294,0.00000025,0.00001544,-0.00015570,-0.00012592,0.00001740,0.000548
 72,-0.00014153,-0.00009182,-0.00058732,0.00017586,-0.00001690,-0.00002
 537,0.00018063,-0.00007012,0.00037250,0.00026759,0.00015005,0.00043127
 ,-0.00034566,0.00068040,-0.00239622,0.00052009,-0.00007010,0.00023691,
 -0.00202864,0.00034912,0.00264153,-0.01568887,-0.00919725,0.00017931,0
 .00008398,0.00024287,0.00022815,-0.00021309,-0.00007130,-0.05088235,-0
 .30338036,-0.00384361,0.00071673,0.00162869,0.00118721,-0.00001735,0.0
 0002783,0.00000164,0.00001723,-0.00000177,-0.00000218,0.00000679,-0.00
 000634,-0.00000322,-0.00000999,0.00002919,-0.00002152,0.00005352,-0.00
 000523,0.00001838,-0.00039556,0.00063346,-0.00015839,0.00022470,0.0039
 4910,-0.00052617,0.00000723,0.00001801,0.00000308,-0.00002061,0.000012
 48,-0.00001007,-0.00002754,-0.00005781,-0.00005234,0.00002756,0.000046
 94,0.00000375,-0.00006939,0.00004147,-0.00006437,-0.00005902,-0.000094
 22,0.00003719,-0.00372745,-0.01189449,-0.00021229,0.05353843,0.3286212
 5,0.00011594,-0.00003881,-0.00002307,-0.00004942,-0.00003256,-0.000000
 35,0.00004570,0.00006408,-0.00003953,-0.00009728,-0.00020714,0.0000235
 6,0.00049506,-0.00002406,0.00036090,-0.00038595,0.00020188,0.00002044,
 -0.00008114,0.00017957,0.00002872,0.00015925,0.00018970,-0.00004012,0.
 00001907,-0.00020249,-0.00015505,-0.00236670,0.00001382,0.00028753,0.0
 0014169,-0.00287696,0.00045021,-0.00105511,-0.03605572,-0.01134900,0.0
 0011674,0.00008386,0.00029188,0.00015340,-0.00000042,-0.00063694,-0.00
 133429,-0.00067198,-0.05022099,0.00038091,-0.00320882,0.00323603,-0.00
 000491,-0.00000317,-0.00001094,0.00000810,-0.00000190,0.00000712,0.000
 00960,-0.00000775,0.00000041,-0.00000579,0.00002692,-0.00000388,0.0000
 2858,-0.00000681,-0.00000168,0.00089153,0.00033460,-0.00030902,0.00069
 410,0.00349059,-0.00167137,-0.00002278,0.00000624,-0.00002010,-0.00000
 476,0.00003598,0.00002641,-0.00001759,-0.00003936,-0.00007387,-0.00007
 907,-0.00008271,-0.00002895,0.00015376,-0.00012148,0.00017089,-0.00003
 211,-0.00000277,0.00026626,0.00605747,0.02522482,0.00242527,-0.0030937
 1,0.01225324,0.05656331,0.00011881,0.00002576,0.00000014,-0.00005473,0
 .00000157,0.00000365,0.00002344,0.00003028,-0.00001112,-0.00014805,-0.
 00008647,-0.00010936,-0.00009778,-0.00051151,0.00024620,-0.00019186,0.
 00001425,-0.00003231,-0.00010428,0.00006787,0.00001548,0.00003053,0.00
 009044,-0.00005158,0.00014278,0.00045222,0.00017224,0.00036689,0.00043
 279,0.00250772,-0.00019710,0.00093593,0.00002634,-0.01223674,0.0018986
 8,0.00135991,-0.00003418,0.00000065,-0.00011826,-0.00019392,-0.0001690
 4,0.00025464,-0.31609550,-0.04221828,-0.00307164,0.00028720,-0.0003261
 3,-0.00112214,-0.00000533,0.00002796,0.00000938,0.00000362,0.00000573,
 -0.00000141,-0.00000492,0.00000679,-0.00000619,0.00000070,0.00001228,0
 .00000258,-0.00002746,-0.00000231,-0.00000960,0.00001266,0.00001244,-0
 .00009327,-0.00023321,-0.00081127,0.00013470,0.00004314,0.00003043,0.0
 0003630,-0.00001758,-0.00000024,-0.00001432,0.00001688,-0.00000031,0.0
 0003142,0.00017012,0.00013051,0.00003371,-0.00013950,0.00003425,-0.000
 04690,0.00008622,-0.00002409,-0.00008083,-0.00915528,-0.00252071,0.000
 20097,-0.00428846,-0.00054672,-0.00091074,0.34109653,-0.00009970,-0.00
 006557,0.00003494,-0.00001793,0.00002565,-0.00000798,0.00001739,0.0000
 2099,-0.00000689,-0.00005341,-0.00003970,0.00014472,0.00038794,0.00020
 012,0.00000695,0.00016212,0.00016929,0.00000141,0.00008239,0.00013193,
 -0.00004951,0.00018977,0.00005259,0.00041308,0.00015757,-0.00027491,0.
 00010309,0.00012941,-0.00021735,-0.00292256,-0.00017723,-0.00022306,-0
 .00007904,0.01856890,0.00053329,-0.00141720,-0.00000989,-0.00003617,-0
 .00003244,0.00008588,0.00005911,-0.00007848,-0.04575771,-0.05813572,0.
 00002871,-0.00018710,0.00012702,0.00062038,0.00001121,-0.00002124,-0.0
 0000247,-0.00000547,-0.00000457,-0.00000322,0.00000335,-0.00000673,0.0
 0000402,-0.00001417,0.00001216,-0.00005161,0.00004027,-0.00000118,0.00
 000856,0.00008958,0.00030791,-0.00048936,0.00053781,0.00043663,-0.0000
 0987,-0.00002799,-0.00001708,-0.00003686,-0.00000446,0.00000697,0.0000
 1925,-0.00000470,0.00000273,-0.00000301,-0.00009387,-0.00020389,-0.000
 04673,0.00013162,-0.00000072,0.00006141,-0.00006662,0.00003064,0.00007
 521,0.01477638,0.00252424,-0.00096942,-0.03172444,-0.00275328,-0.00058
 331,0.04310276,0.05735945,-0.00011811,-0.00002019,0.00000233,0.0000532
 9,0.00004791,-0.00000808,0.00006076,-0.00003653,0.00003237,0.00015604,
 -0.00003020,0.00019629,0.00074245,0.00032035,-0.00016165,0.00004194,-0
 .00005495,-0.00011691,0.00011443,-0.00010894,-0.00006608,-0.00004466,0
 .00010349,0.00026198,0.00058629,-0.00026778,0.00032184,0.00101045,-0.0
 0154436,-0.00422620,0.00007383,-0.00033492,-0.00008338,0.03254324,0.00
 089507,-0.00406195,0.00005535,0.00002028,0.00006389,-0.00000778,-0.000
 06504,0.00000218,-0.01130171,-0.00019222,-0.05114831,0.00203897,0.0002
 5542,0.00105057,-0.00000035,-0.00000675,0.00000425,-0.00000013,-0.0000
 0454,-0.00000114,0.00000889,-0.00001454,0.00001222,-0.00000388,-0.0000
 0024,-0.00002740,0.00004942,0.00000513,-0.00001124,-0.00009316,0.00014
 743,-0.00015696,0.00006062,0.00071585,0.00024207,-0.00002855,-0.000040
 25,-0.00000045,0.00002066,-0.00001706,-0.00001323,-0.00002067,0.000002
 03,-0.00001887,0.00002034,0.00004447,0.00010349,-0.00010561,-0.0000347
 4,-0.00002074,0.00000699,-0.00000712,-0.00002462,-0.02476903,-0.005794
 21,0.00241050,-0.00029165,0.00097406,0.00039883,0.00001962,0.00519589,
 0.05576505,-0.00004509,-0.00002926,-0.00001445,-0.00000207,-0.00002960
 ,-0.00000531,-0.00002570,0.00001968,0.00001003,0.00000988,-0.00003490,
 0.00003630,0.00025544,0.00026093,-0.00001616,0.00024303,0.00010286,-0.
 00000418,0.00003635,-0.00001509,-0.00002711,-0.00010044,-0.00005886,0.
 00007796,0.00002340,0.00001325,0.00014399,0.00072979,-0.00096314,-0.00
 140381,-0.00006647,-0.00007022,-0.00003531,0.00478159,-0.00639031,-0.0
 1535775,-0.00007698,0.00018455,0.00031521,-0.00009639,-0.00003200,-0.0
 0001513,-0.00154145,0.00113780,-0.00196273,-0.09832563,0.05272905,0.09
 453977,0.00001131,-0.00002873,0.00000552,-0.00000559,-0.00000312,0.000
 00185,0.00000381,-0.00000758,-0.00000020,-0.00000060,-0.00000348,-0.00
 001020,-0.00000334,0.00000058,-0.00000497,0.00010595,-0.00001862,-0.00
 008175,0.00014776,-0.00028030,0.00034709,-0.00011717,-0.00013345,0.000
 10065,0.00032479,-0.00007149,-0.00010990,-0.00001368,0.00006473,-0.000
 14942,-0.00001729,0.00000981,0.00002090,0.00001340,0.00000409,-0.00003
 089,0.00002068,0.00000806,0.00000297,0.00080600,-0.00018659,-0.0006825
 8,-0.00008186,0.00001451,0.00003452,0.00046874,0.00012754,-0.00014991,
 0.09881764,-0.00001847,-0.00003288,-0.00000737,-0.00000729,-0.00003212
 ,0.00000264,-0.00004020,0.00002001,0.00001110,0.00009904,0.00007996,-0
 .00002741,-0.00036322,0.00013489,-0.00005206,0.00018917,-0.00001551,-0
 .00001719,-0.00003141,-0.00009818,-0.00000174,-0.00016603,0.00014323,0
 .00010224,0.00019141,-0.00048695,0.00003043,-0.00036908,0.00087586,0.0
 0032650,0.00010219,0.00008838,-0.00015124,-0.00752717,0.00684351,0.015
 40530,-0.00009050,-0.00013077,0.00014162,-0.00009209,-0.00000645,0.000
 04823,0.00145491,-0.00087812,0.00207822,0.05269906,-0.10861795,-0.1024
 5079,0.00001041,-0.00001809,0.00000423,-0.00000436,0.00000155,-0.00000
 275,-0.00000443,0.00000111,0.00000103,-0.00000789,0.00000188,-0.000016
 57,0.00001200,-0.00001056,-0.00001885,0.00013414,0.00002985,-0.0001209
 1,-0.00022700,0.00041346,0.00020510,-0.00003523,-0.00001072,-0.0000275
 9,0.00005432,-0.00029729,-0.00002114,-0.00000911,0.00001660,-0.0000778
 6,-0.00000338,0.00000401,0.00001324,0.00000233,0.00000838,-0.00003234,
 0.00001542,0.00000355,-0.00002561,-0.00018646,0.00070333,0.00075227,0.
 00011532,0.00028913,0.00052335,0.00010118,-0.00020078,-0.00007751,-0.0
 5737240,0.11054997,-0.00005974,-0.00001640,0.00002709,0.00000632,0.000
 01826,0.00000103,-0.00003061,-0.00001686,0.00000213,-0.00006601,0.0000
 7775,-0.00001936,-0.00020967,0.00015955,0.00015949,0.00013068,0.000114
 64,-0.00004417,0.00005445,0.00004932,-0.00004563,0.00001172,-0.0001419
 8,-0.00002173,-0.00044339,-0.00029811,0.00038105,0.00179660,-0.0003728
 4,0.00014462,-0.00020687,0.00133726,-0.00016141,0.01059714,-0.00938649
 ,-0.02635554,0.00003227,-0.00020383,-0.00048803,0.00002105,0.00002191,
 -0.00002444,-0.00386856,0.00338754,-0.00317436,0.08635439,-0.09638910,
 -0.22096734,0.00000048,-0.00000032,-0.00001265,-0.00000136,-0.00000255
 ,-0.00000229,-0.00000016,0.00000470,-0.00000119,-0.00000197,0.00000050
 ,0.00000663,-0.00001534,0.00000236,-0.00000199,0.00003587,0.00004091,-
 0.00003908,0.00020479,-0.00177440,-0.00035357,0.00005069,0.00006523,-0
 .00001863,-0.00012863,0.00010734,0.00031726,-0.00001849,-0.00007585,0.
 00019729,-0.00001165,-0.00003333,-0.00001518,0.00003191,-0.00005149,0.
 00003578,-0.00000170,0.00002421,0.00000261,0.00068256,-0.00075259,-0.0
 0131366,-0.00006942,-0.00007247,0.00010155,0.00003652,0.00008191,0.000
 30117,-0.09428548,0.10291177,0.24654442,0.00011881,0.00002577,-0.00000
 015,-0.00005472,0.00000158,-0.00000365,0.00002343,0.00003028,0.0000111
 2,-0.00014805,-0.00008646,0.00010938,-0.00009779,-0.00051155,-0.000246
 15,-0.00019185,0.00001425,0.00003232,-0.00010428,0.00006788,-0.0000154
 9,0.00003054,0.00009043,0.00005158,0.00014273,0.00045219,-0.00017230,0
 .00036690,0.00043238,-0.00250785,-0.00019713,0.00093593,-0.00002634,-0
 .01223781,0.00189849,-0.00136040,-0.00019396,-0.00016912,-0.00025472,-
 0.00003416,0.00000068,0.00011825,0.00028711,-0.00032597,0.00112211,-0.
 31609421,-0.04222246,0.00308289,-0.00000533,0.00002796,-0.00000938,0.0
 0000362,0.00000573,0.00000141,-0.00000492,0.00000679,0.00000619,0.0000
 0070,0.00001228,-0.00000258,-0.00002747,-0.00000231,0.00000960,0.00001
 266,0.00001244,0.00009325,-0.00023304,-0.00081138,-0.00013440,0.000170
 18,0.00013058,-0.00003374,-0.00013957,0.00003426,0.00004693,0.00008625
 ,-0.00002411,0.00008085,0.00004314,0.00003042,-0.00003631,-0.00001758,
 -0.00000025,0.00001433,0.00001688,-0.00000031,-0.00003143,0.00046874,0
 .00010118,-0.00003654,-0.00017731,-0.00008261,-0.00006773,0.00053491,-
 0.00011524,-0.00052028,-0.00915500,-0.00252085,-0.00020038,0.34109554,
 -0.00009969,-0.00006556,-0.00003493,-0.00001793,0.00002564,0.00000797,
 0.00001738,0.00002099,0.00000688,-0.00005344,-0.00003971,-0.00014467,0
 .00038782,0.00020009,-0.00000699,0.00016215,0.00016928,-0.00000146,0.0
 0008237,0.00013195,0.00004948,0.00018976,0.00005252,-0.00041305,0.0001
 5753,-0.00027490,-0.00010300,0.00012938,-0.00021663,0.00292192,-0.0001
 7725,-0.00022288,0.00007907,0.01856414,0.00053358,0.00141645,0.0000858
 7,0.00005921,0.00007854,-0.00000992,-0.00003620,0.00003245,-0.00018746
 ,0.00012684,-0.00062023,-0.04576072,-0.05813674,-0.00002684,0.00001121
 ,-0.00002125,0.00000247,-0.00000547,-0.00000457,0.00000322,0.00000334,
 -0.00000673,-0.00000402,-0.00001417,0.00001217,0.00005160,0.00004027,-
 0.00000118,-0.00000856,0.00008960,0.00030793,0.00048928,0.00053757,0.0
 0043647,0.00000973,-0.00009390,-0.00020395,0.00004678,0.00013172,-0.00
 000068,-0.00006146,-0.00006664,0.00003066,-0.00007524,-0.00002798,-0.0
 0001707,0.00003686,-0.00000446,0.00000697,-0.00001926,-0.00000469,0.00
 000273,0.00000301,0.00012757,-0.00020077,-0.00008184,-0.00024192,-0.00
 014455,0.00015730,-0.00011510,0.00034579,-0.00014789,0.01477984,0.0025
 2549,0.00096900,0.04310782,0.05735911,0.00011813,0.00002020,0.00000233
 ,-0.00005329,-0.00004791,-0.00000807,-0.00006076,0.00003653,0.00003237
 ,-0.00015602,0.00003022,0.00019631,-0.00074247,-0.00032039,-0.00016161
 ,-0.00004197,0.00005491,-0.00011692,-0.00011445,0.00010891,-0.00006610
 ,0.00004463,-0.00010347,0.00026207,-0.00058634,0.00026788,0.00032180,-
 0.00101054,0.00154360,-0.00422679,-0.00007380,0.00033488,-0.00008344,-
 0.03254582,-0.00089628,-0.00406164,0.00000774,0.00006502,0.00000220,-0
 .00005533,-0.00002025,0.00006386,-0.00203896,-0.00025529,0.00105070,0.
 01131344,0.00019420,-0.05114841,0.00000035,0.00000675,0.00000425,0.000
 00013,0.00000454,-0.00000114,-0.00000889,0.00001454,0.00001222,0.00000
 388,0.00000024,-0.00002741,-0.00004942,-0.00000513,-0.00001124,0.00009
 315,-0.00014749,-0.00015701,-0.00006063,-0.00071568,0.00024241,-0.0000
 2032,-0.00004445,0.00010353,0.00010566,0.00003479,-0.00002075,-0.00000
 698,0.00000712,-0.00002463,0.00002855,0.00004025,-0.00000045,-0.000020
 65,0.00001706,-0.00001322,0.00002066,-0.00000203,-0.00001886,0.0001498
 8,0.00007759,0.00030116,0.00020815,-0.00007263,-0.00020516,0.00052041,
 0.00014773,-0.00081668,0.02476708,0.00579464,0.00240904,-0.00003137,-0
 .00519701,0.05576626,-0.00007066,-0.00001643,-0.00006271,0.00002623,-0
 .00001654,-0.00000594,-0.00005311,-0.00000973,-0.00003443,0.00023579,0
 .00015305,-0.00002878,-0.00052620,0.00021577,0.00044679,0.00023821,-0.
 00016768,0.00000278,0.00008073,-0.00019783,0.00005349,-0.00021233,-0.0
 0004567,0.00003750,0.00004429,0.00006362,-0.00035678,0.00184106,0.0017
 4881,0.00067429,-0.00032462,0.00116625,0.00037472,0.00246819,0.0179324
 8,-0.00542500,-0.00024422,-0.00001142,-0.00006588,-0.00011138,-0.00005
 188,0.00008986,-0.00019999,-0.00076563,0.00119997,-0.06205088,-0.05346
 713,0.00217127,0.00000385,-0.00000784,-0.00000276,-0.00000594,-0.00000
 107,0.00001316,-0.00000383,0.00000427,0.00000040,0.00000966,-0.0000327
 9,-0.00001434,0.00000615,-0.00000015,-0.00005610,-0.00116583,-0.000366
 37,-0.00103132,-0.00031593,-0.00145486,-0.00088335,0.00007456,0.000079
 26,-0.00001771,-0.00002519,-0.00000177,-0.00000630,0.00011142,0.000050
 78,0.00003454,0.00001162,0.00000160,-0.00002193,0.00002322,-0.00001989
 ,0.00000726,0.00002530,0.00002075,-0.00001168,-0.00008188,0.00011532,0
 .00006941,0.00029283,-0.00037966,0.00010366,-0.00017730,-0.00024196,-0
 .00020812,0.00287520,0.01389569,-0.00042796,-0.00428797,-0.03172455,0.
 00029618,0.06148894,0.00005250,0.00001516,-0.00000609,-0.00001765,0.00
 006960,0.00000053,0.00010294,0.00000023,-0.00001545,-0.00015567,-0.000
 12587,-0.00001737,0.00054862,-0.00014152,0.00009188,-0.00058729,0.0001
 7580,0.00001687,-0.00002535,0.00018060,0.00007011,0.00037246,0.0002675
 4,-0.00015008,0.00043125,-0.00034577,-0.00068034,-0.00239566,0.0005201
 1,0.00007012,0.00023690,-0.00202828,-0.00034879,0.00264209,-0.01568156
 ,0.00919795,0.00022814,-0.00021309,0.00007109,0.00017931,0.00008389,-0
 .00024285,0.00071666,0.00162900,-0.00118686,-0.05087765,-0.30338256,0.
 00388121,-0.00001735,0.00002784,-0.00000165,0.00001723,-0.00000177,0.0
 0000218,0.00000679,-0.00000634,0.00000322,-0.00000998,0.00002919,0.000
 02152,0.00005351,-0.00000523,-0.00001838,-0.00039532,0.00063367,0.0001
 5829,0.00022462,0.00394888,0.00052480,0.00002757,0.00004696,-0.0000037
 6,-0.00006945,0.00004148,0.00006443,-0.00005902,-0.00009422,-0.0000371
 2,0.00000723,0.00001800,-0.00000308,-0.00002061,0.00001246,0.00001010,
 -0.00002755,-0.00005782,0.00005235,0.00001450,0.00028907,0.00007242,-0
 .00037957,0.00027105,0.00138228,-0.00008259,-0.00014457,0.00007262,-0.
 00372811,-0.01189776,0.00021444,-0.00054670,-0.00275405,-0.00097360,0.
 05353322,0.32861989,-0.00011597,0.00003881,-0.00002307,0.00004943,0.00
 003256,-0.00000036,-0.00004572,-0.00006409,-0.00003952,0.00009729,0.00
 020716,0.00002353,-0.00049512,0.00002412,0.00036088,0.00038610,-0.0002
 0188,0.00002045,0.00008114,-0.00017959,0.00002873,-0.00015931,-0.00018
 972,-0.00004006,-0.00001907,0.00020249,-0.00015493,0.00236691,-0.00001
 386,0.00028753,-0.00014177,0.00287759,0.00045023,0.00105435,0.03605622
 ,-0.01135589,-0.00015340,0.00000035,-0.00063718,-0.00011676,-0.0000837
 9,0.00029197,-0.00038083,0.00320908,0.00323575,0.00134168,0.00070977,-
 0.05022141,0.00000491,0.00000316,-0.00001094,-0.00000811,0.00000190,0.
 00000712,-0.00000960,0.00000775,0.00000042,0.00000579,-0.00002693,-0.0
 0000389,-0.00002858,0.00000681,-0.00000168,-0.00089144,-0.00033480,-0.
 00030891,-0.00069421,-0.00349240,-0.00167058,0.00007907,0.00008272,-0.
 00002896,-0.00015382,0.00012152,0.00017096,0.00003211,0.00000274,0.000
 26634,0.00002279,-0.00000625,-0.00002011,0.00000476,-0.00003598,0.0000
 2638,0.00001760,0.00003940,-0.00007392,-0.00003451,-0.00052338,0.00010
 162,-0.00010364,-0.00138261,0.00013072,0.00006774,-0.00015730,-0.00020
 515,-0.00605660,-0.02522300,0.00242907,0.00091097,0.00058444,0.0003990
 4,0.00308584,-0.01229300,0.05656582\\-0.00001873,0.00002599,-0.0000003
 8,0.00004599,0.00003863,-0.00000002,0.00001071,-0.00005755,0.00000026,
 -0.00010747,-0.00000032,-0.00000037,0.00011163,-0.00000395,0.00000262,
 -0.00003458,-0.00004115,0.00000073,0.00001190,0.00005330,-0.00000007,0
 .00004588,-0.00003850,0.00000026,-0.00004722,-0.00003719,-0.00000052,0
 .00003732,0.00005455,0.00000070,0.00000679,-0.00006215,-0.00000795,-0.
 00001862,-0.00001357,-0.00000622,-0.00000247,0.00001037,0.00001531,-0.
 00000272,0.00001358,-0.00001549,-0.00000878,-0.00000479,0.00000713,-0.
 00000880,-0.00000080,-0.00000738,0.00001585,-0.00000009,0.00000012,-0.
 00001052,-0.00000628,0.00000002,-0.00000482,0.00000578,-0.00000024,-0.
 00000295,-0.00000906,-0.00000013,-0.00001102,0.00000366,-0.00000007,0.
 00001824,0.00000412,0.00000033,-0.00000467,0.00007302,0.00001216,-0.00
 000322,-0.00000437,-0.00000710,-0.00000303,-0.00000131,-0.00000348,-0.
 00000473,0.00000332,-0.00000608,-0.00000323,-0.00000429,0.00000741,-0.
 00000330,-0.00000159,0.00000344,-0.00000375,0.00000332,0.00000554,-0.0
 0000123,0.00000083,0.00000062,0.00000147,-0.00000307,-0.00000052,0.000
 00035,0.00000102,0.00000183,-0.00000121,0.00000045,-0.00000048,0.00000
 047,0.00000114,-0.00000170,0.00000043,-0.00000304,-0.00000027\\\@


 AND THIS OUR LIFE, EXEMPT FROM PUBLIC HAUNT,
 FINDS TONGUES IN TREES, BOOKS IN THE RUNNING BROOKS,
 SERMONS IN STONES, AND GOOD IN EVERYTHING.
 I WOULD NOT CHANGE IT. -- W. SHAKESPEARE
 AS YOU LIKE IT, ACT II, SCENE 1.
 Job cpu time:       0 days  2 hours  2 minutes 16.0 seconds.
 File lengths (MBytes):  RWF=    535 Int=      0 D2E=      0 Chk=     13 Scr=      1
 Normal termination of Gaussian 09 at Tue Dec 17 19:04:19 2024.
