 Entering Gaussian System, Link 0=g09
 Input=camb3lypD3DMAN.gjf
 Output=camb3lypD3DMAN.log
 Initial command:
 /home/c612/g09E/g09/l1.exe "/mnt/ja_sm883/scratch/Gau-1770548.inp" -scrdir="/mnt/ja_sm883/scratch/"
 Default is to use a total of  18 processors:
                               18 via shared-memory
                                1 via Linda
 Entering Link 1 = /home/c612/g09E/g09/l1.exe PID=   1770551.
  
 Copyright (c) 1988,1990,1992,1993,1995,1998,2003,2009,2015,
            Gaussian, Inc.  All Rights Reserved.
  
 This is part of the Gaussian(R) 09 program.  It is based on
 the Gaussian(R) 03 system (copyright 2003, Gaussian, Inc.),
 the Gaussian(R) 98 system (copyright 1998, Gaussian, Inc.),
 the Gaussian(R) 94 system (copyright 1995, Gaussian, Inc.),
 the Gaussian 92(TM) system (copyright 1992, Gaussian, Inc.),
 the Gaussian 90(TM) system (copyright 1990, Gaussian, Inc.),
 the Gaussian 88(TM) system (copyright 1988, Gaussian, Inc.),
 the Gaussian 86(TM) system (copyright 1986, Carnegie Mellon
 University), and the Gaussian 82(TM) system (copyright 1983,
 Carnegie Mellon University). Gaussian is a federally registered
 trademark of Gaussian, Inc.
  
 This software contains proprietary and confidential information,
 including trade secrets, belonging to Gaussian, Inc.
  
 This software is provided under written license and may be
 used, copied, transmitted, or stored only in accord with that
 written license.
  
 The following legend is applicable only to US Government
 contracts under FAR:
  
                    RESTRICTED RIGHTS LEGEND
  
 Use, reproduction and disclosure by the US Government is
 subject to restrictions as set forth in subparagraphs (a)
 and (c) of the Commercial Computer Software - Restricted
 Rights clause in FAR 52.227-19.
  
 Gaussian, Inc.
 340 Quinnipiac St., Bldg. 40, Wallingford CT 06492
  
  
 ---------------------------------------------------------------
 Warning -- This program may not be used in any manner that
 competes with the business of Gaussian, Inc. or will provide
 assistance to any competitor of Gaussian, Inc.  The licensee
 of this program is prohibited from giving any competitor of
 Gaussian, Inc. access to this program.  By using this program,
 the user acknowledges that Gaussian, Inc. is engaged in the
 business of creating and licensing software in the field of
 computational chemistry and represents and warrants to the
 licensee that it is not a competitor of Gaussian, Inc. and that
 it will not use this program in any manner prohibited above.
 ---------------------------------------------------------------
  

 Cite this work as:
 Gaussian 09, Revision E.01,
 M. J. Frisch, G. W. Trucks, H. B. Schlegel, G. E. Scuseria, 
 M. A. Robb, J. R. Cheeseman, G. Scalmani, V. Barone, B. Mennucci, 
 G. A. Petersson, H. Nakatsuji, M. Caricato, X. Li, H. P. Hratchian, 
 A. F. Izmaylov, J. Bloino, G. Zheng, J. L. Sonnenberg, M. Hada, 
 M. Ehara, K. Toyota, R. Fukuda, J. Hasegawa, M. Ishida, T. Nakajima, 
 Y. Honda, O. Kitao, H. Nakai, T. Vreven, J. A. Montgomery, Jr., 
 J. E. Peralta, F. Ogliaro, M. Bearpark, J. J. Heyd, E. Brothers, 
 K. N. Kudin, V. N. Staroverov, T. Keith, R. Kobayashi, J. Normand, 
 K. Raghavachari, A. Rendell, J. C. Burant, S. S. Iyengar, J. Tomasi, 
 M. Cossi, N. Rega, J. M. Millam, M. Klene, J. E. Knox, J. B. Cross, 
 V. Bakken, C. Adamo, J. Jaramillo, R. Gomperts, R. E. Stratmann, 
 O. Yazyev, A. J. Austin, R. Cammi, C. Pomelli, J. W. Ochterski, 
 R. L. Martin, K. Morokuma, V. G. Zakrzewski, G. A. Voth, 
 P. Salvador, J. J. Dannenberg, S. Dapprich, A. D. Daniels, 
 O. Farkas, J. B. Foresman, J. V. Ortiz, J. Cioslowski, 
 and D. J. Fox, Gaussian, Inc., Wallingford CT, 2013.
 
 ******************************************
 Gaussian 09:  ES64L-G09RevE.01 30-Nov-2015
                17-Dec-2024 
 ******************************************
 %chk=camb3lypD3DMAN.chk
 --------------------------------------------------------
 # opt freq cam-b3lyp/6-31+g(d,p) empiricaldispersion=gd3
 --------------------------------------------------------
 1/14=-1,18=20,19=15,26=3,38=1/1,3;
 2/9=110,12=2,17=6,18=5,40=1/2;
 3/5=1,6=6,7=111,11=2,16=1,25=1,30=1,71=1,74=-40,124=31/1,2,3;
 4//1;
 5/5=2,38=5/2;
 6/7=2,8=2,9=2,10=2,28=1/1;
 7//1,2,3,16;
 1/14=-1,18=20,19=15,26=3/3(2);
 2/9=110/2;
 99//99;
 2/9=110/2;
 3/5=1,6=6,7=111,11=2,16=1,25=1,30=1,71=1,74=-40,124=31/1,2,3;
 4/5=5,16=3,69=1/1;
 5/5=2,38=5/2;
 7//1,2,3,16;
 1/14=-1,18=20,19=15,26=3/3(-5);
 2/9=110/2;
 6/7=2,8=2,9=2,10=2,19=2,28=1/1;
 99/9=1/99;
 ----------
 [No Title]
 ----------
 Symbolic Z-matrix:
 Charge =  0 Multiplicity = 1
 C                     0.68179   2.43436   0.23277 
 C                     2.0813    2.39137   0.37759 
 C                     2.74936   1.20545   0.21114 
 C                     2.02994   0.0002    0. 
 C                     0.59207   0.00006   0. 
 C                    -0.06945   1.28941  -0.00738 
 C                     2.74959  -1.20492  -0.21114 
 C                     2.08176  -2.39097  -0.37759 
 C                     0.68226  -2.43423  -0.23277 
 C                    -0.0692   -1.28943   0.00738 
 N                    -1.44898   1.39117  -0.27144 
 N                    -1.44871  -1.39145   0.27144 
 C                    -1.89088   0.90343  -1.57118 
 C                    -2.11867   2.62062   0.09382 
 C                    -2.11816  -2.62103  -0.09382 
 C                    -1.89071  -0.90378   1.57117 
 H                     0.19219   3.40148   0.24579 
 H                     2.62705   3.31363   0.55855 
 H                     3.83484   1.16519   0.24297 
 H                     3.83507  -1.16445  -0.24296 
 H                     2.62769  -3.31312  -0.55855 
 H                     0.19285  -3.40144  -0.24579 
 H                    -1.33551   0.01158  -1.85542 
 H                    -2.95412   0.64353  -1.52848 
 H                    -1.74814   1.66924  -2.35444 
 H                    -1.87608   2.89594   1.12411 
 H                    -1.87322   3.4744   -0.56486 
 H                    -3.19993   2.45898   0.02984 
 H                    -1.87552  -2.89631  -1.1241 
 H                    -1.87254  -3.47477   0.56487 
 H                    -3.19945  -2.4596   -0.02983 
 H                    -1.33552  -0.01182   1.8554 
 H                    -2.95401  -0.6441    1.52846 
 H                    -1.74781  -1.66955   2.35444 
 

 GradGradGradGradGradGradGradGradGradGradGradGradGradGradGradGradGradGrad
 Berny optimization.
 Initialization pass.
                           ----------------------------
                           !    Initial Parameters    !
                           ! (Angstroms and Degrees)  !
 --------------------------                            --------------------------
 ! Name  Definition              Value          Derivative Info.                !
 --------------------------------------------------------------------------------
 ! R1    R(1,2)                  1.4076         estimate D2E/DX2                !
 ! R2    R(1,6)                  1.3903         estimate D2E/DX2                !
 ! R3    R(1,17)                 1.0841         estimate D2E/DX2                !
 ! R4    R(2,3)                  1.3713         estimate D2E/DX2                !
 ! R5    R(2,18)                 1.0868         estimate D2E/DX2                !
 ! R6    R(3,4)                  1.4194         estimate D2E/DX2                !
 ! R7    R(3,19)                 1.0867         estimate D2E/DX2                !
 ! R8    R(4,5)                  1.4379         estimate D2E/DX2                !
 ! R9    R(4,7)                  1.4194         estimate D2E/DX2                !
 ! R10   R(5,6)                  1.4492         estimate D2E/DX2                !
 ! R11   R(5,10)                 1.4492         estimate D2E/DX2                !
 ! R12   R(6,11)                 1.4083         estimate D2E/DX2                !
 ! R13   R(7,8)                  1.3713         estimate D2E/DX2                !
 ! R14   R(7,20)                 1.0867         estimate D2E/DX2                !
 ! R15   R(8,9)                  1.4076         estimate D2E/DX2                !
 ! R16   R(8,21)                 1.0868         estimate D2E/DX2                !
 ! R17   R(9,10)                 1.3903         estimate D2E/DX2                !
 ! R18   R(9,22)                 1.0841         estimate D2E/DX2                !
 ! R19   R(10,12)                1.4083         estimate D2E/DX2                !
 ! R20   R(11,13)                1.4569         estimate D2E/DX2                !
 ! R21   R(11,14)                1.4469         estimate D2E/DX2                !
 ! R22   R(12,15)                1.4469         estimate D2E/DX2                !
 ! R23   R(12,16)                1.4569         estimate D2E/DX2                !
 ! R24   R(13,23)                1.0884         estimate D2E/DX2                !
 ! R25   R(13,24)                1.0954         estimate D2E/DX2                !
 ! R26   R(13,25)                1.1047         estimate D2E/DX2                !
 ! R27   R(14,26)                1.0937         estimate D2E/DX2                !
 ! R28   R(14,27)                1.1059         estimate D2E/DX2                !
 ! R29   R(14,28)                1.0952         estimate D2E/DX2                !
 ! R30   R(15,29)                1.0937         estimate D2E/DX2                !
 ! R31   R(15,30)                1.1059         estimate D2E/DX2                !
 ! R32   R(15,31)                1.0952         estimate D2E/DX2                !
 ! R33   R(16,32)                1.0884         estimate D2E/DX2                !
 ! R34   R(16,33)                1.0954         estimate D2E/DX2                !
 ! R35   R(16,34)                1.1047         estimate D2E/DX2                !
 ! A1    A(2,1,6)              121.9951         estimate D2E/DX2                !
 ! A2    A(2,1,17)             118.3612         estimate D2E/DX2                !
 ! A3    A(6,1,17)             119.5199         estimate D2E/DX2                !
 ! A4    A(1,2,3)              119.8865         estimate D2E/DX2                !
 ! A5    A(1,2,18)             119.3722         estimate D2E/DX2                !
 ! A6    A(3,2,18)             120.6274         estimate D2E/DX2                !
 ! A7    A(2,3,4)              120.3628         estimate D2E/DX2                !
 ! A8    A(2,3,19)             121.0054         estimate D2E/DX2                !
 ! A9    A(4,3,19)             118.631          estimate D2E/DX2                !
 ! A10   A(3,4,5)              120.4585         estimate D2E/DX2                !
 ! A11   A(3,4,7)              119.0828         estimate D2E/DX2                !
 ! A12   A(5,4,7)              120.4586         estimate D2E/DX2                !
 ! A13   A(4,5,6)              117.1546         estimate D2E/DX2                !
 ! A14   A(4,5,10)             117.1545         estimate D2E/DX2                !
 ! A15   A(6,5,10)             125.6909         estimate D2E/DX2                !
 ! A16   A(1,6,5)              119.0238         estimate D2E/DX2                !
 ! A17   A(1,6,11)             120.1459         estimate D2E/DX2                !
 ! A18   A(5,6,11)             120.8245         estimate D2E/DX2                !
 ! A19   A(4,7,8)              120.3627         estimate D2E/DX2                !
 ! A20   A(4,7,20)             118.631          estimate D2E/DX2                !
 ! A21   A(8,7,20)             121.0054         estimate D2E/DX2                !
 ! A22   A(7,8,9)              119.8864         estimate D2E/DX2                !
 ! A23   A(7,8,21)             120.6274         estimate D2E/DX2                !
 ! A24   A(9,8,21)             119.3722         estimate D2E/DX2                !
 ! A25   A(8,9,10)             121.9951         estimate D2E/DX2                !
 ! A26   A(8,9,22)             118.3612         estimate D2E/DX2                !
 ! A27   A(10,9,22)            119.5198         estimate D2E/DX2                !
 ! A28   A(5,10,9)             119.0238         estimate D2E/DX2                !
 ! A29   A(5,10,12)            120.8245         estimate D2E/DX2                !
 ! A30   A(9,10,12)            120.1459         estimate D2E/DX2                !
 ! A31   A(6,11,13)            116.1185         estimate D2E/DX2                !
 ! A32   A(6,11,14)            117.8704         estimate D2E/DX2                !
 ! A33   A(13,11,14)           111.6728         estimate D2E/DX2                !
 ! A34   A(10,12,15)           117.8704         estimate D2E/DX2                !
 ! A35   A(10,12,16)           116.1185         estimate D2E/DX2                !
 ! A36   A(15,12,16)           111.6728         estimate D2E/DX2                !
 ! A37   A(11,13,23)           110.6427         estimate D2E/DX2                !
 ! A38   A(11,13,24)           109.8208         estimate D2E/DX2                !
 ! A39   A(11,13,25)           111.1787         estimate D2E/DX2                !
 ! A40   A(23,13,24)           108.1231         estimate D2E/DX2                !
 ! A41   A(23,13,25)           108.4778         estimate D2E/DX2                !
 ! A42   A(24,13,25)           108.5145         estimate D2E/DX2                !
 ! A43   A(11,14,26)           110.4301         estimate D2E/DX2                !
 ! A44   A(11,14,27)           113.7608         estimate D2E/DX2                !
 ! A45   A(11,14,28)           108.4708         estimate D2E/DX2                !
 ! A46   A(26,14,27)           108.5119         estimate D2E/DX2                !
 ! A47   A(26,14,28)           108.1307         estimate D2E/DX2                !
 ! A48   A(27,14,28)           107.3536         estimate D2E/DX2                !
 ! A49   A(12,15,29)           110.43           estimate D2E/DX2                !
 ! A50   A(12,15,30)           113.7608         estimate D2E/DX2                !
 ! A51   A(12,15,31)           108.4706         estimate D2E/DX2                !
 ! A52   A(29,15,30)           108.512          estimate D2E/DX2                !
 ! A53   A(29,15,31)           108.1308         estimate D2E/DX2                !
 ! A54   A(30,15,31)           107.3537         estimate D2E/DX2                !
 ! A55   A(12,16,32)           110.6428         estimate D2E/DX2                !
 ! A56   A(12,16,33)           109.8207         estimate D2E/DX2                !
 ! A57   A(12,16,34)           111.1787         estimate D2E/DX2                !
 ! A58   A(32,16,33)           108.123          estimate D2E/DX2                !
 ! A59   A(32,16,34)           108.4778         estimate D2E/DX2                !
 ! A60   A(33,16,34)           108.5145         estimate D2E/DX2                !
 ! D1    D(6,1,2,3)              3.4924         estimate D2E/DX2                !
 ! D2    D(6,1,2,18)           179.6371         estimate D2E/DX2                !
 ! D3    D(17,1,2,3)          -172.4402         estimate D2E/DX2                !
 ! D4    D(17,1,2,18)            3.7045         estimate D2E/DX2                !
 ! D5    D(2,1,6,5)              5.1451         estimate D2E/DX2                !
 ! D6    D(2,1,6,11)          -173.9853         estimate D2E/DX2                !
 ! D7    D(17,1,6,5)          -178.9682         estimate D2E/DX2                !
 ! D8    D(17,1,6,11)            1.9015         estimate D2E/DX2                !
 ! D9    D(1,2,3,4)             -5.0862         estimate D2E/DX2                !
 ! D10   D(1,2,3,19)           175.2525         estimate D2E/DX2                !
 ! D11   D(18,2,3,4)           178.8183         estimate D2E/DX2                !
 ! D12   D(18,2,3,19)           -0.8431         estimate D2E/DX2                !
 ! D13   D(2,3,4,5)             -1.9714         estimate D2E/DX2                !
 ! D14   D(2,3,4,7)            178.0287         estimate D2E/DX2                !
 ! D15   D(19,3,4,5)           177.6979         estimate D2E/DX2                !
 ! D16   D(19,3,4,7)            -2.302          estimate D2E/DX2                !
 ! D17   D(3,4,5,6)             10.2648         estimate D2E/DX2                !
 ! D18   D(3,4,5,10)          -169.7352         estimate D2E/DX2                !
 ! D19   D(7,4,5,6)           -169.7352         estimate D2E/DX2                !
 ! D20   D(7,4,5,10)            10.2648         estimate D2E/DX2                !
 ! D21   D(3,4,7,8)            178.0286         estimate D2E/DX2                !
 ! D22   D(3,4,7,20)            -2.3021         estimate D2E/DX2                !
 ! D23   D(5,4,7,8)             -1.9714         estimate D2E/DX2                !
 ! D24   D(5,4,7,20)           177.698          estimate D2E/DX2                !
 ! D25   D(4,5,6,1)            -11.7081         estimate D2E/DX2                !
 ! D26   D(4,5,6,11)           167.4162         estimate D2E/DX2                !
 ! D27   D(10,5,6,1)           168.2919         estimate D2E/DX2                !
 ! D28   D(10,5,6,11)          -12.5838         estimate D2E/DX2                !
 ! D29   D(4,5,10,9)           -11.7081         estimate D2E/DX2                !
 ! D30   D(4,5,10,12)          167.4163         estimate D2E/DX2                !
 ! D31   D(6,5,10,9)           168.2919         estimate D2E/DX2                !
 ! D32   D(6,5,10,12)          -12.5837         estimate D2E/DX2                !
 ! D33   D(1,6,11,13)          118.6793         estimate D2E/DX2                !
 ! D34   D(1,6,11,14)          -17.7519         estimate D2E/DX2                !
 ! D35   D(5,6,11,13)          -60.4352         estimate D2E/DX2                !
 ! D36   D(5,6,11,14)          163.1337         estimate D2E/DX2                !
 ! D37   D(4,7,8,9)             -5.0862         estimate D2E/DX2                !
 ! D38   D(4,7,8,21)           178.8183         estimate D2E/DX2                !
 ! D39   D(20,7,8,9)           175.2524         estimate D2E/DX2                !
 ! D40   D(20,7,8,21)           -0.8431         estimate D2E/DX2                !
 ! D41   D(7,8,9,10)             3.4924         estimate D2E/DX2                !
 ! D42   D(7,8,9,22)          -172.4401         estimate D2E/DX2                !
 ! D43   D(21,8,9,10)          179.6371         estimate D2E/DX2                !
 ! D44   D(21,8,9,22)            3.7045         estimate D2E/DX2                !
 ! D45   D(8,9,10,5)             5.145          estimate D2E/DX2                !
 ! D46   D(8,9,10,12)         -173.9854         estimate D2E/DX2                !
 ! D47   D(22,9,10,5)         -178.9682         estimate D2E/DX2                !
 ! D48   D(22,9,10,12)           1.9014         estimate D2E/DX2                !
 ! D49   D(5,10,12,15)         163.134          estimate D2E/DX2                !
 ! D50   D(5,10,12,16)         -60.4346         estimate D2E/DX2                !
 ! D51   D(9,10,12,15)         -17.7514         estimate D2E/DX2                !
 ! D52   D(9,10,12,16)         118.6799         estimate D2E/DX2                !
 ! D53   D(6,11,13,23)          37.6468         estimate D2E/DX2                !
 ! D54   D(6,11,13,24)         156.9294         estimate D2E/DX2                !
 ! D55   D(6,11,13,25)         -82.9621         estimate D2E/DX2                !
 ! D56   D(14,11,13,23)        176.6795         estimate D2E/DX2                !
 ! D57   D(14,11,13,24)        -64.0379         estimate D2E/DX2                !
 ! D58   D(14,11,13,25)         56.0706         estimate D2E/DX2                !
 ! D59   D(6,11,14,26)         -49.4178         estimate D2E/DX2                !
 ! D60   D(6,11,14,27)          72.8704         estimate D2E/DX2                !
 ! D61   D(6,11,14,28)        -167.7467         estimate D2E/DX2                !
 ! D62   D(13,11,14,26)        172.3352         estimate D2E/DX2                !
 ! D63   D(13,11,14,27)        -65.3766         estimate D2E/DX2                !
 ! D64   D(13,11,14,28)         54.0063         estimate D2E/DX2                !
 ! D65   D(10,12,15,29)        -49.4181         estimate D2E/DX2                !
 ! D66   D(10,12,15,30)         72.8701         estimate D2E/DX2                !
 ! D67   D(10,12,15,31)       -167.747          estimate D2E/DX2                !
 ! D68   D(16,12,15,29)        172.3347         estimate D2E/DX2                !
 ! D69   D(16,12,15,30)        -65.377          estimate D2E/DX2                !
 ! D70   D(16,12,15,31)         54.0058         estimate D2E/DX2                !
 ! D71   D(10,12,16,32)         37.6473         estimate D2E/DX2                !
 ! D72   D(10,12,16,33)        156.9298         estimate D2E/DX2                !
 ! D73   D(10,12,16,34)        -82.9618         estimate D2E/DX2                !
 ! D74   D(15,12,16,32)        176.6801         estimate D2E/DX2                !
 ! D75   D(15,12,16,33)        -64.0374         estimate D2E/DX2                !
 ! D76   D(15,12,16,34)         56.0711         estimate D2E/DX2                !
 --------------------------------------------------------------------------------
 Trust Radius=3.00D-01 FncErr=1.00D-07 GrdErr=1.00D-06
 Number of steps in this run=    181 maximum allowed number of steps=    204.
 GradGradGradGradGradGradGradGradGradGradGradGradGradGradGradGradGradGrad

                          Input orientation:                          
 ---------------------------------------------------------------------
 Center     Atomic      Atomic             Coordinates (Angstroms)
 Number     Number       Type             X           Y           Z
 ---------------------------------------------------------------------
      1          6           0        0.681787    2.434356    0.232772
      2          6           0        2.081296    2.391374    0.377594
      3          6           0        2.749356    1.205451    0.211140
      4          6           0        2.029943    0.000195    0.000000
      5          6           0        0.592068    0.000057    0.000000
      6          6           0       -0.069448    1.289413   -0.007378
      7          6           0        2.749590   -1.204921   -0.211139
      8          6           0        2.081759   -2.390974   -0.377593
      9          6           0        0.682259   -2.434226   -0.232771
     10          6           0       -0.069198   -1.289428    0.007378
     11          7           0       -1.448978    1.391169   -0.271439
     12          7           0       -1.448709   -1.391451    0.271437
     13          6           0       -1.890881    0.903425   -1.571175
     14          6           0       -2.118666    2.620615    0.093823
     15          6           0       -2.118156   -2.621030   -0.093817
     16          6           0       -1.890711   -0.903780    1.571167
     17          1           0        0.192189    3.401476    0.245792
     18          1           0        2.627048    3.313626    0.558547
     19          1           0        3.834841    1.165192    0.242965
     20          1           0        3.835067   -1.164452   -0.242963
     21          1           0        2.627689   -3.313121   -0.558545
     22          1           0        0.192847   -3.401440   -0.245790
     23          1           0       -1.335508    0.011584   -1.855416
     24          1           0       -2.954122    0.643530   -1.528475
     25          1           0       -1.748137    1.669235   -2.354440
     26          1           0       -1.876084    2.895937    1.124106
     27          1           0       -1.873221    3.474403   -0.564862
     28          1           0       -3.199932    2.458979    0.029838
     29          1           0       -1.875523   -2.896308   -1.124099
     30          1           0       -1.872542   -3.474766    0.564872
     31          1           0       -3.199453   -2.459603   -0.029829
     32          1           0       -1.335521   -0.011822    1.855399
     33          1           0       -2.954005   -0.644101    1.528462
     34          1           0       -1.747814   -1.669551    2.354442
 ---------------------------------------------------------------------
                    Distance matrix (angstroms):
                    1          2          3          4          5
     1  C    0.000000
     2  C    1.407639   0.000000
     3  C    2.405310   1.371286   0.000000
     4  C    2.792284   2.421353   1.419428   0.000000
     5  C    2.447048   2.842318   2.480211   1.437875   0.000000
     6  C    1.390295   2.447084   2.828508   2.463652   1.449171
     7  C    4.209181   3.704937   2.447083   1.419428   2.480212
     8  C    5.061252   4.841607   3.704938   2.421353   2.842320
     9  C    4.890789   5.061251   4.209180   2.792282   2.447049
    10  C    3.805437   4.279017   3.769640   2.463651   1.449172
    11  N    2.425413   3.726190   4.230057   3.756512   2.484903
    12  N    4.379190   5.175130   4.936728   3.756511   2.484903
    13  C    3.495225   4.667963   4.979926   4.319407   3.074036
    14  C    2.810078   4.215775   5.070906   4.907786   3.771499
    15  C    5.788201   6.556052   6.199002   4.907784   3.771500
    16  C    4.421787   5.297121   5.275296   4.319406   3.074033
    17  H    1.084065   2.146253   3.370880   3.873818   3.433652
    18  H    2.159464   1.086802   2.140106   3.412819   3.928468
    19  H    3.398916   2.143961   1.086697   2.161922   3.454294
    20  H    4.808422   4.013066   2.646019   2.161922   3.454295
    21  H    6.119331   5.806562   4.585271   3.412819   3.928470
    22  H    5.875764   6.124667   5.288475   3.873817   3.433653
    23  H    3.781512   4.724858   4.730971   3.843040   2.675491
    24  H    4.419150   5.660697   5.989297   5.252715   3.914812
    25  H    3.630924   4.759207   5.198532   4.754258   3.715656
    26  H    2.747770   4.058660   5.008587   4.990589   3.967557
    27  H    2.871582   4.207063   5.207546   5.255842   4.297418
    28  H    3.887098   5.293097   6.082617   5.779109   4.519563
    29  H    6.066046   6.772819   6.324302   4.990590   3.967560
    30  H    6.446131   7.076688   6.587222   5.255837   4.297415
    31  H    6.251705   7.182220   6.991353   5.779107   4.519563
    32  H    3.561774   4.431015   4.568540   3.843045   2.675490
    33  H    4.937073   5.991065   6.138771   5.252718   3.914814
    34  H    5.219818   5.921243   5.751862   4.754250   3.715647
                    6          7          8          9         10
     6  C    0.000000
     7  C    3.769641   0.000000
     8  C    4.279018   1.371287   0.000000
     9  C    3.805437   2.405310   1.407638   0.000000
    10  C    2.578883   2.828508   2.447084   1.390296   0.000000
    11  N    1.408256   4.936729   5.175131   4.379191   3.027727
    12  N    3.027727   4.230058   3.726190   2.425413   1.408257
    13  C    2.431474   5.275300   5.297129   4.421797   3.258675
    14  C    2.445738   6.199003   6.556053   5.788200   4.415453
    15  C    4.415455   5.070905   4.215773   2.810076   2.445738
    16  C    3.258665   4.979929   4.667968   3.495230   2.431475
    17  H    2.143212   5.288476   6.124668   5.875765   4.704226
    18  H    3.418889   4.585270   5.806562   6.119329   5.362988
    19  H    3.914278   2.646019   4.013067   4.808421   4.617595
    20  H    4.617596   1.086697   2.143961   3.398916   3.914278
    21  H    5.362989   2.140107   1.086802   2.159464   3.418889
    22  H    4.704226   3.370880   2.146253   1.084065   2.143212
    23  H    2.578953   4.568540   4.431022   3.561790   2.601187
    24  H    3.324492   6.138768   5.991063   4.937074   3.797099
    25  H    2.910492   5.751874   5.921260   5.219837   4.141341
    26  H    2.669290   6.324300   6.772817   6.066043   4.693527
    27  H    2.887658   6.587228   7.076693   6.446135   5.126016
    28  H    3.342035   6.991355   7.182221   6.251706   4.883908
    29  H    4.693531   5.008588   4.058659   2.747769   2.669291
    30  H    5.126014   5.207542   4.207059   2.871579   2.887655
    31  H    4.883908   6.082616   5.293095   3.887096   3.342034
    32  H    2.601171   4.730983   4.724872   3.781525   2.578960
    33  H    3.797098   5.989301   5.660700   4.419152   3.324493
    34  H    4.141325   5.198531   4.759212   3.630930   2.910490
                   11         12         13         14         15
    11  N    0.000000
    12  N    2.835082   0.000000
    13  C    1.456875   2.976103   0.000000
    14  C    1.446871   4.071494   2.402675   0.000000
    15  C    4.071497   1.446871   3.828319   5.245003   0.000000
    16  C    2.976091   1.456876   3.624956   3.828298   2.402676
    17  H    2.646184   5.066098   3.725696   2.443950   6.459381
    18  H    4.582434   6.231531   5.545851   4.818510   7.626446
    19  H    5.313607   5.869679   6.011948   6.130640   7.063078
    20  H    5.869680   5.313608   6.231111   7.063080   6.130638
    21  H    6.231532   4.582435   6.262759   7.626447   4.818507
    22  H    5.066098   2.646183   4.962905   6.459379   2.443946
    23  H    2.103595   2.550456   1.088399   3.349614   3.262886
    24  H    2.098705   3.105978   1.095377   2.690484   3.662572
    25  H    2.122666   4.043845   1.104692   2.652623   4.863507
    26  H    2.096257   4.392196   3.351845   1.093678   5.654985
    27  H    2.146146   4.955415   2.760961   1.105922   6.118511
    28  H    2.072879   4.236858   2.587780   1.095151   5.195385
    29  H    4.392201   2.096255   3.825975   5.654988   1.093677
    30  H    4.955416   2.146145   4.871508   6.118507   1.105922
    31  H    4.236860   2.072876   3.924037   5.195383   1.095151
    32  H    2.550431   2.103598   3.589918   3.262850   3.349616
    33  H    3.105974   2.098704   3.623923   3.662561   2.690480
    34  H    4.043830   2.122667   4.695864   4.863482   2.652628
                   16         17         18         19         20
    16  C    0.000000
    17  H    4.962894   0.000000
    18  H    6.262752   2.456435   0.000000
    19  H    6.231108   4.274329   2.484779   0.000000
    20  H    6.011951   5.861496   4.706900   2.379783   0.000000
    21  H    5.545858   7.187797   6.720243   4.706901   2.484780
    22  H    3.725702   6.820654   7.187795   5.861496   4.274329
    23  H    3.589932   4.270867   5.694958   5.697940   5.542374
    24  H    3.623919   4.544619   6.529512   7.035634   7.142438
    25  H    4.695862   3.677870   5.507428   6.178205   6.607593
    26  H    3.825954   2.303206   4.557688   6.032127   7.139530
    27  H    4.871490   2.219999   4.641155   6.210234   7.362550
    28  H    3.924016   3.527240   5.913007   7.155930   7.918010
    29  H    3.351844   6.768613   7.852880   7.139531   6.032128
    30  H    2.760965   7.186629   8.144238   7.362544   6.210229
    31  H    2.587775   6.777274   8.223410   7.918008   7.155929
    32  H    1.088399   4.071282   5.333140   5.542378   5.697952
    33  H    1.095377   5.283036   6.910318   7.142442   7.035639
    34  H    1.104692   5.824546   6.869986   6.607582   6.178203
                   21         22         23         24         25
    21  H    0.000000
    22  H    2.456435   0.000000
    23  H    5.333148   4.071302   0.000000
    24  H    6.910316   5.283037   1.768094   0.000000
    25  H    6.870005   5.824566   1.779633   1.785690   0.000000
    26  H    7.852878   6.768608   4.182017   3.643033   3.690725
    27  H    8.144244   7.186631   3.734405   3.179739   2.544969
    28  H    8.223412   6.777273   3.608324   2.405123   2.901066
    29  H    4.557686   2.303202   3.046683   3.722546   4.730132
    30  H    4.641150   2.219996   4.277948   4.744711   5.915962
    31  H    5.913004   3.527236   3.593581   3.454788   4.955546
    32  H    5.694974   4.270880   3.710889   3.807881   4.551807
    33  H    6.529516   4.544619   3.807898   3.317056   4.677881
    34  H    5.507435   3.677881   4.551826   4.677881   5.772440
                   26         27         28         29         30
    26  H    0.000000
    27  H    1.785285   0.000000
    28  H    1.772266   1.773391   0.000000
    29  H    6.213254   6.395210   5.636021   0.000000
    30  H    6.395202   7.040401   6.103897   1.785286   0.000000
    31  H    5.636016   6.103899   4.918944   1.772267   1.773392
    32  H    3.046647   4.277914   3.593544   4.182017   3.734412
    33  H    3.722538   4.744700   3.454773   3.643026   3.179738
    34  H    4.730102   5.915938   4.955521   3.690730   2.544979
                   31         32         33         34
    31  H    0.000000
    32  H    3.608318   0.000000
    33  H    2.405112   1.768094   0.000000
    34  H    2.901066   1.779633   1.785690   0.000000
 Stoichiometry    C14H18N2
 Framework group  C1[X(C14H18N2)]
 Deg. of freedom    96
 Full point group                 C1      NOp   1
 Largest Abelian subgroup         C1      NOp   1
 Largest concise Abelian subgroup C1      NOp   1
                         Standard orientation:                         
 ---------------------------------------------------------------------
 Center     Atomic      Atomic             Coordinates (Angstroms)
 Number     Number       Type             X           Y           Z
 ---------------------------------------------------------------------
      1          6           0        0.681780   -2.434358   -0.232772
      2          6           0        2.081289   -2.391380   -0.377594
      3          6           0        2.749352   -1.205459   -0.211140
      4          6           0        2.029943   -0.000201   -0.000000
      5          6           0        0.592068   -0.000059   -0.000000
      6          6           0       -0.069452   -1.289413    0.007378
      7          6           0        2.749594    1.204913    0.211139
      8          6           0        2.081766    2.390968    0.377593
      9          6           0        0.682266    2.434224    0.232771
     10          6           0       -0.069194    1.289428   -0.007378
     11          7           0       -1.448982   -1.391165    0.271439
     12          7           0       -1.448705    1.391455   -0.271437
     13          6           0       -1.890884   -0.903420    1.571175
     14          6           0       -2.118674   -2.620609   -0.093823
     15          6           0       -2.118148    2.621036    0.093817
     16          6           0       -1.890708    0.903785   -1.571167
     17          1           0        0.192179   -3.401477   -0.245792
     18          1           0        2.627038   -3.313634   -0.558547
     19          1           0        3.834838   -1.165203   -0.242965
     20          1           0        3.835070    1.164441    0.242963
     21          1           0        2.627699    3.313113    0.558545
     22          1           0        0.192857    3.401439    0.245790
     23          1           0       -1.335508   -0.011580    1.855416
     24          1           0       -2.954124   -0.643521    1.528475
     25          1           0       -1.748142   -1.669230    2.354440
     26          1           0       -1.876093   -2.895932   -1.124106
     27          1           0       -1.873231   -3.474398    0.564862
     28          1           0       -3.199939   -2.458970   -0.029838
     29          1           0       -1.875514    2.896313    1.124099
     30          1           0       -1.872532    3.474771   -0.564872
     31          1           0       -3.199446    2.459612    0.029829
     32          1           0       -1.335521    0.011826   -1.855399
     33          1           0       -2.954003    0.644110   -1.528462
     34          1           0       -1.747809    1.669556   -2.354442
 ---------------------------------------------------------------------
 Rotational constants (GHZ):      0.6355933      0.6302430      0.3587761
 Standard basis: 6-31+G(d,p) (6D, 7F)
 There are   394 symmetry adapted cartesian basis functions of A   symmetry.
 There are   394 symmetry adapted basis functions of A   symmetry.
   394 basis functions,   638 primitive gaussians,   394 cartesian basis functions
    58 alpha electrons       58 beta electrons
       nuclear repulsion energy      1123.7428048948 Hartrees.
 NAtoms=   34 NActive=   34 NUniq=   34 SFac= 1.00D+00 NAtFMM=   60 NAOKFM=F Big=F
 Integral buffers will be    131072 words long.
 Raffenetti 2 integral format.
 Two-electron integral symmetry is turned on.
 Nuclear repulsion after empirical dispersion term =     1123.7185029103 Hartrees.
 One-electron integrals computed using PRISM.
 NBasis=   394 RedAO= T EigKep=  1.16D-06  NBF=   394
 NBsUse=   391 1.00D-06 EigRej=  9.80D-07 NBFU=   391
 ExpMin= 4.38D-02 ExpMax= 4.17D+03 ExpMxC= 6.27D+02 IAcc=2 IRadAn=         4 AccDes= 0.00D+00
 Harris functional with IExCor=20419 and IRadAn=       4 diagonalized for initial guess.
 HarFok:  IExCor=20419 AccDes= 0.00D+00 IRadAn=         4 IDoV= 1 UseB2=F ITyADJ=14
 ICtDFT=  3500011 ScaDFX=  1.000000  1.000000  1.000000  1.000000
 FoFCou: FMM=F IPFlag=           0 FMFlag=      100000 FMFlg1=           0
         NFxFlg=           0 DoJE=T BraDBF=F KetDBF=T FulRan=T
         wScrn=  0.000000 ICntrl=     500 IOpCl=  0 I1Cent=   200000004 NGrid=           0
         NMat0=    1 NMatS0=      1 NMatT0=    0 NMatD0=    1 NMtDS0=    0 NMtDT0=    0
 Petite list used in FoFCou.
 Requested convergence on RMS density matrix=1.00D-08 within 128 cycles.
 Requested convergence on MAX density matrix=1.00D-06.
 Requested convergence on             energy=1.00D-06.
 No special actions if energy rises.
 SCF Done:  E(RCAM-B3LYP) =  -653.499819973     A.U. after   16 cycles
            NFock= 16  Conv=0.30D-08     -V/T= 2.0096

 **********************************************************************

            Population analysis using the SCF density.

 **********************************************************************

 Orbital symmetries:
       Occupied  (A) (A) (A) (A) (A) (A) (A) (A) (A) (A) (A) (A)
                 (A) (A) (A) (A) (A) (A) (A) (A) (A) (A) (A) (A)
                 (A) (A) (A) (A) (A) (A) (A) (A) (A) (A) (A) (A)
                 (A) (A) (A) (A) (A) (A) (A) (A) (A) (A) (A) (A)
                 (A) (A) (A) (A) (A) (A) (A) (A) (A) (A)
       Virtual   (A) (A) (A) (A) (A) (A) (A) (A) (A) (A) (A) (A)
                 (A) (A) (A) (A) (A) (A) (A) (A) (A) (A) (A) (A)
                 (A) (A) (A) (A) (A) (A) (A) (A) (A) (A) (A) (A)
                 (A) (A) (A) (A) (A) (A) (A) (A) (A) (A) (A) (A)
                 (A) (A) (A) (A) (A) (A) (A) (A) (A) (A) (A) (A)
                 (A) (A) (A) (A) (A) (A) (A) (A) (A) (A) (A) (A)
                 (A) (A) (A) (A) (A) (A) (A) (A) (A) (A) (A) (A)
                 (A) (A) (A) (A) (A) (A) (A) (A) (A) (A) (A) (A)
                 (A) (A) (A) (A) (A) (A) (A) (A) (A) (A) (A) (A)
                 (A) (A) (A) (A) (A) (A) (A) (A) (A) (A) (A) (A)
                 (A) (A) (A) (A) (A) (A) (A) (A) (A) (A) (A) (A)
                 (A) (A) (A) (A) (A) (A) (A) (A) (A) (A) (A) (A)
                 (A) (A) (A) (A) (A) (A) (A) (A) (A) (A) (A) (A)
                 (A) (A) (A) (A) (A) (A) (A) (A) (A) (A) (A) (A)
                 (A) (A) (A) (A) (A) (A) (A) (A) (A) (A) (A) (A)
                 (A) (A) (A) (A) (A) (A) (A) (A) (A) (A) (A) (A)
                 (A) (A) (A) (A) (A) (A) (A) (A) (A) (A) (A) (A)
                 (A) (A) (A) (A) (A) (A) (A) (A) (A) (A) (A) (A)
                 (A) (A) (A) (A) (A) (A) (A) (A) (A) (A) (A) (A)
                 (A) (A) (A) (A) (A) (A) (A) (A) (A) (A) (A) (A)
                 (A) (A) (A) (A) (A) (A) (A) (A) (A) (A) (A) (A)
                 (A) (A) (A) (A) (A) (A) (A) (A) (A) (A) (A) (A)
                 (A) (A) (A) (A) (A) (A) (A) (A) (A) (A) (A) (A)
                 (A) (A) (A) (A) (A) (A) (A) (A) (A) (A) (A) (A)
                 (A) (A) (A) (A) (A) (A) (A) (A) (A) (A) (A) (A)
                 (A) (A) (A) (A) (A) (A) (A) (A) (A) (A) (A) (A)
                 (A) (A) (A) (A) (A) (A) (A) (A) (A) (A) (A) (A)
                 (A) (A) (A) (A) (A) (A) (A) (A) (A)
 The electronic state is 1-A.
 Alpha  occ. eigenvalues --  -14.41348 -14.41348 -10.30274 -10.30273 -10.28373
 Alpha  occ. eigenvalues --  -10.28373 -10.27727 -10.27726 -10.27394 -10.27202
 Alpha  occ. eigenvalues --  -10.26296 -10.26295 -10.25610 -10.25610 -10.25603
 Alpha  occ. eigenvalues --  -10.25601  -1.03260  -1.01609  -0.94408  -0.89600
 Alpha  occ. eigenvalues --   -0.84575  -0.82317  -0.80297  -0.79020  -0.78768
 Alpha  occ. eigenvalues --   -0.73005  -0.73003  -0.68586  -0.67273  -0.63111
 Alpha  occ. eigenvalues --   -0.59065  -0.58139  -0.57232  -0.54878  -0.54227
 Alpha  occ. eigenvalues --   -0.53329  -0.52599  -0.52062  -0.51018  -0.48832
 Alpha  occ. eigenvalues --   -0.47655  -0.47127  -0.46204  -0.45880  -0.45553
 Alpha  occ. eigenvalues --   -0.44684  -0.44402  -0.43579  -0.43338  -0.43201
 Alpha  occ. eigenvalues --   -0.40426  -0.39701  -0.39040  -0.34965  -0.31789
 Alpha  occ. eigenvalues --   -0.29329  -0.25760  -0.23509
 Alpha virt. eigenvalues --    0.00515   0.02634   0.02944   0.03743   0.04265
 Alpha virt. eigenvalues --    0.04822   0.05517   0.05606   0.06400   0.07000
 Alpha virt. eigenvalues --    0.07668   0.07735   0.07759   0.08117   0.08754
 Alpha virt. eigenvalues --    0.09114   0.10185   0.10399   0.10704   0.11515
 Alpha virt. eigenvalues --    0.11961   0.12225   0.12960   0.13383   0.13942
 Alpha virt. eigenvalues --    0.14369   0.14935   0.15092   0.15387   0.15851
 Alpha virt. eigenvalues --    0.16797   0.17233   0.17485   0.18331   0.18934
 Alpha virt. eigenvalues --    0.18985   0.19863   0.20202   0.20904   0.21071
 Alpha virt. eigenvalues --    0.22071   0.22325   0.23028   0.23484   0.23973
 Alpha virt. eigenvalues --    0.24186   0.24498   0.24786   0.25159   0.25487
 Alpha virt. eigenvalues --    0.25746   0.25929   0.27260   0.27380   0.27993
 Alpha virt. eigenvalues --    0.28064   0.28299   0.28409   0.28869   0.29835
 Alpha virt. eigenvalues --    0.30296   0.30526   0.31081   0.31687   0.31706
 Alpha virt. eigenvalues --    0.31855   0.32539   0.32697   0.33002   0.33097
 Alpha virt. eigenvalues --    0.33985   0.34245   0.34744   0.35542   0.35869
 Alpha virt. eigenvalues --    0.36335   0.36913   0.37156   0.38027   0.38544
 Alpha virt. eigenvalues --    0.38692   0.39241   0.39694   0.40411   0.40699
 Alpha virt. eigenvalues --    0.42142   0.43089   0.43245   0.45664   0.46395
 Alpha virt. eigenvalues --    0.46423   0.48666   0.49471   0.51199   0.51635
 Alpha virt. eigenvalues --    0.53708   0.54112   0.60554   0.62056   0.67505
 Alpha virt. eigenvalues --    0.70864   0.71290   0.73019   0.74897   0.74942
 Alpha virt. eigenvalues --    0.75383   0.76231   0.76732   0.76994   0.77926
 Alpha virt. eigenvalues --    0.78632   0.79929   0.80289   0.80886   0.81500
 Alpha virt. eigenvalues --    0.81952   0.82733   0.84943   0.85167   0.85556
 Alpha virt. eigenvalues --    0.86191   0.87446   0.89117   0.89496   0.91204
 Alpha virt. eigenvalues --    0.92398   0.93302   0.94065   0.94738   0.95572
 Alpha virt. eigenvalues --    0.96320   0.97430   0.97834   0.98116   1.00396
 Alpha virt. eigenvalues --    1.01237   1.01893   1.01964   1.03437   1.04888
 Alpha virt. eigenvalues --    1.05378   1.05913   1.06875   1.07545   1.10261
 Alpha virt. eigenvalues --    1.10875   1.10984   1.12014   1.12206   1.13630
 Alpha virt. eigenvalues --    1.14900   1.15129   1.15609   1.20438   1.20963
 Alpha virt. eigenvalues --    1.22113   1.22590   1.22625   1.23089   1.23264
 Alpha virt. eigenvalues --    1.23397   1.26422   1.28521   1.31254   1.31479
 Alpha virt. eigenvalues --    1.32878   1.33234   1.33638   1.35435   1.37604
 Alpha virt. eigenvalues --    1.37824   1.40067   1.40579   1.41107   1.43065
 Alpha virt. eigenvalues --    1.43309   1.44333   1.46818   1.46872   1.48876
 Alpha virt. eigenvalues --    1.48889   1.49727   1.52107   1.56658   1.57005
 Alpha virt. eigenvalues --    1.61619   1.62597   1.63737   1.67621   1.68564
 Alpha virt. eigenvalues --    1.71135   1.72436   1.80393   1.82371   1.83337
 Alpha virt. eigenvalues --    1.85123   1.86971   1.88156   1.90175   1.92516
 Alpha virt. eigenvalues --    1.93754   1.94212   1.95167   1.97959   1.99123
 Alpha virt. eigenvalues --    1.99168   2.00728   2.02039   2.02264   2.04314
 Alpha virt. eigenvalues --    2.05137   2.06923   2.07339   2.07932   2.09355
 Alpha virt. eigenvalues --    2.10881   2.11388   2.11425   2.12374   2.12552
 Alpha virt. eigenvalues --    2.12598   2.13744   2.14970   2.15686   2.16675
 Alpha virt. eigenvalues --    2.18097   2.19644   2.19713   2.20409   2.23001
 Alpha virt. eigenvalues --    2.23637   2.23725   2.25453   2.26698   2.27338
 Alpha virt. eigenvalues --    2.29092   2.31589   2.33277   2.35206   2.35247
 Alpha virt. eigenvalues --    2.38027   2.38086   2.40949   2.45128   2.45776
 Alpha virt. eigenvalues --    2.47213   2.48100   2.48689   2.49585   2.51034
 Alpha virt. eigenvalues --    2.52358   2.52382   2.55337   2.56775   2.57034
 Alpha virt. eigenvalues --    2.60221   2.60422   2.62227   2.64359   2.65277
 Alpha virt. eigenvalues --    2.65509   2.66250   2.68659   2.69495   2.71122
 Alpha virt. eigenvalues --    2.71645   2.73653   2.74802   2.74865   2.75516
 Alpha virt. eigenvalues --    2.78450   2.79460   2.79958   2.80325   2.81487
 Alpha virt. eigenvalues --    2.82320   2.82876   2.84199   2.85935   2.86486
 Alpha virt. eigenvalues --    2.87634   2.91221   2.93190   2.93365   2.94286
 Alpha virt. eigenvalues --    2.97643   3.01155   3.01712   3.03417   3.04913
 Alpha virt. eigenvalues --    3.11276   3.12133   3.19402   3.19621   3.20951
 Alpha virt. eigenvalues --    3.25111   3.28728   3.33779   3.34089   3.34593
 Alpha virt. eigenvalues --    3.35871   3.37094   3.37215   3.40973   3.45575
 Alpha virt. eigenvalues --    3.51589   3.52054   3.52388   3.53012   3.53939
 Alpha virt. eigenvalues --    3.54351   3.58694   3.58847   3.62805   3.64241
 Alpha virt. eigenvalues --    3.86143   3.91582   4.38409   4.39102   4.42743
 Alpha virt. eigenvalues --    4.43159   4.48597   4.51298   4.51564   4.58655
 Alpha virt. eigenvalues --    4.60602   4.65902   4.68051   4.70535   4.73365
 Alpha virt. eigenvalues --    4.73756   4.78882   5.00576
          Condensed to atoms (all electrons):
               1          2          3          4          5          6
     1  C   11.871927  -0.832574  -0.591082   0.283280  -0.852006  -0.806809
     2  C   -0.832574   7.609037  -1.037231   0.210763  -0.617151   0.104650
     3  C   -0.591082  -1.037231  11.984425  -3.362615   0.066614  -0.366682
     4  C    0.283280   0.210763  -3.362615  10.712646   0.191475   0.365664
     5  C   -0.852006  -0.617151   0.066614   0.191475  11.979478  -1.635172
     6  C   -0.806809   0.104650  -0.366682   0.365664  -1.635172  11.877873
     7  C   -0.158489  -0.143458   1.656636  -3.362605   0.066533  -2.090807
     8  C    0.158540  -0.348935  -0.143467   0.210743  -0.617058   1.031748
     9  C   -0.996147   0.158553  -0.158496   0.283373  -0.852332  -2.351283
    10  C   -2.351282   1.031755  -2.090788   0.365720  -1.635341   0.794806
    11  N    0.035926  -0.012411  -0.067821  -0.035778  -0.260643   0.165011
    12  N    0.034283  -0.005026   0.023905  -0.035777  -0.260645  -0.024717
    13  C    0.187147  -0.085210   0.079166  -0.000233   0.161825  -0.450139
    14  C    0.094664  -0.008850  -0.006865  -0.014392  -0.084181  -0.250241
    15  C    0.014984   0.005294  -0.036928  -0.014391  -0.084191  -0.030232
    16  C   -0.000457  -0.025634   0.013682  -0.000230   0.161822  -0.286694
    17  H    0.216594  -0.013324   0.017893   0.010145   0.109558  -0.006020
    18  H   -0.005454   0.275816   0.045015   0.034845  -0.021126   0.001710
    19  H    0.035195  -0.011725   0.329318  -0.013962   0.003050   0.006217
    20  H   -0.002583   0.010911  -0.044981  -0.013964   0.003049  -0.008121
    21  H   -0.001294   0.002197  -0.011276   0.034843  -0.021125  -0.002374
    22  H    0.003925  -0.001865   0.014115   0.010144   0.109563   0.006224
    23  H   -0.068347  -0.010392   0.006193   0.019300   0.106689  -0.123258
    24  H   -0.019729   0.000658   0.000737  -0.000361  -0.003770   0.000875
    25  H    0.109127  -0.000344  -0.002080  -0.000435  -0.061030  -0.019282
    26  H    0.040320   0.017672   0.002855  -0.007251  -0.010392  -0.079804
    27  H    0.098710   0.027972   0.004107   0.003062  -0.040175  -0.120034
    28  H   -0.073378  -0.018414  -0.000219   0.000043   0.026200   0.079256
    29  H    0.000752   0.000105  -0.001183  -0.007251  -0.010392  -0.001634
    30  H   -0.001974   0.000282   0.000141   0.003062  -0.040177  -0.010760
    31  H    0.001829  -0.000093  -0.000035   0.000042   0.026200   0.004248
    32  H    0.068180  -0.013197   0.014585   0.019298   0.106696   0.006307
    33  H    0.007511  -0.000200  -0.001633  -0.000362  -0.003768   0.031478
    34  H   -0.019329   0.001912   0.000242  -0.000434  -0.061035  -0.044567
               7          8          9         10         11         12
     1  C   -0.158489   0.158540  -0.996147  -2.351282   0.035926   0.034283
     2  C   -0.143458  -0.348935   0.158553   1.031755  -0.012411  -0.005026
     3  C    1.656636  -0.143467  -0.158496  -2.090788  -0.067821   0.023905
     4  C   -3.362605   0.210743   0.283373   0.365720  -0.035778  -0.035777
     5  C    0.066533  -0.617058  -0.852332  -1.635341  -0.260643  -0.260645
     6  C   -2.090807   1.031748  -2.351283   0.794806   0.165011  -0.024717
     7  C   11.984448  -1.037245  -0.591012  -0.366697   0.023906  -0.067822
     8  C   -1.037245   7.609051  -0.832602   0.104642  -0.005026  -0.012410
     9  C   -0.591012  -0.832602  11.872108  -0.806774   0.034277   0.035904
    10  C   -0.366697   0.104642  -0.806774  11.877969  -0.024740   0.165012
    11  N    0.023906  -0.005026   0.034277  -0.024740   7.433547  -0.111834
    12  N   -0.067822  -0.012410   0.035904   0.165012  -0.111834   7.433539
    13  C    0.013680  -0.025633  -0.000462  -0.286701   0.174313  -0.001388
    14  C   -0.036928   0.005293   0.014987  -0.030226   0.102588   0.008916
    15  C   -0.006861  -0.008851   0.094678  -0.250244   0.008917   0.102589
    16  C    0.079165  -0.085209   0.187138  -0.450138  -0.001389   0.174313
    17  H    0.014116  -0.001865   0.003925   0.006224  -0.036687  -0.000039
    18  H   -0.011276   0.002197  -0.001294  -0.002375  -0.001269   0.000044
    19  H   -0.044980   0.010913  -0.002584  -0.008122   0.000175   0.000043
    20  H    0.329317  -0.011719   0.035195   0.006217   0.000043   0.000175
    21  H    0.045012   0.275817  -0.005453   0.001711   0.000044  -0.001269
    22  H    0.017891  -0.013323   0.216586  -0.006014  -0.000039  -0.036687
    23  H    0.014586  -0.013197   0.068180   0.006309  -0.050062  -0.019219
    24  H   -0.001633  -0.000200   0.007512   0.031481  -0.053322  -0.002838
    25  H    0.000242   0.001912  -0.019329  -0.044568  -0.074842   0.005063
    26  H   -0.001183   0.000105   0.000752  -0.001633  -0.046247  -0.000096
    27  H    0.000141   0.000282  -0.001974  -0.010761  -0.046629  -0.000345
    28  H   -0.000035  -0.000093   0.001829   0.004248  -0.083472   0.000436
    29  H    0.002855   0.017672   0.040322  -0.079806  -0.000096  -0.046247
    30  H    0.004107   0.027973   0.098713  -0.120034  -0.000345  -0.046630
    31  H   -0.000219  -0.018414  -0.073378   0.079256   0.000436  -0.083472
    32  H    0.006192  -0.010392  -0.068347  -0.123262  -0.019219  -0.050061
    33  H    0.000737   0.000658  -0.019728   0.000875  -0.002837  -0.053323
    34  H   -0.002080  -0.000345   0.109128  -0.019279   0.005063  -0.074842
              13         14         15         16         17         18
     1  C    0.187147   0.094664   0.014984  -0.000457   0.216594  -0.005454
     2  C   -0.085210  -0.008850   0.005294  -0.025634  -0.013324   0.275816
     3  C    0.079166  -0.006865  -0.036928   0.013682   0.017893   0.045015
     4  C   -0.000233  -0.014392  -0.014391  -0.000230   0.010145   0.034845
     5  C    0.161825  -0.084181  -0.084191   0.161822   0.109558  -0.021126
     6  C   -0.450139  -0.250241  -0.030232  -0.286694  -0.006020   0.001710
     7  C    0.013680  -0.036928  -0.006861   0.079165   0.014116  -0.011276
     8  C   -0.025633   0.005293  -0.008851  -0.085209  -0.001865   0.002197
     9  C   -0.000462   0.014987   0.094678   0.187138   0.003925  -0.001294
    10  C   -0.286701  -0.030226  -0.250244  -0.450138   0.006224  -0.002375
    11  N    0.174313   0.102588   0.008917  -0.001389  -0.036687  -0.001269
    12  N   -0.001388   0.008916   0.102589   0.174313  -0.000039   0.000044
    13  C    5.240090  -0.054570  -0.015443  -0.013949  -0.003672  -0.000224
    14  C   -0.054570   5.237193   0.006157  -0.015443  -0.007081   0.000691
    15  C   -0.015443   0.006157   5.237193  -0.054569   0.000084  -0.000001
    16  C   -0.013949  -0.015443  -0.054569   5.240088  -0.000827   0.000011
    17  H   -0.003672  -0.007081   0.000084  -0.000827   0.578057  -0.004993
    18  H   -0.000224   0.000691  -0.000001   0.000011  -0.004993   0.562449
    19  H   -0.000041   0.000279  -0.000038   0.000109  -0.000172  -0.004231
    20  H    0.000109  -0.000038   0.000279  -0.000041   0.000000  -0.000008
    21  H    0.000011  -0.000001   0.000691  -0.000224  -0.000000  -0.000000
    22  H   -0.000827   0.000084  -0.007081  -0.003672  -0.000000  -0.000000
    23  H    0.426779   0.004536  -0.004036  -0.000291   0.000012   0.000000
    24  H    0.413478  -0.017240  -0.001262   0.000403  -0.000009  -0.000000
    25  H    0.435429   0.007392   0.000759  -0.000511  -0.000030   0.000001
    26  H    0.004830   0.441182  -0.000363   0.000453  -0.002524  -0.000004
    27  H    0.004855   0.418128   0.000380   0.000459  -0.001661   0.000007
    28  H   -0.012762   0.431704  -0.000369  -0.001672   0.000332  -0.000000
    29  H    0.000453  -0.000363   0.441182   0.004830   0.000000   0.000000
    30  H    0.000459   0.000380   0.418128   0.004855   0.000000  -0.000000
    31  H   -0.001672  -0.000369   0.431704  -0.012762  -0.000000   0.000000
    32  H   -0.000290  -0.004037   0.004536   0.426781  -0.000014  -0.000001
    33  H    0.000404  -0.001262  -0.017241   0.413478  -0.000000  -0.000000
    34  H   -0.000512   0.000759   0.007392   0.435427   0.000000  -0.000000
              19         20         21         22         23         24
     1  C    0.035195  -0.002583  -0.001294   0.003925  -0.068347  -0.019729
     2  C   -0.011725   0.010911   0.002197  -0.001865  -0.010392   0.000658
     3  C    0.329318  -0.044981  -0.011276   0.014115   0.006193   0.000737
     4  C   -0.013962  -0.013964   0.034843   0.010144   0.019300  -0.000361
     5  C    0.003050   0.003049  -0.021125   0.109563   0.106689  -0.003770
     6  C    0.006217  -0.008121  -0.002374   0.006224  -0.123258   0.000875
     7  C   -0.044980   0.329317   0.045012   0.017891   0.014586  -0.001633
     8  C    0.010913  -0.011719   0.275817  -0.013323  -0.013197  -0.000200
     9  C   -0.002584   0.035195  -0.005453   0.216586   0.068180   0.007512
    10  C   -0.008122   0.006217   0.001711  -0.006014   0.006309   0.031481
    11  N    0.000175   0.000043   0.000044  -0.000039  -0.050062  -0.053322
    12  N    0.000043   0.000175  -0.001269  -0.036687  -0.019219  -0.002838
    13  C   -0.000041   0.000109   0.000011  -0.000827   0.426779   0.413478
    14  C    0.000279  -0.000038  -0.000001   0.000084   0.004536  -0.017240
    15  C   -0.000038   0.000279   0.000691  -0.007081  -0.004036  -0.001262
    16  C    0.000109  -0.000041  -0.000224  -0.003672  -0.000291   0.000403
    17  H   -0.000172   0.000000  -0.000000  -0.000000   0.000012  -0.000009
    18  H   -0.004231  -0.000008  -0.000000  -0.000000   0.000000  -0.000000
    19  H    0.570988   0.002709  -0.000008   0.000000  -0.000000   0.000000
    20  H    0.002709   0.570988  -0.004231  -0.000172  -0.000000  -0.000000
    21  H   -0.000008  -0.004231   0.562449  -0.004993  -0.000001  -0.000000
    22  H    0.000000  -0.000172  -0.004993   0.578057  -0.000014  -0.000000
    23  H   -0.000000  -0.000000  -0.000001  -0.000014   0.524548  -0.021949
    24  H    0.000000  -0.000000  -0.000000  -0.000000  -0.021949   0.569613
    25  H    0.000000   0.000000  -0.000000   0.000000  -0.031006  -0.044590
    26  H    0.000000  -0.000000   0.000000   0.000000  -0.000177   0.000284
    27  H    0.000000   0.000000  -0.000000   0.000000  -0.000091  -0.001563
    28  H   -0.000000   0.000000   0.000000  -0.000000   0.000308   0.003945
    29  H   -0.000000   0.000000  -0.000004  -0.002524   0.000246  -0.000052
    30  H    0.000000   0.000000   0.000007  -0.001661  -0.000029   0.000000
    31  H    0.000000  -0.000000  -0.000000   0.000332   0.000069   0.000115
    32  H   -0.000000  -0.000000   0.000000   0.000012  -0.000063   0.000128
    33  H   -0.000000   0.000000  -0.000000  -0.000009   0.000128   0.000261
    34  H    0.000000   0.000000   0.000001  -0.000030  -0.000023  -0.000014
              25         26         27         28         29         30
     1  C    0.109127   0.040320   0.098710  -0.073378   0.000752  -0.001974
     2  C   -0.000344   0.017672   0.027972  -0.018414   0.000105   0.000282
     3  C   -0.002080   0.002855   0.004107  -0.000219  -0.001183   0.000141
     4  C   -0.000435  -0.007251   0.003062   0.000043  -0.007251   0.003062
     5  C   -0.061030  -0.010392  -0.040175   0.026200  -0.010392  -0.040177
     6  C   -0.019282  -0.079804  -0.120034   0.079256  -0.001634  -0.010760
     7  C    0.000242  -0.001183   0.000141  -0.000035   0.002855   0.004107
     8  C    0.001912   0.000105   0.000282  -0.000093   0.017672   0.027973
     9  C   -0.019329   0.000752  -0.001974   0.001829   0.040322   0.098713
    10  C   -0.044568  -0.001633  -0.010761   0.004248  -0.079806  -0.120034
    11  N   -0.074842  -0.046247  -0.046629  -0.083472  -0.000096  -0.000345
    12  N    0.005063  -0.000096  -0.000345   0.000436  -0.046247  -0.046630
    13  C    0.435429   0.004830   0.004855  -0.012762   0.000453   0.000459
    14  C    0.007392   0.441182   0.418128   0.431704  -0.000363   0.000380
    15  C    0.000759  -0.000363   0.000380  -0.000369   0.441182   0.418128
    16  C   -0.000511   0.000453   0.000459  -0.001672   0.004830   0.004855
    17  H   -0.000030  -0.002524  -0.001661   0.000332   0.000000   0.000000
    18  H    0.000001  -0.000004   0.000007  -0.000000   0.000000  -0.000000
    19  H    0.000000   0.000000   0.000000  -0.000000  -0.000000   0.000000
    20  H    0.000000  -0.000000   0.000000   0.000000   0.000000   0.000000
    21  H   -0.000000   0.000000  -0.000000   0.000000  -0.000004   0.000007
    22  H    0.000000   0.000000   0.000000  -0.000000  -0.002524  -0.001661
    23  H   -0.031006  -0.000177  -0.000091   0.000308   0.000246  -0.000029
    24  H   -0.044590   0.000284  -0.001563   0.003945  -0.000052   0.000000
    25  H    0.600563  -0.000187   0.007657  -0.002528   0.000001   0.000000
    26  H   -0.000187   0.543755  -0.038793  -0.018883  -0.000000   0.000000
    27  H    0.007657  -0.038793   0.595078  -0.041086   0.000000  -0.000000
    28  H   -0.002528  -0.018883  -0.041086   0.559548   0.000000   0.000000
    29  H    0.000001  -0.000000   0.000000   0.000000   0.543755  -0.038793
    30  H    0.000000   0.000000  -0.000000   0.000000  -0.038793   0.595078
    31  H   -0.000001   0.000000   0.000000   0.000001  -0.018883  -0.041086
    32  H   -0.000023   0.000246  -0.000029   0.000069  -0.000177  -0.000091
    33  H   -0.000014  -0.000052   0.000000   0.000115   0.000284  -0.001563
    34  H    0.000001   0.000001   0.000000  -0.000001  -0.000187   0.007657
              31         32         33         34
     1  C    0.001829   0.068180   0.007511  -0.019329
     2  C   -0.000093  -0.013197  -0.000200   0.001912
     3  C   -0.000035   0.014585  -0.001633   0.000242
     4  C    0.000042   0.019298  -0.000362  -0.000434
     5  C    0.026200   0.106696  -0.003768  -0.061035
     6  C    0.004248   0.006307   0.031478  -0.044567
     7  C   -0.000219   0.006192   0.000737  -0.002080
     8  C   -0.018414  -0.010392   0.000658  -0.000345
     9  C   -0.073378  -0.068347  -0.019728   0.109128
    10  C    0.079256  -0.123262   0.000875  -0.019279
    11  N    0.000436  -0.019219  -0.002837   0.005063
    12  N   -0.083472  -0.050061  -0.053323  -0.074842
    13  C   -0.001672  -0.000290   0.000404  -0.000512
    14  C   -0.000369  -0.004037  -0.001262   0.000759
    15  C    0.431704   0.004536  -0.017241   0.007392
    16  C   -0.012762   0.426781   0.413478   0.435427
    17  H   -0.000000  -0.000014  -0.000000   0.000000
    18  H    0.000000  -0.000001  -0.000000  -0.000000
    19  H    0.000000  -0.000000  -0.000000   0.000000
    20  H   -0.000000  -0.000000   0.000000   0.000000
    21  H   -0.000000   0.000000  -0.000000   0.000001
    22  H    0.000332   0.000012  -0.000009  -0.000030
    23  H    0.000069  -0.000063   0.000128  -0.000023
    24  H    0.000115   0.000128   0.000261  -0.000014
    25  H   -0.000001  -0.000023  -0.000014   0.000001
    26  H    0.000000   0.000246  -0.000052   0.000001
    27  H    0.000000  -0.000029   0.000000   0.000000
    28  H    0.000001   0.000069   0.000115  -0.000001
    29  H   -0.018883  -0.000177   0.000284  -0.000187
    30  H   -0.041086  -0.000091  -0.001563   0.007657
    31  H    0.559548   0.000308   0.003945  -0.002528
    32  H    0.000308   0.524549  -0.021949  -0.031007
    33  H    0.003945  -0.021949   0.569613  -0.044590
    34  H   -0.002528  -0.031007  -0.044590   0.600563
 Mulliken charges:
               1
     1  C   -0.481961
     2  C   -0.271540
     3  C   -0.336247
     4  C    0.111593
     5  C    0.052955
     6  C    0.232562
     7  C   -0.336235
     8  C   -0.271559
     9  C   -0.481962
    10  C    0.232559
    11  N   -0.049536
    12  N   -0.049534
    13  C   -0.189303
    14  C   -0.242846
    15  C   -0.242846
    16  C   -0.189304
    17  H    0.121978
    18  H    0.129470
    19  H    0.126868
    20  H    0.126868
    21  H    0.129470
    22  H    0.121978
    23  H    0.164272
    24  H    0.139044
    25  H    0.132654
    26  H    0.155136
    27  H    0.142301
    28  H    0.144880
    29  H    0.155136
    30  H    0.142301
    31  H    0.144879
    32  H    0.164272
    33  H    0.139044
    34  H    0.132654
 Sum of Mulliken charges =  -0.00000
 Mulliken charges with hydrogens summed into heavy atoms:
               1
     1  C   -0.359983
     2  C   -0.142070
     3  C   -0.209379
     4  C    0.111593
     5  C    0.052955
     6  C    0.232562
     7  C   -0.209367
     8  C   -0.142089
     9  C   -0.359985
    10  C    0.232559
    11  N   -0.049536
    12  N   -0.049534
    13  C    0.246667
    14  C    0.199470
    15  C    0.199470
    16  C    0.246665
 Electronic spatial extent (au):  <R**2>=           3318.4597
 Charge=             -0.0000 electrons
 Dipole moment (field-independent basis, Debye):
    X=             -1.6248    Y=              0.0002    Z=             -0.0000  Tot=              1.6248
 Quadrupole moment (field-independent basis, Debye-Ang):
   XX=            -91.1249   YY=            -90.3806   ZZ=           -101.9138
   XY=              0.0001   XZ=              0.0002   YZ=              1.7225
 Traceless Quadrupole moment (field-independent basis, Debye-Ang):
   XX=              3.3482   YY=              4.0925   ZZ=             -7.4407
   XY=              0.0001   XZ=              0.0002   YZ=              1.7225
 Octapole moment (field-independent basis, Debye-Ang**2):
  XXX=             -4.6976  YYY=              0.0018  ZZZ=              0.0001  XYY=             -5.8686
  XXY=             -0.0007  XXZ=              0.0005  XZZ=            -15.8449  YZZ=              0.0015
  YYZ=             -0.0006  XYZ=              2.8675
 Hexadecapole moment (field-independent basis, Debye-Ang**3):
 XXXX=          -2007.8965 YYYY=          -2031.9956 ZZZZ=           -433.0144 XXXY=             -0.0024
 XXXZ=              0.0038 YYYX=             -0.0012 YYYZ=             32.1509 ZZZX=             -0.0005
 ZZZY=             -3.7706 XXYY=           -675.3355 XXZZ=           -452.6614 YYZZ=           -449.0696
 XXYZ=             12.9351 YYXZ=              0.0006 ZZXY=              0.0001
 N-N= 1.123718502910D+03 E-N=-3.761066035568D+03  KE= 6.473150889735D+02
 Calling FoFJK, ICntrl=      2127 FMM=F ISym2X=0 I1Cent= 0 IOpClX= 0 NMat=1 NMatS=1 NMatT=0.
 ***** Axes restored to original set *****
 -------------------------------------------------------------------
 Center     Atomic                   Forces (Hartrees/Bohr)
 Number     Number              X              Y              Z
 -------------------------------------------------------------------
      1        6          -0.003240000   -0.003555725   -0.001377722
      2        6           0.002269012   -0.004199166   -0.000877779
      3        6          -0.002357779    0.003706683    0.000501911
      4        6          -0.004196241    0.000000073    0.000000154
      5        6           0.004100064   -0.000000286   -0.000000163
      6        6           0.003977503    0.003391739    0.001114956
      7        6          -0.002357646   -0.003707928   -0.000502097
      8        6           0.002268802    0.004200104    0.000877924
      9        6          -0.003241328    0.003555250    0.001377821
     10        6           0.003977668   -0.003390465   -0.001115015
     11        7          -0.000466141   -0.000170610    0.000063715
     12        7          -0.000465202    0.000171538   -0.000063663
     13        6           0.000336706   -0.000522343   -0.000687914
     14        6          -0.000916464    0.000399240    0.000519308
     15        6          -0.000916753   -0.000398989   -0.000518741
     16        6           0.000335971    0.000522337    0.000688122
     17        1           0.000791484   -0.001130380    0.000078608
     18        1          -0.000394287   -0.000860698   -0.000144511
     19        1          -0.000876053    0.000141078    0.000093245
     20        1          -0.000875915   -0.000141225   -0.000093257
     21        1          -0.000394452    0.000860744    0.000144514
     22        1           0.000791440    0.001130338   -0.000078705
     23        1          -0.000834472    0.000684580    0.000054503
     24        1           0.000906957   -0.000064312    0.000220957
     25        1           0.000064051   -0.000436210    0.000895968
     26        1          -0.000259554   -0.000273901   -0.000722644
     27        1           0.000184830   -0.001147614    0.000444204
     28        1           0.000862957   -0.000003241    0.000135495
     29        1          -0.000259569    0.000273575    0.000722250
     30        1           0.000184502    0.001147515   -0.000444207
     31        1           0.000862880    0.000003045   -0.000135654
     32        1          -0.000834212   -0.000685277   -0.000054656
     33        1           0.000907193    0.000064464   -0.000220945
     34        1           0.000064046    0.000436064   -0.000895985
 -------------------------------------------------------------------
 Cartesian Forces:  Max     0.004200104 RMS     0.001571461

 GradGradGradGradGradGradGradGradGradGradGradGradGradGradGradGradGradGrad
 Berny optimization.
 FormGI is forming the generalized inverse of G from B-inverse, IUseBI=4.
 Internal  Forces:  Max     0.006272918 RMS     0.001240960
 Search for a local minimum.
 Step number   1 out of a maximum of  181
 All quantities printed in internal units (Hartrees-Bohrs-Radians)
 Mixed Optimization -- RFO/linear search
 Second derivative matrix not updated -- first step.
 ITU=  0
     Eigenvalues ---    0.00939   0.00939   0.01072   0.01072   0.01555
     Eigenvalues ---    0.01583   0.01583   0.01639   0.01705   0.01766
     Eigenvalues ---    0.01768   0.01926   0.01962   0.02086   0.02091
     Eigenvalues ---    0.02130   0.02145   0.02186   0.02186   0.02190
     Eigenvalues ---    0.02200   0.02288   0.02294   0.07135   0.07135
     Eigenvalues ---    0.07345   0.07345   0.07502   0.07502   0.07705
     Eigenvalues ---    0.07705   0.15953   0.15953   0.15974   0.15975
     Eigenvalues ---    0.16000   0.16000   0.16000   0.16000   0.16000
     Eigenvalues ---    0.16000   0.16000   0.16000   0.16000   0.16000
     Eigenvalues ---    0.16000   0.16000   0.16000   0.16000   0.19429
     Eigenvalues ---    0.19429   0.21341   0.21341   0.22050   0.22119
     Eigenvalues ---    0.23115   0.23617   0.24660   0.24848   0.24997
     Eigenvalues ---    0.24997   0.33036   0.33036   0.33169   0.33169
     Eigenvalues ---    0.34199   0.34199   0.34224   0.34224   0.34391
     Eigenvalues ---    0.34391   0.34998   0.34998   0.35185   0.35185
     Eigenvalues ---    0.35197   0.35197   0.35508   0.35508   0.35849
     Eigenvalues ---    0.37268   0.37358   0.37358   0.37374   0.38658
     Eigenvalues ---    0.38658   0.41011   0.41281   0.43352   0.43500
     Eigenvalues ---    0.44279   0.44279   0.46160   0.46247   0.49445
     Eigenvalues ---    0.49549
 RFO step:  Lambda=-9.76368310D-04 EMin= 9.39423649D-03
 Linear search not attempted -- first point.
 Iteration  1 RMS(Cart)=  0.06281631 RMS(Int)=  0.00053682
 Iteration  2 RMS(Cart)=  0.00117725 RMS(Int)=  0.00002431
 Iteration  3 RMS(Cart)=  0.00000046 RMS(Int)=  0.00002431
 Variable       Old X    -DE/DX   Delta X   Delta X   Delta X     New X
                                 (Linear)    (Quad)   (Total)
    R1        2.66005  -0.00031   0.00000  -0.00092  -0.00089   2.65916
    R2        2.62728  -0.00596   0.00000  -0.01268  -0.01267   2.61461
    R3        2.04859  -0.00136   0.00000  -0.00383  -0.00383   2.04475
    R4        2.59135  -0.00517   0.00000  -0.01029  -0.01027   2.58108
    R5        2.05376  -0.00095   0.00000  -0.00270  -0.00270   2.05106
    R6        2.68233  -0.00123   0.00000  -0.00278  -0.00279   2.67954
    R7        2.05356  -0.00088   0.00000  -0.00249  -0.00249   2.05107
    R8        2.71719  -0.00627   0.00000  -0.01518  -0.01524   2.70195
    R9        2.68233  -0.00123   0.00000  -0.00278  -0.00279   2.67954
   R10        2.73854  -0.00343   0.00000  -0.00875  -0.00877   2.72976
   R11        2.73854  -0.00343   0.00000  -0.00875  -0.00877   2.72976
   R12        2.66122  -0.00016   0.00000  -0.00037  -0.00037   2.66085
   R13        2.59136  -0.00517   0.00000  -0.01029  -0.01028   2.58108
   R14        2.05356  -0.00088   0.00000  -0.00249  -0.00249   2.05107
   R15        2.66005  -0.00031   0.00000  -0.00092  -0.00089   2.65916
   R16        2.05376  -0.00095   0.00000  -0.00270  -0.00270   2.05106
   R17        2.62728  -0.00596   0.00000  -0.01268  -0.01267   2.61461
   R18        2.04859  -0.00136   0.00000  -0.00383  -0.00383   2.04475
   R19        2.66122  -0.00017   0.00000  -0.00037  -0.00037   2.66085
   R20        2.75310  -0.00046   0.00000  -0.00123  -0.00123   2.75187
   R21        2.73419  -0.00072   0.00000  -0.00185  -0.00185   2.73234
   R22        2.73419  -0.00072   0.00000  -0.00185  -0.00185   2.73234
   R23        2.75310  -0.00046   0.00000  -0.00123  -0.00123   2.75187
   R24        2.05678  -0.00100   0.00000  -0.00285  -0.00285   2.05392
   R25        2.06996  -0.00086   0.00000  -0.00250  -0.00250   2.06746
   R26        2.08757  -0.00093   0.00000  -0.00279  -0.00279   2.08477
   R27        2.06675  -0.00081   0.00000  -0.00234  -0.00234   2.06441
   R28        2.08989  -0.00111   0.00000  -0.00335  -0.00335   2.08654
   R29        2.06954  -0.00086   0.00000  -0.00250  -0.00250   2.06703
   R30        2.06675  -0.00081   0.00000  -0.00234  -0.00234   2.06441
   R31        2.08989  -0.00111   0.00000  -0.00335  -0.00335   2.08654
   R32        2.06954  -0.00086   0.00000  -0.00250  -0.00250   2.06703
   R33        2.05678  -0.00100   0.00000  -0.00285  -0.00285   2.05392
   R34        2.06996  -0.00086   0.00000  -0.00250  -0.00250   2.06746
   R35        2.08757  -0.00093   0.00000  -0.00279  -0.00279   2.08477
    A1        2.12922  -0.00069   0.00000  -0.00253  -0.00256   2.12665
    A2        2.06579   0.00016   0.00000   0.00036   0.00035   2.06614
    A3        2.08602   0.00055   0.00000   0.00279   0.00279   2.08880
    A4        2.09241   0.00038   0.00000   0.00226   0.00222   2.09464
    A5        2.08344  -0.00008   0.00000  -0.00013  -0.00015   2.08329
    A6        2.10534  -0.00028   0.00000  -0.00138  -0.00140   2.10395
    A7        2.10073  -0.00036   0.00000  -0.00061  -0.00066   2.10006
    A8        2.11194   0.00005   0.00000  -0.00050  -0.00048   2.11147
    A9        2.07050   0.00031   0.00000   0.00111   0.00114   2.07164
   A10        2.10240  -0.00065   0.00000  -0.00181  -0.00186   2.10054
   A11        2.07839   0.00131   0.00000   0.00362   0.00372   2.08211
   A12        2.10240  -0.00065   0.00000  -0.00181  -0.00186   2.10054
   A13        2.04473   0.00140   0.00000   0.00639   0.00634   2.05107
   A14        2.04473   0.00140   0.00000   0.00640   0.00634   2.05107
   A15        2.19372  -0.00279   0.00000  -0.01279  -0.01268   2.18104
   A16        2.07736   0.00004   0.00000   0.00127   0.00117   2.07853
   A17        2.09694   0.00256   0.00000   0.00973   0.00974   2.10668
   A18        2.10879  -0.00260   0.00000  -0.01083  -0.01082   2.09797
   A19        2.10073  -0.00036   0.00000  -0.00061  -0.00066   2.10006
   A20        2.07050   0.00031   0.00000   0.00111   0.00114   2.07164
   A21        2.11194   0.00005   0.00000  -0.00050  -0.00048   2.11147
   A22        2.09241   0.00038   0.00000   0.00226   0.00222   2.09464
   A23        2.10535  -0.00028   0.00000  -0.00138  -0.00140   2.10395
   A24        2.08344  -0.00008   0.00000  -0.00013  -0.00015   2.08329
   A25        2.12922  -0.00069   0.00000  -0.00253  -0.00256   2.12665
   A26        2.06579   0.00016   0.00000   0.00035   0.00035   2.06614
   A27        2.08601   0.00055   0.00000   0.00279   0.00279   2.08880
   A28        2.07736   0.00004   0.00000   0.00127   0.00117   2.07853
   A29        2.10879  -0.00260   0.00000  -0.01082  -0.01081   2.09797
   A30        2.09694   0.00256   0.00000   0.00973   0.00974   2.10668
   A31        2.02665  -0.00047   0.00000  -0.00046  -0.00048   2.02617
   A32        2.05723   0.00048   0.00000   0.00444   0.00443   2.06166
   A33        1.94906   0.00014   0.00000   0.00249   0.00248   1.95153
   A34        2.05723   0.00048   0.00000   0.00444   0.00443   2.06166
   A35        2.02665  -0.00047   0.00000  -0.00046  -0.00048   2.02617
   A36        1.94906   0.00014   0.00000   0.00249   0.00247   1.95153
   A37        1.93108   0.00062   0.00000   0.00390   0.00391   1.93498
   A38        1.91673  -0.00028   0.00000  -0.00210  -0.00210   1.91463
   A39        1.94043  -0.00052   0.00000  -0.00292  -0.00292   1.93751
   A40        1.88710  -0.00027   0.00000  -0.00225  -0.00224   1.88486
   A41        1.89330   0.00006   0.00000   0.00104   0.00104   1.89434
   A42        1.89394   0.00040   0.00000   0.00235   0.00235   1.89628
   A43        1.92737   0.00013   0.00000   0.00074   0.00074   1.92811
   A44        1.98550  -0.00078   0.00000  -0.00500  -0.00500   1.98050
   A45        1.89317   0.00001   0.00000   0.00024   0.00024   1.89342
   A46        1.89389   0.00029   0.00000   0.00144   0.00144   1.89533
   A47        1.88724  -0.00002   0.00000   0.00017   0.00017   1.88741
   A48        1.87367   0.00041   0.00000   0.00265   0.00265   1.87632
   A49        1.92737   0.00013   0.00000   0.00074   0.00074   1.92811
   A50        1.98550  -0.00078   0.00000  -0.00500  -0.00500   1.98050
   A51        1.89317   0.00001   0.00000   0.00025   0.00025   1.89342
   A52        1.89389   0.00029   0.00000   0.00144   0.00144   1.89533
   A53        1.88724  -0.00002   0.00000   0.00017   0.00017   1.88741
   A54        1.87368   0.00041   0.00000   0.00265   0.00265   1.87632
   A55        1.93108   0.00062   0.00000   0.00390   0.00390   1.93499
   A56        1.91673  -0.00028   0.00000  -0.00210  -0.00210   1.91463
   A57        1.94043  -0.00052   0.00000  -0.00292  -0.00293   1.93751
   A58        1.88710  -0.00027   0.00000  -0.00224  -0.00224   1.88486
   A59        1.89330   0.00006   0.00000   0.00104   0.00104   1.89434
   A60        1.89394   0.00040   0.00000   0.00235   0.00235   1.89628
    D1        0.06095  -0.00018   0.00000  -0.00760  -0.00761   0.05335
    D2        3.13526   0.00011   0.00000   0.00497   0.00497   3.14023
    D3       -3.00965  -0.00039   0.00000  -0.01792  -0.01792  -3.02757
    D4        0.06466  -0.00010   0.00000  -0.00535  -0.00534   0.05931
    D5        0.08980  -0.00030   0.00000  -0.01204  -0.01200   0.07780
    D6       -3.03662  -0.00051   0.00000  -0.02521  -0.02525  -3.06187
    D7       -3.12358  -0.00010   0.00000  -0.00171  -0.00166  -3.12524
    D8        0.03319  -0.00031   0.00000  -0.01488  -0.01491   0.01827
    D9       -0.08877   0.00028   0.00000   0.01178   0.01178  -0.07699
   D10        3.05873   0.00029   0.00000   0.01221   0.01220   3.07093
   D11        3.12097  -0.00002   0.00000  -0.00100  -0.00100   3.11997
   D12       -0.01471  -0.00001   0.00000  -0.00058  -0.00058  -0.01529
   D13       -0.03441   0.00007   0.00000   0.00365   0.00364  -0.03077
   D14        3.10719   0.00007   0.00000   0.00364   0.00364   3.11082
   D15        3.10141   0.00006   0.00000   0.00323   0.00322   3.10464
   D16       -0.04018   0.00006   0.00000   0.00323   0.00322  -0.03696
   D17        0.17915  -0.00038   0.00000  -0.02202  -0.02204   0.15712
   D18       -2.96244  -0.00038   0.00000  -0.02203  -0.02204  -2.98448
   D19       -2.96244  -0.00038   0.00000  -0.02202  -0.02203  -2.98447
   D20        0.17915  -0.00038   0.00000  -0.02203  -0.02204   0.15712
   D21        3.10719   0.00007   0.00000   0.00365   0.00365   3.11083
   D22       -0.04018   0.00006   0.00000   0.00323   0.00323  -0.03695
   D23       -0.03441   0.00007   0.00000   0.00365   0.00364  -0.03076
   D24        3.10141   0.00006   0.00000   0.00323   0.00322   3.10464
   D25       -0.20434   0.00039   0.00000   0.02555   0.02560  -0.17875
   D26        2.92196   0.00065   0.00000   0.03900   0.03896   2.96093
   D27        2.93725   0.00039   0.00000   0.02556   0.02560   2.96285
   D28       -0.21963   0.00065   0.00000   0.03901   0.03897  -0.18066
   D29       -0.20434   0.00039   0.00000   0.02555   0.02559  -0.17875
   D30        2.92196   0.00065   0.00000   0.03900   0.03897   2.96093
   D31        2.93725   0.00039   0.00000   0.02555   0.02559   2.96284
   D32       -0.21963   0.00065   0.00000   0.03899   0.03896  -0.18067
   D33        2.07134   0.00004   0.00000  -0.00049  -0.00050   2.07085
   D34       -0.30983  -0.00021   0.00000  -0.00977  -0.00977  -0.31960
   D35       -1.05479  -0.00019   0.00000  -0.01401  -0.01400  -1.06880
   D36        2.84722  -0.00044   0.00000  -0.02328  -0.02328   2.82394
   D37       -0.08877   0.00028   0.00000   0.01178   0.01178  -0.07699
   D38        3.12097  -0.00002   0.00000  -0.00100  -0.00100   3.11996
   D39        3.05873   0.00029   0.00000   0.01221   0.01220   3.07093
   D40       -0.01471  -0.00001   0.00000  -0.00058  -0.00058  -0.01529
   D41        0.06095  -0.00018   0.00000  -0.00761  -0.00761   0.05334
   D42       -3.00965  -0.00039   0.00000  -0.01792  -0.01792  -3.02757
   D43        3.13526   0.00011   0.00000   0.00497   0.00497   3.14022
   D44        0.06466  -0.00010   0.00000  -0.00535  -0.00534   0.05931
   D45        0.08980  -0.00030   0.00000  -0.01204  -0.01200   0.07780
   D46       -3.03662  -0.00051   0.00000  -0.02521  -0.02525  -3.06187
   D47       -3.12358  -0.00010   0.00000  -0.00170  -0.00166  -3.12524
   D48        0.03319  -0.00031   0.00000  -0.01488  -0.01491   0.01827
   D49        2.84723  -0.00044   0.00000  -0.02331  -0.02330   2.82392
   D50       -1.05478  -0.00019   0.00000  -0.01404  -0.01404  -1.06882
[...]
 06234010,-0.05067759,-0.00426909,-0.00409864,-0.00064400,-0.00000470,-
 0.00000533,-0.00001354,0.00000213,-0.00000214,-0.00000076,-0.00000059,
 0.00000451,-0.00000206,-0.00000817,-0.00000872,-0.00001469,-0.00000458
 ,0.00000778,-0.00000927,0.00018193,-0.00006944,0.00021269,-0.00024499,
 -0.00006648,0.00005160,0.00008780,-0.00004935,-0.00003112,-0.00000716,
 0.00010264,0.00007464,0.00000439,0.00005232,0.00003061,-0.00000646,-0.
 00001379,0.00000789,0.00000698,0.00000402,-0.00002706,-0.01353241,0.07
 196291,-0.00004520,-0.00006404,-0.00002868,0.00011069,0.00002988,0.000
 02769,-0.00006031,0.00006881,-0.00001595,0.00012335,-0.00006922,-0.000
 04674,-0.00043576,-0.00024569,0.00006096,0.00023894,0.00018338,0.00005
 196,-0.00004559,0.00012721,-0.00003086,0.00003869,0.00029894,0.0001637
 6,0.00000973,-0.00030211,0.00057547,0.00215885,-0.00018864,0.00016185,
 -0.00018236,-0.00010164,0.00022730,0.00079136,-0.00471277,-0.00774877,
 -0.00005438,-0.00011787,-0.00004600,0.00000703,0.00002996,-0.00001600,
 0.06515804,-0.05722330,-0.28880358,-0.00240654,-0.00169586,0.00044676,
 0.00000005,0.00001003,-0.00000532,-0.00000279,-0.00000199,0.00000319,-
 0.00000060,0.00000047,-0.00000745,0.00002651,0.00003666,0.00000055,-0.
 00003057,0.00000002,-0.00000672,-0.00023610,0.00072948,-0.00046562,-0.
 00000560,-0.00018885,0.00001275,0.00002396,-0.00001346,-0.00002022,0.0
 0000708,-0.00001977,0.00000816,0.00001114,0.00003061,0.00000376,-0.000
 00195,-0.00000847,0.00001431,-0.00000753,0.00001202,-0.00001795,-0.071
 57422,0.06601397,0.31029073,-0.00014034,-0.00005351,0.00001075,0.00011
 451,-0.00005189,-0.00000553,-0.00005968,0.00013195,0.00005715,0.000343
 92,-0.00045903,-0.00017667,-0.00073373,-0.00036231,-0.00061904,0.00013
 148,0.00036429,0.00005767,0.00015907,0.00055091,0.00005382,-0.00050899
 ,-0.00010995,-0.00056802,0.00043376,0.00048846,0.00064181,0.00235836,-
 0.00108815,0.00046708,0.00009598,-0.00034689,0.00013864,0.00399674,-0.
 01795225,0.01066834,-0.00024785,-0.00003644,-0.00016667,-0.00008501,0.
 00000135,0.00006196,-0.06315168,0.03992501,-0.03311899,-0.00022232,0.0
 0042452,0.00140138,-0.00000112,-0.00000069,-0.00000505,0.00000306,0.00
 000307,-0.00000581,-0.00001286,-0.00000952,0.00000062,-0.00000021,0.00
 000889,0.00011210,-0.00001096,-0.00000264,0.00004233,-0.00227506,-0.00
 037238,0.00132246,-0.00002824,0.00003052,-0.00002354,0.00010817,-0.000
 06825,0.00001166,0.00006740,-0.00000061,0.00000726,0.00000734,0.000006
 46,0.00000195,0.00002232,-0.00004402,-0.00000373,0.00001909,-0.0000093
 7,-0.00000975,0.00165059,-0.00686474,0.00587316,0.06472396,0.00001310,
 -0.00016751,-0.00006465,0.00007888,0.00004487,0.00002656,-0.00013181,0
 .00003657,-0.00000963,0.00008051,-0.00014951,-0.00018286,-0.00127323,-
 0.00021596,-0.00009745,0.00049461,0.00051290,0.00000063,-0.00029653,-0
 .00010000,0.00007469,0.00030793,0.00055518,0.00013898,-0.00130028,0.00
 049130,0.00034277,0.00739180,-0.00039435,-0.00110097,-0.00004928,-0.00
 087324,0.00009934,-0.00779749,-0.03722687,0.00864278,-0.00007595,0.000
 15761,-0.00037455,-0.00020174,0.00007029,0.00020694,0.04071906,-0.1811
 1011,0.10899252,-0.00113616,0.00075659,0.00555153,0.00000318,-0.000015
 96,0.00001105,-0.00001400,-0.00002548,-0.00000013,-0.00003547,-0.00001
 764,-0.00001253,0.00000719,0.00003734,-0.00000026,-0.00011513,0.000028
 11,-0.00003902,-0.00026511,0.00079562,0.00020018,-0.00002027,0.0000041
 5,-0.00016998,0.00003467,0.00000991,-0.00002584,0.00001360,-0.00011411
 ,0.00001607,-0.00000680,-0.00001379,-0.00000846,0.00004405,-0.00014539
 ,0.00000352,0.00003569,0.00000638,-0.00000076,-0.00117226,0.00699509,-
 0.00385472,-0.03868996,0.21348026,0.00004390,0.00005465,0.00004643,-0.
 00005519,-0.00003576,-0.00001559,0.00004383,-0.00000574,0.00002257,-0.
 00001469,-0.00005630,-0.00002635,0.00015232,-0.00004202,-0.00025495,-0
 .00025628,-0.00005335,0.00000304,0.00001388,0.00007438,0.00000445,-0.0
 0015762,-0.00054772,-0.00014691,0.00032187,0.00145545,-0.00050271,-0.0
 0104944,-0.00022166,0.00084356,0.00014817,-0.00001103,0.00020370,0.005
 90429,-0.00728688,0.00891576,-0.00003717,-0.00028714,-0.00004477,0.000
 06023,-0.00000021,0.00003226,-0.03217992,0.10681813,-0.14246012,0.0000
 9067,-0.00203102,0.00389259,-0.00000421,-0.00000918,-0.00000548,0.0000
 0664,0.00000674,-0.00000522,0.00000265,0.00000057,-0.00000066,-0.00002
 935,-0.00005008,0.00001308,0.00004836,0.00000777,-0.00001286,0.0002634
 4,-0.00054318,0.00015897,-0.00014546,-0.00016261,0.00004958,0.00008772
 ,-0.00006782,0.00000009,0.00001283,0.00008060,0.00003180,-0.00000449,0
 .00000788,0.00001430,0.00000373,0.00000353,-0.00001878,0.00001679,-0.0
 0001612,-0.00000625,-0.00788114,0.02265375,-0.01707617,0.03491638,-0.1
 2058518,0.14537372,0.00019009,-0.00004218,0.00006344,-0.00010719,0.000
 00752,-0.00000730,0.00002268,-0.00006451,0.00000228,-0.00012117,-0.000
 03745,0.00014745,-0.00048214,0.00027937,-0.00014355,-0.00043922,0.0001
 4729,-0.00013043,-0.00022816,-0.00017530,-0.00000603,0.00030965,-0.000
 03463,-0.00018218,-0.00008853,0.00009236,0.00021917,0.00096953,-0.0011
 3297,-0.00296798,0.00043079,-0.00006277,0.00013743,-0.01914427,-0.0051
 0142,0.00210353,-0.00036220,-0.00016358,-0.00012215,-0.00005965,0.0000
 4882,0.00008408,-0.30400480,0.04912976,0.00838412,0.00068166,0.0009692
 9,0.00156917,-0.00000871,-0.00003693,0.00000197,-0.00000065,-0.0000172
 1,-0.00000694,-0.00002093,-0.00001737,-0.00000251,-0.00002369,-0.00002
 836,0.00002191,-0.00004933,0.00002499,-0.00000647,0.00002214,-0.000229
 10,0.00019186,-0.00006555,-0.00000944,-0.00006613,0.00017125,-0.000122
 01,0.00003103,0.00008255,-0.00002157,0.00002727,-0.00001299,-0.0000069
 9,0.00000753,0.00001910,-0.00003568,-0.00001679,0.00005879,-0.00002377
 ,0.00000329,-0.00509076,0.00148064,-0.00000633,-0.00644649,0.00283199,
 0.00023995,0.33307033,0.00005238,-0.00007440,0.00001846,0.00003763,0.0
 0000499,0.00001063,-0.00005410,0.00006778,0.00000159,0.00007758,-0.000
 33019,0.00018632,-0.00127395,0.00011719,0.00016378,-0.00031780,0.00029
 432,-0.00009282,-0.00009784,0.00011008,-0.00003752,-0.00001296,0.00038
 435,0.00011824,0.00017968,-0.00104623,0.00030910,-0.00074179,-0.003927
 15,-0.00355541,0.00026906,0.00009458,-0.00003769,-0.03717530,-0.000817
 87,0.00106926,-0.00024718,-0.00000965,-0.00009633,0.00000948,-0.000042
 71,0.00003057,0.05669460,-0.05752945,-0.00250826,-0.00181667,0.0009679
 6,0.00057046,-0.00001009,-0.00001679,-0.00000586,0.00000475,-0.0000051
 8,-0.00000103,-0.00001462,-0.00002428,0.00000183,0.00002550,0.00004500
 ,0.00000549,-0.00004882,-0.00000356,0.00001165,0.00021929,0.00078864,-
 0.00002644,-0.00006621,0.00000453,-0.00001243,0.00015211,-0.00008872,0
 .00006405,0.00010687,0.00006472,0.00001277,0.00000074,0.00000402,0.000
 01202,0.00000938,0.00000638,-0.00001613,0.00002378,-0.00002830,-0.0000
 0429,0.00609551,-0.00156957,0.00108830,0.02402657,-0.00412335,-0.00146
 176,-0.04719474,0.06731830,-0.00017960,-0.00007530,-0.00002666,0.00013
 176,-0.00006870,0.00000561,-0.00002778,0.00014288,-0.00000209,0.000296
 88,-0.00036535,0.00002514,-0.00054332,-0.00041199,0.00022805,-0.000004
 02,0.00019311,0.00000989,0.00005236,0.00045598,-0.00005498,-0.00047316
 ,-0.00018029,0.00022759,0.00082551,0.00004175,0.00071014,0.00027349,-0
 .00110363,-0.00079218,-0.00004671,0.00000120,-0.00018716,-0.01028259,-
 0.00106024,0.00023231,0.00022209,0.00004016,0.00013744,-0.00002648,0.0
 0000256,0.00000306,0.01113312,-0.00207338,-0.05131272,-0.00194319,0.00
 024551,0.00030544,-0.00000139,0.00000040,-0.00000132,0.00000053,0.0000
 0066,0.00000254,-0.00000227,-0.00000728,-0.00000004,0.00000236,0.00001
 466,-0.00001485,0.00000152,-0.00001324,0.00003500,0.00026359,0.0002150
 9,-0.00051864,0.00010603,-0.00000852,-0.00001288,-0.00014701,0.0001149
 6,0.00001739,-0.00007312,-0.00003550,-0.00003012,-0.00000957,-0.000027
 07,-0.00001796,0.00000975,-0.00000076,-0.00000626,-0.00000329,-0.00000
 430,0.00002337,0.02919901,-0.00497248,0.00212881,-0.02052653,0.0049584
 3,0.00076357,-0.00854667,0.00422816,0.04816199,-0.00055350,-0.00018152
 ,-0.00036181,0.00030876,-0.00019680,-0.00008022,-0.00000041,0.00032777
 ,0.00010222,0.00005459,-0.00020579,-0.00010800,-0.00093592,-0.00019790
 ,0.00117509,0.00140061,-0.00066020,0.00143608,-0.00004741,0.00033031,-
 0.00001232,-0.00031768,-0.00016814,0.00011808,0.00041939,-0.00029357,-
 0.00002778,0.00020960,0.00168137,0.00079208,-0.00126644,-0.00096801,0.
 00191879,0.00589276,0.01126086,0.00456235,-0.00029407,-0.00008694,-0.0
 0039239,-0.00017130,0.00039024,-0.00030708,-0.00098760,0.00080332,0.00
 186692,-0.13060497,-0.12518095,-0.04399715,0.00003275,0.00006095,0.000
 01021,0.00000289,0.00000561,0.00002028,0.00001275,0.00001110,0.0000311
 8,0.00001130,0.00000658,-0.00001512,0.00000840,-0.00001116,-0.00000484
 ,0.00002129,-0.00000898,-0.00006397,-0.00004900,0.00005413,0.00007532,
 0.00010538,-0.00000223,-0.00001083,0.00009620,0.00005092,0.00010877,0.
 00014698,0.00024511,0.00000560,-0.00002825,0.00002026,0.00014556,-0.00
 006560,0.00006634,-0.00010616,0.00069525,0.00036967,0.00033197,-0.0000
 4303,-0.00016895,-0.00002268,0.00057320,-0.00001824,0.00008657,0.13610
 708,0.00010795,0.00018151,-0.00016509,-0.00015468,-0.00007307,-0.00007
 981,0.00016707,-0.00001392,0.00007747,0.00053729,-0.00009439,0.0000244
 7,-0.00007681,0.00016403,0.00066737,-0.00123222,-0.00031951,0.00144520
 ,0.00002852,0.00030054,0.00000097,-0.00037955,-0.00010685,-0.00004049,
 0.00051660,-0.00054581,0.00002762,-0.00174140,0.00035848,0.00018440,-0
 .00016444,-0.00169142,0.00250845,-0.00379341,-0.00930933,-0.00395215,0
 .00012143,-0.00006481,0.00009469,-0.00001533,0.00013112,0.00039767,0.0
 0193466,0.00018121,-0.00210524,-0.12048927,-0.23157883,-0.06812848,-0.
 00000453,-0.00003556,0.00000750,0.00001155,0.00000648,-0.00000291,-0.0
 0000092,-0.00001277,-0.00000241,-0.00000029,0.00001518,-0.00000982,-0.
 00000404,-0.00000839,-0.00000118,-0.00005396,0.00007498,-0.00001466,-0
 .00005414,-0.00002445,-0.00001088,0.00000387,-0.00002691,-0.00000192,0
 .00002584,0.00003453,0.00007165,-0.00001693,-0.00006637,-0.00018914,-0
 .00003056,0.00000417,-0.00016269,0.00000942,0.00000455,-0.00000856,-0.
 00046259,-0.00033054,-0.00023295,-0.00004117,0.00028927,0.00021435,-0.
 00011833,0.00006583,0.00018884,0.13236612,0.25028528,-0.00001667,-0.00
 012290,-0.00018064,-0.00004440,0.00009339,0.00004702,-0.00021014,-0.00
 012505,-0.00006307,0.00046545,-0.00000463,0.00010477,0.00039602,-0.000
 17942,-0.00027061,0.00230027,0.00144097,-0.00122454,0.00002974,0.00026
 905,-0.00001999,-0.00031484,-0.00008135,-0.00012523,0.00051355,-0.0000
 5974,-0.00006900,-0.00212821,-0.00114374,0.00075121,-0.00050471,0.0006
 8370,-0.00038995,-0.01722460,-0.02681276,-0.01203351,-0.00022201,-0.00
 030207,-0.00056889,-0.00023847,0.00060862,0.00010188,0.00330951,-0.000
 64598,-0.00507487,-0.03516310,-0.05825652,-0.06880614,0.00000651,-0.00
 001092,-0.00001956,-0.00003081,-0.00001734,0.00001020,-0.00002022,0.00
 000329,-0.00000155,-0.00001741,0.00002217,0.00003134,0.00001577,0.0000
 0772,0.00000900,-0.00008283,0.00009479,0.00000741,-0.00007530,-0.00001
 090,0.00010343,0.00015063,-0.00000938,0.00005826,0.00007042,0.00005520
 ,0.00020157,-0.00001255,0.00005149,0.00001274,0.00002358,-0.00017001,0
 .00004958,0.00006616,-0.00001239,-0.00001291,-0.00065440,-0.00181150,-
 0.00042883,0.00009512,-0.00050354,0.00008215,0.00006842,0.00034226,0.0
 0005387,0.03898853,0.07098859,0.08083085,0.00039910,0.00011269,0.00018
 069,-0.00020230,0.00001679,0.00002284,0.00010860,-0.00012393,-0.000011
 90,0.00012184,0.00004266,0.00005735,0.00018585,0.00017152,-0.00014698,
 -0.00118164,0.00028300,-0.00030946,-0.00013010,-0.00003678,0.00001935,
 0.00006540,0.00021099,-0.00009833,-0.00068975,-0.00037951,0.00053447,0
 .00163960,0.00310421,0.00070357,0.00137204,0.00039750,-0.00064156,-0.0
 1127506,0.00073109,0.00693565,-0.00015487,-0.00021256,0.00042963,-0.00
 014983,-0.00016542,0.00012657,0.00014464,-0.00103358,-0.00090345,-0.29
 513694,0.06421087,-0.02182868,-0.00002089,-0.00006409,-0.00001718,0.00
 000307,-0.00001115,-0.00001161,-0.00001706,-0.00001395,-0.00001432,-0.
 00001990,-0.00001203,0.00000505,-0.00009730,0.00001862,-0.00003756,0.0
 0005703,0.00005153,0.00001494,0.00010535,-0.00000381,-0.00015062,-0.00
 002234,-0.00001187,0.00017445,0.00000385,-0.00006291,-0.00002533,-0.00
 011965,-0.00008786,-0.00002397,0.00010818,-0.00003465,-0.00008772,0.00
 017119,-0.00015198,0.00014701,0.00055585,-0.00003252,0.00012405,-0.000
 22591,0.00040037,-0.00018279,0.00043239,0.00061502,0.00027826,-0.01383
 425,0.00500595,-0.00169835,0.32022475,0.00025002,0.00015610,0.00018226
 ,-0.00013547,0.00006243,0.00000457,0.00001386,-0.00012424,-0.00003488,
 0.00018921,0.00002170,0.00006113,-0.00015703,0.00006612,0.00024861,-0.
 00078882,0.00014152,-0.00020428,0.00000518,-0.00000760,0.00000385,-0.0
 0000116,-0.00008631,0.00004222,0.00032811,0.00025117,-0.00001191,-0.00
 042470,-0.00141953,-0.00080975,0.00077520,0.00054289,-0.00070731,0.009
 35440,-0.00152485,-0.00451625,0.00005302,-0.00000238,0.00022917,-0.000
 08502,-0.00019113,0.00005109,0.00212600,0.00036878,0.00031035,0.063661
 39,-0.06702921,0.00625096,-0.00001536,-0.00002165,-0.00001038,0.000003
 33,0.00000508,-0.00000635,0.00000028,-0.00000679,-0.00000531,0.0000016
 0,0.00000707,-0.00000215,0.00003588,0.00000156,-0.00002486,0.00000257,
 -0.00000970,0.00003858,0.00000228,-0.00002690,-0.00000946,0.00001181,-
 0.00003213,0.00008809,-0.00000278,0.00003550,-0.00002792,-0.00006919,-
 0.00004938,-0.00001346,0.00006829,0.00000991,-0.00006785,0.00012215,-0
 .00008928,0.00011526,-0.00018716,0.00012466,0.00015944,-0.00004392,-0.
 00012078,0.00022415,-0.00060988,-0.00030137,-0.00054154,-0.02488916,0.
 00885062,-0.00121278,-0.07319620,0.06621852,-0.00013114,0.00002049,-0.
 00004143,0.00005892,0.00002306,0.00000436,-0.00002404,0.00000227,-0.00
 000119,0.00004915,0.00001894,0.00002885,-0.00007810,-0.00012372,0.0000
 7619,0.00031111,-0.00009057,-0.00000198,0.00008696,0.00001836,-0.00000
 594,0.00012321,-0.00042766,0.00017475,0.00177611,0.00058247,-0.0003499
 9,0.00127412,-0.00500942,-0.00310455,-0.00040392,-0.00032153,0.0000598
 1,0.03545134,-0.00751138,-0.00591897,0.00035210,0.00000814,-0.00001029
 ,0.00002135,0.00014944,-0.00000249,0.00203144,0.00099412,0.00073222,-0
 .02869055,0.00657514,-0.04984804,0.00000767,0.00001924,0.00000427,-0.0
 0000649,0.00000289,0.00000329,0.00000943,0.00001118,-0.00000299,0.0000
 1261,0.00001764,-0.00001773,0.00015196,-0.00001218,-0.00000317,-0.0000
 6406,-0.00002816,-0.00012783,0.00001082,-0.00000195,0.00005830,-0.0001
 7399,0.00008792,-0.00017105,-0.00013963,-0.00002327,-0.00000615,-0.000
 04718,-0.00003118,-0.00002023,-0.00001166,-0.00002585,0.00000008,-0.00
 003105,0.00006415,0.00001730,0.00009043,0.00031142,0.00009051,-0.00051
 986,-0.00029569,-0.00026243,-0.00077559,-0.00031825,0.00003126,-0.0079
 0967,0.00373186,-0.00067606,0.01779480,-0.00278621,0.05995892,-0.00003
 320,0.00001828,-0.00000644,0.00006847,-0.00007925,0.00001059,0.0000141
 0,0.00009866,0.00002503,0.00032356,-0.00025750,-0.00006361,-0.00052584
 ,-0.00069116,-0.00020502,-0.00004325,0.00035571,0.00003557,-0.00010061
 ,0.00034903,0.00007212,-0.00031872,-0.00018430,-0.00016855,0.00033056,
 0.00061835,-0.00066321,0.00348933,-0.00109357,0.00048747,0.00033733,0.
 00002581,0.00012844,0.00117034,-0.00844177,0.01359240,-0.00018188,-0.0
 0018172,0.00033590,-0.00016208,-0.00004860,0.00000620,-0.00010159,-0.0
 0032109,-0.00095858,-0.05749440,0.02100163,-0.02036733,-0.00000476,-0.
 00001647,-0.00002230,0.00000248,0.00000013,0.00000255,-0.00000565,-0.0
 0000711,0.00000706,0.00000016,0.00000575,0.00002156,0.00001905,-0.0000
 0631,0.00001901,0.00004487,-0.00000444,0.00016002,0.00009619,-0.000025
 80,-0.00007042,0.00000384,0.00000276,0.00013964,0.00006369,-0.00006328
 ,0.00003264,-0.00002585,0.00000714,-0.00000708,0.00006742,-0.00001358,
 -0.00001285,0.00008259,-0.00010690,0.00007314,-0.00014818,-0.00008077,
 0.00006120,-0.00004228,0.00029377,-0.00035721,-0.00027774,0.00049038,-
 0.00004612,0.00310024,-0.01200170,0.01215932,-0.00242093,0.02360126,-0
 .02060661,0.05267274,-0.00020475,-0.00011135,-0.00025377,0.00012289,0.
 00000275,-0.00000152,-0.00013621,0.00002472,-0.00003239,0.00014497,-0.
 00001925,0.00007333,-0.00012835,-0.00014935,0.00043340,0.00149905,0.00
 021327,0.00011282,-0.00009649,0.00010295,-0.00006813,-0.00010731,0.000
 01553,0.00014560,-0.00035840,-0.00045154,0.00061357,-0.00163136,0.0007
 4437,-0.00081584,-0.00118049,-0.00084333,0.00151960,-0.00082028,0.0097
 8167,-0.00938751,-0.00011319,-0.00009545,-0.00046982,-0.00024683,0.000
 57385,0.00000793,-0.00039617,0.00366441,-0.00235623,0.02051555,-0.1833
 7062,0.11556494,0.00001429,0.00001164,0.00001410,-0.00002620,-0.000021
 36,0.00001782,-0.00002156,0.00000372,0.00001647,-0.00002267,0.00000318
 ,-0.00000289,-0.00004825,0.00002167,0.00002621,0.00003008,0.00004154,-
 0.00010800,-0.00005092,0.00003450,0.00005522,0.00006294,0.00003550,-0.
 00002323,0.00006333,-0.00002972,0.00018946,0.00001138,0.00010269,-0.00
 001978,0.00000065,-0.00011413,0.00008060,0.00002159,0.00006472,-0.0000
 3549,-0.00002365,0.00022385,0.00022216,0.00064571,0.00054260,0.0018728
 1,0.00027416,-0.00039986,0.00010522,0.00518787,-0.01664486,0.01683166,
 0.00026199,-0.00582041,0.00436831,-0.02324335,0.19186212,-0.00004181,0
 .00031261,0.00001518,-0.00007053,-0.00001187,-0.00001431,-0.00005264,0
 .00001256,0.00000516,-0.00004597,-0.00004250,0.00008362,0.00098151,0.0
 0078512,0.00020499,0.00058448,-0.00053944,0.00016875,0.00066229,0.0000
 1903,-0.00005853,-0.00049337,0.00013073,0.00005078,0.00133800,-0.00142
 780,-0.00054881,-0.00835899,0.00055992,0.00028051,-0.00056694,-0.00042
 646,0.00066663,0.00899761,0.01238096,-0.03938523,0.00009762,-0.0001536
 7,-0.00036476,0.00001698,0.00008960,-0.00008624,0.00187994,0.00395699,
 0.00149693,-0.02102826,0.11778002,-0.15068887,0.00001434,0.00003170,-0
 .00004466,0.00000248,0.00002746,0.00000885,0.00001724,0.00000022,0.000
 02003,0.00000212,0.00001688,-0.00001703,0.00005009,-0.00004432,0.00001
 541,0.00001686,-0.00007678,-0.00010339,-0.00010873,0.00007156,0.000201
 53,0.00002535,-0.00002791,-0.00000617,-0.00003264,0.00018939,0.0000665
 2,0.00002552,0.00007464,0.00000816,-0.00000726,0.00001608,0.00003180,-
 0.00002728,0.00001276,-0.00003012,0.00016027,-0.00047050,0.00049633,-0
 .00019245,-0.00193976,0.00038762,-0.00031685,-0.00007072,-0.00012462,0
 .00164442,-0.00552275,0.00751006,-0.00135886,0.00298292,-0.00066761,0.
 01618548,-0.12869664,0.18042152\\0.00001423,0.00000665,-0.00000225,-0.
 00001790,-0.00000474,-0.00000589,-0.00001747,-0.00001021,-0.00000125,0
 .00004130,0.00000009,0.00000008,-0.00002817,-0.00000120,-0.00000133,0.
 00000612,-0.00001869,0.00000442,-0.00001788,0.00001016,0.00000153,-0.0
 0001721,0.00000480,0.00000565,0.00001412,-0.00000564,0.00000389,0.0000
 1092,0.00001711,-0.00000463,0.00001066,0.00001211,-0.00000580,0.000008
 38,-0.00001424,0.00000927,-0.00000103,-0.00000399,-0.00000137,-0.00000
 385,-0.00000141,-0.00000418,-0.00000435,0.00000078,0.00000352,-0.00000
 096,0.00000443,-0.00000079,-0.00000208,-0.00000618,-0.00000307,0.00000
 323,-0.00000535,-0.00000240,-0.00000206,0.00000450,-0.00000039,-0.0000
 0201,-0.00000447,0.00000058,0.00000331,0.00000531,0.00000237,-0.000002
 87,0.00000686,0.00000306,-0.00000234,0.00000355,0.00000036,0.00000309,
 -0.00000023,0.00000067,-0.00000020,-0.00000239,0.00000203,-0.00000105,
 -0.00000035,-0.00000484,-0.00000029,-0.00000352,-0.00000050,0.00000254
 ,0.00000111,-0.00000013,-0.00000060,0.00000006,0.00000468,-0.00000048,
 0.00000311,0.00000037,0.00000257,-0.00000082,0.00000013,-0.00000056,-0
 .00000049,-0.00000165,0.00000304,0.00000021,-0.00000063,-0.00000016,0.
 00000305,-0.00000147\\\@


     "IF I COULD JUST GET IT ON PAPER"
 LIFE AND INK, THEY RUN OUT AT THE SAME TIME,
 OR SO SAID MY OLD FRIEND THE SQUID.
     -- JIMMY BUFFETT, 1981
 Job cpu time:       0 days  2 hours 13 minutes 21.5 seconds.
 File lengths (MBytes):  RWF=    514 Int=      0 D2E=      0 Chk=     13 Scr=      1
 Normal termination of Gaussian 09 at Tue Dec 17 18:20:12 2024.
