 Entering Gaussian System, Link 0=g09
 Input=pbeD3DMANyang.gjf
 Output=pbeD3DMANyang.log
 Initial command:
 /home/c612/g09E/g09/l1.exe "/mnt/ja_sm883/scratch/Gau-1815715.inp" -scrdir="/mnt/ja_sm883/scratch/"
 Default is to use a total of  18 processors:
                               18 via shared-memory
                                1 via Linda
 Entering Link 1 = /home/c612/g09E/g09/l1.exe PID=   1815717.
  
 Copyright (c) 1988,1990,1992,1993,1995,1998,2003,2009,2015,
            Gaussian, Inc.  All Rights Reserved.
  
 This is part of the Gaussian(R) 09 program.  It is based on
 the Gaussian(R) 03 system (copyright 2003, Gaussian, Inc.),
 the Gaussian(R) 98 system (copyright 1998, Gaussian, Inc.),
 the Gaussian(R) 94 system (copyright 1995, Gaussian, Inc.),
 the Gaussian 92(TM) system (copyright 1992, Gaussian, Inc.),
 the Gaussian 90(TM) system (copyright 1990, Gaussian, Inc.),
 the Gaussian 88(TM) system (copyright 1988, Gaussian, Inc.),
 the Gaussian 86(TM) system (copyright 1986, Carnegie Mellon
 University), and the Gaussian 82(TM) system (copyright 1983,
 Carnegie Mellon University). Gaussian is a federally registered
 trademark of Gaussian, Inc.
  
 This software contains proprietary and confidential information,
 including trade secrets, belonging to Gaussian, Inc.
  
 This software is provided under written license and may be
 used, copied, transmitted, or stored only in accord with that
 written license.
  
 The following legend is applicable only to US Government
 contracts under FAR:
  
                    RESTRICTED RIGHTS LEGEND
  
 Use, reproduction and disclosure by the US Government is
 subject to restrictions as set forth in subparagraphs (a)
 and (c) of the Commercial Computer Software - Restricted
 Rights clause in FAR 52.227-19.
  
 Gaussian, Inc.
 340 Quinnipiac St., Bldg. 40, Wallingford CT 06492
  
  
 ---------------------------------------------------------------
 Warning -- This program may not be used in any manner that
 competes with the business of Gaussian, Inc. or will provide
 assistance to any competitor of Gaussian, Inc.  The licensee
 of this program is prohibited from giving any competitor of
 Gaussian, Inc. access to this program.  By using this program,
 the user acknowledges that Gaussian, Inc. is engaged in the
 business of creating and licensing software in the field of
 computational chemistry and represents and warrants to the
 licensee that it is not a competitor of Gaussian, Inc. and that
 it will not use this program in any manner prohibited above.
 ---------------------------------------------------------------
  

 Cite this work as:
 Gaussian 09, Revision E.01,
 M. J. Frisch, G. W. Trucks, H. B. Schlegel, G. E. Scuseria, 
 M. A. Robb, J. R. Cheeseman, G. Scalmani, V. Barone, B. Mennucci, 
 G. A. Petersson, H. Nakatsuji, M. Caricato, X. Li, H. P. Hratchian, 
 A. F. Izmaylov, J. Bloino, G. Zheng, J. L. Sonnenberg, M. Hada, 
 M. Ehara, K. Toyota, R. Fukuda, J. Hasegawa, M. Ishida, T. Nakajima, 
 Y. Honda, O. Kitao, H. Nakai, T. Vreven, J. A. Montgomery, Jr., 
 J. E. Peralta, F. Ogliaro, M. Bearpark, J. J. Heyd, E. Brothers, 
 K. N. Kudin, V. N. Staroverov, T. Keith, R. Kobayashi, J. Normand, 
 K. Raghavachari, A. Rendell, J. C. Burant, S. S. Iyengar, J. Tomasi, 
 M. Cossi, N. Rega, J. M. Millam, M. Klene, J. E. Knox, J. B. Cross, 
 V. Bakken, C. Adamo, J. Jaramillo, R. Gomperts, R. E. Stratmann, 
 O. Yazyev, A. J. Austin, R. Cammi, C. Pomelli, J. W. Ochterski, 
 R. L. Martin, K. Morokuma, V. G. Zakrzewski, G. A. Voth, 
 P. Salvador, J. J. Dannenberg, S. Dapprich, A. D. Daniels, 
 O. Farkas, J. B. Foresman, J. V. Ortiz, J. Cioslowski, 
 and D. J. Fox, Gaussian, Inc., Wallingford CT, 2013.
 
 ******************************************
 Gaussian 09:  ES64L-G09RevE.01 30-Nov-2015
                17-Dec-2024 
 ******************************************
 %chk=pbeD3DMANyang.chk
 -----------------------------------------------------
 # opt freq pbepbe/6-31+g(d,p) empiricaldispersion=gd3
 -----------------------------------------------------
 1/14=-1,18=20,19=15,26=3,38=1/1,3;
 2/9=110,12=2,17=6,18=5,40=1/2;
 3/5=1,6=6,7=111,11=2,16=1,25=1,30=1,71=1,74=1009,124=31/1,2,3;
 4//1;
 5/5=2,38=5/2;
 6/7=2,8=2,9=2,10=2,28=1/1;
 7//1,2,3,16;
 1/14=-1,18=20,19=15,26=3/3(2);
 2/9=110/2;
 99//99;
 2/9=110/2;
 3/5=1,6=6,7=111,11=2,16=1,25=1,30=1,71=1,74=1009,124=31/1,2,3;
 4/5=5,16=3,69=1/1;
 5/5=2,38=5/2;
 7//1,2,3,16;
 1/14=-1,18=20,19=15,26=3/3(-5);
 2/9=110/2;
 6/7=2,8=2,9=2,10=2,19=2,28=1/1;
 99/9=1/99;
 ----------
 [No Title]
 ----------
 Symbolic Z-matrix:
 Charge =  1 Multiplicity = 1
 C                     0.75988  -2.4345    0.00011 
 C                     2.16894  -2.3914    0.00009 
 C                     2.81248  -1.17758   0.00003 
 C                     2.08644   0.04068  -0.00002 
 C                     0.64965   0.01714  -0.00001 
 C                     0.0313   -1.26886   0.00006 
 C                     2.76718   1.28422  -0.00009 
 C                     2.07197   2.46871  -0.00014 
 C                     0.66199   2.45507  -0.00013 
 C                    -0.04062   1.27005  -0.00006 
 N                    -1.44253  -1.32698   0.00008 
 N                    -1.49984   1.26805  -0.00005 
 C                    -2.00145  -1.94679  -1.23313 
 C                    -2.00142  -1.9467    1.23336 
 C                    -2.06852   1.87955   1.21836 
 C                    -2.06854   1.87949  -1.21849 
 H                     0.25805  -3.39797   0.00016 
 H                     2.73366  -3.31779   0.00013 
 H                     3.89781  -1.13423   0.00002 
 H                     3.85331   1.28322  -0.0001 
 H                     2.59908   3.41739  -0.00019 
 H                     0.12447   3.39904  -0.00017 
 H                    -1.6973   -0.22796   0.00005 
 H                    -3.08714  -1.82946  -1.2259 
 H                    -1.57834  -1.44703  -2.10502 
 H                    -1.75115  -3.00874  -1.26858 
 H                    -3.08711  -1.82938   1.22614 
 H                    -1.57829  -1.44688   2.1052 
 H                    -1.75111  -3.00865   1.26888 
 H                    -1.63295   1.41157   2.10387 
 H                    -1.8736    2.95787   1.26454 
 H                    -3.15099   1.72385   1.22488 
 H                    -1.63297   1.41148  -2.10398 
 H                    -3.151     1.72378  -1.22499 
 H                    -1.87363   2.95781  -1.26472 
 

 GradGradGradGradGradGradGradGradGradGradGradGradGradGradGradGradGradGrad
 Berny optimization.
 Initialization pass.
                           ----------------------------
                           !    Initial Parameters    !
                           ! (Angstroms and Degrees)  !
 --------------------------                            --------------------------
 ! Name  Definition              Value          Derivative Info.                !
 --------------------------------------------------------------------------------
 ! R1    R(1,2)                  1.4097         estimate D2E/DX2                !
 ! R2    R(1,6)                  1.3746         estimate D2E/DX2                !
 ! R3    R(1,17)                 1.0863         estimate D2E/DX2                !
 ! R4    R(2,3)                  1.3739         estimate D2E/DX2                !
 ! R5    R(2,18)                 1.0849         estimate D2E/DX2                !
 ! R6    R(3,4)                  1.4182         estimate D2E/DX2                !
 ! R7    R(3,19)                 1.0862         estimate D2E/DX2                !
 ! R8    R(4,5)                  1.437          estimate D2E/DX2                !
 ! R9    R(4,7)                  1.4177         estimate D2E/DX2                !
 ! R10   R(5,6)                  1.4269         estimate D2E/DX2                !
 ! R11   R(5,10)                 1.4305         estimate D2E/DX2                !
 ! R12   R(6,11)                 1.475          estimate D2E/DX2                !
 ! R13   R(7,8)                  1.3734         estimate D2E/DX2                !
 ! R14   R(7,20)                 1.0861         estimate D2E/DX2                !
 ! R15   R(8,9)                  1.41           estimate D2E/DX2                !
 ! R16   R(8,21)                 1.0853         estimate D2E/DX2                !
 ! R17   R(9,10)                 1.3776         estimate D2E/DX2                !
 ! R18   R(9,22)                 1.0863         estimate D2E/DX2                !
 ! R19   R(10,12)                1.4592         estimate D2E/DX2                !
 ! R20   R(11,13)                1.4891         estimate D2E/DX2                !
 ! R21   R(11,14)                1.4891         estimate D2E/DX2                !
 ! R22   R(11,23)                1.1282         estimate D2E/DX2                !
 ! R23   R(12,15)                1.4771         estimate D2E/DX2                !
 ! R24   R(12,16)                1.4771         estimate D2E/DX2                !
 ! R25   R(13,24)                1.092          estimate D2E/DX2                !
 ! R26   R(13,25)                1.0904         estimate D2E/DX2                !
 ! R27   R(13,26)                1.0916         estimate D2E/DX2                !
 ! R28   R(14,27)                1.092          estimate D2E/DX2                !
 ! R29   R(14,28)                1.0904         estimate D2E/DX2                !
 ! R30   R(14,29)                1.0916         estimate D2E/DX2                !
 ! R31   R(15,30)                1.0922         estimate D2E/DX2                !
 ! R32   R(15,31)                1.0968         estimate D2E/DX2                !
 ! R33   R(15,32)                1.0936         estimate D2E/DX2                !
 ! R34   R(16,33)                1.0922         estimate D2E/DX2                !
 ! R35   R(16,34)                1.0936         estimate D2E/DX2                !
 ! R36   R(16,35)                1.0968         estimate D2E/DX2                !
 ! A1    A(2,1,6)              120.2555         estimate D2E/DX2                !
 ! A2    A(2,1,17)             119.265          estimate D2E/DX2                !
 ! A3    A(6,1,17)             120.4794         estimate D2E/DX2                !
 ! A4    A(1,2,3)              119.6833         estimate D2E/DX2                !
 ! A5    A(1,2,18)             119.6139         estimate D2E/DX2                !
 ! A6    A(3,2,18)             120.7028         estimate D2E/DX2                !
 ! A7    A(2,3,4)              121.2753         estimate D2E/DX2                !
 ! A8    A(2,3,19)             120.2187         estimate D2E/DX2                !
 ! A9    A(4,3,19)             118.506          estimate D2E/DX2                !
 ! A10   A(3,4,5)              119.8548         estimate D2E/DX2                !
 ! A11   A(3,4,7)              120.5095         estimate D2E/DX2                !
 ! A12   A(5,4,7)              119.6357         estimate D2E/DX2                !
 ! A13   A(4,5,6)              116.6184         estimate D2E/DX2                !
 ! A14   A(4,5,10)             117.9131         estimate D2E/DX2                !
 ! A15   A(6,5,10)             125.4685         estimate D2E/DX2                !
 ! A16   A(1,6,5)              122.3127         estimate D2E/DX2                !
 ! A17   A(1,6,11)             119.7492         estimate D2E/DX2                !
 ! A18   A(5,6,11)             117.9381         estimate D2E/DX2                !
 ! A19   A(4,7,8)              120.8928         estimate D2E/DX2                !
 ! A20   A(4,7,20)             118.6442         estimate D2E/DX2                !
 ! A21   A(8,7,20)             120.463          estimate D2E/DX2                !
 ! A22   A(7,8,9)              119.8554         estimate D2E/DX2                !
 ! A23   A(7,8,21)             120.532          estimate D2E/DX2                !
 ! A24   A(9,8,21)             119.6125         estimate D2E/DX2                !
 ! A25   A(8,9,10)             121.2186         estimate D2E/DX2                !
 ! A26   A(8,9,22)             119.1033         estimate D2E/DX2                !
 ! A27   A(10,9,22)            119.6781         estimate D2E/DX2                !
 ! A28   A(5,10,9)             120.4843         estimate D2E/DX2                !
 ! A29   A(5,10,12)            118.7731         estimate D2E/DX2                !
 ! A30   A(9,10,12)            120.7426         estimate D2E/DX2                !
 ! A31   A(6,11,13)            113.0443         estimate D2E/DX2                !
 ! A32   A(6,11,14)            113.0444         estimate D2E/DX2                !
 ! A33   A(6,11,23)            100.7934         estimate D2E/DX2                !
 ! A34   A(13,11,14)           111.826          estimate D2E/DX2                !
 ! A35   A(13,11,23)           108.7051         estimate D2E/DX2                !
 ! A36   A(14,11,23)           108.7047         estimate D2E/DX2                !
 ! A37   A(10,12,15)           112.6085         estimate D2E/DX2                !
 ! A38   A(10,12,16)           112.6085         estimate D2E/DX2                !
 ! A39   A(15,12,16)           111.1507         estimate D2E/DX2                !
 ! A40   A(11,13,24)           108.8417         estimate D2E/DX2                !
 ! A41   A(11,13,25)           109.0137         estimate D2E/DX2                !
 ! A42   A(11,13,26)           110.2278         estimate D2E/DX2                !
 ! A43   A(24,13,25)           109.9885         estimate D2E/DX2                !
 ! A44   A(24,13,26)           109.4323         estimate D2E/DX2                !
 ! A45   A(25,13,26)           109.3251         estimate D2E/DX2                !
 ! A46   A(11,14,27)           108.8418         estimate D2E/DX2                !
 ! A47   A(11,14,28)           109.0136         estimate D2E/DX2                !
 ! A48   A(11,14,29)           110.2277         estimate D2E/DX2                !
 ! A49   A(27,14,28)           109.9884         estimate D2E/DX2                !
 ! A50   A(27,14,29)           109.4324         estimate D2E/DX2                !
 ! A51   A(28,14,29)           109.325          estimate D2E/DX2                !
 ! A52   A(12,15,30)           109.7461         estimate D2E/DX2                !
 ! A53   A(12,15,31)           111.9209         estimate D2E/DX2                !
 ! A54   A(12,15,32)           109.0895         estimate D2E/DX2                !
 ! A55   A(30,15,31)           108.4368         estimate D2E/DX2                !
 ! A56   A(30,15,32)           109.2026         estimate D2E/DX2                !
 ! A57   A(31,15,32)           108.399          estimate D2E/DX2                !
 ! A58   A(12,16,33)           109.7461         estimate D2E/DX2                !
 ! A59   A(12,16,34)           109.0895         estimate D2E/DX2                !
 ! A60   A(12,16,35)           111.9209         estimate D2E/DX2                !
 ! A61   A(33,16,34)           109.2027         estimate D2E/DX2                !
 ! A62   A(33,16,35)           108.4368         estimate D2E/DX2                !
 ! A63   A(34,16,35)           108.3989         estimate D2E/DX2                !
 ! D1    D(6,1,2,3)              0.0            estimate D2E/DX2                !
 ! D2    D(6,1,2,18)           179.9999         estimate D2E/DX2                !
 ! D3    D(17,1,2,3)          -179.9999         estimate D2E/DX2                !
 ! D4    D(17,1,2,18)            0.0            estimate D2E/DX2                !
 ! D5    D(2,1,6,5)              0.0            estimate D2E/DX2                !
 ! D6    D(2,1,6,11)          -179.9998         estimate D2E/DX2                !
 ! D7    D(17,1,6,5)           179.9999         estimate D2E/DX2                !
 ! D8    D(17,1,6,11)            0.0001         estimate D2E/DX2                !
 ! D9    D(1,2,3,4)             -0.0001         estimate D2E/DX2                !
 ! D10   D(1,2,3,19)          -180.0            estimate D2E/DX2                !
 ! D11   D(18,2,3,4)          -179.9999         estimate D2E/DX2                !
 ! D12   D(18,2,3,19)            0.0002         estimate D2E/DX2                !
 ! D13   D(2,3,4,5)              0.0            estimate D2E/DX2                !
 ! D14   D(2,3,4,7)           -180.0            estimate D2E/DX2                !
 ! D15   D(19,3,4,5)           179.9999         estimate D2E/DX2                !
 ! D16   D(19,3,4,7)            -0.0001         estimate D2E/DX2                !
 ! D17   D(3,4,5,6)              0.0001         estimate D2E/DX2                !
 ! D18   D(3,4,5,10)          -180.0            estimate D2E/DX2                !
 ! D19   D(7,4,5,6)           -179.9999         estimate D2E/DX2                !
 ! D20   D(7,4,5,10)             0.0            estimate D2E/DX2                !
 ! D21   D(3,4,7,8)            179.9999         estimate D2E/DX2                !
 ! D22   D(3,4,7,20)             0.0            estimate D2E/DX2                !
 ! D23   D(5,4,7,8)             -0.0001         estimate D2E/DX2                !
 ! D24   D(5,4,7,20)          -180.0            estimate D2E/DX2                !
 ! D25   D(4,5,6,1)             -0.0001         estimate D2E/DX2                !
 ! D26   D(4,5,6,11)           179.9997         estimate D2E/DX2                !
 ! D27   D(10,5,6,1)           179.9999         estimate D2E/DX2                !
 ! D28   D(10,5,6,11)           -0.0002         estimate D2E/DX2                !
 ! D29   D(4,5,10,9)            -0.0001         estimate D2E/DX2                !
 ! D30   D(4,5,10,12)          179.9999         estimate D2E/DX2                !
 ! D31   D(6,5,10,9)           179.9999         estimate D2E/DX2                !
 ! D32   D(6,5,10,12)           -0.0002         estimate D2E/DX2                !
 ! D33   D(1,6,11,13)          -64.1597         estimate D2E/DX2                !
 ! D34   D(1,6,11,14)           64.158          estimate D2E/DX2                !
 ! D35   D(1,6,11,23)          179.9989         estimate D2E/DX2                !
 ! D36   D(5,6,11,13)          115.8404         estimate D2E/DX2                !
 ! D37   D(5,6,11,14)         -115.8418         estimate D2E/DX2                !
 ! D38   D(5,6,11,23)           -0.0009         estimate D2E/DX2                !
 ! D39   D(4,7,8,9)              0.0001         estimate D2E/DX2                !
 ! D40   D(4,7,8,21)          -180.0            estimate D2E/DX2                !
 ! D41   D(20,7,8,9)          -180.0            estimate D2E/DX2                !
 ! D42   D(20,7,8,21)            0.0            estimate D2E/DX2                !
 ! D43   D(7,8,9,10)            -0.0001         estimate D2E/DX2                !
 ! D44   D(7,8,9,22)          -179.9999         estimate D2E/DX2                !
 ! D45   D(21,8,9,10)          179.9999         estimate D2E/DX2                !
 ! D46   D(21,8,9,22)            0.0001         estimate D2E/DX2                !
 ! D47   D(8,9,10,5)             0.0001         estimate D2E/DX2                !
 ! D48   D(8,9,10,12)         -179.9998         estimate D2E/DX2                !
 ! D49   D(22,9,10,5)          179.9999         estimate D2E/DX2                !
 ! D50   D(22,9,10,12)           0.0            estimate D2E/DX2                !
 ! D51   D(5,10,12,15)         116.6776         estimate D2E/DX2                !
 ! D52   D(5,10,12,16)        -116.6804         estimate D2E/DX2                !
 ! D53   D(9,10,12,15)         -63.3224         estimate D2E/DX2                !
 ! D54   D(9,10,12,16)          63.3195         estimate D2E/DX2                !
 ! D55   D(6,11,13,24)        -172.1663         estimate D2E/DX2                !
 ! D56   D(6,11,13,25)         -52.1916         estimate D2E/DX2                !
 ! D57   D(6,11,13,26)          67.8088         estimate D2E/DX2                !
 ! D58   D(14,11,13,24)         58.8865         estimate D2E/DX2                !
 ! D59   D(14,11,13,25)        178.8612         estimate D2E/DX2                !
 ! D60   D(14,11,13,26)        -61.1383         estimate D2E/DX2                !
 ! D61   D(23,11,13,24)        -61.1346         estimate D2E/DX2                !
 ! D62   D(23,11,13,25)         58.8401         estimate D2E/DX2                !
 ! D63   D(23,11,13,26)        178.8405         estimate D2E/DX2                !
 ! D64   D(6,11,14,27)         172.1666         estimate D2E/DX2                !
 ! D65   D(6,11,14,28)          52.1919         estimate D2E/DX2                !
 ! D66   D(6,11,14,29)         -67.8084         estimate D2E/DX2                !
 ! D67   D(13,11,14,27)        -58.8863         estimate D2E/DX2                !
 ! D68   D(13,11,14,28)       -178.8609         estimate D2E/DX2                !
 ! D69   D(13,11,14,29)         61.1387         estimate D2E/DX2                !
 ! D70   D(23,11,14,27)         61.1351         estimate D2E/DX2                !
 ! D71   D(23,11,14,28)        -58.8396         estimate D2E/DX2                !
 ! D72   D(23,11,14,29)       -178.8399         estimate D2E/DX2                !
 ! D73   D(10,12,15,30)        -52.5693         estimate D2E/DX2                !
 ! D74   D(10,12,15,31)         67.872          estimate D2E/DX2                !
 ! D75   D(10,12,15,32)       -172.1745         estimate D2E/DX2                !
 ! D76   D(16,12,15,30)       -179.9873         estimate D2E/DX2                !
 ! D77   D(16,12,15,31)        -59.546          estimate D2E/DX2                !
 ! D78   D(16,12,15,32)         60.4075         estimate D2E/DX2                !
 ! D79   D(10,12,16,33)         52.5687         estimate D2E/DX2                !
 ! D80   D(10,12,16,34)        172.174          estimate D2E/DX2                !
 ! D81   D(10,12,16,35)        -67.8726         estimate D2E/DX2                !
 ! D82   D(15,12,16,33)        179.9868         estimate D2E/DX2                !
 ! D83   D(15,12,16,34)        -60.408          estimate D2E/DX2                !
 ! D84   D(15,12,16,35)         59.5454         estimate D2E/DX2                !
 --------------------------------------------------------------------------------
 Trust Radius=3.00D-01 FncErr=1.00D-07 GrdErr=1.00D-06
 Number of steps in this run=    193 maximum allowed number of steps=    210.
 GradGradGradGradGradGradGradGradGradGradGradGradGradGradGradGradGradGrad

                          Input orientation:                          
 ---------------------------------------------------------------------
 Center     Atomic      Atomic             Coordinates (Angstroms)
 Number     Number       Type             X           Y           Z
 ---------------------------------------------------------------------
      1          6           0        0.759884   -2.434495    0.000109
      2          6           0        2.168943   -2.391396    0.000093
      3          6           0        2.812478   -1.177577    0.000029
      4          6           0        2.086443    0.040679   -0.000023
      5          6           0        0.649649    0.017141   -0.000009
      6          6           0        0.031299   -1.268855    0.000060
      7          6           0        2.767183    1.284224   -0.000089
      8          6           0        2.071967    2.468714   -0.000141
      9          6           0        0.661986    2.455065   -0.000127
     10          6           0       -0.040617    1.270052   -0.000064
     11          7           0       -1.442525   -1.326975    0.000082
     12          7           0       -1.499842    1.268051   -0.000054
     13          6           0       -2.001447   -1.946790   -1.233134
     14          6           0       -2.001415   -1.946702    1.233356
     15          6           0       -2.068522    1.879546    1.218361
     16          6           0       -2.068539    1.879488   -1.218490
     17          1           0        0.258049   -3.397974    0.000162
     18          1           0        2.733658   -3.317788    0.000134
     19          1           0        3.897810   -1.134226    0.000016
     20          1           0        3.853308    1.283221   -0.000099
     21          1           0        2.599081    3.417390   -0.000192
     22          1           0        0.124472    3.399039   -0.000170
     23          1           0       -1.697297   -0.227962    0.000051
     24          1           0       -3.087138   -1.829462   -1.225896
     25          1           0       -1.578342   -1.447034   -2.105025
     26          1           0       -1.751147   -3.008739   -1.268583
     27          1           0       -3.087106   -1.829379    1.226137
     28          1           0       -1.578291   -1.446880    2.105201
     29          1           0       -1.751108   -3.008647    1.268877
     30          1           0       -1.632947    1.411568    2.103869
     31          1           0       -1.873601    2.957866    1.264541
     32          1           0       -3.150988    1.723849    1.224878
     33          1           0       -1.632969    1.411475   -2.103981
     34          1           0       -3.151004    1.723783   -1.224989
     35          1           0       -1.873627    2.957807   -1.264719
 ---------------------------------------------------------------------
                    Distance matrix (angstroms):
                    1          2          3          4          5
     1  C    0.000000
     2  C    1.409718   0.000000
     3  C    2.406862   1.373861   0.000000
     4  C    2.808246   2.433474   1.418194   0.000000
     5  C    2.454113   2.847684   2.470866   1.436987   0.000000
     6  C    1.374610   2.414461   2.782676   2.436903   1.426935
     7  C    4.225887   3.723986   2.462218   1.417678   2.467681
     8  C    5.075729   4.861077   3.720725   2.428078   2.834290
     9  C    4.890540   5.075343   4.221458   2.803273   2.437955
    10  C    3.790049   4.276489   3.759127   2.456775   1.430473
    11  N    2.465199   3.765062   4.257625   3.784718   2.486733
    12  N    4.337650   5.181847   4.957540   3.790499   2.486984
    13  C    3.063281   4.371576   5.028544   4.709718   3.522206
    14  C    3.063268   4.371565   5.028540   4.709723   3.522216
    15  C    5.300469   6.138504   5.886807   4.704214   3.513037
    16  C    5.300510   6.138538   5.886830   4.704227   3.513058
    17  H    1.086338   2.159795   3.384564   3.894529   3.437493
    18  H    2.162404   1.084945   2.141662   3.420261   3.932537
    19  H    3.396657   2.137629   1.086197   2.159040   3.446186
    20  H    4.836392   4.042264   2.671863   2.160028   3.444763
    21  H    6.134102   5.824690   4.599920   3.415403   3.919436
    22  H    5.868038   6.140765   5.307616   3.889462   3.422433
    23  H    3.302503   4.430379   4.608670   3.793265   2.359710
    24  H    4.082736   5.426344   6.060802   5.636145   4.344689
    25  H    3.297570   4.400623   4.876798   4.480510   3.396887
    26  H    2.871343   4.166264   5.078307   5.063131   4.065594
    27  H    4.082725   5.426334   6.060798   5.636151   4.344699
    28  H    3.297553   4.400608   4.876795   4.480522   3.396908
    29  H    2.871324   4.166247   5.078298   5.063131   4.065599
    30  H    4.994362   5.774320   5.558023   4.487712   3.403083
    31  H    6.132829   6.823166   6.376536   5.078489   4.075996
    32  H    5.838391   6.836447   6.743994   5.635967   4.342585
    33  H    4.994439   5.774382   5.558061   4.487733   3.403118
    34  H    5.838423   6.836473   6.744010   5.635977   4.342599
    35  H    6.132870   6.823203   6.376564   5.078508   4.076019
                    6          7          8          9         10
     6  C    0.000000
     7  C    3.742095   0.000000
     8  C    4.258374   1.373442   0.000000
     9  C    3.776949   2.408884   1.410047   0.000000
    10  C    2.539925   2.807836   2.428951   1.377645   0.000000
    11  N    1.474970   4.953787   5.172901   4.328140   2.951253
    12  N    2.963155   4.267056   3.768211   2.466273   1.459226
    13  C    2.472331   5.890644   6.132671   5.290606   3.964012
    14  C    2.472331   5.890653   6.132687   5.290627   3.964033
    15  C    3.975668   5.022258   4.356089   3.044932   2.443039
    16  C    3.975707   5.022255   4.356071   3.044908   2.443039
    17  H    2.141159   5.312131   6.140711   5.866961   4.677571
    18  H    3.391293   4.602134   5.824212   6.133323   5.361425
    19  H    3.868854   2.669685   4.039168   4.832553   4.614300
    20  H    4.595742   1.086125   2.139759   3.399670   3.893947
    21  H    5.343631   2.139779   1.085281   2.162962   3.402803
    22  H    4.668824   3.384725   2.158296   1.086282   2.135378
    23  H    2.017796   4.713628   4.634589   3.572793   2.233525
    24  H    3.397337   6.743198   6.825918   5.823711   4.515633
    25  H    2.655951   5.547442   5.752250   4.967499   3.765371
    26  H    2.795311   6.360339   6.799091   6.106173   4.779446
    27  H    3.397337   6.743208   6.825935   5.823734   4.515655
    28  H    2.655954   5.547461   5.752280   4.967537   3.765409
    29  H    2.795308   6.360344   6.799102   6.106189   4.779462
    30  H    3.792149   4.878934   4.389852   3.283657   2.642362
    31  H    4.805489   5.092862   4.172073   2.877741   2.794239
    32  H    4.536894   6.059584   5.416157   4.071128   3.373547
    33  H    3.792222   4.878923   4.389812   3.283611   2.642357
    34  H    4.536924   6.059582   5.416143   4.071112   3.373547
    35  H    4.805526   5.092866   4.172060   2.877721   2.794243
                   11         12         13         14         15
    11  N    0.000000
    12  N    2.595659   0.000000
    13  C    1.489089   3.479554   0.000000
    14  C    1.489088   3.479585   2.466490   0.000000
    15  C    3.486811   1.477111   4.544796   3.826866   0.000000
    16  C    3.486863   1.477111   3.826894   4.544864   2.436851
    17  H    2.679737   4.986178   2.955043   2.955019   5.894842
    18  H    4.626429   6.241189   5.081516   5.081499   7.180341
    19  H    5.343812   5.908095   6.081295   6.081291   6.794432
    20  H    5.904149   5.353171   6.799375   6.799382   6.075222
    21  H    6.232462   4.628264   7.173523   7.173541   5.063235
    22  H    4.979025   2.679460   5.883674   5.883700   2.933070
    23  H    1.128157   1.508988   2.137200   2.137194   2.462453
    24  H    2.111934   3.690093   1.092036   2.690810   4.557270
    25  H    2.112898   3.436386   1.090398   3.401977   4.727717
    26  H    2.129105   4.468026   1.091624   2.729516   5.493719
    27  H    2.111934   3.690125   2.690809   1.092036   3.846258
    28  H    2.112897   3.436438   3.401978   1.090399   3.477344
    29  H    2.129104   4.468049   2.729518   1.091624   4.898748
    30  H    3.458583   2.113009   4.748679   3.488773   1.092178
    31  H    4.488268   2.143448   5.505486   4.906332   1.096768
    32  H    3.704929   2.105824   4.564741   3.846366   1.093625
    33  H    3.458679   2.113008   3.488853   4.748781   3.383305
    34  H    3.704973   2.105824   3.846382   4.564808   2.676936
    35  H    4.488310   2.143448   4.906364   5.505535   2.714096
                   16         17         18         19         20
    16  C    0.000000
    17  H    5.894890   0.000000
    18  H    7.180377   2.476907   0.000000
    19  H    6.794450   4.286306   2.474509   0.000000
    20  H    6.075219   5.902497   4.735282   2.417857   0.000000
    21  H    5.063207   7.206221   6.736522   4.733276   2.475432
    22  H    2.933025   6.798325   7.205804   5.898184   4.287296
    23  H    2.462521   3.724561   5.401887   5.668028   5.752642
    24  H    3.846285   3.892778   6.131878   7.125708   7.704620
    25  H    3.477353   3.407391   5.150219   5.875141   6.433337
    26  H    4.898776   2.407922   4.671042   6.085545   7.172161
    27  H    4.557343   3.892758   6.131863   7.125704   7.704627
    28  H    4.727789   3.407360   5.150195   5.875137   6.433351
    29  H    5.493780   2.407888   4.671017   6.085535   7.172162
    30  H    3.383306   5.579708   6.771983   6.441781   5.877257
    31  H    2.714101   6.821971   7.887293   7.187032   6.099282
    32  H    2.676932   6.273319   7.845200   7.704183   7.124246
    33  H    1.092178   5.579800   6.772050   6.441810   5.877245
    34  H    1.093626   6.273359   7.845229   7.704196   7.124243
    35  H    1.096768   6.822017   7.887333   7.187056   6.099286
                   21         22         23         24         25
    21  H    0.000000
    22  H    2.474677   0.000000
    23  H    5.634488   4.058815   0.000000
    24  H    7.833575   6.257321   2.449369   0.000000
    25  H    6.748615   5.551073   2.435494   1.787620   0.000000
    26  H    7.863106   6.796060   3.056968   1.782523   1.780005
    27  H    7.833594   6.257349   2.449366   2.452033   3.676846
    28  H    6.748647   5.551119   2.435484   3.676846   4.210226
    29  H    7.863118   6.796081   3.056963   3.065835   3.721787
    30  H    5.134243   3.386081   2.668005   4.868910   5.088160
    31  H    4.670717   2.405499   3.432130   5.531135   5.553764
    32  H    6.118184   3.877582   2.724516   4.316988   4.859626
    33  H    5.134186   3.386005   2.668116   3.659141   2.859031
    34  H    6.118162   3.877552   2.724573   3.553819   3.647165
    35  H    4.670692   2.405446   3.432180   4.938832   4.493988
                   26         27         28         29         30
    26  H    0.000000
    27  H    3.065828   0.000000
    28  H    3.721787   1.787619   0.000000
    29  H    2.537460   1.782524   1.780006   0.000000
    30  H    5.561162   3.659061   2.858971   4.499942   0.000000
    31  H    6.483216   4.938804   4.493963   5.967772   1.775788
    32  H    5.529402   3.553802   3.647172   4.935394   1.781739
    33  H    4.500016   4.869018   5.088261   5.561259   4.207850
    34  H    4.935409   4.317066   4.859701   5.529464   3.671957
    35  H    5.967804   5.531188   5.553814   6.483263   3.714319
                   31         32         33         34         35
    31  H    0.000000
    32  H    1.776538   0.000000
    33  H    3.714320   3.671956   0.000000
    34  H    3.058182   2.449867   1.781739   0.000000
    35  H    2.529260   3.058169   1.775787   1.776538   0.000000
 Stoichiometry    C14H19N2(1+)
 Framework group  C1[X(C14H19N2)]
 Deg. of freedom    99
 Full point group                 C1      NOp   1
 Largest Abelian subgroup         C1      NOp   1
 Largest concise Abelian subgroup C1      NOp   1
                         Standard orientation:                         
 ---------------------------------------------------------------------
 Center     Atomic      Atomic             Coordinates (Angstroms)
 Number     Number       Type             X           Y           Z
 ---------------------------------------------------------------------
      1          6           0        0.759885   -2.434495    0.000109
      2          6           0        2.168944   -2.391395    0.000093
      3          6           0        2.812478   -1.177576    0.000029
      4          6           0        2.086443    0.040680   -0.000023
      5          6           0        0.649649    0.017141   -0.000009
      6          6           0        0.031299   -1.268855    0.000060
      7          6           0        2.767183    1.284225   -0.000089
      8          6           0        2.071966    2.468715   -0.000141
      9          6           0        0.661985    2.455065   -0.000127
     10          6           0       -0.040617    1.270052   -0.000064
     11          7           0       -1.442525   -1.326975    0.000082
     12          7           0       -1.499842    1.268051   -0.000054
     13          6           0       -2.001446   -1.946791   -1.233134
     14          6           0       -2.001414   -1.946703    1.233356
     15          6           0       -2.068523    1.879545    1.218361
     16          6           0       -2.068540    1.879487   -1.218490
     17          1           0        0.258050   -3.397974    0.000162
     18          1           0        2.733659   -3.317787    0.000134
     19          1           0        3.897810   -1.134225    0.000016
     20          1           0        3.853308    1.283222   -0.000099
     21          1           0        2.599080    3.417391   -0.000192
     22          1           0        0.124471    3.399039   -0.000170
     23          1           0       -1.697297   -0.227963    0.000051
     24          1           0       -3.087137   -1.829463   -1.225896
     25          1           0       -1.578342   -1.447034   -2.105025
     26          1           0       -1.751146   -3.008740   -1.268583
     27          1           0       -3.087105   -1.829380    1.226137
     28          1           0       -1.578291   -1.446880    2.105201
     29          1           0       -1.751107   -3.008648    1.268877
     30          1           0       -1.632947    1.411568    2.103869
     31          1           0       -1.873602    2.957865    1.264541
     32          1           0       -3.150988    1.723848    1.224878
     33          1           0       -1.632969    1.411475   -2.103981
     34          1           0       -3.151004    1.723782   -1.224989
     35          1           0       -1.873628    2.957806   -1.264719
 ---------------------------------------------------------------------
 Rotational constants (GHZ):      0.6382957      0.6046595      0.3552615
 Standard basis: 6-31+G(d,p) (6D, 7F)
 There are   399 symmetry adapted cartesian basis functions of A   symmetry.
 There are   399 symmetry adapted basis functions of A   symmetry.
   399 basis functions,   645 primitive gaussians,   399 cartesian basis functions
    58 alpha electrons       58 beta electrons
       nuclear repulsion energy      1138.7788830633 Hartrees.
 NAtoms=   35 NActive=   35 NUniq=   35 SFac= 1.00D+00 NAtFMM=   60 NAOKFM=F Big=F
 Integral buffers will be    131072 words long.
 Raffenetti 2 integral format.
 Two-electron integral symmetry is turned on.
 Nuclear repulsion after empirical dispersion term =     1138.7562464207 Hartrees.
 One-electron integrals computed using PRISM.
 NBasis=   399 RedAO= T EigKep=  1.57D-06  NBF=   399
 NBsUse=   395 1.00D-06 EigRej=  8.29D-07 NBFU=   395
 ExpMin= 4.38D-02 ExpMax= 4.17D+03 ExpMxC= 6.27D+02 IAcc=2 IRadAn=         4 AccDes= 0.00D+00
 Harris functional with IExCor= 1009 and IRadAn=       4 diagonalized for initial guess.
 HarFok:  IExCor= 1009 AccDes= 0.00D+00 IRadAn=         4 IDoV= 1 UseB2=F ITyADJ=14
 ICtDFT=  3500011 ScaDFX=  1.000000  1.000000  1.000000  1.000000
 FoFCou: FMM=F IPFlag=           0 FMFlag=      100000 FMFlg1=           0
         NFxFlg=           0 DoJE=T BraDBF=F KetDBF=T FulRan=T
         wScrn=  0.000000 ICntrl=     500 IOpCl=  0 I1Cent=   200000004 NGrid=           0
         NMat0=    1 NMatS0=      1 NMatT0=    0 NMatD0=    1 NMtDS0=    0 NMtDT0=    0
 Petite list used in FoFCou.
 Requested convergence on RMS density matrix=1.00D-08 within 128 cycles.
 Requested convergence on MAX density matrix=1.00D-06.
 Requested convergence on             energy=1.00D-06.
 No special actions if energy rises.
 SCF Done:  E(RPBE-PBE) =  -653.423904306     A.U. after   16 cycles
            NFock= 16  Conv=0.35D-08     -V/T= 2.0094

 **********************************************************************

            Population analysis using the SCF density.

 **********************************************************************

 Orbital symmetries:
       Occupied  (A) (A) (A) (A) (A) (A) (A) (A) (A) (A) (A) (A)
                 (A) (A) (A) (A) (A) (A) (A) (A) (A) (A) (A) (A)
                 (A) (A) (A) (A) (A) (A) (A) (A) (A) (A) (A) (A)
                 (A) (A) (A) (A) (A) (A) (A) (A) (A) (A) (A) (A)
                 (A) (A) (A) (A) (A) (A) (A) (A) (A) (A)
       Virtual   (A) (A) (A) (A) (A) (A) (A) (A) (A) (A) (A) (A)
                 (A) (A) (A) (A) (A) (A) (A) (A) (A) (A) (A) (A)
                 (A) (A) (A) (A) (A) (A) (A) (A) (A) (A) (A) (A)
                 (A) (A) (A) (A) (A) (A) (A) (A) (A) (A) (A) (A)
                 (A) (A) (A) (A) (A) (A) (A) (A) (A) (A) (A) (A)
                 (A) (A) (A) (A) (A) (A) (A) (A) (A) (A) (A) (A)
                 (A) (A) (A) (A) (A) (A) (A) (A) (A) (A) (A) (A)
                 (A) (A) (A) (A) (A) (A) (A) (A) (A) (A) (A) (A)
                 (A) (A) (A) (A) (A) (A) (A) (A) (A) (A) (A) (A)
                 (A) (A) (A) (A) (A) (A) (A) (A) (A) (A) (A) (A)
                 (A) (A) (A) (A) (A) (A) (A) (A) (A) (A) (A) (A)
                 (A) (A) (A) (A) (A) (A) (A) (A) (A) (A) (A) (A)
                 (A) (A) (A) (A) (A) (A) (A) (A) (A) (A) (A) (A)
                 (A) (A) (A) (A) (A) (A) (A) (A) (A) (A) (A) (A)
                 (A) (A) (A) (A) (A) (A) (A) (A) (A) (A) (A) (A)
                 (A) (A) (A) (A) (A) (A) (A) (A) (A) (A) (A) (A)
                 (A) (A) (A) (A) (A) (A) (A) (A) (A) (A) (A) (A)
                 (A) (A) (A) (A) (A) (A) (A) (A) (A) (A) (A) (A)
                 (A) (A) (A) (A) (A) (A) (A) (A) (A) (A) (A) (A)
                 (A) (A) (A) (A) (A) (A) (A) (A) (A) (A) (A) (A)
                 (A) (A) (A) (A) (A) (A) (A) (A) (A) (A) (A) (A)
                 (A) (A) (A) (A) (A) (A) (A) (A) (A) (A) (A) (A)
                 (A) (A) (A) (A) (A) (A) (A) (A) (A) (A) (A) (A)
                 (A) (A) (A) (A) (A) (A) (A) (A) (A) (A) (A) (A)
                 (A) (A) (A) (A) (A) (A) (A) (A) (A) (A) (A) (A)
                 (A) (A) (A) (A) (A) (A) (A) (A) (A) (A) (A) (A)
                 (A) (A) (A) (A) (A) (A) (A) (A) (A) (A) (A) (A)
                 (A) (A) (A) (A) (A) (A) (A) (A) (A) (A) (A) (A)
                 (A)
 The electronic state is 1-A.
 Alpha  occ. eigenvalues --  -14.24067 -14.18444 -10.09056 -10.08434 -10.08434
 Alpha  occ. eigenvalues --  -10.07839 -10.06343 -10.05921 -10.05921 -10.05113
 Alpha  occ. eigenvalues --  -10.05035 -10.04059 -10.03821 -10.03732 -10.03394
 Alpha  occ. eigenvalues --  -10.03341  -1.06078  -1.00890  -0.93210  -0.88342
 Alpha  occ. eigenvalues --   -0.84256  -0.81525  -0.81445  -0.79609  -0.78600
 Alpha  occ. eigenvalues --   -0.75949  -0.73021  -0.70575  -0.68730  -0.66220
 Alpha  occ. eigenvalues --   -0.62845  -0.61433  -0.60346  -0.58673  -0.58431
 Alpha  occ. eigenvalues --   -0.57208  -0.55606  -0.54792  -0.54281  -0.52430
 Alpha  occ. eigenvalues --   -0.51726  -0.51606  -0.50530  -0.49941  -0.49489
 Alpha  occ. eigenvalues --   -0.49157  -0.48252  -0.48181  -0.47470  -0.46726
 Alpha  occ. eigenvalues --   -0.46174  -0.43663  -0.43321  -0.42789  -0.39174
 Alpha  occ. eigenvalues --   -0.36037  -0.35311  -0.33138
 Alpha virt. eigenvalues --   -0.21012  -0.17973  -0.14883  -0.14162  -0.11487
 Alpha virt. eigenvalues --   -0.10895  -0.10727  -0.10601  -0.09934  -0.08827
 Alpha virt. eigenvalues --   -0.08664  -0.08278  -0.07931  -0.07314  -0.07039
 Alpha virt. eigenvalues --   -0.06478  -0.06195  -0.05992  -0.05546  -0.05348
 Alpha virt. eigenvalues --   -0.04793  -0.03701  -0.03543  -0.03416  -0.02839
 Alpha virt. eigenvalues --   -0.02224  -0.01676  -0.00987  -0.00770  -0.00766
 Alpha virt. eigenvalues --    0.00299   0.00307   0.00591   0.01076   0.01150
 Alpha virt. eigenvalues --    0.01223   0.02027   0.02339   0.02737   0.03466
 Alpha virt. eigenvalues --    0.04180   0.04229   0.04898   0.05001   0.05214
 Alpha virt. eigenvalues --    0.05543   0.05806   0.05846   0.06011   0.06440
 Alpha virt. eigenvalues --    0.06865   0.07500   0.07747   0.07761   0.08869
 Alpha virt. eigenvalues --    0.09247   0.09458   0.09781   0.09842   0.11149
 Alpha virt. eigenvalues --    0.11162   0.11572   0.12099   0.12631   0.13164
 Alpha virt. eigenvalues --    0.13171   0.13733   0.13867   0.14006   0.14047
 Alpha virt. eigenvalues --    0.14597   0.14612   0.14942   0.15008   0.15521
 Alpha virt. eigenvalues --    0.16171   0.16979   0.18078   0.18330   0.19448
 Alpha virt. eigenvalues --    0.19747   0.20409   0.20502   0.20645   0.20813
 Alpha virt. eigenvalues --    0.22815   0.23510   0.24260   0.24307   0.24923
 Alpha virt. eigenvalues --    0.26644   0.26648   0.28638   0.29105   0.30642
 Alpha virt. eigenvalues --    0.32154   0.35130   0.36767   0.39556   0.43869
 Alpha virt. eigenvalues --    0.47404   0.47457   0.48818   0.49316   0.50443
 Alpha virt. eigenvalues --    0.50591   0.51941   0.52548   0.54247   0.54473
 Alpha virt. eigenvalues --    0.55162   0.55659   0.56801   0.56940   0.57667
 Alpha virt. eigenvalues --    0.59231   0.59505   0.60202   0.60777   0.60787
 Alpha virt. eigenvalues --    0.61644   0.62169   0.62420   0.63860   0.64117
 Alpha virt. eigenvalues --    0.66148   0.67846   0.69215   0.69226   0.69570
 Alpha virt. eigenvalues --    0.71318   0.72040   0.73133   0.74079   0.74905
 Alpha virt. eigenvalues --    0.76558   0.77133   0.77779   0.79611   0.79992
 Alpha virt. eigenvalues --    0.80152   0.80608   0.82094   0.82657   0.83346
 Alpha virt. eigenvalues --    0.84388   0.84494   0.85436   0.86280   0.86749
 Alpha virt. eigenvalues --    0.87412   0.88585   0.90071   0.93039   0.93770
 Alpha virt. eigenvalues --    0.94731   0.96632   0.96967   0.98815   0.98940
 Alpha virt. eigenvalues --    0.99164   1.00977   1.00993   1.01700   1.02372
 Alpha virt. eigenvalues --    1.03934   1.04207   1.07193   1.08524   1.10133
 Alpha virt. eigenvalues --    1.10426   1.11101   1.12131   1.13995   1.14665
 Alpha virt. eigenvalues --    1.17251   1.18089   1.20113   1.21325   1.21918
 Alpha virt. eigenvalues --    1.24583   1.25400   1.26896   1.27759   1.30727
 Alpha virt. eigenvalues --    1.30796   1.33063   1.34494   1.35136   1.36500
 Alpha virt. eigenvalues --    1.38567   1.39265   1.39950   1.48735   1.54048
 Alpha virt. eigenvalues --    1.56696   1.57381   1.57970   1.61167   1.61916
 Alpha virt. eigenvalues --    1.64292   1.65485   1.67366   1.68716   1.69756
 Alpha virt. eigenvalues --    1.70958   1.71054   1.71741   1.72155   1.73404
 Alpha virt. eigenvalues --    1.74095   1.76081   1.76838   1.79069   1.79093
 Alpha virt. eigenvalues --    1.79459   1.80274   1.80350   1.81292   1.82145
 Alpha virt. eigenvalues --    1.82403   1.83397   1.83453   1.84847   1.87668
 Alpha virt. eigenvalues --    1.87981   1.88653   1.89219   1.89798   1.91653
 Alpha virt. eigenvalues --    1.92147   1.92370   1.93894   1.94666   1.95680
 Alpha virt. eigenvalues --    1.96524   1.96814   2.02780   2.04163   2.04733
 Alpha virt. eigenvalues --    2.07400   2.08020   2.09375   2.12264   2.13202
 Alpha virt. eigenvalues --    2.15040   2.17092   2.18378   2.18729   2.19634
 Alpha virt. eigenvalues --    2.20438   2.21292   2.22034   2.22327   2.24356
 Alpha virt. eigenvalues --    2.26232   2.29982   2.29995   2.31249   2.32121
 Alpha virt. eigenvalues --    2.36144   2.36979   2.37733   2.38360   2.39049
 Alpha virt. eigenvalues --    2.39690   2.40385   2.41018   2.43699   2.45245
 Alpha virt. eigenvalues --    2.45486   2.47968   2.48566   2.49566   2.50421
 Alpha virt. eigenvalues --    2.51444   2.52191   2.53248   2.53381   2.53533
 Alpha virt. eigenvalues --    2.55506   2.56648   2.59581   2.60391   2.64358
 Alpha virt. eigenvalues --    2.64439   2.65932   2.65977   2.68576   2.68906
 Alpha virt. eigenvalues --    2.69672   2.71676   2.73281   2.77959   2.80408
 Alpha virt. eigenvalues --    2.85369   2.88984   2.90942   2.97850   2.99391
 Alpha virt. eigenvalues --    3.05142   3.05527   3.06010   3.06964   3.07263
 Alpha virt. eigenvalues --    3.08825   3.11997   3.15627   3.17810   3.19324
 Alpha virt. eigenvalues --    3.22567   3.22673   3.23351   3.24334   3.25525
 Alpha virt. eigenvalues --    3.27538   3.29761   3.33269   3.42937   3.55954
 Alpha virt. eigenvalues --    3.63981   4.07431   4.11722   4.12924   4.18384
 Alpha virt. eigenvalues --    4.21714   4.24327   4.26368   4.31639   4.32649
 Alpha virt. eigenvalues --    4.33760   4.37025   4.42994   4.46438   4.49265
 Alpha virt. eigenvalues --    4.51054   4.72171
          Condensed to atoms (all electrons):
               1          2          3          4          5          6
     1  C    7.232775   0.773250  -2.255474   0.564673   0.067825  -1.354654
     2  C    0.773250   6.536434  -1.037116  -0.318243   0.704747  -0.927774
     3  C   -2.255474  -1.037116  14.293172  -3.768073  -3.580250   2.652351
     4  C    0.564673  -0.318243  -3.768073  11.966037   1.997514  -0.005410
     5  C    0.067825   0.704747  -3.580250   1.997514   9.375118   0.065868
     6  C   -1.354654  -0.927774   2.652351  -0.005410   0.065868  10.029966
     7  C    0.639199   0.205426   0.225511  -3.703180  -3.537184  -1.453994
     8  C   -0.193681  -0.212215   0.052115  -0.260397   0.892289   0.175226
     9  C    0.068518  -0.186673   0.723355   0.616588  -0.093425   0.336599
    10  C    0.264304   0.139455  -1.286326   0.019770   0.210911  -1.481918
    11  N   -0.163698   0.083945   0.026588  -0.200290   0.002738  -0.544230
    12  N    0.036476   0.037389  -0.127841  -0.192084  -0.023322  -0.087391
    13  C    0.050174   0.036934   0.003269  -0.085331  -0.040691  -0.629428
    14  C    0.050170   0.036933   0.003270  -0.085330  -0.040695  -0.629426
    15  C    0.040337   0.009030  -0.064708  -0.072334  -0.040686   0.056369
    16  C    0.040340   0.009031  -0.064709  -0.072332  -0.040693   0.056369
    17  H    0.220507   0.101311   0.066364  -0.023664  -0.017661  -0.082953
    18  H    0.005130   0.247168   0.023951   0.002202   0.002344   0.042299
    19  H    0.009563   0.061843   0.203754   0.016621   0.060365  -0.004094
    20  H   -0.001813   0.005421  -0.052516   0.016354   0.062435   0.002038
    21  H   -0.000134   0.001133  -0.004385   0.010447   0.004526   0.001329
    22  H   -0.000659   0.000859   0.000044  -0.018857  -0.010246  -0.006317
    23  H   -0.034466  -0.005360   0.015185   0.025000  -0.006254   0.012957
    24  H   -0.011536   0.000796  -0.000900  -0.000988   0.009730   0.069691
    25  H    0.009208  -0.004501  -0.002343   0.008222  -0.011205  -0.044029
    26  H    0.018172  -0.000144  -0.000339  -0.007017  -0.002497  -0.055657
    27  H   -0.011537   0.000796  -0.000900  -0.000988   0.009730   0.069692
    28  H    0.009214  -0.004501  -0.002344   0.008224  -0.011208  -0.044035
    29  H    0.018169  -0.000143  -0.000339  -0.007019  -0.002496  -0.055656
    30  H    0.003494  -0.000705   0.003027   0.011555  -0.018588   0.010609
    31  H   -0.000163   0.000017  -0.000831  -0.004892   0.003311  -0.001673
    32  H   -0.000699   0.000116  -0.000172  -0.002031   0.009484  -0.010394
    33  H    0.003494  -0.000705   0.003027   0.011556  -0.018589   0.010611
    34  H   -0.000699   0.000116  -0.000172  -0.002031   0.009483  -0.010395
    35  H   -0.000163   0.000017  -0.000831  -0.004893   0.003310  -0.001673
               7          8          9         10         11         12
     1  C    0.639199  -0.193681   0.068518   0.264304  -0.163698   0.036476
     2  C    0.205426  -0.212215  -0.186673   0.139455   0.083945   0.037389
     3  C    0.225511   0.052115   0.723355  -1.286326   0.026588  -0.127841
     4  C   -3.703180  -0.260397   0.616588   0.019770  -0.200290  -0.192084
     5  C   -3.537184   0.892289  -0.093425   0.210911   0.002738  -0.023322
     6  C   -1.453994   0.175226   0.336599  -1.481918  -0.544230  -0.087391
     7  C   14.624547  -1.193331  -2.230065   2.475011  -0.136550   0.064715
     8  C   -1.193331   6.587451   0.636883  -0.814698   0.041623   0.083714
     9  C   -2.230065   0.636883   7.179994  -1.187076   0.036473  -0.186461
    10  C    2.475011  -0.814698  -1.187076   9.620491  -0.082261  -0.515331
    11  N   -0.136550   0.041623   0.036473  -0.082261   7.940360  -0.207442
    12  N    0.064715   0.083714  -0.186461  -0.515331  -0.207442   8.078344
    13  C   -0.066921   0.012269   0.033800   0.062930   0.255145  -0.009980
    14  C   -0.066920   0.012270   0.033802   0.062932   0.255143  -0.009983
    15  C    0.013285   0.027725   0.037894  -0.621370  -0.009868   0.255832
    16  C    0.013287   0.027719   0.037891  -0.621358  -0.009873   0.255837
    17  H   -0.000458   0.000999  -0.000682  -0.006554   0.030476  -0.000450
    18  H   -0.006232   0.001194   0.000048   0.000604  -0.000982  -0.000015
    19  H   -0.052382   0.006254  -0.001869   0.000796  -0.000036   0.000245
    20  H    0.195677   0.070296   0.007985  -0.004943   0.000253  -0.000075
    21  H    0.008708   0.252402   0.007902   0.036977  -0.000017  -0.001442
    22  H    0.059307   0.094334   0.225214  -0.081309  -0.000311   0.023831
    23  H   -0.002210  -0.003091  -0.022888   0.050956   0.131313   0.093132
    24  H    0.000070   0.000125  -0.001052  -0.013764  -0.060113   0.005274
    25  H    0.002561  -0.000359   0.002226   0.011202  -0.030937  -0.002697
    26  H   -0.001236  -0.000077   0.000340  -0.000612  -0.019465  -0.001104
    27  H    0.000070   0.000125  -0.001052  -0.013764  -0.060115   0.005274
    28  H    0.002561  -0.000359   0.002227   0.011202  -0.030938  -0.002697
    29  H   -0.001237  -0.000077   0.000340  -0.000612  -0.019464  -0.001104
    30  H   -0.000561  -0.006436   0.019937  -0.052026  -0.001788  -0.036639
    31  H   -0.003223   0.001652   0.003186  -0.018962  -0.002082  -0.045397
    32  H   -0.000844   0.000338  -0.012229   0.055024   0.007038  -0.067190
    33  H   -0.000563  -0.006436   0.019941  -0.052024  -0.001789  -0.036644
    34  H   -0.000844   0.000338  -0.012230   0.055022   0.007038  -0.067189
    35  H   -0.003222   0.001651   0.003180  -0.018963  -0.002082  -0.045394
              13         14         15         16         17         18
     1  C    0.050174   0.050170   0.040337   0.040340   0.220507   0.005130
     2  C    0.036934   0.036933   0.009030   0.009031   0.101311   0.247168
     3  C    0.003269   0.003270  -0.064708  -0.064709   0.066364   0.023951
     4  C   -0.085331  -0.085330  -0.072334  -0.072332  -0.023664   0.002202
     5  C   -0.040691  -0.040695  -0.040686  -0.040693  -0.017661   0.002344
     6  C   -0.629428  -0.629426   0.056369   0.056369  -0.082953   0.042299
     7  C   -0.066921  -0.066920   0.013285   0.013287  -0.000458  -0.006232
     8  C    0.012269   0.012270   0.027725   0.027719   0.000999   0.001194
     9  C    0.033800   0.033802   0.037894   0.037891  -0.000682   0.000048
    10  C    0.062930   0.062932  -0.621370  -0.621358  -0.006554   0.000604
    11  N    0.255145   0.255143  -0.009868  -0.009873   0.030476  -0.000982
    12  N   -0.009980  -0.009983   0.255832   0.255837  -0.000450  -0.000015
    13  C    5.524776  -0.069616  -0.032596  -0.043206   0.008846  -0.000472
    14  C   -0.069616   5.524782  -0.043208  -0.032596   0.008845  -0.000472
    15  C   -0.032596  -0.043208   5.492274  -0.058687  -0.000318   0.000002
    16  C   -0.043206  -0.032596  -0.058687   5.492271  -0.000318   0.000002
    17  H    0.008846   0.008845  -0.000318  -0.000318   0.541844  -0.005068
    18  H   -0.000472  -0.000472   0.000002   0.000002  -0.005068   0.515906
    19  H    0.000009   0.000009   0.000063   0.000063  -0.000170  -0.004787
    20  H    0.000064   0.000064  -0.000023  -0.000023   0.000000  -0.000007
    21  H    0.000013   0.000013  -0.000618  -0.000618  -0.000000  -0.000000
    22  H   -0.000222  -0.000222   0.009522   0.009522  -0.000000  -0.000000
    23  H   -0.019294  -0.019295  -0.031657  -0.031657   0.000021   0.000002
    24  H    0.376076  -0.024671   0.002895   0.003727   0.000016  -0.000000
    25  H    0.412190   0.015885  -0.000642  -0.006102   0.000145  -0.000000
    26  H    0.430429  -0.010754   0.000192  -0.000791   0.000165   0.000005
    27  H   -0.024672   0.376076   0.003727   0.002895   0.000016  -0.000000
    28  H    0.015884   0.412191  -0.006103  -0.000642   0.000145  -0.000000
    29  H   -0.010753   0.430428  -0.000791   0.000192   0.000165   0.000005
    30  H   -0.000704  -0.006837   0.417354   0.015373   0.000000  -0.000000
    31  H    0.000798   0.000271   0.424593  -0.015391  -0.000000  -0.000000
    32  H    0.001743   0.002131   0.393905  -0.022632   0.000000   0.000000
    33  H   -0.006836  -0.000705   0.015371   0.417356   0.000000  -0.000000
    34  H    0.002131   0.001743  -0.022632   0.393906   0.000000   0.000000
    35  H    0.000271   0.000798  -0.015386   0.424594  -0.000000  -0.000000
              19         20         21         22         23         24
     1  C    0.009563  -0.001813  -0.000134  -0.000659  -0.034466  -0.011536
     2  C    0.061843   0.005421   0.001133   0.000859  -0.005360   0.000796
     3  C    0.203754  -0.052516  -0.004385   0.000044   0.015185  -0.000900
     4  C    0.016621   0.016354   0.010447  -0.018857   0.025000  -0.000988
     5  C    0.060365   0.062435   0.004526  -0.010246  -0.006254   0.009730
     6  C   -0.004094   0.002038   0.001329  -0.006317   0.012957   0.069691
     7  C   -0.052382   0.195677   0.008708   0.059307  -0.002210   0.000070
     8  C    0.006254   0.070296   0.252402   0.094334  -0.003091   0.000125
     9  C   -0.001869   0.007985   0.007902   0.225214  -0.022888  -0.001052
    10  C    0.000796  -0.004943   0.036977  -0.081309   0.050956  -0.013764
    11  N   -0.000036   0.000253  -0.000017  -0.000311   0.131313  -0.060113
    12  N    0.000245  -0.000075  -0.001442   0.023831   0.093132   0.005274
    13  C    0.000009   0.000064   0.000013  -0.000222  -0.019294   0.376076
    14  C    0.000009   0.000064   0.000013  -0.000222  -0.019295  -0.024671
    15  C    0.000063  -0.000023  -0.000618   0.009522  -0.031657   0.002895
    16  C    0.000063  -0.000023  -0.000618   0.009522  -0.031657   0.003727
    17  H   -0.000170   0.000000  -0.000000  -0.000000   0.000021   0.000016
    18  H   -0.004787  -0.000007  -0.000000  -0.000000   0.000002  -0.000000
    19  H    0.529296   0.003131  -0.000007   0.000000  -0.000000   0.000000
    20  H    0.003131   0.530718  -0.004754  -0.000168  -0.000000   0.000000
    21  H   -0.000007  -0.004754   0.517806  -0.005088   0.000001   0.000000
    22  H    0.000000  -0.000168  -0.005088   0.539667   0.000025   0.000000
    23  H   -0.000000  -0.000000   0.000001   0.000025   0.377794  -0.003581
    24  H    0.000000   0.000000   0.000000   0.000000  -0.003581   0.485699
    25  H    0.000000  -0.000000   0.000000   0.000000  -0.003085  -0.021431
    26  H   -0.000000  -0.000000  -0.000000  -0.000000   0.003329  -0.024701
    27  H    0.000000   0.000000   0.000000   0.000000  -0.003581   0.001853
    28  H    0.000000  -0.000000   0.000000   0.000000  -0.003085   0.000161
    29  H   -0.000000  -0.000000  -0.000000  -0.000000   0.003329  -0.000521
    30  H   -0.000000   0.000000  -0.000001   0.000131  -0.002400   0.000000
    31  H    0.000000  -0.000000   0.000009   0.000686   0.001655   0.000000
    32  H    0.000000   0.000000  -0.000000  -0.000006  -0.002504   0.000009
    33  H   -0.000000   0.000000  -0.000001   0.000131  -0.002400  -0.000047
    34  H    0.000000   0.000000  -0.000000  -0.000006  -0.002504  -0.000070
    35  H    0.000000  -0.000000   0.000009   0.000687   0.001654   0.000006
              25         26         27         28         29         30
     1  C    0.009208   0.018172  -0.011537   0.009214   0.018169   0.003494
     2  C   -0.004501  -0.000144   0.000796  -0.004501  -0.000143  -0.000705
     3  C   -0.002343  -0.000339  -0.000900  -0.002344  -0.000339   0.003027
     4  C    0.008222  -0.007017  -0.000988   0.008224  -0.007019   0.011555
     5  C   -0.011205  -0.002497   0.009730  -0.011208  -0.002496  -0.018588
     6  C   -0.044029  -0.055657   0.069692  -0.044035  -0.055656   0.010609
     7  C    0.002561  -0.001236   0.000070   0.002561  -0.001237  -0.000561
     8  C   -0.000359  -0.000077   0.000125  -0.000359  -0.000077  -0.006436
     9  C    0.002226   0.000340  -0.001052   0.002227   0.000340   0.019937
    10  C    0.011202  -0.000612  -0.013764   0.011202  -0.000612  -0.052026
    11  N   -0.030937  -0.019465  -0.060115  -0.030938  -0.019464  -0.001788
    12  N   -0.002697  -0.001104   0.005274  -0.002697  -0.001104  -0.036639
    13  C    0.412190   0.430429  -0.024672   0.015884  -0.010753  -0.000704
    14  C    0.015885  -0.010754   0.376076   0.412191   0.430428  -0.006837
    15  C   -0.000642   0.000192   0.003727  -0.006103  -0.000791   0.417354
    16  C   -0.006102  -0.000791   0.002895  -0.000642   0.000192   0.015373
    17  H    0.000145   0.000165   0.000016   0.000145   0.000165   0.000000
    18  H   -0.000000   0.000005  -0.000000  -0.000000   0.000005  -0.000000
    19  H    0.000000  -0.000000   0.000000   0.000000  -0.000000  -0.000000
    20  H   -0.000000  -0.000000   0.000000  -0.000000  -0.000000   0.000000
    21  H    0.000000  -0.000000   0.000000   0.000000  -0.000000  -0.000001
    22  H    0.000000  -0.000000   0.000000   0.000000  -0.000000   0.000131
    23  H   -0.003085   0.003329  -0.003581  -0.003085   0.003329  -0.002400
    24  H   -0.021431  -0.024701   0.001853   0.000161  -0.000521   0.000000
    25  H    0.472874  -0.021991   0.000161  -0.000196   0.000011  -0.000001
    26  H   -0.021991   0.477543  -0.000521   0.000011   0.003232   0.000000
    27  H    0.000161  -0.000521   0.485699  -0.021431  -0.024700  -0.000048
    28  H   -0.000196   0.000011  -0.021431   0.472874  -0.021991   0.000191
    29  H    0.000011   0.003232  -0.024700  -0.021991   0.477545   0.000017
    30  H   -0.000001   0.000000  -0.000048   0.000191   0.000017   0.501059
    31  H    0.000000  -0.000000   0.000006   0.000020  -0.000001  -0.026660
    32  H    0.000000   0.000000  -0.000070  -0.000062   0.000005  -0.022468
    33  H    0.000191   0.000017   0.000000  -0.000001   0.000000  -0.000210
    34  H   -0.000062   0.000005   0.000009   0.000000   0.000000   0.000214
    35  H    0.000020  -0.000001   0.000000   0.000000  -0.000000  -0.000068
              31         32         33         34         35
     1  C   -0.000163  -0.000699   0.003494  -0.000699  -0.000163
     2  C    0.000017   0.000116  -0.000705   0.000116   0.000017
     3  C   -0.000831  -0.000172   0.003027  -0.000172  -0.000831
     4  C   -0.004892  -0.002031   0.011556  -0.002031  -0.004893
     5  C    0.003311   0.009484  -0.018589   0.009483   0.003310
     6  C   -0.001673  -0.010394   0.010611  -0.010395  -0.001673
     7  C   -0.003223  -0.000844  -0.000563  -0.000844  -0.003222
     8  C    0.001652   0.000338  -0.006436   0.000338   0.001651
     9  C    0.003186  -0.012229   0.019941  -0.012230   0.003180
    10  C   -0.018962   0.055024  -0.052024   0.055022  -0.018963
    11  N   -0.002082   0.007038  -0.001789   0.007038  -0.002082
    12  N   -0.045397  -0.067190  -0.036644  -0.067189  -0.045394
    13  C    0.000798   0.001743  -0.006836   0.002131   0.000271
    14  C    0.000271   0.002131  -0.000705   0.001743   0.000798
    15  C    0.424593   0.393905   0.015371  -0.022632  -0.015386
    16  C   -0.015391  -0.022632   0.417356   0.393906   0.424594
    17  H   -0.000000   0.000000   0.000000   0.000000  -0.000000
    18  H   -0.000000   0.000000  -0.000000   0.000000  -0.000000
    19  H    0.000000   0.000000  -0.000000   0.000000   0.000000
    20  H   -0.000000   0.000000   0.000000   0.000000  -0.000000
    21  H    0.000009  -0.000000  -0.000001  -0.000000   0.000009
    22  H    0.000686  -0.000006   0.000131  -0.000006   0.000687
    23  H    0.001655  -0.002504  -0.002400  -0.002504   0.001654
    24  H    0.000000   0.000009  -0.000047  -0.000070   0.000006
    25  H    0.000000   0.000000   0.000191  -0.000062   0.000020
    26  H   -0.000000   0.000000   0.000017   0.000005  -0.000001
    27  H    0.000006  -0.000070   0.000000   0.000009   0.000000
    28  H    0.000020  -0.000062  -0.000001   0.000000   0.000000
    29  H   -0.000001   0.000005   0.000000   0.000000  -0.000000
    30  H   -0.026660  -0.022468  -0.000210   0.000214  -0.000068
    31  H    0.511257  -0.029127  -0.000068  -0.001000   0.005838
    32  H   -0.029127   0.507487   0.000214   0.002748  -0.001000
    33  H   -0.000068   0.000214   0.501056  -0.022467  -0.026661
    34  H   -0.001000   0.002748  -0.022467   0.507487  -0.029128
    35  H    0.005838  -0.001000  -0.026661  -0.029128   0.511260
 Mulliken charges:
               1
     1  C   -0.095613
     2  C   -0.294088
     3  C   -0.044414
     4  C   -0.439380
     5  C    0.003961
     6  C   -0.160874
     7  C   -0.068777
     8  C   -0.287838
     9  C   -0.098617
    10  C   -0.203717
    11  N   -0.233804
    12  N   -0.272190
    13  C   -0.187029
    14  C   -0.187026
    15  C   -0.178743
    16  C   -0.178747
    17  H    0.158434
    18  H    0.177173
    19  H    0.171336
    20  H    0.169889
    21  H    0.175790
    22  H    0.159449
    23  H    0.482961
    24  H    0.207246
    25  H    0.214687
    26  H    0.213464
    27  H    0.207246
    28  H    0.214687
    29  H    0.213463
    30  H    0.193179
    31  H    0.196172
    32  H    0.191186
    33  H    0.193181
    34  H    0.191185
    35  H    0.196170
 Sum of Mulliken charges =   1.00000
 Mulliken charges with hydrogens summed into heavy atoms:
               1
     1  C    0.062821
     2  C   -0.116915
     3  C    0.126922
     4  C   -0.439380
     5  C    0.003961
     6  C   -0.160874
     7  C    0.101112
     8  C   -0.112048
     9  C    0.060832
    10  C   -0.203717
    11  N    0.249156
    12  N   -0.272190
    13  C    0.448368
    14  C    0.448370
    15  C    0.401793
    16  C    0.401789
 Electronic spatial extent (au):  <R**2>=           3322.1006
 Charge=              1.0000 electrons
 Dipole moment (field-independent basis, Debye):
    X=             -3.8781    Y=             -1.4966    Z=              0.0001  Tot=              4.1569
 Quadrupole moment (field-independent basis, Debye-Ang):
   XX=            -63.2711   YY=            -64.8988   ZZ=            -91.7107
   XY=              2.8851   XZ=             -0.0004   YZ=             -0.0014
 Traceless Quadrupole moment (field-independent basis, Debye-Ang):
   XX=             10.0224   YY=              8.3947   ZZ=            -18.4172
   XY=              2.8851   XZ=             -0.0004   YZ=             -0.0014
 Octapole moment (field-independent basis, Debye-Ang**2):
  XXX=             -1.4631  YYY=             -9.3970  ZZZ=              0.0013  XYY=             -9.4134
  XXY=             -6.8791  XXZ=             -0.0002  XZZ=            -28.2387  YZZ=             -3.7186
  YYZ=              0.0000  XYZ=             -0.0008
 Hexadecapole moment (field-independent basis, Debye-Ang**3):
 XXXX=          -1767.9673 YYYY=          -1697.3465 ZZZZ=           -391.9919 XXXY=             15.8744
 XXXZ=              0.0049 YYYX=             18.7118 YYYZ=              0.0252 ZZZX=              0.0081
 ZZZY=              0.0406 XXYY=           -552.3089 XXZZ=           -416.0978 YYZZ=           -400.2373
 XXYZ=              0.0070 YYXZ=              0.0018 ZZXY=              6.7101
 N-N= 1.138756246421D+03 E-N=-3.774043460650D+03  KE= 6.473340928976D+02
 Calling FoFJK, ICntrl=      2527 FMM=F ISym2X=0 I1Cent= 0 IOpClX= 0 NMat=1 NMatS=1 NMatT=0.
 ***** Axes restored to original set *****
 -------------------------------------------------------------------
 Center     Atomic                   Forces (Hartrees/Bohr)
 Number     Number              X              Y              Z
 -------------------------------------------------------------------
      1        6           0.001279545   -0.004061546    0.000000217
      2        6          -0.000937485   -0.003947467    0.000000255
      3        6           0.002290952    0.002794948   -0.000000282
      4        6           0.002792989   -0.000006055   -0.000000035
      5        6          -0.003310048   -0.000094718    0.000000101
      6        6          -0.001393979    0.003012783    0.000000014
      7        6           0.002406325   -0.002710350    0.000000007
      8        6          -0.001232732    0.004014636    0.000000009
      9        6           0.001287163    0.004014148   -0.000000444
     10        6          -0.001206533   -0.002995979    0.000000250
     11        7          -0.000737998   -0.002744086    0.000001557
     12        7          -0.002234137   -0.003934999    0.000001736
     13        6          -0.000065177    0.000329438   -0.000003528
     14        6          -0.000064129    0.000328477    0.000004304
     15        6          -0.000015844   -0.000481269    0.000101058
     16        6          -0.000016441   -0.000482933   -0.000100577
     17        1          -0.002606670   -0.004779202    0.000000211
     18        1           0.002712454   -0.004633331    0.000000121
     19        1           0.005404654    0.000389417   -0.000000001
     20        1           0.005408751   -0.000180041   -0.000000033
     21        1           0.002538405    0.004749623   -0.000000266
     22        1          -0.002788737    0.004715377   -0.000000120
     23        1          -0.001707861    0.006401939   -0.000004137
     24        1          -0.005234152    0.000665879   -0.000047372
     25        1           0.002099124    0.002573681   -0.004227426
     26        1           0.001244519   -0.005245446   -0.000339397
     27        1          -0.005234523    0.000665830    0.000047236
     28        1           0.002099108    0.002573674    0.004226768
     29        1           0.001244135   -0.005245490    0.000340028
     30        1           0.002142068   -0.002396550    0.004200371
     31        1           0.000970468    0.005414516    0.000378023
     32        1          -0.005123368   -0.000861298    0.000060383
     33        1           0.002142027   -0.002397014   -0.004200602
     34        1          -0.005123248   -0.000861365   -0.000060333
     35        1           0.000970378    0.005414774   -0.000378098
 -------------------------------------------------------------------
 Cartesian Forces:  Max     0.006401939 RMS     0.002633651

 GradGradGradGradGradGradGradGradGradGradGradGradGradGradGradGradGradGrad
 Berny optimization.
 FormGI is forming the generalized inverse of G from B-inverse, IUseBI=4.
 GSVD:  received Info=                   1 from GESDD.
 Internal  Forces:  Max     0.010386211 RMS     0.002846992
 Search for a local minimum.
 Step number   1 out of a maximum of  193
 All quantities printed in internal units (Hartrees-Bohrs-Radians)
 Mixed Optimization -- RFO/linear search
 Second derivative matrix not updated -- first step.
 ITU=  0
     Eigenvalues ---    0.00513   0.00513   0.00672   0.00672   0.00700
     Eigenvalues ---    0.00908   0.01541   0.01676   0.01720   0.01736
     Eigenvalues ---    0.01769   0.01996   0.02045   0.02083   0.02094
     Eigenvalues ---    0.02175   0.02183   0.02194   0.02219   0.02286
     Eigenvalues ---    0.02301   0.02611   0.03477   0.04797   0.05862
     Eigenvalues ---    0.05862   0.05977   0.05977   0.06231   0.07191
     Eigenvalues ---    0.07191   0.07463   0.07463   0.16000   0.16000
     Eigenvalues ---    0.16000   0.16000   0.16000   0.16000   0.16000
     Eigenvalues ---    0.16000   0.16000   0.16000   0.16000   0.16000
     Eigenvalues ---    0.16000   0.16000   0.16000   0.16000   0.16000
     Eigenvalues ---    0.16000   0.17515   0.17605   0.18941   0.19220
     Eigenvalues ---    0.22061   0.22129   0.23305   0.23705   0.24873
     Eigenvalues ---    0.24943   0.25000   0.25000   0.30751   0.33550
     Eigenvalues ---    0.33550   0.34042   0.34042   0.34397   0.34397
     Eigenvalues ---    0.34562   0.34562   0.34578   0.34578   0.34626
     Eigenvalues ---    0.34626   0.34767   0.34767   0.34902   0.34902
     Eigenvalues ---    0.35152   0.35239   0.35246   0.35256   0.35264
     Eigenvalues ---    0.35364   0.35403   0.36265   0.37061   0.39340
     Eigenvalues ---    0.39770   0.41445   0.41813   0.43204   0.43322
     Eigenvalues ---    0.48015   0.48358   0.49428   0.49600
 RFO step:  Lambda=-3.79825337D-03 EMin= 5.13303230D-03
 Linear search not attempted -- first point.
 Iteration  1 RMS(Cart)=  0.02205839 RMS(Int)=  0.00006845
 Iteration  2 RMS(Cart)=  0.00019821 RMS(Int)=  0.00000957
 Iteration  3 RMS(Cart)=  0.00000001 RMS(Int)=  0.00000957
 Variable       Old X    -DE/DX   Delta X   Delta X   Delta X     New X
                                 (Linear)    (Quad)   (Total)
    R1        2.66398   0.00655   0.00000   0.01518   0.01518   2.67916
    R2        2.59764   0.00979   0.00000   0.01952   0.01952   2.61716
    R3        2.05288   0.00544   0.00000   0.01528   0.01528   2.06817
    R4        2.59622   0.01030   0.00000   0.02061   0.02061   2.61683
    R5        2.05025   0.00537   0.00000   0.01500   0.01500   2.06525
    R6        2.68000   0.00661   0.00000   0.01520   0.01520   2.69520
    R7        2.05262   0.00541   0.00000   0.01520   0.01520   2.06781
    R8        2.71551   0.00842   0.00000   0.01987   0.01987   2.73538
    R9        2.67902   0.00668   0.00000   0.01534   0.01534   2.69437
   R10        2.69652   0.00559   0.00000   0.01306   0.01305   2.70957
   R11        2.70320   0.00550   0.00000   0.01299   0.01299   2.71619
   R12        2.78729   0.00635   0.00000   0.01788   0.01788   2.80517
   R13        2.59543   0.01039   0.00000   0.02077   0.02077   2.61620
   R14        2.05248   0.00541   0.00000   0.01518   0.01518   2.06766
   R15        2.66460   0.00643   0.00000   0.01494   0.01494   2.67955
   R16        2.05088   0.00538   0.00000   0.01506   0.01506   2.06595
   R17        2.60337   0.00979   0.00000   0.01973   0.01973   2.62310
   R18        2.05278   0.00548   0.00000   0.01537   0.01537   2.06815
   R19        2.75754   0.00628   0.00000   0.01676   0.01676   2.77430
   R20        2.81397   0.00526   0.00000   0.01549   0.01549   2.82946
   R21        2.81397   0.00526   0.00000   0.01549   0.01549   2.82946
   R22        2.13191   0.00662   0.00000   0.02128   0.02128   2.15318
   R23        2.79134   0.00538   0.00000   0.01526   0.01526   2.80659
   R24        2.79134   0.00538   0.00000   0.01526   0.01526   2.80659
   R25        2.06365   0.00528   0.00000   0.01509   0.01509   2.07874
   R26        2.06055   0.00537   0.00000   0.01529   0.01529   2.07585
   R27        2.06287   0.00540   0.00000   0.01542   0.01542   2.07829
   R28        2.06365   0.00528   0.00000   0.01509   0.01509   2.07874
   R29        2.06056   0.00537   0.00000   0.01529   0.01529   2.07585
   R30        2.06287   0.00540   0.00000   0.01542   0.01542   2.07829
   R31        2.06392   0.00529   0.00000   0.01513   0.01513   2.07905
   R32        2.07259   0.00551   0.00000   0.01602   0.01602   2.08861
   R33        2.06665   0.00519   0.00000   0.01493   0.01493   2.08158
   R34        2.06392   0.00529   0.00000   0.01513   0.01513   2.07905
   R35        2.06665   0.00519   0.00000   0.01493   0.01493   2.08158
   R36        2.07259   0.00551   0.00000   0.01602   0.01602   2.08861
    A1        2.09886  -0.00058   0.00000  -0.00167  -0.00168   2.09718
    A2        2.08157   0.00040   0.00000   0.00150   0.00150   2.08307
    A3        2.10276   0.00018   0.00000   0.00017   0.00017   2.10294
    A4        2.08887  -0.00010   0.00000   0.00078   0.00078   2.08965
    A5        2.08766  -0.00005   0.00000  -0.00101  -0.00101   2.08665
    A6        2.10666   0.00015   0.00000   0.00023   0.00023   2.10689
    A7        2.11665   0.00006   0.00000   0.00037   0.00037   2.11702
    A8        2.09821   0.00014   0.00000   0.00088   0.00088   2.09909
    A9        2.06832  -0.00021   0.00000  -0.00125  -0.00125   2.06707
   A10        2.09186  -0.00038   0.00000  -0.00214  -0.00214   2.08973
   A11        2.10329   0.00077   0.00000   0.00431   0.00431   2.10760
   A12        2.08804  -0.00039   0.00000  -0.00217  -0.00217   2.08586
   A13        2.03537   0.00072   0.00000   0.00208   0.00208   2.03745
   A14        2.05797   0.00059   0.00000   0.00150   0.00150   2.05947
   A15        2.18984  -0.00132   0.00000  -0.00358  -0.00357   2.18626
   A16        2.13476   0.00027   0.00000   0.00058   0.00058   2.13534
   A17        2.09002   0.00107   0.00000   0.00447   0.00448   2.09449
   A18        2.05841  -0.00135   0.00000  -0.00506  -0.00506   2.05335
   A19        2.10998   0.00015   0.00000   0.00083   0.00083   2.11081
   A20        2.07073  -0.00026   0.00000  -0.00153  -0.00153   2.06920
   A21        2.10248   0.00011   0.00000   0.00070   0.00070   2.10318
   A22        2.09187  -0.00019   0.00000   0.00049   0.00049   2.09236
   A23        2.10368   0.00018   0.00000   0.00029   0.00029   2.10397
   A24        2.08763   0.00001   0.00000  -0.00077  -0.00078   2.08686
   A25        2.11566  -0.00067   0.00000  -0.00207  -0.00207   2.11359
   A26        2.07874   0.00042   0.00000   0.00159   0.00159   2.08033
   A27        2.08878   0.00024   0.00000   0.00048   0.00048   2.08926
   A28        2.10285   0.00050   0.00000   0.00143   0.00143   2.10428
   A29        2.07298  -0.00175   0.00000  -0.00662  -0.00661   2.06637
   A30        2.10736   0.00124   0.00000   0.00518   0.00518   2.11254
   A31        1.97300  -0.00022   0.00000   0.00140   0.00137   1.97437
   A32        1.97300  -0.00022   0.00000   0.00140   0.00138   1.97437
   A33        1.75918   0.00016   0.00000  -0.00152  -0.00152   1.75766
   A34        1.95173   0.00081   0.00000   0.00620   0.00619   1.95792
   A35        1.89726  -0.00033   0.00000  -0.00456  -0.00455   1.89271
   A36        1.89726  -0.00032   0.00000  -0.00452  -0.00451   1.89274
   A37        1.96539  -0.00020   0.00000   0.00357   0.00350   1.96889
   A38        1.96539  -0.00020   0.00000   0.00358   0.00351   1.96890
   A39        1.93995   0.00092   0.00000   0.00895   0.00890   1.94885
   A40        1.89965   0.00003   0.00000   0.00025   0.00025   1.89989
   A41        1.90265  -0.00025   0.00000  -0.00199  -0.00199   1.90066
   A42        1.92384   0.00027   0.00000   0.00205   0.00205   1.92589
   A43        1.91966  -0.00001   0.00000  -0.00090  -0.00090   1.91876
   A44        1.90995  -0.00003   0.00000   0.00078   0.00077   1.91073
   A45        1.90808  -0.00002   0.00000  -0.00020  -0.00020   1.90789
   A46        1.89965   0.00003   0.00000   0.00025   0.00025   1.89989
   A47        1.90265  -0.00025   0.00000  -0.00199  -0.00199   1.90066
   A48        1.92384   0.00027   0.00000   0.00205   0.00205   1.92589
   A49        1.91966  -0.00001   0.00000  -0.00090  -0.00090   1.91876
   A50        1.90996  -0.00003   0.00000   0.00077   0.00077   1.91073
   A51        1.90808  -0.00002   0.00000  -0.00020  -0.00020   1.90789
   A52        1.91543  -0.00029   0.00000  -0.00214  -0.00214   1.91329
   A53        1.95339   0.00029   0.00000   0.00214   0.00214   1.95553
   A54        1.90397  -0.00005   0.00000  -0.00030  -0.00030   1.90367
   A55        1.89258   0.00001   0.00000   0.00008   0.00008   1.89266
   A56        1.90595   0.00002   0.00000  -0.00068  -0.00068   1.90526
   A57        1.89192   0.00002   0.00000   0.00089   0.00088   1.89280
   A58        1.91543  -0.00029   0.00000  -0.00214  -0.00214   1.91329
   A59        1.90397  -0.00005   0.00000  -0.00030  -0.00030   1.90367
   A60        1.95339   0.00029   0.00000   0.00214   0.00214   1.95553
   A61        1.90595   0.00002   0.00000  -0.00068  -0.00068   1.90526
   A62        1.89258   0.00001   0.00000   0.00008   0.00008   1.89266
   A63        1.89192   0.00002   0.00000   0.00089   0.00088   1.89280
    D1        0.00000  -0.00000   0.00000  -0.00001  -0.00001  -0.00001
    D2        3.14159   0.00000   0.00000   0.00001   0.00001  -3.14158
    D3       -3.14159  -0.00000   0.00000  -0.00003  -0.00003   3.14157
    D4       -0.00000  -0.00000   0.00000  -0.00001  -0.00001  -0.00001
    D5        0.00000  -0.00000   0.00000  -0.00002  -0.00002  -0.00002
    D6       -3.14159  -0.00000   0.00000  -0.00005  -0.00005   3.14154
    D7        3.14159  -0.00000   0.00000  -0.00000  -0.00000   3.14159
    D8        0.00000  -0.00000   0.00000  -0.00003  -0.00003  -0.00003
[...]
 0005422,0.00001969,0.00003143,-0.00000568,-0.00001458,0.00000280,0.000
 03195,0.00001536,0.00000136,0.00005397,-0.00007064,-0.00002716,0.00023
 936,-0.00021080,0.00010077,-0.00013273,-0.00012304,-0.00003221,-0.0000
 4827,-0.00004123,-0.00003805,-0.00002086,0.00012969,-0.00002328,0.0004
 4945,0.00026813,0.00028550,-0.00180097,0.00037462,0.00005672,0.0001786
 5,-0.00134082,-0.00019991,-0.00980900,0.00882971,-0.02499080,-0.000014
 43,-0.00001109,-0.00001283,-0.00001526,0.00017125,-0.00046104,-0.08477
 169,0.09102533,-0.20784937,0.00361653,-0.00325940,-0.00328658,-0.00000
 069,0.00000142,-0.00001188,0.00000182,0.00000270,-0.00000205,-0.000000
 68,-0.00000451,-0.00000155,0.00000194,-0.00000052,0.00000775,0.0000172
 4,-0.00000197,-0.00000369,-0.00004283,-0.00003032,-0.00002918,-0.00020
 933,0.00191120,-0.00015268,0.00001390,0.00003199,-0.00001403,-0.000033
 52,0.00005196,0.00003687,0.00000111,-0.00002769,0.00000110,-0.00005991
 ,-0.00006141,-0.00002387,0.00012081,-0.00009950,0.00032011,0.00001607,
 0.00008573,0.00020047,0.09199352,-0.09714526,0.23309037,-0.00007897,-0
 .00002397,0.00008953,0.00002110,-0.00001636,0.00000834,-0.00005832,-0.
 00000237,0.00003542,0.00021042,0.00012553,0.00002913,-0.00048532,0.000
 17213,-0.00040483,0.00028953,-0.00016131,-0.00001555,0.00010260,-0.000
 14840,-0.00004788,-0.00019103,-0.00009718,-0.00006374,0.00009346,0.000
 13315,0.00025229,0.00189238,0.00169595,-0.00077354,-0.00032167,0.00130
 799,-0.00041041,0.00150496,0.01695842,0.00487694,-0.00013956,-0.000039
 50,-0.00012146,-0.00027521,-0.00001369,0.00007294,-0.05477169,-0.04897
 014,-0.00159628,-0.00015166,-0.00069525,-0.00113121,0.00000582,-0.0000
 0992,0.00000167,-0.00000747,-0.00000115,-0.00002050,-0.00000465,0.0000
 0500,-0.00000033,0.00001180,-0.00004005,0.00001589,0.00001004,-0.00000
 061,0.00005338,-0.00097184,-0.00046879,0.00093988,-0.00039698,-0.00169
 223,0.00117226,0.00001634,0.00000009,0.00001980,0.00002353,-0.00001905
 ,-0.00000454,0.00003170,0.00003160,0.00002168,0.00009001,0.00007768,0.
 00001345,-0.00002316,-0.00000250,0.00001099,0.00012663,0.00007233,-0.0
 0004049,0.00199888,0.01321670,0.00015390,0.05534597,0.00009957,0.00001
 878,0.00000708,-0.00002640,0.00004040,-0.00000105,0.00009298,0.0000125
 6,0.00001583,-0.00012412,-0.00010210,0.00001295,0.00046446,-0.00010764
 ,-0.00008394,-0.00065511,0.00015644,-0.00000802,-0.00003731,0.00012964
 ,-0.00006905,0.00033400,0.00026304,0.00014154,0.00043420,-0.00014857,0
 .00056394,-0.00234869,0.00048387,0.00003071,0.00018974,-0.00227366,0.0
 0039789,0.00236219,-0.01488990,-0.00781081,0.00021399,0.00007442,0.000
 28940,0.00026653,-0.00029714,-0.00008740,-0.04662913,-0.28938243,-0.00
 254030,0.00064943,0.00161995,0.00123436,-0.00002120,0.00002893,0.00000
 207,0.00001981,-0.00000224,-0.00000380,0.00000874,-0.00000633,-0.00000
 331,-0.00000681,0.00002815,-0.00002140,0.00005224,-0.00000605,0.000021
 65,-0.00014503,0.00054060,-0.00021871,0.00033071,0.00475651,-0.0007003
 2,0.00000300,0.00001450,0.00000476,-0.00001700,0.00000674,-0.00001884,
 -0.00003547,-0.00009188,-0.00007342,0.00003124,0.00004572,0.00000335,-
 0.00007143,0.00002227,-0.00007476,-0.00007400,-0.00013535,0.00006166,-
 0.00367920,-0.01107600,-0.00060171,0.04859093,0.31319606,0.00012595,-0
 .00002189,-0.00004378,-0.00003577,-0.00002873,-0.00000171,0.00004592,0
 .00004359,-0.00003595,-0.00009534,-0.00016431,0.00000948,0.00040517,-0
 .00000928,0.00034481,-0.00046150,0.00015503,0.00004045,-0.00010135,0.0
 0012936,0.00003604,0.00012286,0.00021619,-0.00004735,0.00004127,-0.000
 23469,-0.00012078,-0.00224646,-0.00000582,0.00032441,0.00008781,-0.003
 12523,0.00052767,-0.00095273,-0.03360504,-0.01079078,0.00015025,0.0000
 8213,0.00036296,0.00018072,-0.00005800,-0.00066347,-0.00089750,0.00046
 728,-0.04447353,0.00042042,-0.00317413,0.00312000,-0.00000834,0.000000
 40,-0.00000974,0.00001117,-0.00000209,0.00001129,0.00001050,-0.0000068
 2,-0.00000082,-0.00000569,0.00003145,-0.00000088,0.00002737,-0.0000041
 0,-0.00000294,0.00076371,0.00045063,-0.00020468,0.00094446,0.00402467,
 -0.00217321,-0.00003033,0.00000379,-0.00001636,0.00000006,0.00003528,0
 .00001581,-0.00002431,-0.00006118,-0.00009953,-0.00009096,-0.00008245,
 -0.00003471,0.00016323,-0.00011348,0.00018890,-0.00003900,-0.00003460,
 0.00030391,0.00522609,0.02355477,0.00191635,-0.00278009,0.00995101,0.0
 5139003,0.00011641,0.00002057,0.00000601,-0.00005450,0.00000712,0.0000
 0395,0.00002617,0.00001204,-0.00001470,-0.00013460,-0.00005202,-0.0001
 1735,-0.00008450,-0.00056554,0.00029543,-0.00018998,0.00001175,-0.0000
 4002,-0.00007503,0.00003655,0.00002253,-0.00003083,0.00008322,-0.00004
 893,0.00022477,0.00053712,0.00017213,0.00019800,0.00047383,0.00241686,
 -0.00021006,0.00091760,0.00002341,-0.01214015,0.00130848,0.00113301,-0
 .00001831,0.00001267,-0.00012237,-0.00020011,-0.00016844,0.00026554,-0
 .29791714,-0.04365225,-0.00325622,0.00040581,-0.00021942,-0.00109521,-
 0.00000636,0.00002989,0.00001001,0.00000419,0.00000601,-0.00000199,-0.
 00000661,0.00000982,-0.00000778,0.00000118,0.00000939,0.00000466,-0.00
 002567,-0.00000181,-0.00001433,-0.00000152,0.00000253,-0.00008566,-0.0
 0014570,-0.00084589,0.00013210,0.00005042,0.00003427,0.00004012,-0.000
 02008,-0.00000205,-0.00001637,0.00001947,0.00000010,0.00003439,0.00020
 207,0.00013196,0.00002618,-0.00014956,0.00002342,-0.00005973,0.0000972
 8,-0.00003311,-0.00009058,-0.00896134,-0.00303795,0.00065723,-0.003983
 68,0.00016086,-0.00098490,0.32233283,-0.00009076,-0.00006526,0.0000420
 5,-0.00001823,0.00001319,-0.00001235,0.00001141,0.00003603,-0.00000356
 ,-0.00005755,-0.00006969,0.00015857,0.00040361,0.00024472,0.00000013,0
 .00016801,0.00018307,0.00000321,0.00005577,0.00013027,-0.00005373,0.00
 020762,0.00006613,0.00041169,0.00012812,-0.00024514,0.00004963,0.00012
 998,-0.00036812,-0.00263156,-0.00018052,-0.00021413,-0.00011195,0.0170
 1325,0.00033445,-0.00165661,-0.00001879,-0.00003249,-0.00002593,0.0000
 7998,0.00004718,-0.00006054,-0.04705411,-0.05362935,-0.00024085,-0.000
 16396,0.00012753,0.00062061,0.00001288,-0.00002283,-0.00000147,-0.0000
 0798,-0.00000469,-0.00000492,0.00000679,-0.00001014,0.00000618,-0.0000
 1360,0.00001449,-0.00005980,0.00003748,-0.00000320,0.00001662,0.000118
 21,0.00028629,-0.00047823,0.00061751,0.00048070,0.00000666,-0.00003265
 ,-0.00001499,-0.00004121,-0.00000608,0.00000712,0.00002476,-0.00000280
 ,0.00000413,-0.00000232,-0.00010546,-0.00021668,-0.00004047,0.00012054
 ,0.00002783,0.00005777,-0.00007175,0.00003611,0.00007734,0.01358378,0.
 00202892,-0.00057042,-0.02949453,-0.00328695,-0.00042704,0.04487821,0.
 05409154,-0.00010725,-0.00002643,0.00000903,0.00004089,0.00003022,-0.0
 0001147,0.00005982,0.00000203,0.00003684,0.00013912,-0.00009317,0.0002
 1872,0.00078082,0.00036452,-0.00020625,0.00007914,-0.00002763,-0.00012
 503,0.00009445,-0.00007733,-0.00007315,-0.00000170,0.00010172,0.000265
 87,0.00049310,-0.00033649,0.00027312,0.00104402,-0.00160748,-0.0038749
 5,0.00005893,-0.00021591,-0.00009583,0.03027137,0.00141885,-0.00445414
 ,0.00004465,0.00001871,0.00005083,-0.00001955,-0.00006026,0.00000243,-
 0.01053029,-0.00057695,-0.04598503,0.00200058,0.00024813,0.00106171,0.
 00000079,-0.00001003,0.00000510,-0.00000177,-0.00000544,-0.00000232,0.
 00001294,-0.00002006,0.00001715,-0.00000326,0.00000242,-0.00003737,0.0
 0004829,0.00000531,-0.00000562,-0.00010303,0.00015616,-0.00015141,0.00
 004930,0.00063260,0.00032104,-0.00003557,-0.00004430,-0.00000171,0.000
 02265,-0.00001805,-0.00001354,-0.00001918,0.00000335,-0.00001594,0.000
 01834,0.00003692,0.00010813,-0.00010515,-0.00004262,-0.00002495,0.0000
 0769,-0.00000710,-0.00003147,-0.02298067,-0.00559040,0.00191869,-0.000
 36929,0.00108267,0.00003073,-0.00001011,0.00482094,0.05138720,-0.00005
 142,-0.00002683,-0.00001486,0.00000312,-0.00002153,-0.00000252,-0.0000
 2059,0.00001811,0.00000922,-0.00001208,-0.00004917,0.00003693,0.000170
 05,0.00035829,-0.00009080,0.00023359,0.00010171,-0.00001411,0.00002852
 ,-0.00000291,-0.00002400,-0.00008167,-0.00005399,0.00008587,-0.0000671
 8,-0.00007302,0.00005150,0.00086713,-0.00092971,-0.00124266,-0.0000393
 7,-0.00010075,-0.00004142,0.00398300,-0.00583332,-0.01442319,-0.000086
 24,0.00015892,0.00029536,-0.00010403,-0.00002508,-0.00003162,-0.001367
 40,0.00108315,-0.00205244,-0.09323649,0.05133181,0.09229118,0.00001251
 ,-0.00002899,0.00000494,-0.00000605,-0.00000325,0.00000207,0.00000467,
 -0.00000942,-0.00000051,-0.00000160,-0.00000322,-0.00001172,-0.0000043
 5,-0.00000053,-0.00000458,0.00012064,-0.00001028,-0.00006451,0.0001318
 1,-0.00028135,0.00048508,-0.00013593,-0.00012822,0.00010325,0.00033732
 ,-0.00009143,-0.00011190,-0.00001911,0.00007223,-0.00015730,-0.0000202
 8,0.00000828,0.00002236,0.00001547,0.00000307,-0.00003304,0.00002110,0
 .00001023,0.00000523,0.00081752,-0.00018306,-0.00070767,-0.00009743,0.
 00002762,0.00004397,0.00040984,0.00013482,-0.00018952,0.09515603,-0.00
 002995,-0.00003104,0.00000142,-0.00000125,-0.00002875,-0.00000084,-0.0
 0004361,0.00001595,0.00001345,0.00009312,0.00007044,-0.00003432,-0.000
 29659,0.00006816,-0.00002352,0.00018794,-0.00001647,-0.00003544,-0.000
 02485,-0.00007982,-0.00000624,-0.00015554,0.00012654,0.00010865,0.0001
 5212,-0.00044255,-0.00000838,-0.00043937,0.00084179,0.00028393,0.00013
 972,0.00000458,-0.00006284,-0.00674889,0.00547486,0.01427468,-0.000148
 37,-0.00023805,0.00023572,-0.00009765,-0.00000766,0.00003528,0.0012994
 1,-0.00086261,0.00197057,0.05134987,-0.09961684,-0.09682370,0.00001179
 ,-0.00001912,0.00000510,-0.00000489,0.00000176,-0.00000313,-0.00000519
 ,0.00000164,0.00000266,-0.00000890,0.00000118,-0.00001749,0.00001197,-
 0.00001087,-0.00001814,0.00013378,0.00001822,-0.00011161,-0.00033123,0
 .00054511,0.00008859,-0.00002858,0.00001429,-0.00003577,0.00010585,-0.
 00038350,-0.00005331,-0.00000190,0.00001522,-0.00009591,-0.00000124,0.
 00000594,0.00001675,0.00000048,0.00000750,-0.00004214,0.00001651,0.000
 00180,-0.00002762,-0.00018285,0.00069991,0.00076230,0.00012891,0.00026
 394,0.00048297,0.00010159,-0.00019215,-0.00007791,-0.05535852,0.102798
 06,-0.00005422,-0.00001967,0.00003143,0.00000569,0.00001459,0.00000279
 ,-0.00003194,-0.00001537,0.00000136,-0.00005387,0.00007066,-0.00002719
 ,-0.00023937,0.00021086,0.00010075,0.00013261,0.00012289,-0.00003216,0
 .00004826,0.00004116,-0.00003805,0.00002082,-0.00012968,-0.00002326,-0
 .00044930,-0.00026803,0.00028560,0.00180107,-0.00037472,0.00005722,-0.
 00017867,0.00134085,-0.00019995,0.00980580,-0.00883133,-0.02499124,0.0
 0001537,-0.00017135,-0.00046125,0.00001446,0.00001110,-0.00001280,-0.0
 0361681,0.00325920,-0.00328627,0.08475576,-0.09103784,-0.20785777,0.00
 000069,-0.00000141,-0.00001188,-0.00000182,-0.00000270,-0.00000205,0.0
 0000068,0.00000451,-0.00000155,-0.00000194,0.00000052,0.00000775,-0.00
 001724,0.00000197,-0.00000369,0.00004280,0.00003029,-0.00002920,0.0002
 0936,-0.00191131,-0.00015260,0.00005996,0.00006148,-0.00002387,-0.0001
 2086,0.00009962,0.00032029,-0.00001608,-0.00008579,0.00020056,-0.00001
 389,-0.00003199,-0.00001404,0.00003350,-0.00005196,0.00003688,-0.00000
 111,0.00002769,0.00000109,0.00070737,-0.00076249,-0.00123298,-0.000067
 49,-0.00000759,0.00012791,-0.00000437,0.00007378,0.00029494,-0.0919745
 1,0.09716013,0.23309907,0.00011642,0.00002058,-0.00000600,-0.00005450,
 0.00000711,-0.00000396,0.00002616,0.00001204,0.00001471,-0.00013462,-0
 .00005196,0.00011741,-0.00008472,-0.00056560,-0.00029537,-0.00018999,0
 .00001173,0.00003995,-0.00007504,0.00003657,-0.00002256,-0.00003081,0.
 00008320,0.00004892,0.00022465,0.00053705,-0.00017214,0.00019792,0.000
 47375,-0.00241732,-0.00021012,0.00091776,-0.00002342,-0.01214486,0.001
 30834,-0.00113259,-0.00020015,-0.00016846,-0.00026554,-0.00001836,0.00
 001267,0.00012238,0.00040552,-0.00021927,0.00109507,-0.29791222,-0.043
 66093,0.00329261,-0.00000636,0.00002989,-0.00001001,0.00000419,0.00000
 601,0.00000199,-0.00000661,0.00000982,0.00000778,0.00000118,0.00000939
 ,-0.00000467,-0.00002567,-0.00000181,0.00001433,-0.00000150,0.00000254
 ,0.00008566,-0.00014573,-0.00084613,-0.00013198,0.00020211,0.00013198,
 -0.00002616,-0.00014956,0.00002339,0.00005971,0.00009731,-0.00003310,0
 .00009057,0.00005043,0.00003428,-0.00004013,-0.00002008,-0.00000205,0.
 00001637,0.00001948,0.00000010,-0.00003440,0.00040986,0.00010161,0.000
 00435,-0.00017710,-0.00010076,-0.00010050,0.00044436,-0.00013002,-0.00
 062625,-0.00895882,-0.00303772,-0.00065554,0.32232989,-0.00009079,-0.0
 0006525,-0.00004204,-0.00001820,0.00001320,0.00001235,0.00001141,0.000
 03601,0.00000355,-0.00005752,-0.00006969,-0.00015854,0.00040357,0.0002
 4478,-0.00000022,0.00016803,0.00018304,-0.00000320,0.00005575,0.000130
 22,0.00005370,0.00020750,0.00006612,-0.00041166,0.00012813,-0.00024527
 ,-0.00004958,0.00013028,-0.00036784,0.00263134,-0.00018061,-0.00021410
 ,0.00011194,0.01701086,0.00033479,0.00165417,0.00008001,0.00004718,0.0
 0006051,-0.00001876,-0.00003250,0.00002593,-0.00016433,0.00012737,-0.0
 0062052,-0.04706228,-0.05363174,0.00024763,0.00001288,-0.00002283,0.00
 000148,-0.00000798,-0.00000468,0.00000492,0.00000679,-0.00001014,-0.00
 000618,-0.00001360,0.00001451,0.00005979,0.00003748,-0.00000320,-0.000
 01662,0.00011830,0.00028643,0.00047811,0.00061764,0.00048069,-0.000006
 72,-0.00010548,-0.00021672,0.00004047,0.00012052,0.00002788,-0.0000577
 5,-0.00007175,0.00003611,-0.00007733,-0.00003266,-0.00001500,0.0000412
 2,-0.00000608,0.00000712,-0.00002476,-0.00000280,0.00000413,0.00000232
 ,0.00013484,-0.00019213,-0.00007375,-0.00025917,-0.00015183,0.00011706
 ,-0.00012979,0.00036798,-0.00017002,0.01358533,0.00202980,0.00056859,0
 .04488737,0.05409410,0.00010721,0.00002645,0.00000903,-0.00004086,-0.0
 0003022,-0.00001147,-0.00005983,-0.00000206,0.00003683,-0.00013904,0.0
 0009330,0.00021872,-0.00078101,-0.00036446,-0.00020608,-0.00007914,0.0
 0002751,-0.00012506,-0.00009443,0.00007724,-0.00007317,0.00000165,-0.0
 0010168,0.00026587,-0.00049300,0.00033655,0.00027321,-0.00104435,0.001
 60699,-0.00387489,-0.00005890,0.00021583,-0.00009582,-0.03027198,-0.00
 142014,-0.00445019,0.00001961,0.00006031,0.00000244,-0.00004465,-0.000
 01870,0.00005082,-0.00200045,-0.00024806,0.00106196,0.01056673,0.00058
 365,-0.04598708,-0.00000079,0.00001003,0.00000511,0.00000177,0.0000054
 4,-0.00000233,-0.00001295,0.00002006,0.00001715,0.00000326,-0.00000244
 ,-0.00003737,-0.00004829,-0.00000531,-0.00000561,0.00010303,-0.0001562
 5,-0.00015144,-0.00004932,-0.00063260,0.00032113,-0.00001838,-0.000036
 94,0.00010815,0.00010516,0.00004266,-0.00002497,-0.00000771,0.00000710
 ,-0.00003148,0.00003557,0.00004430,-0.00000170,-0.00002265,0.00001805,
 -0.00001354,0.00001918,-0.00000335,-0.00001594,0.00018949,0.00007796,0
 .00029490,0.00016428,-0.00008301,-0.00024067,0.00062656,0.00017010,-0.
 00065068,0.02298086,0.00559169,0.00191516,-0.00002878,-0.00482761,0.05
 138808,-0.00007900,-0.00002395,-0.00008952,0.00002113,-0.00001636,-0.0
 0000833,-0.00005833,-0.00000241,-0.00003543,0.00021038,0.00012554,-0.0
 0002916,-0.00048533,0.00017213,0.00040483,0.00028966,-0.00016133,0.000
 01563,0.00010262,-0.00014838,0.00004792,-0.00019098,-0.00009725,0.0000
 6370,0.00009311,0.00013341,-0.00025245,0.00189249,0.00169541,0.0007734
 1,-0.00032174,0.00130844,0.00041036,0.00150485,0.01696414,-0.00488004,
 -0.00027526,-0.00001366,-0.00007295,-0.00013962,-0.00003950,0.00012150
 ,-0.00015152,-0.00069477,0.00113178,-0.05476689,-0.04895924,0.00160156
 ,0.00000582,-0.00000992,-0.00000167,-0.00000748,-0.00000115,0.00002050
 ,-0.00000465,0.00000500,0.00000033,0.00001180,-0.00004006,-0.00001588,
 0.00001002,-0.00000062,-0.00005337,-0.00097150,-0.00046867,-0.00093941
 ,-0.00039722,-0.00169297,-0.00117237,0.00009002,0.00007770,-0.00001344
 ,-0.00002314,-0.00000248,-0.00001100,0.00012665,0.00007237,0.00004051,
 0.00001636,0.00000009,-0.00001981,0.00002353,-0.00001904,0.00000453,0.
 00003173,0.00003161,-0.00002169,-0.00009745,0.00012883,0.00006749,0.00
 036057,-0.00036059,0.00008384,-0.00017706,-0.00025920,-0.00016429,0.00
 199770,0.01321404,-0.00015519,-0.00398265,-0.02949487,0.00037213,0.055
 34138,0.00009954,0.00001879,-0.00000707,-0.00002638,0.00004041,0.00000
 104,0.00009298,0.00001253,-0.00001583,-0.00012408,-0.00010207,-0.00001
 293,0.00046443,-0.00010751,0.00008395,-0.00065510,0.00015641,0.0000079
 5,-0.00003733,0.00012959,0.00006904,0.00033391,0.00026310,-0.00014162,
 0.00043401,-0.00014891,-0.00056401,-0.00234840,0.00048372,-0.00003028,
 0.00018966,-0.00227334,-0.00039764,0.00236411,-0.01488510,0.00781056,0
 .00026651,-0.00029714,0.00008728,0.00021402,0.00007435,-0.00028936,0.0
 0064925,0.00162006,-0.00123423,-0.04661848,-0.28938570,0.00256670,-0.0
 0002119,0.00002893,-0.00000207,0.00001981,-0.00000224,0.00000380,0.000
 00874,-0.00000633,0.00000331,-0.00000681,0.00002816,0.00002139,0.00005
 224,-0.00000606,-0.00002164,-0.00014444,0.00054143,0.00021852,0.000330
 73,0.00475622,0.00069974,0.00003126,0.00004574,-0.00000336,-0.00007148
 ,0.00002226,0.00007480,-0.00007397,-0.00013536,-0.00006162,0.00000300,
 0.00001450,-0.00000476,-0.00001700,0.00000673,0.00001884,-0.00003548,-
 0.00009188,0.00007341,0.00002761,0.00026391,0.00000756,-0.00036026,0.0
 0025555,0.00141326,-0.00010072,-0.00015184,0.00008301,-0.00367899,-0.0
 1107726,0.00060334,0.00016060,-0.00328854,-0.00108242,0.04857771,0.313
 19686,-0.00012592,0.00002188,-0.00004379,0.00003576,0.00002872,-0.0000
 0172,-0.00004592,-0.00004358,-0.00003594,0.00009530,0.00016430,0.00000
 944,-0.00040513,0.00000931,0.00034472,0.00046150,-0.00015505,0.0000404
 8,0.00010133,-0.00012931,0.00003607,-0.00012282,-0.00021621,-0.0000473
 2,-0.00004138,0.00023456,-0.00012073,0.00224613,0.00000544,0.00032409,
 -0.00008774,0.00312527,0.00052751,0.00095058,0.03360356,-0.01079330,-0
 .00018063,0.00005795,-0.00066357,-0.00015028,-0.00008207,0.00036295,-0
 .00041983,0.00317450,0.00311985,0.00090232,-0.00044083,-0.04447400,0.0
 0000834,-0.00000040,-0.00000974,-0.00001117,0.00000209,0.00001129,-0.0
 0001050,0.00000682,-0.00000082,0.00000569,-0.00003144,-0.00000087,-0.0
 0002738,0.00000409,-0.00000293,-0.00076367,-0.00045088,-0.00020397,-0.
 00094474,-0.00402508,-0.00217275,0.00009097,0.00008248,-0.00003472,-0.
 00016331,0.00011345,0.00018893,0.00003897,0.00003457,0.00030395,0.0000
 3033,-0.00000379,-0.00001636,-0.00000006,-0.00003526,0.00001581,0.0000
 2432,0.00006119,-0.00009955,-0.00004392,-0.00048299,0.00012794,-0.0000
 8415,-0.00141342,0.00021015,0.00010047,-0.00011706,-0.00024068,-0.0052
 2495,-0.02355558,0.00191899,0.00098549,0.00043140,0.00003092,0.0027759
 9,-0.00997866,0.05138967\\0.00000058,0.00000215,-0.00000005,-0.0000002
 1,-0.00000284,0.00000007,0.00000245,-0.00000304,-0.00000009,-0.0000076
 2,-0.00000054,-0.00000007,0.00001268,-0.00000295,0.00000090,-0.0000143
 7,-0.00000125,-0.00000009,0.00000048,0.00000130,0.00000012,0.00000483,
 0.00000012,0.,-0.00000301,-0.00000080,-0.00000038,-0.00000376,0.000002
 63,0.00000066,-0.00000361,-0.00000919,0.00000012,-0.00000016,0.0000032
 8,-0.00000120,0.00000565,0.00000921,0.00001404,0.00000605,0.00000957,-
 0.00001482,0.00000298,-0.00000136,-0.00000501,0.00000267,-0.00000239,0
 .00000533,-0.00000156,-0.00000266,0.00000009,-0.00000147,-0.00000290,0
 .00000001,0.00000080,-0.00000153,-0.00000004,0.00000207,-0.00000183,-0
 .00000008,0.00000193,0.00000008,-0.00000001,0.00000113,0.00000142,0.00
 000005,0.00000124,-0.00000064,0.00000009,-0.00000301,0.00000029,-0.000
 00178,-0.00000099,0.00000031,-0.00000308,-0.00000173,-0.00000247,-0.00
 000230,-0.00000305,0.00000039,0.00000181,-0.00000100,-0.00000006,0.000
 00313,-0.00000168,-0.00000259,0.00000213,0.00000079,0.00000055,0.00000
 176,0.00000125,0.00000254,0.00000082,-0.00000104,0.00000117,0.00000094
 ,0.00000075,0.00000023,-0.00000155,-0.00000097,0.00000125,-0.00000087,
 0.00000091,0.00000256,-0.00000067\\\@


 HE THAT FOLLOWS NATURE IS NEVER LOST.

                             -- BACON
 Job cpu time:       0 days  1 hours 18 minutes 59.3 seconds.
 File lengths (MBytes):  RWF=    535 Int=      0 D2E=      0 Chk=     13 Scr=      1
 Normal termination of Gaussian 09 at Tue Dec 17 19:18:08 2024.
