 Entering Gaussian System, Link 0=g09
 Input=pbeD3DMAN.gjf
 Output=pbeD3DMAN.log
 Initial command:
 /home/c612/g09E/g09/l1.exe "/mnt/ja_sm883/scratch/Gau-1800750.inp" -scrdir="/mnt/ja_sm883/scratch/"
 Default is to use a total of  18 processors:
                               18 via shared-memory
                                1 via Linda
 Entering Link 1 = /home/c612/g09E/g09/l1.exe PID=   1800752.
  
 Copyright (c) 1988,1990,1992,1993,1995,1998,2003,2009,2015,
            Gaussian, Inc.  All Rights Reserved.
  
 This is part of the Gaussian(R) 09 program.  It is based on
 the Gaussian(R) 03 system (copyright 2003, Gaussian, Inc.),
 the Gaussian(R) 98 system (copyright 1998, Gaussian, Inc.),
 the Gaussian(R) 94 system (copyright 1995, Gaussian, Inc.),
 the Gaussian 92(TM) system (copyright 1992, Gaussian, Inc.),
 the Gaussian 90(TM) system (copyright 1990, Gaussian, Inc.),
 the Gaussian 88(TM) system (copyright 1988, Gaussian, Inc.),
 the Gaussian 86(TM) system (copyright 1986, Carnegie Mellon
 University), and the Gaussian 82(TM) system (copyright 1983,
 Carnegie Mellon University). Gaussian is a federally registered
 trademark of Gaussian, Inc.
  
 This software contains proprietary and confidential information,
 including trade secrets, belonging to Gaussian, Inc.
  
 This software is provided under written license and may be
 used, copied, transmitted, or stored only in accord with that
 written license.
  
 The following legend is applicable only to US Government
 contracts under FAR:
  
                    RESTRICTED RIGHTS LEGEND
  
 Use, reproduction and disclosure by the US Government is
 subject to restrictions as set forth in subparagraphs (a)
 and (c) of the Commercial Computer Software - Restricted
 Rights clause in FAR 52.227-19.
  
 Gaussian, Inc.
 340 Quinnipiac St., Bldg. 40, Wallingford CT 06492
  
  
 ---------------------------------------------------------------
 Warning -- This program may not be used in any manner that
 competes with the business of Gaussian, Inc. or will provide
 assistance to any competitor of Gaussian, Inc.  The licensee
 of this program is prohibited from giving any competitor of
 Gaussian, Inc. access to this program.  By using this program,
 the user acknowledges that Gaussian, Inc. is engaged in the
 business of creating and licensing software in the field of
 computational chemistry and represents and warrants to the
 licensee that it is not a competitor of Gaussian, Inc. and that
 it will not use this program in any manner prohibited above.
 ---------------------------------------------------------------
  

 Cite this work as:
 Gaussian 09, Revision E.01,
 M. J. Frisch, G. W. Trucks, H. B. Schlegel, G. E. Scuseria, 
 M. A. Robb, J. R. Cheeseman, G. Scalmani, V. Barone, B. Mennucci, 
 G. A. Petersson, H. Nakatsuji, M. Caricato, X. Li, H. P. Hratchian, 
 A. F. Izmaylov, J. Bloino, G. Zheng, J. L. Sonnenberg, M. Hada, 
 M. Ehara, K. Toyota, R. Fukuda, J. Hasegawa, M. Ishida, T. Nakajima, 
 Y. Honda, O. Kitao, H. Nakai, T. Vreven, J. A. Montgomery, Jr., 
 J. E. Peralta, F. Ogliaro, M. Bearpark, J. J. Heyd, E. Brothers, 
 K. N. Kudin, V. N. Staroverov, T. Keith, R. Kobayashi, J. Normand, 
 K. Raghavachari, A. Rendell, J. C. Burant, S. S. Iyengar, J. Tomasi, 
 M. Cossi, N. Rega, J. M. Millam, M. Klene, J. E. Knox, J. B. Cross, 
 V. Bakken, C. Adamo, J. Jaramillo, R. Gomperts, R. E. Stratmann, 
 O. Yazyev, A. J. Austin, R. Cammi, C. Pomelli, J. W. Ochterski, 
 R. L. Martin, K. Morokuma, V. G. Zakrzewski, G. A. Voth, 
 P. Salvador, J. J. Dannenberg, S. Dapprich, A. D. Daniels, 
 O. Farkas, J. B. Foresman, J. V. Ortiz, J. Cioslowski, 
 and D. J. Fox, Gaussian, Inc., Wallingford CT, 2013.
 
 ******************************************
 Gaussian 09:  ES64L-G09RevE.01 30-Nov-2015
                17-Dec-2024 
 ******************************************
 %chk=pbeD3DMAN.chk
 -----------------------------------------------------
 # opt freq pbepbe/6-31+g(d,p) empiricaldispersion=gd3
 -----------------------------------------------------
 1/14=-1,18=20,19=15,26=3,38=1/1,3;
 2/9=110,12=2,17=6,18=5,40=1/2;
 3/5=1,6=6,7=111,11=2,16=1,25=1,30=1,71=1,74=1009,124=31/1,2,3;
 4//1;
 5/5=2,38=5/2;
 6/7=2,8=2,9=2,10=2,28=1/1;
 7//1,2,3,16;
 1/14=-1,18=20,19=15,26=3/3(2);
 2/9=110/2;
 99//99;
 2/9=110/2;
 3/5=1,6=6,7=111,11=2,16=1,25=1,30=1,71=1,74=1009,124=31/1,2,3;
 4/5=5,16=3,69=1/1;
 5/5=2,38=5/2;
 7//1,2,3,16;
 1/14=-1,18=20,19=15,26=3/3(-5);
 2/9=110/2;
 6/7=2,8=2,9=2,10=2,19=2,28=1/1;
 99/9=1/99;
 ----------
 [No Title]
 ----------
 Symbolic Z-matrix:
 Charge =  0 Multiplicity = 1
 C                     0.68179   2.43436   0.23277 
 C                     2.0813    2.39137   0.37759 
 C                     2.74936   1.20545   0.21114 
 C                     2.02994   0.0002    0. 
 C                     0.59207   0.00006   0. 
 C                    -0.06945   1.28941  -0.00738 
 C                     2.74959  -1.20492  -0.21114 
 C                     2.08176  -2.39097  -0.37759 
 C                     0.68226  -2.43423  -0.23277 
 C                    -0.0692   -1.28943   0.00738 
 N                    -1.44898   1.39117  -0.27144 
 N                    -1.44871  -1.39145   0.27144 
 C                    -1.89088   0.90343  -1.57118 
 C                    -2.11867   2.62062   0.09382 
 C                    -2.11816  -2.62103  -0.09382 
 C                    -1.89071  -0.90378   1.57117 
 H                     0.19219   3.40148   0.24579 
 H                     2.62705   3.31363   0.55855 
 H                     3.83484   1.16519   0.24297 
 H                     3.83507  -1.16445  -0.24296 
 H                     2.62769  -3.31312  -0.55855 
 H                     0.19285  -3.40144  -0.24579 
 H                    -1.33551   0.01158  -1.85542 
 H                    -2.95412   0.64353  -1.52848 
 H                    -1.74814   1.66924  -2.35444 
 H                    -1.87608   2.89594   1.12411 
 H                    -1.87322   3.4744   -0.56486 
 H                    -3.19993   2.45898   0.02984 
 H                    -1.87552  -2.89631  -1.1241 
 H                    -1.87254  -3.47477   0.56487 
 H                    -3.19945  -2.4596   -0.02983 
 H                    -1.33552  -0.01182   1.8554 
 H                    -2.95401  -0.6441    1.52846 
 H                    -1.74781  -1.66955   2.35444 
 

 GradGradGradGradGradGradGradGradGradGradGradGradGradGradGradGradGradGrad
 Berny optimization.
 Initialization pass.
                           ----------------------------
                           !    Initial Parameters    !
                           ! (Angstroms and Degrees)  !
 --------------------------                            --------------------------
 ! Name  Definition              Value          Derivative Info.                !
 --------------------------------------------------------------------------------
 ! R1    R(1,2)                  1.4076         estimate D2E/DX2                !
 ! R2    R(1,6)                  1.3903         estimate D2E/DX2                !
 ! R3    R(1,17)                 1.0841         estimate D2E/DX2                !
 ! R4    R(2,3)                  1.3713         estimate D2E/DX2                !
 ! R5    R(2,18)                 1.0868         estimate D2E/DX2                !
 ! R6    R(3,4)                  1.4194         estimate D2E/DX2                !
 ! R7    R(3,19)                 1.0867         estimate D2E/DX2                !
 ! R8    R(4,5)                  1.4379         estimate D2E/DX2                !
 ! R9    R(4,7)                  1.4194         estimate D2E/DX2                !
 ! R10   R(5,6)                  1.4492         estimate D2E/DX2                !
 ! R11   R(5,10)                 1.4492         estimate D2E/DX2                !
 ! R12   R(6,11)                 1.4083         estimate D2E/DX2                !
 ! R13   R(7,8)                  1.3713         estimate D2E/DX2                !
 ! R14   R(7,20)                 1.0867         estimate D2E/DX2                !
 ! R15   R(8,9)                  1.4076         estimate D2E/DX2                !
 ! R16   R(8,21)                 1.0868         estimate D2E/DX2                !
 ! R17   R(9,10)                 1.3903         estimate D2E/DX2                !
 ! R18   R(9,22)                 1.0841         estimate D2E/DX2                !
 ! R19   R(10,12)                1.4083         estimate D2E/DX2                !
 ! R20   R(11,13)                1.4569         estimate D2E/DX2                !
 ! R21   R(11,14)                1.4469         estimate D2E/DX2                !
 ! R22   R(12,15)                1.4469         estimate D2E/DX2                !
 ! R23   R(12,16)                1.4569         estimate D2E/DX2                !
 ! R24   R(13,23)                1.0884         estimate D2E/DX2                !
 ! R25   R(13,24)                1.0954         estimate D2E/DX2                !
 ! R26   R(13,25)                1.1047         estimate D2E/DX2                !
 ! R27   R(14,26)                1.0937         estimate D2E/DX2                !
 ! R28   R(14,27)                1.1059         estimate D2E/DX2                !
 ! R29   R(14,28)                1.0952         estimate D2E/DX2                !
 ! R30   R(15,29)                1.0937         estimate D2E/DX2                !
 ! R31   R(15,30)                1.1059         estimate D2E/DX2                !
 ! R32   R(15,31)                1.0952         estimate D2E/DX2                !
 ! R33   R(16,32)                1.0884         estimate D2E/DX2                !
 ! R34   R(16,33)                1.0954         estimate D2E/DX2                !
 ! R35   R(16,34)                1.1047         estimate D2E/DX2                !
 ! A1    A(2,1,6)              121.9951         estimate D2E/DX2                !
 ! A2    A(2,1,17)             118.3612         estimate D2E/DX2                !
 ! A3    A(6,1,17)             119.5199         estimate D2E/DX2                !
 ! A4    A(1,2,3)              119.8865         estimate D2E/DX2                !
 ! A5    A(1,2,18)             119.3722         estimate D2E/DX2                !
 ! A6    A(3,2,18)             120.6274         estimate D2E/DX2                !
 ! A7    A(2,3,4)              120.3628         estimate D2E/DX2                !
 ! A8    A(2,3,19)             121.0054         estimate D2E/DX2                !
 ! A9    A(4,3,19)             118.631          estimate D2E/DX2                !
 ! A10   A(3,4,5)              120.4585         estimate D2E/DX2                !
 ! A11   A(3,4,7)              119.0828         estimate D2E/DX2                !
 ! A12   A(5,4,7)              120.4586         estimate D2E/DX2                !
 ! A13   A(4,5,6)              117.1546         estimate D2E/DX2                !
 ! A14   A(4,5,10)             117.1545         estimate D2E/DX2                !
 ! A15   A(6,5,10)             125.6909         estimate D2E/DX2                !
 ! A16   A(1,6,5)              119.0238         estimate D2E/DX2                !
 ! A17   A(1,6,11)             120.1459         estimate D2E/DX2                !
 ! A18   A(5,6,11)             120.8245         estimate D2E/DX2                !
 ! A19   A(4,7,8)              120.3627         estimate D2E/DX2                !
 ! A20   A(4,7,20)             118.631          estimate D2E/DX2                !
 ! A21   A(8,7,20)             121.0054         estimate D2E/DX2                !
 ! A22   A(7,8,9)              119.8864         estimate D2E/DX2                !
 ! A23   A(7,8,21)             120.6274         estimate D2E/DX2                !
 ! A24   A(9,8,21)             119.3722         estimate D2E/DX2                !
 ! A25   A(8,9,10)             121.9951         estimate D2E/DX2                !
 ! A26   A(8,9,22)             118.3612         estimate D2E/DX2                !
 ! A27   A(10,9,22)            119.5198         estimate D2E/DX2                !
 ! A28   A(5,10,9)             119.0238         estimate D2E/DX2                !
 ! A29   A(5,10,12)            120.8245         estimate D2E/DX2                !
 ! A30   A(9,10,12)            120.1459         estimate D2E/DX2                !
 ! A31   A(6,11,13)            116.1185         estimate D2E/DX2                !
 ! A32   A(6,11,14)            117.8704         estimate D2E/DX2                !
 ! A33   A(13,11,14)           111.6728         estimate D2E/DX2                !
 ! A34   A(10,12,15)           117.8704         estimate D2E/DX2                !
 ! A35   A(10,12,16)           116.1185         estimate D2E/DX2                !
 ! A36   A(15,12,16)           111.6728         estimate D2E/DX2                !
 ! A37   A(11,13,23)           110.6427         estimate D2E/DX2                !
 ! A38   A(11,13,24)           109.8208         estimate D2E/DX2                !
 ! A39   A(11,13,25)           111.1787         estimate D2E/DX2                !
 ! A40   A(23,13,24)           108.1231         estimate D2E/DX2                !
 ! A41   A(23,13,25)           108.4778         estimate D2E/DX2                !
 ! A42   A(24,13,25)           108.5145         estimate D2E/DX2                !
 ! A43   A(11,14,26)           110.4301         estimate D2E/DX2                !
 ! A44   A(11,14,27)           113.7608         estimate D2E/DX2                !
 ! A45   A(11,14,28)           108.4708         estimate D2E/DX2                !
 ! A46   A(26,14,27)           108.5119         estimate D2E/DX2                !
 ! A47   A(26,14,28)           108.1307         estimate D2E/DX2                !
 ! A48   A(27,14,28)           107.3536         estimate D2E/DX2                !
 ! A49   A(12,15,29)           110.43           estimate D2E/DX2                !
 ! A50   A(12,15,30)           113.7608         estimate D2E/DX2                !
 ! A51   A(12,15,31)           108.4706         estimate D2E/DX2                !
 ! A52   A(29,15,30)           108.512          estimate D2E/DX2                !
 ! A53   A(29,15,31)           108.1308         estimate D2E/DX2                !
 ! A54   A(30,15,31)           107.3537         estimate D2E/DX2                !
 ! A55   A(12,16,32)           110.6428         estimate D2E/DX2                !
 ! A56   A(12,16,33)           109.8207         estimate D2E/DX2                !
 ! A57   A(12,16,34)           111.1787         estimate D2E/DX2                !
 ! A58   A(32,16,33)           108.123          estimate D2E/DX2                !
 ! A59   A(32,16,34)           108.4778         estimate D2E/DX2                !
 ! A60   A(33,16,34)           108.5145         estimate D2E/DX2                !
 ! D1    D(6,1,2,3)              3.4924         estimate D2E/DX2                !
 ! D2    D(6,1,2,18)           179.6371         estimate D2E/DX2                !
 ! D3    D(17,1,2,3)          -172.4402         estimate D2E/DX2                !
 ! D4    D(17,1,2,18)            3.7045         estimate D2E/DX2                !
 ! D5    D(2,1,6,5)              5.1451         estimate D2E/DX2                !
 ! D6    D(2,1,6,11)          -173.9853         estimate D2E/DX2                !
 ! D7    D(17,1,6,5)          -178.9682         estimate D2E/DX2                !
 ! D8    D(17,1,6,11)            1.9015         estimate D2E/DX2                !
 ! D9    D(1,2,3,4)             -5.0862         estimate D2E/DX2                !
 ! D10   D(1,2,3,19)           175.2525         estimate D2E/DX2                !
 ! D11   D(18,2,3,4)           178.8183         estimate D2E/DX2                !
 ! D12   D(18,2,3,19)           -0.8431         estimate D2E/DX2                !
 ! D13   D(2,3,4,5)             -1.9714         estimate D2E/DX2                !
 ! D14   D(2,3,4,7)            178.0287         estimate D2E/DX2                !
 ! D15   D(19,3,4,5)           177.6979         estimate D2E/DX2                !
 ! D16   D(19,3,4,7)            -2.302          estimate D2E/DX2                !
 ! D17   D(3,4,5,6)             10.2648         estimate D2E/DX2                !
 ! D18   D(3,4,5,10)          -169.7352         estimate D2E/DX2                !
 ! D19   D(7,4,5,6)           -169.7352         estimate D2E/DX2                !
 ! D20   D(7,4,5,10)            10.2648         estimate D2E/DX2                !
 ! D21   D(3,4,7,8)            178.0286         estimate D2E/DX2                !
 ! D22   D(3,4,7,20)            -2.3021         estimate D2E/DX2                !
 ! D23   D(5,4,7,8)             -1.9714         estimate D2E/DX2                !
 ! D24   D(5,4,7,20)           177.698          estimate D2E/DX2                !
 ! D25   D(4,5,6,1)            -11.7081         estimate D2E/DX2                !
 ! D26   D(4,5,6,11)           167.4162         estimate D2E/DX2                !
 ! D27   D(10,5,6,1)           168.2919         estimate D2E/DX2                !
 ! D28   D(10,5,6,11)          -12.5838         estimate D2E/DX2                !
 ! D29   D(4,5,10,9)           -11.7081         estimate D2E/DX2                !
 ! D30   D(4,5,10,12)          167.4163         estimate D2E/DX2                !
 ! D31   D(6,5,10,9)           168.2919         estimate D2E/DX2                !
 ! D32   D(6,5,10,12)          -12.5837         estimate D2E/DX2                !
 ! D33   D(1,6,11,13)          118.6793         estimate D2E/DX2                !
 ! D34   D(1,6,11,14)          -17.7519         estimate D2E/DX2                !
 ! D35   D(5,6,11,13)          -60.4352         estimate D2E/DX2                !
 ! D36   D(5,6,11,14)          163.1337         estimate D2E/DX2                !
 ! D37   D(4,7,8,9)             -5.0862         estimate D2E/DX2                !
 ! D38   D(4,7,8,21)           178.8183         estimate D2E/DX2                !
 ! D39   D(20,7,8,9)           175.2524         estimate D2E/DX2                !
 ! D40   D(20,7,8,21)           -0.8431         estimate D2E/DX2                !
 ! D41   D(7,8,9,10)             3.4924         estimate D2E/DX2                !
 ! D42   D(7,8,9,22)          -172.4401         estimate D2E/DX2                !
 ! D43   D(21,8,9,10)          179.6371         estimate D2E/DX2                !
 ! D44   D(21,8,9,22)            3.7045         estimate D2E/DX2                !
 ! D45   D(8,9,10,5)             5.145          estimate D2E/DX2                !
 ! D46   D(8,9,10,12)         -173.9854         estimate D2E/DX2                !
 ! D47   D(22,9,10,5)         -178.9682         estimate D2E/DX2                !
 ! D48   D(22,9,10,12)           1.9014         estimate D2E/DX2                !
 ! D49   D(5,10,12,15)         163.134          estimate D2E/DX2                !
 ! D50   D(5,10,12,16)         -60.4346         estimate D2E/DX2                !
 ! D51   D(9,10,12,15)         -17.7514         estimate D2E/DX2                !
 ! D52   D(9,10,12,16)         118.6799         estimate D2E/DX2                !
 ! D53   D(6,11,13,23)          37.6468         estimate D2E/DX2                !
 ! D54   D(6,11,13,24)         156.9294         estimate D2E/DX2                !
 ! D55   D(6,11,13,25)         -82.9621         estimate D2E/DX2                !
 ! D56   D(14,11,13,23)        176.6795         estimate D2E/DX2                !
 ! D57   D(14,11,13,24)        -64.0379         estimate D2E/DX2                !
 ! D58   D(14,11,13,25)         56.0706         estimate D2E/DX2                !
 ! D59   D(6,11,14,26)         -49.4178         estimate D2E/DX2                !
 ! D60   D(6,11,14,27)          72.8704         estimate D2E/DX2                !
 ! D61   D(6,11,14,28)        -167.7467         estimate D2E/DX2                !
 ! D62   D(13,11,14,26)        172.3352         estimate D2E/DX2                !
 ! D63   D(13,11,14,27)        -65.3766         estimate D2E/DX2                !
 ! D64   D(13,11,14,28)         54.0063         estimate D2E/DX2                !
 ! D65   D(10,12,15,29)        -49.4181         estimate D2E/DX2                !
 ! D66   D(10,12,15,30)         72.8701         estimate D2E/DX2                !
 ! D67   D(10,12,15,31)       -167.747          estimate D2E/DX2                !
 ! D68   D(16,12,15,29)        172.3347         estimate D2E/DX2                !
 ! D69   D(16,12,15,30)        -65.377          estimate D2E/DX2                !
 ! D70   D(16,12,15,31)         54.0058         estimate D2E/DX2                !
 ! D71   D(10,12,16,32)         37.6473         estimate D2E/DX2                !
 ! D72   D(10,12,16,33)        156.9298         estimate D2E/DX2                !
 ! D73   D(10,12,16,34)        -82.9618         estimate D2E/DX2                !
 ! D74   D(15,12,16,32)        176.6801         estimate D2E/DX2                !
 ! D75   D(15,12,16,33)        -64.0374         estimate D2E/DX2                !
 ! D76   D(15,12,16,34)         56.0711         estimate D2E/DX2                !
 --------------------------------------------------------------------------------
 Trust Radius=3.00D-01 FncErr=1.00D-07 GrdErr=1.00D-06
 Number of steps in this run=    181 maximum allowed number of steps=    204.
 GradGradGradGradGradGradGradGradGradGradGradGradGradGradGradGradGradGrad

                          Input orientation:                          
 ---------------------------------------------------------------------
 Center     Atomic      Atomic             Coordinates (Angstroms)
 Number     Number       Type             X           Y           Z
 ---------------------------------------------------------------------
      1          6           0        0.681787    2.434356    0.232772
      2          6           0        2.081296    2.391374    0.377594
      3          6           0        2.749356    1.205451    0.211140
      4          6           0        2.029943    0.000195    0.000000
      5          6           0        0.592068    0.000057    0.000000
      6          6           0       -0.069448    1.289413   -0.007378
      7          6           0        2.749590   -1.204921   -0.211139
      8          6           0        2.081759   -2.390974   -0.377593
      9          6           0        0.682259   -2.434226   -0.232771
     10          6           0       -0.069198   -1.289428    0.007378
     11          7           0       -1.448978    1.391169   -0.271439
     12          7           0       -1.448709   -1.391451    0.271437
     13          6           0       -1.890881    0.903425   -1.571175
     14          6           0       -2.118666    2.620615    0.093823
     15          6           0       -2.118156   -2.621030   -0.093817
     16          6           0       -1.890711   -0.903780    1.571167
     17          1           0        0.192189    3.401476    0.245792
     18          1           0        2.627048    3.313626    0.558547
     19          1           0        3.834841    1.165192    0.242965
     20          1           0        3.835067   -1.164452   -0.242963
     21          1           0        2.627689   -3.313121   -0.558545
     22          1           0        0.192847   -3.401440   -0.245790
     23          1           0       -1.335508    0.011584   -1.855416
     24          1           0       -2.954122    0.643530   -1.528475
     25          1           0       -1.748137    1.669235   -2.354440
     26          1           0       -1.876084    2.895937    1.124106
     27          1           0       -1.873221    3.474403   -0.564862
     28          1           0       -3.199932    2.458979    0.029838
     29          1           0       -1.875523   -2.896308   -1.124099
     30          1           0       -1.872542   -3.474766    0.564872
     31          1           0       -3.199453   -2.459603   -0.029829
     32          1           0       -1.335521   -0.011822    1.855399
     33          1           0       -2.954005   -0.644101    1.528462
     34          1           0       -1.747814   -1.669551    2.354442
 ---------------------------------------------------------------------
                    Distance matrix (angstroms):
                    1          2          3          4          5
     1  C    0.000000
     2  C    1.407639   0.000000
     3  C    2.405310   1.371286   0.000000
     4  C    2.792284   2.421353   1.419428   0.000000
     5  C    2.447048   2.842318   2.480211   1.437875   0.000000
     6  C    1.390295   2.447084   2.828508   2.463652   1.449171
     7  C    4.209181   3.704937   2.447083   1.419428   2.480212
     8  C    5.061252   4.841607   3.704938   2.421353   2.842320
     9  C    4.890789   5.061251   4.209180   2.792282   2.447049
    10  C    3.805437   4.279017   3.769640   2.463651   1.449172
    11  N    2.425413   3.726190   4.230057   3.756512   2.484903
    12  N    4.379190   5.175130   4.936728   3.756511   2.484903
    13  C    3.495225   4.667963   4.979926   4.319407   3.074036
    14  C    2.810078   4.215775   5.070906   4.907786   3.771499
    15  C    5.788201   6.556052   6.199002   4.907784   3.771500
    16  C    4.421787   5.297121   5.275296   4.319406   3.074033
    17  H    1.084065   2.146253   3.370880   3.873818   3.433652
    18  H    2.159464   1.086802   2.140106   3.412819   3.928468
    19  H    3.398916   2.143961   1.086697   2.161922   3.454294
    20  H    4.808422   4.013066   2.646019   2.161922   3.454295
    21  H    6.119331   5.806562   4.585271   3.412819   3.928470
    22  H    5.875764   6.124667   5.288475   3.873817   3.433653
    23  H    3.781512   4.724858   4.730971   3.843040   2.675491
    24  H    4.419150   5.660697   5.989297   5.252715   3.914812
    25  H    3.630924   4.759207   5.198532   4.754258   3.715656
    26  H    2.747770   4.058660   5.008587   4.990589   3.967557
    27  H    2.871582   4.207063   5.207546   5.255842   4.297418
    28  H    3.887098   5.293097   6.082617   5.779109   4.519563
    29  H    6.066046   6.772819   6.324302   4.990590   3.967560
    30  H    6.446131   7.076688   6.587222   5.255837   4.297415
    31  H    6.251705   7.182220   6.991353   5.779107   4.519563
    32  H    3.561774   4.431015   4.568540   3.843045   2.675490
    33  H    4.937073   5.991065   6.138771   5.252718   3.914814
    34  H    5.219818   5.921243   5.751862   4.754250   3.715647
                    6          7          8          9         10
     6  C    0.000000
     7  C    3.769641   0.000000
     8  C    4.279018   1.371287   0.000000
     9  C    3.805437   2.405310   1.407638   0.000000
    10  C    2.578883   2.828508   2.447084   1.390296   0.000000
    11  N    1.408256   4.936729   5.175131   4.379191   3.027727
    12  N    3.027727   4.230058   3.726190   2.425413   1.408257
    13  C    2.431474   5.275300   5.297129   4.421797   3.258675
    14  C    2.445738   6.199003   6.556053   5.788200   4.415453
    15  C    4.415455   5.070905   4.215773   2.810076   2.445738
    16  C    3.258665   4.979929   4.667968   3.495230   2.431475
    17  H    2.143212   5.288476   6.124668   5.875765   4.704226
    18  H    3.418889   4.585270   5.806562   6.119329   5.362988
    19  H    3.914278   2.646019   4.013067   4.808421   4.617595
    20  H    4.617596   1.086697   2.143961   3.398916   3.914278
    21  H    5.362989   2.140107   1.086802   2.159464   3.418889
    22  H    4.704226   3.370880   2.146253   1.084065   2.143212
    23  H    2.578953   4.568540   4.431022   3.561790   2.601187
    24  H    3.324492   6.138768   5.991063   4.937074   3.797099
    25  H    2.910492   5.751874   5.921260   5.219837   4.141341
    26  H    2.669290   6.324300   6.772817   6.066043   4.693527
    27  H    2.887658   6.587228   7.076693   6.446135   5.126016
    28  H    3.342035   6.991355   7.182221   6.251706   4.883908
    29  H    4.693531   5.008588   4.058659   2.747769   2.669291
    30  H    5.126014   5.207542   4.207059   2.871579   2.887655
    31  H    4.883908   6.082616   5.293095   3.887096   3.342034
    32  H    2.601171   4.730983   4.724872   3.781525   2.578960
    33  H    3.797098   5.989301   5.660700   4.419152   3.324493
    34  H    4.141325   5.198531   4.759212   3.630930   2.910490
                   11         12         13         14         15
    11  N    0.000000
    12  N    2.835082   0.000000
    13  C    1.456875   2.976103   0.000000
    14  C    1.446871   4.071494   2.402675   0.000000
    15  C    4.071497   1.446871   3.828319   5.245003   0.000000
    16  C    2.976091   1.456876   3.624956   3.828298   2.402676
    17  H    2.646184   5.066098   3.725696   2.443950   6.459381
    18  H    4.582434   6.231531   5.545851   4.818510   7.626446
    19  H    5.313607   5.869679   6.011948   6.130640   7.063078
    20  H    5.869680   5.313608   6.231111   7.063080   6.130638
    21  H    6.231532   4.582435   6.262759   7.626447   4.818507
    22  H    5.066098   2.646183   4.962905   6.459379   2.443946
    23  H    2.103595   2.550456   1.088399   3.349614   3.262886
    24  H    2.098705   3.105978   1.095377   2.690484   3.662572
    25  H    2.122666   4.043845   1.104692   2.652623   4.863507
    26  H    2.096257   4.392196   3.351845   1.093678   5.654985
    27  H    2.146146   4.955415   2.760961   1.105922   6.118511
    28  H    2.072879   4.236858   2.587780   1.095151   5.195385
    29  H    4.392201   2.096255   3.825975   5.654988   1.093677
    30  H    4.955416   2.146145   4.871508   6.118507   1.105922
    31  H    4.236860   2.072876   3.924037   5.195383   1.095151
    32  H    2.550431   2.103598   3.589918   3.262850   3.349616
    33  H    3.105974   2.098704   3.623923   3.662561   2.690480
    34  H    4.043830   2.122667   4.695864   4.863482   2.652628
                   16         17         18         19         20
    16  C    0.000000
    17  H    4.962894   0.000000
    18  H    6.262752   2.456435   0.000000
    19  H    6.231108   4.274329   2.484779   0.000000
    20  H    6.011951   5.861496   4.706900   2.379783   0.000000
    21  H    5.545858   7.187797   6.720243   4.706901   2.484780
    22  H    3.725702   6.820654   7.187795   5.861496   4.274329
    23  H    3.589932   4.270867   5.694958   5.697940   5.542374
    24  H    3.623919   4.544619   6.529512   7.035634   7.142438
    25  H    4.695862   3.677870   5.507428   6.178205   6.607593
    26  H    3.825954   2.303206   4.557688   6.032127   7.139530
    27  H    4.871490   2.219999   4.641155   6.210234   7.362550
    28  H    3.924016   3.527240   5.913007   7.155930   7.918010
    29  H    3.351844   6.768613   7.852880   7.139531   6.032128
    30  H    2.760965   7.186629   8.144238   7.362544   6.210229
    31  H    2.587775   6.777274   8.223410   7.918008   7.155929
    32  H    1.088399   4.071282   5.333140   5.542378   5.697952
    33  H    1.095377   5.283036   6.910318   7.142442   7.035639
    34  H    1.104692   5.824546   6.869986   6.607582   6.178203
                   21         22         23         24         25
    21  H    0.000000
    22  H    2.456435   0.000000
    23  H    5.333148   4.071302   0.000000
    24  H    6.910316   5.283037   1.768094   0.000000
    25  H    6.870005   5.824566   1.779633   1.785690   0.000000
    26  H    7.852878   6.768608   4.182017   3.643033   3.690725
    27  H    8.144244   7.186631   3.734405   3.179739   2.544969
    28  H    8.223412   6.777273   3.608324   2.405123   2.901066
    29  H    4.557686   2.303202   3.046683   3.722546   4.730132
    30  H    4.641150   2.219996   4.277948   4.744711   5.915962
    31  H    5.913004   3.527236   3.593581   3.454788   4.955546
    32  H    5.694974   4.270880   3.710889   3.807881   4.551807
    33  H    6.529516   4.544619   3.807898   3.317056   4.677881
    34  H    5.507435   3.677881   4.551826   4.677881   5.772440
                   26         27         28         29         30
    26  H    0.000000
    27  H    1.785285   0.000000
    28  H    1.772266   1.773391   0.000000
    29  H    6.213254   6.395210   5.636021   0.000000
    30  H    6.395202   7.040401   6.103897   1.785286   0.000000
    31  H    5.636016   6.103899   4.918944   1.772267   1.773392
    32  H    3.046647   4.277914   3.593544   4.182017   3.734412
    33  H    3.722538   4.744700   3.454773   3.643026   3.179738
    34  H    4.730102   5.915938   4.955521   3.690730   2.544979
                   31         32         33         34
    31  H    0.000000
    32  H    3.608318   0.000000
    33  H    2.405112   1.768094   0.000000
    34  H    2.901066   1.779633   1.785690   0.000000
 Stoichiometry    C14H18N2
 Framework group  C1[X(C14H18N2)]
 Deg. of freedom    96
 Full point group                 C1      NOp   1
 Largest Abelian subgroup         C1      NOp   1
 Largest concise Abelian subgroup C1      NOp   1
                         Standard orientation:                         
 ---------------------------------------------------------------------
 Center     Atomic      Atomic             Coordinates (Angstroms)
 Number     Number       Type             X           Y           Z
 ---------------------------------------------------------------------
      1          6           0        0.681780   -2.434358   -0.232772
      2          6           0        2.081289   -2.391380   -0.377594
      3          6           0        2.749352   -1.205459   -0.211140
      4          6           0        2.029943   -0.000201   -0.000000
      5          6           0        0.592068   -0.000059   -0.000000
      6          6           0       -0.069452   -1.289413    0.007378
      7          6           0        2.749594    1.204913    0.211139
      8          6           0        2.081766    2.390968    0.377593
      9          6           0        0.682266    2.434224    0.232771
     10          6           0       -0.069194    1.289428   -0.007378
     11          7           0       -1.448982   -1.391165    0.271439
     12          7           0       -1.448705    1.391455   -0.271437
     13          6           0       -1.890884   -0.903420    1.571175
     14          6           0       -2.118674   -2.620609   -0.093823
     15          6           0       -2.118148    2.621036    0.093817
     16          6           0       -1.890708    0.903785   -1.571167
     17          1           0        0.192179   -3.401477   -0.245792
     18          1           0        2.627038   -3.313634   -0.558547
     19          1           0        3.834838   -1.165203   -0.242965
     20          1           0        3.835070    1.164441    0.242963
     21          1           0        2.627699    3.313113    0.558545
     22          1           0        0.192857    3.401439    0.245790
     23          1           0       -1.335508   -0.011580    1.855416
     24          1           0       -2.954124   -0.643521    1.528475
     25          1           0       -1.748142   -1.669230    2.354440
     26          1           0       -1.876093   -2.895932   -1.124106
     27          1           0       -1.873231   -3.474398    0.564862
     28          1           0       -3.199939   -2.458970   -0.029838
     29          1           0       -1.875514    2.896313    1.124099
     30          1           0       -1.872532    3.474771   -0.564872
     31          1           0       -3.199446    2.459612    0.029829
     32          1           0       -1.335521    0.011826   -1.855399
     33          1           0       -2.954003    0.644110   -1.528462
     34          1           0       -1.747809    1.669556   -2.354442
 ---------------------------------------------------------------------
 Rotational constants (GHZ):      0.6355933      0.6302430      0.3587761
 Standard basis: 6-31+G(d,p) (6D, 7F)
 There are   394 symmetry adapted cartesian basis functions of A   symmetry.
 There are   394 symmetry adapted basis functions of A   symmetry.
   394 basis functions,   638 primitive gaussians,   394 cartesian basis functions
    58 alpha electrons       58 beta electrons
       nuclear repulsion energy      1123.7428048948 Hartrees.
 NAtoms=   34 NActive=   34 NUniq=   34 SFac= 1.00D+00 NAtFMM=   60 NAOKFM=F Big=F
 Integral buffers will be    131072 words long.
 Raffenetti 2 integral format.
 Two-electron integral symmetry is turned on.
 Nuclear repulsion after empirical dispersion term =     1123.7215626587 Hartrees.
 One-electron integrals computed using PRISM.
 NBasis=   394 RedAO= T EigKep=  1.16D-06  NBF=   394
 NBsUse=   391 1.00D-06 EigRej=  9.80D-07 NBFU=   391
 ExpMin= 4.38D-02 ExpMax= 4.17D+03 ExpMxC= 6.27D+02 IAcc=2 IRadAn=         4 AccDes= 0.00D+00
 Harris functional with IExCor= 1009 and IRadAn=       4 diagonalized for initial guess.
 HarFok:  IExCor= 1009 AccDes= 0.00D+00 IRadAn=         4 IDoV= 1 UseB2=F ITyADJ=14
 ICtDFT=  3500011 ScaDFX=  1.000000  1.000000  1.000000  1.000000
 FoFCou: FMM=F IPFlag=           0 FMFlag=      100000 FMFlg1=           0
         NFxFlg=           0 DoJE=T BraDBF=F KetDBF=T FulRan=T
         wScrn=  0.000000 ICntrl=     500 IOpCl=  0 I1Cent=   200000004 NGrid=           0
         NMat0=    1 NMatS0=      1 NMatT0=    0 NMatD0=    1 NMtDS0=    0 NMtDT0=    0
 Petite list used in FoFCou.
 Requested convergence on RMS density matrix=1.00D-08 within 128 cycles.
 Requested convergence on MAX density matrix=1.00D-06.
 Requested convergence on             energy=1.00D-06.
 No special actions if energy rises.
 SCF Done:  E(RPBE-PBE) =  -653.020062992     A.U. after   16 cycles
            NFock= 16  Conv=0.40D-08     -V/T= 2.0095

 **********************************************************************

            Population analysis using the SCF density.

 **********************************************************************

 Orbital symmetries:
       Occupied  (A) (A) (A) (A) (A) (A) (A) (A) (A) (A) (A) (A)
                 (A) (A) (A) (A) (A) (A) (A) (A) (A) (A) (A) (A)
                 (A) (A) (A) (A) (A) (A) (A) (A) (A) (A) (A) (A)
                 (A) (A) (A) (A) (A) (A) (A) (A) (A) (A) (A) (A)
                 (A) (A) (A) (A) (A) (A) (A) (A) (A) (A)
       Virtual   (A) (A) (A) (A) (A) (A) (A) (A) (A) (A) (A) (A)
                 (A) (A) (A) (A) (A) (A) (A) (A) (A) (A) (A) (A)
                 (A) (A) (A) (A) (A) (A) (A) (A) (A) (A) (A) (A)
                 (A) (A) (A) (A) (A) (A) (A) (A) (A) (A) (A) (A)
                 (A) (A) (A) (A) (A) (A) (A) (A) (A) (A) (A) (A)
                 (A) (A) (A) (A) (A) (A) (A) (A) (A) (A) (A) (A)
                 (A) (A) (A) (A) (A) (A) (A) (A) (A) (A) (A) (A)
                 (A) (A) (A) (A) (A) (A) (A) (A) (A) (A) (A) (A)
                 (A) (A) (A) (A) (A) (A) (A) (A) (A) (A) (A) (A)
                 (A) (A) (A) (A) (A) (A) (A) (A) (A) (A) (A) (A)
                 (A) (A) (A) (A) (A) (A) (A) (A) (A) (A) (A) (A)
                 (A) (A) (A) (A) (A) (A) (A) (A) (A) (A) (A) (A)
                 (A) (A) (A) (A) (A) (A) (A) (A) (A) (A) (A) (A)
                 (A) (A) (A) (A) (A) (A) (A) (A) (A) (A) (A) (A)
                 (A) (A) (A) (A) (A) (A) (A) (A) (A) (A) (A) (A)
                 (A) (A) (A) (A) (A) (A) (A) (A) (A) (A) (A) (A)
                 (A) (A) (A) (A) (A) (A) (A) (A) (A) (A) (A) (A)
                 (A) (A) (A) (A) (A) (A) (A) (A) (A) (A) (A) (A)
                 (A) (A) (A) (A) (A) (A) (A) (A) (A) (A) (A) (A)
                 (A) (A) (A) (A) (A) (A) (A) (A) (A) (A) (A) (A)
                 (A) (A) (A) (A) (A) (A) (A) (A) (A) (A) (A) (A)
                 (A) (A) (A) (A) (A) (A) (A) (A) (A) (A) (A) (A)
                 (A) (A) (A) (A) (A) (A) (A) (A) (A) (A) (A) (A)
                 (A) (A) (A) (A) (A) (A) (A) (A) (A) (A) (A) (A)
                 (A) (A) (A) (A) (A) (A) (A) (A) (A) (A) (A) (A)
                 (A) (A) (A) (A) (A) (A) (A) (A) (A) (A) (A) (A)
                 (A) (A) (A) (A) (A) (A) (A) (A) (A) (A) (A) (A)
                 (A) (A) (A) (A) (A) (A) (A) (A) (A)
 The electronic state is 1-A.
 Alpha  occ. eigenvalues --  -14.02036 -14.02036  -9.93756  -9.93756  -9.92341
 Alpha  occ. eigenvalues --   -9.92341  -9.91739  -9.91739  -9.91158  -9.90826
 Alpha  occ. eigenvalues --   -9.89862  -9.89862  -9.89443  -9.89442  -9.89272
 Alpha  occ. eigenvalues --   -9.89272  -0.87122  -0.85717  -0.78187  -0.73749
 Alpha  occ. eigenvalues --   -0.69272  -0.67105  -0.65498  -0.64599  -0.64295
 Alpha  occ. eigenvalues --   -0.59114  -0.58880  -0.54800  -0.53786  -0.50219
 Alpha  occ. eigenvalues --   -0.46753  -0.45748  -0.44839  -0.42986  -0.42141
 Alpha  occ. eigenvalues --   -0.41761  -0.41091  -0.40343  -0.39399  -0.37466
 Alpha  occ. eigenvalues --   -0.36136  -0.35761  -0.35145  -0.34879  -0.34672
 Alpha  occ. eigenvalues --   -0.33744  -0.33455  -0.32824  -0.32692  -0.32158
 Alpha  occ. eigenvalues --   -0.29851  -0.28942  -0.28838  -0.25457  -0.22328
 Alpha  occ. eigenvalues --   -0.21611  -0.16795  -0.16215
 Alpha virt. eigenvalues --   -0.05931  -0.03974  -0.01515  -0.00557   0.00047
 Alpha virt. eigenvalues --    0.00288   0.01346   0.01620   0.01864   0.02269
 Alpha virt. eigenvalues --    0.03383   0.03797   0.03826   0.04128   0.04482
 Alpha virt. eigenvalues --    0.04638   0.05513   0.06208   0.06245   0.06727
 Alpha virt. eigenvalues --    0.07319   0.07390   0.07889   0.08865   0.09613
 Alpha virt. eigenvalues --    0.09617   0.10117   0.10309   0.10940   0.11280
 Alpha virt. eigenvalues --    0.12111   0.12234   0.12570   0.13636   0.13719
 Alpha virt. eigenvalues --    0.14389   0.14404   0.14907   0.15236   0.15628
 Alpha virt. eigenvalues --    0.15982   0.16319   0.17317   0.17368   0.17578
 Alpha virt. eigenvalues --    0.18306   0.18661   0.18694   0.19150   0.19615
 Alpha virt. eigenvalues --    0.20053   0.20191   0.20662   0.20818   0.20963
 Alpha virt. eigenvalues --    0.21602   0.21921   0.22082   0.22472   0.23578
 Alpha virt. eigenvalues --    0.23850   0.24072   0.24219   0.24672   0.25294
 Alpha virt. eigenvalues --    0.25380   0.25559   0.25614   0.26125   0.26546
 Alpha virt. eigenvalues --    0.27020   0.27106   0.27477   0.28317   0.28464
 Alpha virt. eigenvalues --    0.28962   0.29485   0.30198   0.30982   0.31197
 Alpha virt. eigenvalues --    0.31955   0.31987   0.32715   0.32938   0.33239
 Alpha virt. eigenvalues --    0.33860   0.34408   0.35341   0.37491   0.37818
 Alpha virt. eigenvalues --    0.38121   0.40129   0.41791   0.42119   0.42147
 Alpha virt. eigenvalues --    0.45010   0.46196   0.49570   0.51067   0.56852
 Alpha virt. eigenvalues --    0.59916   0.61383   0.62431   0.64366   0.64729
 Alpha virt. eigenvalues --    0.64838   0.65729   0.66842   0.66983   0.67598
 Alpha virt. eigenvalues --    0.68284   0.69398   0.70132   0.70319   0.71007
 Alpha virt. eigenvalues --    0.71894   0.72488   0.74165   0.74776   0.75002
 Alpha virt. eigenvalues --    0.75621   0.76829   0.78573   0.78946   0.80454
 Alpha virt. eigenvalues --    0.81805   0.82998   0.83321   0.83980   0.85113
 Alpha virt. eigenvalues --    0.85546   0.86576   0.87143   0.87320   0.89582
 Alpha virt. eigenvalues --    0.90066   0.90918   0.91090   0.92526   0.93621
 Alpha virt. eigenvalues --    0.94419   0.95260   0.95965   0.96534   0.99170
 Alpha virt. eigenvalues --    0.99667   0.99960   1.00538   1.01031   1.02202
 Alpha virt. eigenvalues --    1.03177   1.03728   1.04083   1.09167   1.09502
 Alpha virt. eigenvalues --    1.10673   1.11015   1.11466   1.11631   1.11891
 Alpha virt. eigenvalues --    1.12508   1.14941   1.16813   1.18713   1.19588
 Alpha virt. eigenvalues --    1.20088   1.21325   1.22283   1.22791   1.25019
 Alpha virt. eigenvalues --    1.25291   1.27276   1.28021   1.28117   1.30643
 Alpha virt. eigenvalues --    1.31002   1.32381   1.33128   1.34605   1.36006
 Alpha virt. eigenvalues --    1.36213   1.36802   1.39842   1.43747   1.44634
 Alpha virt. eigenvalues --    1.48235   1.49457   1.50296   1.54892   1.55646
 Alpha virt. eigenvalues --    1.57513   1.59103   1.66529   1.68703   1.69520
 Alpha virt. eigenvalues --    1.71799   1.72867   1.74724   1.76449   1.78537
 Alpha virt. eigenvalues --    1.79757   1.80589   1.80736   1.83668   1.84713
 Alpha virt. eigenvalues --    1.84848   1.86088   1.87481   1.87777   1.89712
 Alpha virt. eigenvalues --    1.90204   1.92504   1.92655   1.93448   1.94599
 Alpha virt. eigenvalues --    1.96090   1.96361   1.96875   1.97465   1.97481
 Alpha virt. eigenvalues --    1.97719   1.98942   2.00189   2.01170   2.01943
 Alpha virt. eigenvalues --    2.03203   2.04672   2.04751   2.05564   2.08105
 Alpha virt. eigenvalues --    2.08743   2.08784   2.10470   2.11826   2.12381
 Alpha virt. eigenvalues --    2.14165   2.16701   2.18218   2.20124   2.20532
 Alpha virt. eigenvalues --    2.22733   2.22968   2.25707   2.30311   2.30878
 Alpha virt. eigenvalues --    2.32391   2.33129   2.33879   2.34484   2.36129
 Alpha virt. eigenvalues --    2.37443   2.37630   2.40249   2.41642   2.42250
 Alpha virt. eigenvalues --    2.45158   2.45626   2.47087   2.49683   2.50255
 Alpha virt. eigenvalues --    2.50649   2.51175   2.53541   2.54254   2.56162
 Alpha virt. eigenvalues --    2.56529   2.58238   2.59483   2.59755   2.60272
 Alpha virt. eigenvalues --    2.63068   2.64244   2.64426   2.65316   2.66045
 Alpha virt. eigenvalues --    2.67090   2.67369   2.68499   2.70643   2.70994
 Alpha virt. eigenvalues --    2.72171   2.75715   2.77521   2.77976   2.79351
 Alpha virt. eigenvalues --    2.81865   2.85539   2.85899   2.87347   2.89056
 Alpha virt. eigenvalues --    2.95112   2.96488   3.03408   3.03794   3.05030
 Alpha virt. eigenvalues --    3.09762   3.13024   3.18200   3.18553   3.18977
 Alpha virt. eigenvalues --    3.20599   3.21558   3.21744   3.25431   3.29617
 Alpha virt. eigenvalues --    3.35863   3.36566   3.36758   3.37312   3.38282
 Alpha virt. eigenvalues --    3.38706   3.42876   3.43070   3.47019   3.48418
 Alpha virt. eigenvalues --    3.70072   3.75391   4.22563   4.23169   4.27472
 Alpha virt. eigenvalues --    4.27841   4.32441   4.35705   4.35966   4.42961
 Alpha virt. eigenvalues --    4.44561   4.50212   4.52265   4.54694   4.57297
 Alpha virt. eigenvalues --    4.57622   4.63034   4.84449
          Condensed to atoms (all electrons):
               1          2          3          4          5          6
     1  C   13.028583  -1.253679  -0.551985   0.249961  -0.818549  -0.940274
     2  C   -1.253679   8.607884  -1.612153   0.234607  -0.478486  -0.069390
     3  C   -0.551985  -1.612153  12.999426  -3.497859   0.006442  -0.362687
     4  C    0.249961   0.234607  -3.497859  10.846176   0.072008   0.501029
     5  C   -0.818549  -0.478486   0.006442   0.072008  12.958164  -2.225528
     6  C   -0.940274  -0.069390  -0.362687   0.501029  -2.225528  12.997351
     7  C   -0.191845  -0.062948   1.653871  -3.497831   0.006341  -2.377440
     8  C    0.244997  -0.545556  -0.062965   0.234578  -0.478365   1.234041
     9  C   -1.107699   0.245013  -0.191849   0.250065  -0.818894  -2.752984
    10  C   -2.752954   1.234044  -2.377427   0.501095  -2.225706   1.027985
    11  N   -0.013942  -0.066212  -0.086205  -0.055295  -0.200764   0.103253
    12  N    0.044187   0.001043   0.010818  -0.055295  -0.200763  -0.037979
    13  C    0.209775  -0.124122   0.086998   0.000407   0.184257  -0.427914
    14  C    0.041171  -0.052125   0.011645  -0.021146  -0.122128  -0.205079
    15  C    0.011450   0.011015  -0.043882  -0.021145  -0.122141  -0.018129
    16  C   -0.047812  -0.026183   0.020058   0.000411   0.184246  -0.337319
    17  H    0.142375   0.082137   0.025830   0.012284   0.096862  -0.032778
    18  H    0.015876   0.227443   0.057564   0.032819  -0.026517   0.012405
    19  H    0.041763   0.025807   0.271377  -0.029121   0.008060   0.001810
    20  H   -0.002147   0.009608  -0.032735  -0.029123   0.008060  -0.003158
    21  H   -0.001840   0.002425  -0.008878   0.032818  -0.026517  -0.003848
    22  H    0.003649  -0.001891   0.013382   0.012282   0.096868   0.011584
    23  H   -0.067127  -0.010500   0.005318   0.019164   0.098441  -0.110015
    24  H   -0.011920   0.001620   0.000247  -0.000729  -0.005203   0.004809
    25  H    0.080542  -0.004199  -0.000726  -0.002676  -0.055914  -0.021357
    26  H    0.029259   0.014503   0.001419  -0.004772  -0.004538  -0.061117
    27  H    0.086708   0.023325   0.007606   0.001036  -0.044434  -0.115947
    28  H   -0.061170  -0.016663  -0.000526   0.000613   0.023780   0.073986
    29  H    0.001067   0.000095  -0.000759  -0.004772  -0.004539   0.002377
    30  H   -0.001967   0.000382  -0.000203   0.001036  -0.044436  -0.010147
    31  H    0.001187  -0.000115   0.000065   0.000613   0.023780  -0.000079
    32  H    0.059410  -0.010896   0.015171   0.019162   0.098448   0.017619
    33  H    0.006896  -0.000165  -0.001554  -0.000729  -0.005202   0.020323
    34  H   -0.016210   0.001875  -0.000683  -0.002675  -0.055918  -0.028907
               7          8          9         10         11         12
     1  C   -0.191845   0.244997  -1.107699  -2.752954  -0.013942   0.044187
     2  C   -0.062948  -0.545556   0.245013   1.234044  -0.066212   0.001043
     3  C    1.653871  -0.062965  -0.191849  -2.377427  -0.086205   0.010818
     4  C   -3.497831   0.234578   0.250065   0.501095  -0.055295  -0.055295
     5  C    0.006341  -0.478365  -0.818894  -2.225706  -0.200764  -0.200763
     6  C   -2.377440   1.234041  -2.752984   1.027985   0.103253  -0.037979
     7  C   12.999435  -1.612174  -0.551889  -0.362713   0.010817  -0.086207
     8  C   -1.612174   8.607911  -1.253730  -0.069391   0.001044  -0.066209
     9  C   -0.551889  -1.253730  13.028822  -0.940265   0.044179  -0.013967
    10  C   -0.362713  -0.069391  -0.940265  12.997453  -0.038005   0.103254
    11  N    0.010817   0.001044   0.044179  -0.038005   7.531774  -0.154119
    12  N   -0.086207  -0.066209  -0.013967   0.103254  -0.154119   7.531764
    13  C    0.020056  -0.026182  -0.047817  -0.337329   0.151730   0.018708
    14  C   -0.043881   0.011015   0.011453  -0.018124   0.088265  -0.002522
    15  C    0.011648  -0.052125   0.041186  -0.205079  -0.002521   0.088264
    16  C    0.086996  -0.124121   0.209766  -0.427908   0.018707   0.151729
    17  H    0.013382  -0.001891   0.003649   0.011583  -0.043890  -0.000014
    18  H   -0.008879   0.002425  -0.001840  -0.003848  -0.001746   0.000048
    19  H   -0.032733   0.009610  -0.002147  -0.003159   0.000301   0.000063
    20  H    0.271376   0.025812   0.041762   0.001810   0.000063   0.000301
    21  H    0.057562   0.227444   0.015877   0.012405   0.000048  -0.001746
    22  H    0.025827   0.082138   0.142366  -0.032772  -0.000014  -0.043890
    23  H    0.015172  -0.010896   0.059410   0.017621  -0.049925  -0.016376
    24  H   -0.001554  -0.000165   0.006897   0.020325  -0.061932   0.001565
    25  H   -0.000683   0.001875  -0.016210  -0.028909  -0.077965   0.002887
    26  H   -0.000759   0.000095   0.001067   0.002378  -0.049756  -0.000871
    27  H   -0.000203   0.000382  -0.001967  -0.010147  -0.061232  -0.000937
    28  H    0.000065  -0.000115   0.001187  -0.000079  -0.083367   0.001184
    29  H    0.001419   0.014503   0.029261  -0.061119  -0.000871  -0.049755
    30  H    0.007606   0.023325   0.086710  -0.115947  -0.000937  -0.061233
    31  H   -0.000526  -0.016663  -0.061169   0.073985   0.001184  -0.083367
    32  H    0.005318  -0.010500  -0.067128  -0.110019  -0.016375  -0.049923
    33  H    0.000247   0.001620  -0.011918   0.004809   0.001566  -0.061932
    34  H   -0.000726  -0.004199   0.080542  -0.021355   0.002887  -0.077965
              13         14         15         16         17         18
     1  C    0.209775   0.041171   0.011450  -0.047812   0.142375   0.015876
     2  C   -0.124122  -0.052125   0.011015  -0.026183   0.082137   0.227443
     3  C    0.086998   0.011645  -0.043882   0.020058   0.025830   0.057564
     4  C    0.000407  -0.021146  -0.021145   0.000411   0.012284   0.032819
     5  C    0.184257  -0.122128  -0.122141   0.184246   0.096862  -0.026517
     6  C   -0.427914  -0.205079  -0.018129  -0.337319  -0.032778   0.012405
     7  C    0.020056  -0.043881   0.011648   0.086996   0.013382  -0.008879
     8  C   -0.026182   0.011015  -0.052125  -0.124121  -0.001891   0.002425
     9  C   -0.047817   0.011453   0.041186   0.209766   0.003649  -0.001840
    10  C   -0.337329  -0.018124  -0.205079  -0.427908   0.011583  -0.003848
    11  N    0.151730   0.088265  -0.002521   0.018707  -0.043890  -0.001746
    12  N    0.018708  -0.002522   0.088264   0.151729  -0.000014   0.000048
    13  C    5.407274  -0.063911  -0.017601  -0.007730  -0.004448  -0.000131
    14  C   -0.063911   5.420835   0.007194  -0.017601  -0.006471   0.001068
    15  C   -0.017601   0.007194   5.420834  -0.063910   0.000144  -0.000001
    16  C   -0.007730  -0.017601  -0.063910   5.407270  -0.000813   0.000031
    17  H   -0.004448  -0.006471   0.000144  -0.000813   0.582239  -0.006037
    18  H   -0.000131   0.001068  -0.000001   0.000031  -0.006037   0.568616
    19  H    0.000016   0.000224  -0.000043   0.000142  -0.000195  -0.005248
    20  H    0.000142  -0.000043   0.000224   0.000016   0.000000  -0.000009
    21  H    0.000031  -0.000001   0.001068  -0.000131  -0.000000  -0.000000
    22  H   -0.000813   0.000144  -0.006471  -0.004448  -0.000000  -0.000000
    23  H    0.411326   0.003897  -0.006031   0.001152   0.000014   0.000000
    24  H    0.410125  -0.018495   0.000311   0.001259  -0.000013  -0.000000
    25  H    0.434624   0.014095   0.000636  -0.001067   0.000013   0.000001
    26  H    0.003811   0.425566  -0.000391  -0.000255  -0.002232  -0.000004
    27  H    0.007702   0.430925   0.000361   0.000843  -0.000564   0.000013
    28  H   -0.009682   0.419108  -0.000356  -0.001121   0.000316  -0.000000
    29  H   -0.000255  -0.000391   0.425566   0.003811   0.000000   0.000000
    30  H    0.000843   0.000361   0.430925   0.007701   0.000000  -0.000000
    31  H   -0.001121  -0.000356   0.419108  -0.009682  -0.000000   0.000000
    32  H    0.001152  -0.006032   0.003897   0.411327  -0.000016  -0.000001
    33  H    0.001259   0.000311  -0.018496   0.410125  -0.000000  -0.000000
    34  H   -0.001067   0.000636   0.014096   0.434623   0.000000  -0.000000
              19         20         21         22         23         24
     1  C    0.041763  -0.002147  -0.001840   0.003649  -0.067127  -0.011920
     2  C    0.025807   0.009608   0.002425  -0.001891  -0.010500   0.001620
     3  C    0.271377  -0.032735  -0.008878   0.013382   0.005318   0.000247
     4  C   -0.029121  -0.029123   0.032818   0.012282   0.019164  -0.000729
     5  C    0.008060   0.008060  -0.026517   0.096868   0.098441  -0.005203
     6  C    0.001810  -0.003158  -0.003848   0.011584  -0.110015   0.004809
     7  C   -0.032733   0.271376   0.057562   0.025827   0.015172  -0.001554
     8  C    0.009610   0.025812   0.227444   0.082138  -0.010896  -0.000165
     9  C   -0.002147   0.041762   0.015877   0.142366   0.059410   0.006897
    10  C   -0.003159   0.001810   0.012405  -0.032772   0.017621   0.020325
    11  N    0.000301   0.000063   0.000048  -0.000014  -0.049925  -0.061932
    12  N    0.000063   0.000301  -0.001746  -0.043890  -0.016376   0.001565
    13  C    0.000016   0.000142   0.000031  -0.000813   0.411326   0.410125
    14  C    0.000224  -0.000043  -0.000001   0.000144   0.003897  -0.018495
    15  C   -0.000043   0.000224   0.001068  -0.006471  -0.006031   0.000311
    16  C    0.000142   0.000016  -0.000131  -0.004448   0.001152   0.001259
    17  H   -0.000195   0.000000  -0.000000  -0.000000   0.000014  -0.000013
    18  H   -0.005248  -0.000009  -0.000000  -0.000000   0.000000  -0.000000
    19  H    0.576492   0.003493  -0.000009   0.000000  -0.000000   0.000000
    20  H    0.003493   0.576492  -0.005248  -0.000195  -0.000000  -0.000000
    21  H   -0.000009  -0.005248   0.568616  -0.006037  -0.000001  -0.000000
    22  H    0.000000  -0.000195  -0.006037   0.582239  -0.000016  -0.000000
    23  H   -0.000000  -0.000000  -0.000001  -0.000016   0.503510  -0.021666
    24  H    0.000000  -0.000000  -0.000000  -0.000000  -0.021666   0.557107
    25  H    0.000000   0.000000  -0.000000   0.000000  -0.030015  -0.044503
    26  H    0.000000  -0.000000   0.000000   0.000000  -0.000211   0.000298
    27  H    0.000000   0.000000  -0.000000   0.000000  -0.000105  -0.001888
    28  H   -0.000000   0.000000   0.000000  -0.000000   0.000340   0.004818
    29  H   -0.000000   0.000000  -0.000004  -0.002232   0.000365  -0.000036
    30  H    0.000000   0.000000   0.000013  -0.000564  -0.000031   0.000003
    31  H    0.000000  -0.000000  -0.000000   0.000316   0.000055   0.000146
    32  H   -0.000000  -0.000000   0.000000   0.000014  -0.000059   0.000104
    33  H   -0.000000   0.000000  -0.000000  -0.000013   0.000104   0.000250
    34  H    0.000000   0.000000   0.000001   0.000013  -0.000026  -0.000018
              25         26         27         28         29         30
     1  C    0.080542   0.029259   0.086708  -0.061170   0.001067  -0.001967
     2  C   -0.004199   0.014503   0.023325  -0.016663   0.000095   0.000382
     3  C   -0.000726   0.001419   0.007606  -0.000526  -0.000759  -0.000203
     4  C   -0.002676  -0.004772   0.001036   0.000613  -0.004772   0.001036
     5  C   -0.055914  -0.004538  -0.044434   0.023780  -0.004539  -0.044436
     6  C   -0.021357  -0.061117  -0.115947   0.073986   0.002377  -0.010147
     7  C   -0.000683  -0.000759  -0.000203   0.000065   0.001419   0.007606
     8  C    0.001875   0.000095   0.000382  -0.000115   0.014503   0.023325
     9  C   -0.016210   0.001067  -0.001967   0.001187   0.029261   0.086710
    10  C   -0.028909   0.002378  -0.010147  -0.000079  -0.061119  -0.115947
    11  N   -0.077965  -0.049756  -0.061232  -0.083367  -0.000871  -0.000937
    12  N    0.002887  -0.000871  -0.000937   0.001184  -0.049755  -0.061233
    13  C    0.434624   0.003811   0.007702  -0.009682  -0.000255   0.000843
    14  C    0.014095   0.425566   0.430925   0.419108  -0.000391   0.000361
    15  C    0.000636  -0.000391   0.000361  -0.000356   0.425566   0.430925
    16  C   -0.001067  -0.000255   0.000843  -0.001121   0.003811   0.007701
    17  H    0.000013  -0.002232  -0.000564   0.000316   0.000000   0.000000
    18  H    0.000001  -0.000004   0.000013  -0.000000   0.000000  -0.000000
    19  H    0.000000   0.000000   0.000000  -0.000000  -0.000000   0.000000
    20  H    0.000000  -0.000000   0.000000   0.000000   0.000000   0.000000
    21  H   -0.000000   0.000000  -0.000000   0.000000  -0.000004   0.000013
    22  H    0.000000   0.000000   0.000000  -0.000000  -0.002232  -0.000564
    23  H   -0.030015  -0.000211  -0.000105   0.000340   0.000365  -0.000031
    24  H   -0.044503   0.000298  -0.001888   0.004818  -0.000036   0.000003
    25  H    0.590851  -0.000210   0.009359  -0.002784  -0.000000   0.000000
    26  H   -0.000210   0.528356  -0.038236  -0.018864  -0.000000   0.000000
    27  H    0.009359  -0.038236   0.587186  -0.041128   0.000000  -0.000000
    28  H   -0.002784  -0.018864  -0.041128   0.545956   0.000000   0.000000
    29  H   -0.000000  -0.000000   0.000000   0.000000   0.528356  -0.038236
    30  H    0.000000   0.000000  -0.000000   0.000000  -0.038236   0.587186
    31  H   -0.000002   0.000000   0.000000   0.000001  -0.018863  -0.041128
    32  H   -0.000026   0.000365  -0.000031   0.000055  -0.000211  -0.000105
    33  H   -0.000018  -0.000036   0.000003   0.000146   0.000298  -0.001888
    34  H    0.000002  -0.000000   0.000000  -0.000002  -0.000210   0.009358
              31         32         33         34
     1  C    0.001187   0.059410   0.006896  -0.016210
     2  C   -0.000115  -0.010896  -0.000165   0.001875
     3  C    0.000065   0.015171  -0.001554  -0.000683
     4  C    0.000613   0.019162  -0.000729  -0.002675
     5  C    0.023780   0.098448  -0.005202  -0.055918
     6  C   -0.000079   0.017619   0.020323  -0.028907
     7  C   -0.000526   0.005318   0.000247  -0.000726
     8  C   -0.016663  -0.010500   0.001620  -0.004199
     9  C   -0.061169  -0.067128  -0.011918   0.080542
    10  C    0.073985  -0.110019   0.004809  -0.021355
    11  N    0.001184  -0.016375   0.001566   0.002887
    12  N   -0.083367  -0.049923  -0.061932  -0.077965
    13  C   -0.001121   0.001152   0.001259  -0.001067
    14  C   -0.000356  -0.006032   0.000311   0.000636
    15  C    0.419108   0.003897  -0.018496   0.014096
    16  C   -0.009682   0.411327   0.410125   0.434623
    17  H   -0.000000  -0.000016  -0.000000   0.000000
    18  H    0.000000  -0.000001  -0.000000  -0.000000
    19  H    0.000000  -0.000000  -0.000000   0.000000
    20  H   -0.000000  -0.000000   0.000000   0.000000
    21  H   -0.000000   0.000000  -0.000000   0.000001
    22  H    0.000316   0.000014  -0.000013   0.000013
    23  H    0.000055  -0.000059   0.000104  -0.000026
    24  H    0.000146   0.000104   0.000250  -0.000018
    25  H   -0.000002  -0.000026  -0.000018   0.000002
    26  H    0.000000   0.000365  -0.000036  -0.000000
    27  H    0.000000  -0.000031   0.000003   0.000000
    28  H    0.000001   0.000055   0.000146  -0.000002
    29  H   -0.018863  -0.000211   0.000298  -0.000210
    30  H   -0.041128  -0.000105  -0.001888   0.009358
    31  H    0.545956   0.000340   0.004819  -0.002784
    32  H    0.000340   0.503510  -0.021666  -0.030015
    33  H    0.004819  -0.021666   0.557108  -0.044503
    34  H   -0.002784  -0.030015  -0.044503   0.590852
 Mulliken charges:
               1
     1  C   -0.457737
     2  C   -0.387544
     3  C   -0.354161
     4  C    0.201005
     5  C    0.098784
     6  C    0.133505
     7  C   -0.354148
     8  C   -0.387569
     9  C   -0.457738
    10  C    0.133504
    11  N    0.109252
    12  N    0.109253
    13  C   -0.280112
    14  C   -0.309607
    15  C   -0.309607
    16  C   -0.280114
    17  H    0.128533
    18  H    0.135953
    19  H    0.133497
    20  H    0.133497
    21  H    0.135953
    22  H    0.128533
    23  H    0.187112
    24  H    0.158237
    25  H    0.152378
    26  H    0.175136
    27  H    0.161372
    28  H    0.164300
    29  H    0.175136
    30  H    0.161372
    31  H    0.164300
    32  H    0.187112
    33  H    0.158237
    34  H    0.152378
 Sum of Mulliken charges =  -0.00000
 Mulliken charges with hydrogens summed into heavy atoms:
               1
     1  C   -0.329204
     2  C   -0.251592
     3  C   -0.220664
     4  C    0.201005
     5  C    0.098784
     6  C    0.133505
     7  C   -0.220651
     8  C   -0.251617
     9  C   -0.329205
    10  C    0.133504
    11  N    0.109252
    12  N    0.109253
    13  C    0.217615
    14  C    0.191201
    15  C    0.191201
    16  C    0.217613
 Electronic spatial extent (au):  <R**2>=           3318.2933
 Charge=             -0.0000 electrons
 Dipole moment (field-independent basis, Debye):
    X=             -1.9603    Y=              0.0002    Z=              0.0000  Tot=              1.9603
 Quadrupole moment (field-independent basis, Debye-Ang):
   XX=            -90.8946   YY=            -90.7785   ZZ=           -101.5224
   XY=              0.0000   XZ=              0.0002   YZ=              1.7535
 Traceless Quadrupole moment (field-independent basis, Debye-Ang):
   XX=              3.5039   YY=              3.6200   ZZ=             -7.1239
   XY=              0.0000   XZ=              0.0002   YZ=              1.7535
 Octapole moment (field-independent basis, Debye-Ang**2):
  XXX=             -6.0913  YYY=              0.0021  ZZZ=              0.0001  XYY=             -6.6670
  XXY=             -0.0007  XXZ=              0.0004  XZZ=            -15.3597  YZZ=              0.0015
  YYZ=             -0.0005  XYZ=              2.3261
 Hexadecapole moment (field-independent basis, Debye-Ang**3):
 XXXX=          -2008.4786 YYYY=          -2043.3841 ZZZZ=           -432.3433 XXXY=             -0.0027
 XXXZ=              0.0039 YYYX=             -0.0021 YYYZ=             33.2563 ZZZX=             -0.0004
 ZZZY=             -2.5872 XXYY=           -676.2680 XXZZ=           -451.4338 YYZZ=           -448.9554
 XXYZ=             13.2265 YYXZ=              0.0007 ZZXY=              0.0000
 N-N= 1.123721562659D+03 E-N=-3.760690768187D+03  KE= 6.468803753862D+02
 Calling FoFJK, ICntrl=      2527 FMM=F ISym2X=0 I1Cent= 0 IOpClX= 0 NMat=1 NMatS=1 NMatT=0.
 ***** Axes restored to original set *****
 -------------------------------------------------------------------
 Center     Atomic                   Forces (Hartrees/Bohr)
 Number     Number              X              Y              Z
 -------------------------------------------------------------------
      1        6           0.001719597    0.003936794    0.001568177
      2        6          -0.001532605    0.004357645    0.001082378
      3        6           0.002506822   -0.003083893   -0.000376661
      4        6           0.002424684    0.000000761    0.000000190
      5        6          -0.002698000   -0.000000839   -0.000000236
      6        6          -0.002034781   -0.003507815   -0.000488532
      7        6           0.002505708    0.003083646    0.000376441
      8        6          -0.001531263   -0.004357570   -0.001082262
      9        6           0.001719729   -0.003936333   -0.001568000
     10        6          -0.002035940    0.003507748    0.000488439
     11        7          -0.001173817   -0.001621128    0.001570922
     12        7          -0.001173157    0.001622138   -0.001570836
     13        6          -0.000357238   -0.000637382    0.000753781
     14        6          -0.000211958   -0.000501703    0.000263136
     15        6          -0.000212379    0.000502057   -0.000262578
     16        6          -0.000358061    0.000637181   -0.000753541
     17        1          -0.002264515    0.004938529    0.000013318
     18        1           0.002612859    0.004607865    0.000891441
     19        1           0.005405202   -0.000332658    0.000056400
     20        1           0.005405251    0.000333714   -0.000056403
     21        1           0.002613754   -0.004607232   -0.000891439
     22        1          -0.002263312   -0.004939244   -0.000013444
     23        1           0.002710252   -0.004489513   -0.001490059
     24        1          -0.005206110   -0.001558032    0.000108726
     25        1           0.000824732    0.003729686   -0.003701591
     26        1           0.001179175    0.001244217    0.004887647
     27        1           0.001102986    0.004368259   -0.003262828
     28        1          -0.005144728   -0.000741672   -0.000287976
     29        1           0.001179432   -0.001244267   -0.004888053
     30        1           0.001103699   -0.004368116    0.003262847
     31        1          -0.005144952    0.000740314    0.000287822
     32        1           0.002709502    0.004489453    0.001489903
     33        1          -0.005206156    0.001556983   -0.000108772
     34        1           0.000825589   -0.003729593    0.003701641
 -------------------------------------------------------------------
 Cartesian Forces:  Max     0.005405251 RMS     0.002622271

 GradGradGradGradGradGradGradGradGradGradGradGradGradGradGradGradGradGrad
 Berny optimization.
 FormGI is forming the generalized inverse of G from B-inverse, IUseBI=4.
 Internal  Forces:  Max     0.010831954 RMS     0.002960738
 Search for a local minimum.
 Step number   1 out of a maximum of  181
 All quantities printed in internal units (Hartrees-Bohrs-Radians)
 Mixed Optimization -- RFO/linear search
 Second derivative matrix not updated -- first step.
 ITU=  0
     Eigenvalues ---    0.00939   0.00939   0.01072   0.01072   0.01555
     Eigenvalues ---    0.01583   0.01583   0.01639   0.01705   0.01766
     Eigenvalues ---    0.01768   0.01926   0.01962   0.02086   0.02091
     Eigenvalues ---    0.02130   0.02145   0.02186   0.02186   0.02190
     Eigenvalues ---    0.02200   0.02288   0.02294   0.07135   0.07135
     Eigenvalues ---    0.07345   0.07345   0.07502   0.07502   0.07705
     Eigenvalues ---    0.07705   0.15953   0.15953   0.15974   0.15975
     Eigenvalues ---    0.16000   0.16000   0.16000   0.16000   0.16000
     Eigenvalues ---    0.16000   0.16000   0.16000   0.16000   0.16000
     Eigenvalues ---    0.16000   0.16000   0.16000   0.16000   0.19429
     Eigenvalues ---    0.19429   0.21341   0.21341   0.22050   0.22119
     Eigenvalues ---    0.23115   0.23617   0.24660   0.24848   0.24997
     Eigenvalues ---    0.24997   0.33036   0.33036   0.33169   0.33169
     Eigenvalues ---    0.34199   0.34199   0.34224   0.34224   0.34391
     Eigenvalues ---    0.34391   0.34998   0.34998   0.35185   0.35185
     Eigenvalues ---    0.35197   0.35197   0.35508   0.35508   0.35849
     Eigenvalues ---    0.37268   0.37358   0.37358   0.37374   0.38658
     Eigenvalues ---    0.38658   0.41011   0.41281   0.43352   0.43500
     Eigenvalues ---    0.44279   0.44279   0.46160   0.46247   0.49445
     Eigenvalues ---    0.49549
 RFO step:  Lambda=-3.95500235D-03 EMin= 9.39423649D-03
 Linear search not attempted -- first point.
 Iteration  1 RMS(Cart)=  0.04485686 RMS(Int)=  0.00035357
 Iteration  2 RMS(Cart)=  0.00101531 RMS(Int)=  0.00002628
 Iteration  3 RMS(Cart)=  0.00000040 RMS(Int)=  0.00002628
 Variable       Old X    -DE/DX   Delta X   Delta X   Delta X     New X
                                 (Linear)    (Quad)   (Total)
    R1        2.66005   0.00627   0.00000   0.01446   0.01446   2.67452
    R2        2.62728   0.01037   0.00000   0.02185   0.02185   2.64913
    R3        2.04859   0.00543   0.00000   0.01512   0.01512   2.06371
    R4        2.59135   0.01083   0.00000   0.02151   0.02151   2.61286
    R5        2.05376   0.00537   0.00000   0.01509   0.01509   2.06885
    R6        2.68233   0.00667   0.00000   0.01545   0.01545   2.69778
    R7        2.05356   0.00541   0.00000   0.01521   0.01521   2.06877
    R8        2.71719   0.00798   0.00000   0.01879   0.01879   2.73598
    R9        2.68233   0.00667   0.00000   0.01545   0.01545   2.69778
   R10        2.73854   0.00536   0.00000   0.01341   0.01340   2.75194
   R11        2.73854   0.00536   0.00000   0.01340   0.01340   2.75194
   R12        2.66122   0.00635   0.00000   0.01422   0.01422   2.67544
   R13        2.59136   0.01083   0.00000   0.02151   0.02151   2.61287
   R14        2.05356   0.00541   0.00000   0.01521   0.01521   2.06877
   R15        2.66005   0.00627   0.00000   0.01446   0.01446   2.67451
   R16        2.05376   0.00537   0.00000   0.01509   0.01509   2.06885
   R17        2.62728   0.01037   0.00000   0.02185   0.02185   2.64913
   R18        2.04859   0.00543   0.00000   0.01512   0.01512   2.06371
   R19        2.66122   0.00635   0.00000   0.01422   0.01422   2.67544
   R20        2.75310   0.00547   0.00000   0.01449   0.01449   2.76758
   R21        2.73419   0.00554   0.00000   0.01418   0.01418   2.74837
   R22        2.73419   0.00554   0.00000   0.01418   0.01418   2.74837
   R23        2.75310   0.00547   0.00000   0.01449   0.01449   2.76758
   R24        2.05678   0.00545   0.00000   0.01540   0.01540   2.07218
   R25        2.06996   0.00543   0.00000   0.01569   0.01569   2.08565
   R26        2.08757   0.00532   0.00000   0.01584   0.01584   2.10341
   R27        2.06675   0.00518   0.00000   0.01488   0.01488   2.08164
   R28        2.08989   0.00556   0.00000   0.01664   0.01664   2.10652
   R29        2.06954   0.00521   0.00000   0.01504   0.01504   2.08457
   R30        2.06675   0.00518   0.00000   0.01489   0.01489   2.08164
   R31        2.08989   0.00556   0.00000   0.01664   0.01664   2.10652
   R32        2.06954   0.00521   0.00000   0.01504   0.01504   2.08457
   R33        2.05678   0.00545   0.00000   0.01540   0.01540   2.07218
   R34        2.06996   0.00543   0.00000   0.01569   0.01569   2.08565
   R35        2.08757   0.00532   0.00000   0.01584   0.01584   2.10341
    A1        2.12922  -0.00075   0.00000  -0.00225  -0.00224   2.12697
    A2        2.06579   0.00018   0.00000  -0.00003  -0.00003   2.06576
    A3        2.08602   0.00057   0.00000   0.00236   0.00236   2.08837
    A4        2.09241  -0.00017   0.00000   0.00093   0.00093   2.09335
    A5        2.08344  -0.00002   0.00000  -0.00101  -0.00102   2.08242
    A6        2.10534   0.00019   0.00000   0.00023   0.00023   2.10557
    A7        2.10073   0.00012   0.00000   0.00110   0.00110   2.10182
    A8        2.11194   0.00009   0.00000   0.00037   0.00037   2.11231
    A9        2.07050  -0.00021   0.00000  -0.00146  -0.00146   2.06904
   A10        2.10240  -0.00052   0.00000  -0.00254  -0.00255   2.09985
   A11        2.07839   0.00103   0.00000   0.00509   0.00510   2.08348
   A12        2.10240  -0.00052   0.00000  -0.00255  -0.00255   2.09985
   A13        2.04473   0.00105   0.00000   0.00338   0.00338   2.04811
   A14        2.04473   0.00105   0.00000   0.00339   0.00338   2.04811
   A15        2.19372  -0.00210   0.00000  -0.00677  -0.00676   2.18696
   A16        2.07736   0.00030   0.00000   0.00071   0.00070   2.07805
   A17        2.09694   0.00216   0.00000   0.00878   0.00876   2.10571
   A18        2.10879  -0.00245   0.00000  -0.00936  -0.00937   2.09941
   A19        2.10073   0.00012   0.00000   0.00110   0.00110   2.10182
   A20        2.07050  -0.00021   0.00000  -0.00146  -0.00146   2.06904
   A21        2.11194   0.00009   0.00000   0.00037   0.00037   2.11231
   A22        2.09241  -0.00017   0.00000   0.00093   0.00093   2.09335
   A23        2.10535   0.00019   0.00000   0.00023   0.00023   2.10557
   A24        2.08344  -0.00002   0.00000  -0.00101  -0.00102   2.08242
   A25        2.12922  -0.00075   0.00000  -0.00225  -0.00224   2.12697
   A26        2.06579   0.00018   0.00000  -0.00003  -0.00003   2.06576
   A27        2.08601   0.00057   0.00000   0.00236   0.00236   2.08837
   A28        2.07736   0.00029   0.00000   0.00071   0.00070   2.07805
   A29        2.10879  -0.00245   0.00000  -0.00936  -0.00937   2.09941
   A30        2.09694   0.00216   0.00000   0.00878   0.00876   2.10571
   A31        2.02665  -0.00032   0.00000   0.00372   0.00357   2.03022
   A32        2.05723   0.00057   0.00000   0.00825   0.00815   2.06537
   A33        1.94906   0.00023   0.00000   0.00609   0.00597   1.95503
   A34        2.05723   0.00057   0.00000   0.00825   0.00815   2.06537
   A35        2.02665  -0.00032   0.00000   0.00372   0.00357   2.03022
   A36        1.94906   0.00023   0.00000   0.00609   0.00596   1.95502
   A37        1.93108   0.00007   0.00000   0.00009   0.00009   1.93117
   A38        1.91673   0.00029   0.00000   0.00203   0.00203   1.91877
   A39        1.94043  -0.00022   0.00000  -0.00124  -0.00124   1.93919
   A40        1.88710  -0.00023   0.00000  -0.00160  -0.00160   1.88551
   A41        1.89330  -0.00001   0.00000  -0.00054  -0.00054   1.89275
   A42        1.89394   0.00009   0.00000   0.00123   0.00123   1.89517
   A43        1.92737  -0.00015   0.00000  -0.00094  -0.00094   1.92643
   A44        1.98550   0.00025   0.00000   0.00165   0.00165   1.98715
   A45        1.89317   0.00001   0.00000  -0.00003  -0.00003   1.89314
   A46        1.89389  -0.00002   0.00000   0.00002   0.00002   1.89391
   A47        1.88724   0.00001   0.00000  -0.00026  -0.00026   1.88698
   A48        1.87367  -0.00010   0.00000  -0.00051  -0.00051   1.87316
   A49        1.92737  -0.00015   0.00000  -0.00094  -0.00094   1.92643
   A50        1.98550   0.00025   0.00000   0.00165   0.00165   1.98715
   A51        1.89317   0.00001   0.00000  -0.00002  -0.00003   1.89314
   A52        1.89389  -0.00002   0.00000   0.00002   0.00002   1.89391
   A53        1.88724   0.00001   0.00000  -0.00026  -0.00026   1.88698
   A54        1.87368  -0.00010   0.00000  -0.00052  -0.00052   1.87316
   A55        1.93108   0.00007   0.00000   0.00009   0.00009   1.93117
   A56        1.91673   0.00029   0.00000   0.00203   0.00203   1.91877
   A57        1.94043  -0.00022   0.00000  -0.00124  -0.00124   1.93919
   A58        1.88710  -0.00023   0.00000  -0.00159  -0.00159   1.88551
   A59        1.89330  -0.00001   0.00000  -0.00054  -0.00055   1.89275
   A60        1.89394   0.00009   0.00000   0.00123   0.00123   1.89517
    D1        0.06095  -0.00006   0.00000  -0.00246  -0.00246   0.05849
    D2        3.13526   0.00003   0.00000   0.00004   0.00003   3.13529
    D3       -3.00965  -0.00012   0.00000  -0.00400  -0.00402  -3.01367
    D4        0.06466  -0.00003   0.00000  -0.00151  -0.00152   0.06314
    D5        0.08980  -0.00012   0.00000  -0.00247  -0.00246   0.08734
    D6       -3.03662  -0.00030   0.00000  -0.01177  -0.01181  -3.04842
    D7       -3.12358  -0.00007   0.00000  -0.00100  -0.00098  -3.12457
    D8        0.03319  -0.00025   0.00000  -0.01030  -0.01033   0.02285
    D9       -0.08877   0.00011   0.00000   0.00260   0.00260  -0.08617
   D10        3.05873   0.00007   0.00000   0.00136   0.00136   3.06009
   D11        3.12097   0.00002   0.00000   0.00012   0.00012   3.12108
   D12       -0.01471  -0.00001   0.00000  -0.00112  -0.00113  -0.01584
   D13       -0.03441   0.00007   0.00000   0.00222   0.00222  -0.03219
   D14        3.10719   0.00007   0.00000   0.00222   0.00222   3.10940
   D15        3.10141   0.00011   0.00000   0.00344   0.00344   3.10485
   D16       -0.04018   0.00011   0.00000   0.00344   0.00344  -0.03674
   D17        0.17915  -0.00010   0.00000  -0.00660  -0.00661   0.17254
   D18       -2.96244  -0.00010   0.00000  -0.00661  -0.00662  -2.96906
   D19       -2.96244  -0.00010   0.00000  -0.00660  -0.00661  -2.96905
   D20        0.17915  -0.00010   0.00000  -0.00660  -0.00661   0.17254
   D21        3.10719   0.00007   0.00000   0.00223   0.00223   3.10941
   D22       -0.04018   0.00011   0.00000   0.00344   0.00344  -0.03674
   D23       -0.03441   0.00007   0.00000   0.00222   0.00223  -0.03218
   D24        3.10141   0.00011   0.00000   0.00344   0.00344   3.10485
   D25       -0.20434   0.00007   0.00000   0.00645   0.00646  -0.19788
   D26        2.92196   0.00029   0.00000   0.01598   0.01594   2.93790
   D27        2.93725   0.00007   0.00000   0.00646   0.00647   2.94372
   D28       -0.21963   0.00029   0.00000   0.01598   0.01595  -0.20368
   D29       -0.20434   0.00007   0.00000   0.00645   0.00646  -0.19788
   D30        2.92196   0.00029   0.00000   0.01598   0.01594   2.93791
   D31        2.93725   0.00007   0.00000   0.00644   0.00646   2.94370
   D32       -0.21963   0.00029   0.00000   0.01597   0.01594  -0.20369
   D33        2.07134   0.00083   0.00000   0.03686   0.03686   2.10821
   D34       -0.30983   0.00014   0.00000   0.01128   0.01127  -0.29856
   D35       -1.05479   0.00062   0.00000   0.02730   0.02731  -1.02748
   D36        2.84722  -0.00007   0.00000   0.00172   0.00171   2.84893
   D37       -0.08877   0.00011   0.00000   0.00260   0.00260  -0.08617
   D38        3.12097   0.00002   0.00000   0.00012   0.00011   3.12108
   D39        3.05873   0.00007   0.00000   0.00136   0.00136   3.06009
   D40       -0.01471  -0.00001   0.00000  -0.00112  -0.00113  -0.01584
   D41        0.06095  -0.00006   0.00000  -0.00246  -0.00247   0.05849
   D42       -3.00965  -0.00012   0.00000  -0.00401  -0.00402  -3.01367
   D43        3.13526   0.00003   0.00000   0.00004   0.00003   3.13529
   D44        0.06466  -0.00003   0.00000  -0.00151  -0.00152   0.06314
   D45        0.08980  -0.00012   0.00000  -0.00246  -0.00245   0.08734
   D46       -3.03662  -0.00030   0.00000  -0.01176  -0.01181  -3.04842
   D47       -3.12358  -0.00007   0.00000  -0.00100  -0.00098  -3.12457
   D48        0.03319  -0.00025   0.00000  -0.01030  -0.01033   0.02285
   D49        2.84723  -0.00007   0.00000   0.00169   0.00168   2.84891
   D50       -1.05478   0.00062   0.00000   0.02726   0.02727  -1.02751
   D51       -0.30982   0.00014   0.00000   0.01126   0.01124  -0.29858
[...]
 41031,-0.05802376,-0.05203110,-0.00432788,-0.00393653,-0.00074900,-0.0
 0000521,-0.00000539,-0.00001400,0.00000256,-0.00000253,-0.00000135,-0.
 00000096,0.00000676,-0.00000209,-0.00000923,-0.00001045,-0.00001572,-0
 .00000666,0.00001381,-0.00001317,0.00020749,-0.00007219,0.00011616,-0.
 00027168,-0.00018419,0.00007163,0.00013149,-0.00005273,-0.00005282,0.0
 0000364,0.00009604,0.00007998,0.00000346,0.00005643,0.00003002,-0.0000
 0618,-0.00001307,0.00000780,0.00001002,-0.00000006,-0.00002841,-0.0117
 1678,0.06920739,0.00001505,-0.00003445,-0.00001537,0.00005834,0.000035
 29,0.00002926,-0.00003685,0.00002816,-0.00002951,0.00005240,0.00001525
 ,-0.00002042,-0.00036558,-0.00021215,0.00007123,0.00013551,0.00014348,
 0.00005483,-0.00006601,-0.00004505,-0.00002946,0.00025137,0.00043837,0
 .00007849,-0.00003021,-0.00036187,0.00044135,0.00212381,-0.00029220,0.
 00016500,-0.00013966,-0.00008596,0.00022088,0.00027394,-0.00445008,-0.
 00658505,-0.00010398,-0.00010983,-0.00004398,0.00001005,0.00002616,-0.
 00001759,0.05449177,-0.05806785,-0.27401313,-0.00241084,-0.00144208,0.
 00026820,-0.00000075,0.00000750,-0.00000222,-0.00000255,-0.00000414,0.
 00000518,-0.00000355,0.00000077,-0.00001134,0.00003256,0.00003919,0.00
 002035,-0.00002743,0.00000840,-0.00001554,-0.00034237,0.00068933,-0.00
 030132,-0.00000142,-0.00015987,-0.00000018,0.00004722,-0.00000934,-0.0
 0002680,0.00001567,-0.00002791,0.00000813,0.00001175,0.00003002,0.0000
 0558,-0.00000138,-0.00000332,0.00001230,-0.00000264,0.00000863,-0.0000
 1819,-0.05922540,0.06678534,0.29547821,-0.00015709,-0.00005109,0.00001
 534,0.00011154,-0.00004730,-0.00000997,-0.00007953,0.00010076,0.000068
 44,0.00037250,-0.00046561,-0.00025149,-0.00076789,-0.00032160,-0.00070
 639,0.00011664,0.00036678,0.00009437,0.00021394,0.00055160,0.00008505,
 -0.00053172,-0.00007490,-0.00063603,0.00078005,0.00062467,0.00053948,0
 .00242777,-0.00123853,0.00036675,0.00011440,-0.00028449,0.00013537,0.0
 0338359,-0.01697159,0.01043709,-0.00026491,-0.00005903,-0.00016623,-0.
 00008342,0.00000311,0.00005750,-0.05855389,0.04040850,-0.03457776,-0.0
 0018948,0.00025253,0.00136662,-0.00000115,-0.00000068,-0.00000596,0.00
 000451,0.00000523,-0.00000863,-0.00001745,-0.00001286,-0.00000094,-0.0
 0000166,-0.00000083,0.00014901,-0.00001324,-0.00000153,0.00003681,-0.0
 0174402,-0.00013143,0.00133010,-0.00000631,0.00003445,-0.00002447,0.00
 011138,-0.00005304,0.00001116,0.00006667,-0.00000479,0.00000151,0.0000
 0648,0.00000619,0.00000138,0.00002217,-0.00004636,-0.00000342,0.000019
 27,-0.00001152,-0.00000717,0.00097855,-0.00529367,0.00522926,0.0613027
 0,0.00005867,-0.00015863,-0.00005243,0.00004399,0.00002263,0.00002994,
 -0.00008777,0.00003539,-0.00000185,0.00012067,-0.00010108,-0.00023101,
 -0.00132523,-0.00049416,-0.00016643,0.00028343,0.00056720,0.00004339,-
 0.00044525,-0.00024197,0.00005669,0.00050175,0.00056382,0.00014194,-0.
 00142120,0.00083634,0.00070410,0.00793877,-0.00014969,-0.00133880,0.00
 008868,-0.00075568,0.00008088,-0.00841818,-0.03530092,0.00765944,-0.00
 012665,0.00014191,-0.00042566,-0.00018759,0.00008410,0.00020553,0.0419
 8071,-0.16325418,0.10170817,-0.00121998,0.00062751,0.00597910,0.000003
 55,-0.00002433,0.00001753,-0.00001479,-0.00003340,-0.00000451,-0.00004
 760,-0.00002066,-0.00002120,0.00000691,0.00003612,-0.00000086,-0.00011
 093,0.00004956,-0.00005888,-0.00046223,0.00059025,0.00033400,-0.000059
 20,-0.00000887,-0.00014080,0.00006460,0.00000025,-0.00002629,0.0000256
 9,-0.00011227,0.00003482,-0.00000767,-0.00001308,-0.00000332,0.0000464
 0,-0.00016707,0.00001245,0.00004444,-0.00000298,-0.00000312,-0.0009860
 8,0.00628120,-0.00419164,-0.03985191,0.19429748,0.00006141,0.00007662,
 0.00004317,-0.00006677,-0.00000383,-0.00001984,0.00001854,-0.00002466,
 0.00001578,-0.00007121,-0.00001661,-0.00003209,0.00026437,0.00010742,-
 0.00021289,-0.00014603,-0.00014839,0.00001411,0.00007016,0.00004030,0.
 00001774,-0.00014311,-0.00052445,-0.00014536,0.00027363,0.00122655,-0.
 00058515,-0.00162760,-0.00025139,0.00103711,0.00005895,0.00002883,0.00
 018567,0.00666103,-0.00551257,0.00772211,-0.00004272,-0.00027947,0.000
 00270,0.00005810,0.00000271,0.00001774,-0.03422958,0.09906382,-0.13227
 370,-0.00005504,-0.00184807,0.00351755,-0.00000276,-0.00000383,-0.0000
 0594,0.00000720,0.00001091,-0.00000246,0.00000714,0.00000190,0.0000032
 7,-0.00003240,-0.00005518,0.00000710,0.00004884,0.00000540,-0.00001764
 ,0.00048610,-0.00045769,-0.00009111,-0.00012901,-0.00013103,0.00004524
 ,0.00009194,-0.00006153,-0.00000467,0.00001002,0.00007489,0.00002764,-
 0.00000295,0.00000780,0.00001230,0.00000342,0.00001245,-0.00001520,0.0
 0001264,-0.00001386,-0.00000561,-0.00793660,0.02090130,-0.01655136,0.0
 3613385,-0.11264897,0.13653100,0.00019040,-0.00004700,0.00008559,-0.00
 011531,0.00001356,-0.00001335,0.00002939,-0.00005472,0.00000945,-0.000
 09209,-0.00007533,0.00016253,-0.00048939,0.00021221,-0.00016251,-0.000
 48776,0.00019088,-0.00016144,-0.00022767,-0.00014945,-0.00002530,0.000
 28723,-0.00003198,-0.00020226,0.00003109,0.00008577,0.00025147,0.00093
 040,-0.00095113,-0.00300594,0.00048627,-0.00000217,0.00014339,-0.01903
 909,-0.00511283,0.00275420,-0.00038145,-0.00022275,-0.00014000,-0.0000
 5685,0.00006680,0.00008098,-0.28449546,0.04711583,0.01643959,0.0009511
 5,0.00067111,0.00178260,-0.00000703,-0.00003862,0.00000602,-0.00000065
 ,-0.00001746,-0.00001108,-0.00002391,-0.00002115,-0.00000404,-0.000021
 57,-0.00003248,0.00002991,-0.00004898,0.00003034,-0.00000695,-0.000003
 68,-0.00025153,0.00018251,-0.00005046,0.00002101,-0.00007040,0.0001651
 0,-0.00007306,0.00003020,0.00008320,-0.00002335,0.00004277,-0.00001560
 ,-0.00001002,0.00000264,0.00001928,-0.00004444,-0.00001264,0.00006151,
 -0.00002430,0.00000725,-0.00408010,0.00121890,-0.00050527,-0.00734550,
 0.00274347,0.00083970,0.31337709,0.00004279,-0.00006327,0.00002173,0.0
 0001217,0.00000260,0.00000858,-0.00005516,0.00006272,0.00000864,0.0001
 1209,-0.00037377,0.00019582,-0.00132873,0.00007216,0.00024221,-0.00035
 167,0.00033051,-0.00009624,-0.00005542,0.00009913,-0.00004914,-0.00007
 353,0.00040848,0.00011849,0.00030003,-0.00109668,0.00017222,-0.0008470
 9,-0.00383053,-0.00319424,0.00029960,0.00009340,-0.00005336,-0.0347295
 3,-0.00167481,0.00211462,-0.00027261,-0.00002446,-0.00010918,0.0000035
 5,-0.00002730,0.00003962,0.05385663,-0.05230461,-0.00445427,-0.0020394
 8,0.00122816,0.00054161,-0.00000890,-0.00001694,-0.00000659,0.00000528
 ,-0.00000459,-0.00000253,-0.00002035,-0.00003116,-0.00000206,0.0000289
 5,0.00005308,0.00000606,-0.00004207,-0.00000754,0.00001828,0.00019624,
 0.00076216,0.00000788,-0.00004132,0.00002648,-0.00002407,0.00016629,-0
 .00000906,0.00003609,0.00010844,0.00006595,0.00001387,-0.00000205,-0.0
 0000006,0.00000862,0.00001152,-0.00000299,-0.00001386,0.00002432,-0.00
 002742,-0.00000117,0.00618571,-0.00177922,0.00104874,0.02207008,-0.004
 10636,-0.00204210,-0.04475832,0.06277375,-0.00017924,-0.00006820,-0.00
 003860,0.00010712,-0.00005577,0.00001130,-0.00003314,0.00009075,-0.000
 00788,0.00031784,-0.00029339,0.00002968,-0.00048007,-0.00041899,0.0002
 7251,-0.00000815,0.00018236,0.00002589,0.00007909,0.00040026,-0.000045
 95,-0.00039921,-0.00011058,0.00028685,0.00083516,-0.00002095,0.0005672
 6,0.00025343,-0.00102170,-0.00071755,-0.00005124,-0.00000525,-0.000185
 64,-0.00849171,-0.00100201,-0.00005262,0.00030433,0.00005750,0.0001420
 1,-0.00002261,0.00000459,0.00000013,0.01863891,-0.00377038,-0.04629140
 ,-0.00185129,0.00022994,0.00023430,-0.00000065,0.00000232,-0.00000453,
 -0.00000035,0.00000147,0.00000220,0.,-0.00000662,-0.00000211,0.0000061
 8,0.00002364,-0.00002420,0.00000456,-0.00001869,0.00003697,0.00022325,
 0.00029966,-0.00057350,0.00007923,-0.00001934,0.00000428,-0.00016450,0
 .00006439,0.00002435,-0.00008849,-0.00003217,-0.00002862,-0.00000929,-
 0.00002841,-0.00001819,0.00000717,-0.00000311,-0.00000561,-0.00000725,
 -0.00000117,0.00002450,0.02720036,-0.00460199,0.00051072,-0.01913461,0
 .00493787,0.00071419,-0.01734034,0.00524434,0.04504937,-0.00057930,-0.
 00023479,-0.00043458,0.00034263,-0.00021926,-0.00007093,0.00001385,0.0
 0034225,0.00012940,-0.00007844,-0.00014053,-0.00014382,-0.00093071,0.0
 0008340,0.00090186,0.00172110,-0.00077497,0.00150228,-0.00007620,0.000
 22132,0.00000530,-0.00019360,-0.00014415,0.00009341,0.00035018,-0.0002
 3988,0.00003779,0.00045105,0.00139753,0.00082320,-0.00140733,-0.000860
 80,0.00158950,0.00526964,0.00997027,0.00425795,-0.00033047,-0.00007622
 ,-0.00042421,-0.00018374,0.00030549,-0.00032818,-0.00082796,0.00097949
 ,0.00171864,-0.13664775,-0.12490424,-0.04436511,0.00003040,0.00007017,
 -0.00000588,0.00000612,0.00000421,0.00002013,0.00001522,0.00000913,0.0
 0004169,0.00001379,0.00000537,-0.00002449,0.00001123,-0.00000794,-0.00
 001876,0.00002176,-0.00000376,-0.00005488,-0.00002832,0.00004941,0.000
 08116,0.00013977,0.00001410,-0.00000042,0.00009851,0.00006315,0.000061
 66,0.00011805,0.00027178,0.00000141,-0.00000632,0.00005921,0.00012905,
 -0.00005049,0.00004132,-0.00007924,0.00063981,0.00042473,0.00035654,-0
 .00001631,-0.00015288,-0.00004456,0.00050448,0.00002349,0.00011295,0.1
 4401198,0.00005815,0.00006035,-0.00011876,-0.00016996,-0.00002689,-0.0
 0011686,0.00015878,-0.00006344,0.00009542,0.00047193,-0.00001722,0.000
 00869,-0.00021916,0.00035239,0.00071037,-0.00120284,-0.00023544,0.0011
 0515,0.00002481,0.00019823,0.00000076,-0.00029476,-0.00006899,-0.00002
 331,0.00037075,-0.00047256,0.00000477,-0.00158846,0.00013823,0.0002300
 8,0.00013443,-0.00127303,0.00209187,-0.00509810,-0.01068169,-0.0036043
 7,0.00018269,0.00000498,0.00010960,0.00002517,0.00005438,0.00038104,0.
 00173556,-0.00008649,-0.00275530,-0.11981386,-0.20230494,-0.06076266,-
 0.00000118,-0.00003081,0.00000878,0.00001539,0.00001124,-0.00000434,0.
 00000113,-0.00001517,-0.00000025,0.00000345,0.00001452,-0.00001264,-0.
 00000658,-0.00001117,-0.00000270,-0.00005112,0.00006824,-0.00001489,-0
 .00004941,-0.00001612,-0.00002726,-0.00003694,-0.00004396,-0.00001170,
 0.00000016,0.00001654,0.00005298,0.00000007,-0.00018415,-0.00016001,-0
 .00003446,-0.00000886,-0.00013103,-0.00002101,0.00002650,-0.00001937,-
 0.00050873,-0.00044921,-0.00018638,-0.00004804,0.00031832,0.00018295,-
 0.00005359,0.00005490,0.00018961,0.13165125,0.22081075,0.00010741,0.00
 000611,-0.00021918,-0.00007448,0.00008257,0.00005836,-0.00021801,-0.00
 012869,-0.00007733,0.00046663,-0.00000235,0.00013341,0.00033547,-0.000
 31878,-0.00023000,0.00205315,0.00136652,-0.00106030,0.00005712,0.00026
 366,-0.00001770,-0.00034344,-0.00005745,-0.00013227,0.00042456,-0.0001
 2121,-0.00012589,-0.00247585,-0.00107325,0.00075229,-0.00078737,0.0009
 0061,-0.00054127,-0.01595027,-0.02353852,-0.01117934,-0.00020921,-0.00
 028841,-0.00055406,-0.00020685,0.00053539,0.00008352,0.00276214,-0.000
 81015,-0.00476643,-0.03630506,-0.05266126,-0.06231011,0.00000644,-0.00
 002286,-0.00003264,-0.00003064,-0.00002386,0.00001561,-0.00002307,0.00
 000348,-0.00000338,-0.00002395,0.00002350,0.00004166,0.00001086,0.0000
 0637,0.00002548,-0.00008283,0.00009968,0.00000345,-0.00008116,-0.00002
 727,0.00010237,0.00017825,0.00000347,0.00007338,0.00007548,0.00005176,
 0.00016124,-0.00003154,0.00007156,-0.00000014,0.00002450,-0.00014081,0
 .00004524,0.00007041,-0.00002406,0.00000428,-0.00060508,-0.00175528,-0
 .00031423,0.00011179,-0.00040077,0.00004248,0.00010447,0.00033708,0.00
 001143,0.04036745,0.06393972,0.07454707,0.00047423,0.00016930,0.000304
 26,-0.00029044,0.00005217,0.00001502,0.00013726,-0.00017106,-0.0000304
 0,0.00008981,0.00006323,0.00008115,0.00022726,0.00010973,-0.00021763,-
 0.00151921,0.00024451,-0.00040002,-0.00012290,-0.00012953,0.00002196,0
 .00016072,0.00032163,-0.00002618,-0.00083501,-0.00039718,0.00067121,0.
 00183135,0.00338429,0.00013033,0.00150157,0.00048233,-0.00081630,-0.01
 076298,0.00137539,0.00781760,-0.00008677,-0.00025705,0.00056412,-0.000
 09411,-0.00014585,0.00013764,0.00021116,-0.00129032,-0.00067173,-0.264
 93835,0.07351389,-0.02853623,-0.00001656,-0.00007005,-0.00000936,0.000
 00204,-0.00000778,-0.00002016,-0.00002133,-0.00001640,-0.00001956,-0.0
 0002068,-0.00001409,-0.00000151,-0.00011728,0.00002895,-0.00005910,0.0
 0005679,0.00006075,0.00001242,0.00013976,0.00003699,-0.00017825,-0.000
 04917,0.00001609,0.00028916,-0.00001646,-0.00009827,0.00000905,-0.0001
 4214,-0.00013150,-0.00004721,0.00011139,-0.00006458,-0.00009193,0.0001
 6511,-0.00016626,0.00016450,0.00047288,-0.00001996,0.00009249,-0.00022
 389,0.00056792,-0.00028604,0.00016390,0.00073240,0.00031312,-0.0139904
 2,0.00651436,-0.00216868,0.28879339,0.00022033,0.00011611,0.00021125,-
 0.00012861,0.00008896,0.00001200,0.00000559,-0.00014432,-0.00006390,0.
 00007297,0.00007992,0.00005121,-0.00008636,0.00017861,0.00031053,-0.00
 074214,0.00011487,-0.00028115,0.00004709,-0.00007322,0.00000168,0.0000
 4790,-0.00010391,-0.00004375,0.00043969,0.00029519,-0.00010358,-0.0008
 0523,-0.00198913,-0.00031787,0.00070729,0.00044016,-0.00058449,0.00998
 879,-0.00264353,-0.00568591,0.00008828,0.00001661,0.00026365,-0.000057
 46,-0.00022735,0.00007646,0.00230939,0.00064649,0.00028260,0.07352652,
 -0.06884839,0.00933818,-0.00001202,-0.00001082,-0.00000787,0.00000307,
 0.00000751,-0.00000575,0.00000337,-0.00000427,-0.00000939,0.00000508,0
 .00000490,0.00001070,0.00005936,-0.00000136,-0.00001823,-0.00000289,-0
 .00000930,0.00006370,-0.00001406,-0.00004395,0.00000343,-0.00001610,0.
 00006711,-0.00004541,-0.00000514,0.00004721,-0.00002185,-0.00005409,-0
 .00005274,-0.00000934,0.00005307,0.00000023,-0.00006155,0.00007309,-0.
 00000926,0.00006454,-0.00021457,0.00016643,0.00013685,-0.00011690,-0.0
 0015723,0.00030034,-0.00075261,-0.00023332,-0.00031157,-0.02174072,0.0
 0862907,-0.00186809,-0.08410644,0.07085419,-0.00014354,0.00000226,-0.0
 0006319,0.00008274,0.00001865,0.00001089,-0.00003220,0.00001357,0.0000
 0141,0.00003300,0.00003246,-0.00000186,-0.00010074,-0.00011193,0.00010
 845,0.00036866,-0.00011537,0.00001713,0.00005413,0.00000609,0.00000504
 ,0.00012969,-0.00045591,-0.00001608,0.00169292,0.00070092,-0.00054471,
 0.00136348,-0.00502901,-0.00221169,-0.00042750,-0.00023800,0.00009556,
 0.03195128,-0.00974606,-0.00555723,0.00045377,0.00003156,-0.00003581,0
 .00002484,0.00020731,-0.00000923,0.00209051,0.00117342,0.00059684,-0.0
 3364100,0.00987443,-0.04577830,0.00000933,0.00002045,-0.00000304,-0.00
 000765,0.00000079,0.00000667,0.00001146,0.00001284,-0.00000403,0.00001
 553,0.00001854,-0.00000218,0.00018187,-0.00002308,0.00001605,-0.000069
 61,-0.00002121,-0.00004186,0.00000042,-0.00001170,0.00007338,-0.000289
 12,-0.00004550,-0.00020452,-0.00017276,-0.00003964,-0.00001338,-0.0000
 5624,-0.00005285,-0.00002680,-0.00001116,-0.00002629,-0.00000468,-0.00
 003018,0.00003613,0.00002431,0.00010972,0.00026645,0.00006934,-0.00049
 953,-0.00035907,-0.00021366,-0.00083404,-0.00009222,0.00029430,-0.0067
 8217,0.00397548,-0.00107646,0.02393784,-0.00566136,0.05601716,0.000032
 48,0.00007995,-0.00000166,0.00000885,-0.00007582,0.00000654,0.00003335
 ,0.00005774,0.00002432,0.00039391,-0.00019572,-0.00006170,-0.00060057,
 -0.00074877,-0.00001982,-0.00025089,0.00035246,0.00011336,-0.00018561,
 0.00028943,0.00008325,-0.00023237,-0.00013751,-0.00022137,0.00003375,0
 .00056961,-0.00039919,0.00318855,-0.00076546,0.00032291,0.00038122,0.0
 0014450,-0.00008314,-0.00024425,-0.00731326,0.01318662,-0.00013637,-0.
 00017420,0.00033801,-0.00013036,-0.00005004,0.00001481,-0.00001276,-0.
 00047329,-0.00094088,-0.04851846,0.00910035,-0.00965472,-0.00000361,-0
 .00002347,-0.00002557,0.00000164,-0.00000209,0.00000053,-0.00001126,-0
 .00000977,0.00001075,-0.00000329,0.00000266,0.00001753,0.00001107,-0.0
 0000607,0.00002326,0.00004801,-0.00002006,0.00010861,0.00009852,-0.000
 00014,-0.00007549,-0.00001648,0.00000512,0.00017277,0.00004938,-0.0000
 6802,0.00005084,-0.00003771,-0.00000366,-0.00001567,0.00006668,-0.0000
 2566,-0.00001003,0.00008322,-0.00010845,0.00008850,-0.00020107,-0.0000
 4409,0.00006815,-0.00003470,0.00040548,-0.00029066,-0.00029796,0.00044
 664,-0.00022056,0.00158781,-0.01214987,0.01246137,-0.00129095,0.021204
 47,-0.01941374,0.04619022,-0.00024893,-0.00010404,-0.00033715,0.000186
 67,-0.00005833,-0.00000569,-0.00013747,0.00008989,-0.00000422,0.000211
 58,-0.00009777,0.00007462,-0.00015412,-0.00014937,0.00046395,0.0015096
 1,0.00022948,0.00026979,-0.00006698,0.00023969,-0.00007505,-0.00023904
 ,-0.00008575,0.00021651,0.00001345,-0.00049928,0.00053448,-0.00173132,
 0.00059637,-0.00104957,-0.00134790,-0.00088358,0.00140790,0.00066572,0
 .00931873,-0.01090298,-0.00009247,-0.00005370,-0.00052829,-0.00025709,
 0.00053653,0.00003579,-0.00060729,0.00353045,-0.00268133,0.00858801,-0
 .16687903,0.11152984,0.00000821,0.00000188,0.00001420,-0.00002611,-0.0
 0002708,0.00002120,-0.00002301,0.00000288,0.00002103,-0.00002735,0.000
 00809,-0.00000781,-0.00004956,0.00002486,0.00002660,0.00002675,0.00005
 322,-0.00012494,-0.00006314,0.00001652,0.00005175,0.00009827,0.0000472
 3,-0.00003961,0.00006804,-0.00002313,0.00016506,0.00000337,0.00009605,
 -0.00002791,0.00000483,-0.00011228,0.00007489,0.00002336,0.00006594,-0
 .00003215,-0.00004080,0.00022164,0.00024262,0.00066385,0.00065051,0.00
 197944,0.00037840,-0.00041939,0.00006160,0.00351306,-0.01476849,0.0155
 7162,-0.00058759,-0.00720148,0.00563785,-0.01026302,0.17563272,-0.0000
 6941,0.00037814,0.00003225,-0.00000352,-0.00001575,-0.00001443,-0.0001
 3111,0.00007358,0.00001544,0.00006239,-0.00016821,0.00009146,0.0008870
 9,0.00091686,0.00013263,0.00080778,-0.00067012,0.00026957,0.00074025,0
 .00022591,-0.00005524,-0.00075855,0.00000471,0.00018970,0.00141474,-0.
 00147564,-0.00088194,-0.00820953,0.00073199,0.00007805,-0.00075306,-0.
 00040882,0.00054073,0.01091033,0.00863719,-0.03585894,0.00013022,-0.00
 012796,-0.00024279,0.00001369,0.00001287,-0.00009482,0.00194040,0.0035
 1669,0.00133140,-0.01040583,0.11407866,-0.14613619,0.00001631,0.000041
 63,-0.00006462,0.00000336,0.00003597,0.00001589,0.00002656,-0.00000195
 ,0.00003513,-0.00000159,0.00002243,-0.00002793,0.00002807,-0.00005933,
 0.00003172,0.00001842,-0.00007170,-0.00011629,-0.00006166,0.00005296,0
 .00016123,-0.00000905,-0.00002185,-0.00001338,-0.00005086,0.00016504,0
 .00000919,0.00003177,0.00007999,0.00000814,-0.00000152,0.00003482,0.00
 002764,-0.00004278,0.00001387,-0.00002862,0.00015869,-0.00034271,0.000
 55661,-0.00013826,-0.00187023,0.00021981,-0.00045969,-0.00004349,-0.00
 024585,0.00054585,-0.00513545,0.00653945,-0.00098156,0.00397395,-0.001
 52780,0.00434208,-0.12258403,0.17502281\\-0.00002488,-0.00001468,0.000
 00101,0.00002217,-0.00001141,0.00000337,0.00000948,0.00002163,0.000002
 02,-0.00005339,-0.00000006,0.00000025,0.00005829,-0.00000024,-0.000000
 26,-0.00001164,0.00003220,-0.00001737,0.00000958,-0.00002125,-0.000002
 02,0.00002213,0.00001124,-0.00000315,-0.00002544,0.00001527,-0.0000007
 7,-0.00001217,-0.00003264,0.00001625,0.00000434,-0.00001030,-0.0000041
 2,0.00000530,0.00000949,0.00000446,-0.00000192,0.00000285,0.00001184,-
 0.00000072,-0.00000429,-0.00000470,0.00000053,0.00000422,0.00000534,-0
 .00000278,-0.00000283,-0.00001232,0.00000450,0.00000355,0.00000582,-0.
 00000507,0.00000308,0.00000163,-0.00000005,-0.00000381,-0.00000074,-0.
 00000010,0.00000393,0.00000075,-0.00000522,-0.00000312,-0.00000162,0.0
 0000352,-0.00000376,-0.00000580,-0.00000368,-0.00000127,-0.00000553,0.
 00000017,-0.00000120,0.00000107,0.00000223,-0.00000022,-0.00000094,-0.
 00000218,0.00000207,0.00000626,0.00000304,0.,0.00000473,0.00000175,0.0
 0000199,0.00000175,-0.00000166,-0.00000203,-0.00000646,0.00000307,-0.0
 0000024,-0.00000488,0.00000216,-0.00000157,-0.00000155,-0.00000358,0.0
 0000157,0.00000532,-0.00000012,0.00000154,-0.00000062,0.00000234,0.000
 00030,0.00000096\\\@


    WHAT WE HAVE LEARNED
 IS LIKE A HANDFUL OF EARTH;
  WHAT WE HAVE YET TO LEARN
   IS LIKE THE WHOLE WORLD.

         -- AVVAYIAR
 Job cpu time:       0 days  1 hours 23 minutes 11.0 seconds.
 File lengths (MBytes):  RWF=    514 Int=      0 D2E=      0 Chk=     13 Scr=      1
 Normal termination of Gaussian 09 at Tue Dec 17 18:30:24 2024.
