 Entering Gaussian System, Link 0=g09
 Input=lwm06311SAYang.gjf
 Output=lwm06311SAYang.log
 Initial command:
 /home/c612/g09E/g09/l1.exe "/mnt/ja_sm883/scratch/Gau-758552.inp" -scrdir="/mnt/ja_sm883/scratch/"
 Default is to use a total of  18 processors:
                               18 via shared-memory
                                1 via Linda
 Entering Link 1 = /home/c612/g09E/g09/l1.exe PID=    758554.
  
 Copyright (c) 1988,1990,1992,1993,1995,1998,2003,2009,2015,
            Gaussian, Inc.  All Rights Reserved.
  
 This is part of the Gaussian(R) 09 program.  It is based on
 the Gaussian(R) 03 system (copyright 2003, Gaussian, Inc.),
 the Gaussian(R) 98 system (copyright 1998, Gaussian, Inc.),
 the Gaussian(R) 94 system (copyright 1995, Gaussian, Inc.),
 the Gaussian 92(TM) system (copyright 1992, Gaussian, Inc.),
 the Gaussian 90(TM) system (copyright 1990, Gaussian, Inc.),
 the Gaussian 88(TM) system (copyright 1988, Gaussian, Inc.),
 the Gaussian 86(TM) system (copyright 1986, Carnegie Mellon
 University), and the Gaussian 82(TM) system (copyright 1983,
 Carnegie Mellon University). Gaussian is a federally registered
 trademark of Gaussian, Inc.
  
 This software contains proprietary and confidential information,
 including trade secrets, belonging to Gaussian, Inc.
  
 This software is provided under written license and may be
 used, copied, transmitted, or stored only in accord with that
 written license.
  
 The following legend is applicable only to US Government
 contracts under FAR:
  
                    RESTRICTED RIGHTS LEGEND
  
 Use, reproduction and disclosure by the US Government is
 subject to restrictions as set forth in subparagraphs (a)
 and (c) of the Commercial Computer Software - Restricted
 Rights clause in FAR 52.227-19.
  
 Gaussian, Inc.
 340 Quinnipiac St., Bldg. 40, Wallingford CT 06492
  
  
 ---------------------------------------------------------------
 Warning -- This program may not be used in any manner that
 competes with the business of Gaussian, Inc. or will provide
 assistance to any competitor of Gaussian, Inc.  The licensee
 of this program is prohibited from giving any competitor of
 Gaussian, Inc. access to this program.  By using this program,
 the user acknowledges that Gaussian, Inc. is engaged in the
 business of creating and licensing software in the field of
 computational chemistry and represents and warrants to the
 licensee that it is not a competitor of Gaussian, Inc. and that
 it will not use this program in any manner prohibited above.
 ---------------------------------------------------------------
  

 Cite this work as:
 Gaussian 09, Revision E.01,
 M. J. Frisch, G. W. Trucks, H. B. Schlegel, G. E. Scuseria, 
 M. A. Robb, J. R. Cheeseman, G. Scalmani, V. Barone, B. Mennucci, 
 G. A. Petersson, H. Nakatsuji, M. Caricato, X. Li, H. P. Hratchian, 
 A. F. Izmaylov, J. Bloino, G. Zheng, J. L. Sonnenberg, M. Hada, 
 M. Ehara, K. Toyota, R. Fukuda, J. Hasegawa, M. Ishida, T. Nakajima, 
 Y. Honda, O. Kitao, H. Nakai, T. Vreven, J. A. Montgomery, Jr., 
 J. E. Peralta, F. Ogliaro, M. Bearpark, J. J. Heyd, E. Brothers, 
 K. N. Kudin, V. N. Staroverov, T. Keith, R. Kobayashi, J. Normand, 
 K. Raghavachari, A. Rendell, J. C. Burant, S. S. Iyengar, J. Tomasi, 
 M. Cossi, N. Rega, J. M. Millam, M. Klene, J. E. Knox, J. B. Cross, 
 V. Bakken, C. Adamo, J. Jaramillo, R. Gomperts, R. E. Stratmann, 
 O. Yazyev, A. J. Austin, R. Cammi, C. Pomelli, J. W. Ochterski, 
 R. L. Martin, K. Morokuma, V. G. Zakrzewski, G. A. Voth, 
 P. Salvador, J. J. Dannenberg, S. Dapprich, A. D. Daniels, 
 O. Farkas, J. B. Foresman, J. V. Ortiz, J. Cioslowski, 
 and D. J. Fox, Gaussian, Inc., Wallingford CT, 2013.
 
 ******************************************
 Gaussian 09:  ES64L-G09RevE.01 30-Nov-2015
                27-Feb-2024 
 ******************************************
 %chk=lwm06311SAYang.chk
 -----------------------------
 # opt freq 6-311+g(d,p) m062x
 -----------------------------
 1/14=-1,18=20,19=15,26=3,38=1/1,3;
 2/9=110,12=2,17=6,18=5,40=1/2;
 3/5=4,6=6,7=111,11=2,16=1,25=1,30=1,71=1,74=-55/1,2,3;
 4//1;
 5/5=2,38=5/2;
 6/7=2,8=2,9=2,10=2,28=1/1;
 7//1,2,3,16;
 1/14=-1,18=20,19=15,26=3/3(2);
 2/9=110/2;
 99//99;
 2/9=110/2;
 3/5=4,6=6,7=111,11=2,16=1,25=1,30=1,71=1,74=-55/1,2,3;
 4/5=5,16=3,69=1/1;
 5/5=2,38=5/2;
 7//1,2,3,16;
 1/14=-1,18=20,19=15,26=3/3(-5);
 2/9=110/2;
 6/7=2,8=2,9=2,10=2,19=2,28=1/1;
 99/9=1/99;
 ----------
 [No Title]
 ----------
 Symbolic Z-matrix:
 Charge =  1 Multiplicity = 1
 C                     2.39471   0.1985   -0.00194 
 C                     1.92026  -1.13397   0.00605 
 C                     0.55416  -1.34838   0.01341 
 C                    -0.35499  -0.2577    0.01248 
 C                     0.13117   1.07581   0.00096 
 C                     1.4898    1.2919   -0.00417 
 O                     3.69797   0.40617  -0.00834 
 O                     2.8758   -2.07338   0.00551 
 C                     2.46758  -3.43358   0.01341 
 O                     2.12297   2.48561  -0.01349 
 C                     1.32952   3.66757  -0.01477 
 C                    -1.73394  -0.55838   0.01567 
 C                    -2.79159   0.34074   0.01803 
 C                    -4.10237  -0.11141  -0.00182 
 O                    -5.07379   0.77044   0.08406 
 O                    -4.37436  -1.39642  -0.11609 
 H                     0.16035  -2.35838   0.01999 
 H                    -0.55403   1.91398  -0.00316 
 H                     3.87923   1.36113  -0.01435 
 H                     3.38569  -4.01701   0.01111 
 H                     1.88985  -3.66029   0.9163 
 H                     1.8805   -3.66798  -0.88143 
 H                     2.03132   4.49872  -0.02021 
 H                     0.70377   3.70496  -0.91221 
 H                     0.71023   3.71112   0.88689 
 H                    -1.99331  -1.61622   0.01434 
 H                    -2.66437   1.41506   0.03536 
 H                    -5.96033   0.43501  -0.11562 
 H                    -5.28347  -1.64595   0.10595 
 

 GradGradGradGradGradGradGradGradGradGradGradGradGradGradGradGradGradGrad
 Berny optimization.
 Initialization pass.
                           ----------------------------
                           !    Initial Parameters    !
                           ! (Angstroms and Degrees)  !
 --------------------------                            --------------------------
 ! Name  Definition              Value          Derivative Info.                !
 --------------------------------------------------------------------------------
 ! R1    R(1,2)                  1.4144         estimate D2E/DX2                !
 ! R2    R(1,6)                  1.4193         estimate D2E/DX2                !
 ! R3    R(1,7)                  1.3197         estimate D2E/DX2                !
 ! R4    R(2,3)                  1.3828         estimate D2E/DX2                !
 ! R5    R(2,8)                  1.34           estimate D2E/DX2                !
 ! R6    R(3,4)                  1.4199         estimate D2E/DX2                !
 ! R7    R(3,17)                 1.0841         estimate D2E/DX2                !
 ! R8    R(4,5)                  1.4194         estimate D2E/DX2                !
 ! R9    R(4,12)                 1.4114         estimate D2E/DX2                !
 ! R10   R(5,6)                  1.3757         estimate D2E/DX2                !
 ! R11   R(5,18)                 1.0826         estimate D2E/DX2                !
 ! R12   R(6,10)                 1.3513         estimate D2E/DX2                !
 ! R13   R(7,19)                 0.972          estimate D2E/DX2                !
 ! R14   R(8,9)                  1.4202         estimate D2E/DX2                !
 ! R15   R(9,20)                 1.0878         estimate D2E/DX2                !
 ! R16   R(9,21)                 1.0956         estimate D2E/DX2                !
 ! R17   R(9,22)                 1.0956         estimate D2E/DX2                !
 ! R18   R(10,11)                1.4236         estimate D2E/DX2                !
 ! R19   R(11,23)                1.0878         estimate D2E/DX2                !
 ! R20   R(11,24)                1.0947         estimate D2E/DX2                !
 ! R21   R(11,25)                1.0947         estimate D2E/DX2                !
 ! R22   R(12,13)                1.3882         estimate D2E/DX2                !
 ! R23   R(12,26)                1.0892         estimate D2E/DX2                !
 ! R24   R(13,14)                1.3867         estimate D2E/DX2                !
 ! R25   R(13,27)                1.082          estimate D2E/DX2                !
 ! R26   R(14,15)                1.3148         estimate D2E/DX2                !
 ! R27   R(14,16)                1.3184         estimate D2E/DX2                !
 ! R28   R(15,28)                0.9687         estimate D2E/DX2                !
 ! R29   R(16,29)                0.9685         estimate D2E/DX2                !
 ! A1    A(2,1,6)              120.7891         estimate D2E/DX2                !
 ! A2    A(2,1,7)              118.6541         estimate D2E/DX2                !
 ! A3    A(6,1,7)              120.5568         estimate D2E/DX2                !
 ! A4    A(1,2,3)              118.5201         estimate D2E/DX2                !
 ! A5    A(1,2,8)              114.9122         estimate D2E/DX2                !
 ! A6    A(3,2,8)              126.5677         estimate D2E/DX2                !
 ! A7    A(2,3,4)              120.8928         estimate D2E/DX2                !
 ! A8    A(2,3,17)             120.2223         estimate D2E/DX2                !
 ! A9    A(4,3,17)             118.885          estimate D2E/DX2                !
 ! A10   A(3,4,5)              120.1558         estimate D2E/DX2                !
 ! A11   A(3,4,12)             117.5124         estimate D2E/DX2                !
 ! A12   A(5,4,12)             122.3309         estimate D2E/DX2                !
 ! A13   A(4,5,6)              119.068          estimate D2E/DX2                !
 ! A14   A(4,5,18)             120.7045         estimate D2E/DX2                !
 ! A15   A(6,5,18)             120.2275         estimate D2E/DX2                !
 ! A16   A(1,6,5)              120.5739         estimate D2E/DX2                !
 ! A17   A(1,6,10)             112.4458         estimate D2E/DX2                !
 ! A18   A(5,6,10)             126.9803         estimate D2E/DX2                !
 ! A19   A(1,7,19)             109.8029         estimate D2E/DX2                !
 ! A20   A(2,8,9)              117.8059         estimate D2E/DX2                !
 ! A21   A(8,9,20)             105.7286         estimate D2E/DX2                !
 ! A22   A(8,9,21)             110.7535         estimate D2E/DX2                !
 ! A23   A(8,9,22)             110.7567         estimate D2E/DX2                !
 ! A24   A(20,9,21)            109.6213         estimate D2E/DX2                !
 ! A25   A(20,9,22)            109.6203         estimate D2E/DX2                !
 ! A26   A(21,9,22)            110.2582         estimate D2E/DX2                !
 ! A27   A(6,10,11)            118.1834         estimate D2E/DX2                !
 ! A28   A(10,11,23)           105.9493         estimate D2E/DX2                !
 ! A29   A(10,11,24)           110.3463         estimate D2E/DX2                !
 ! A30   A(10,11,25)           110.3401         estimate D2E/DX2                !
 ! A31   A(23,11,24)           109.7903         estimate D2E/DX2                !
 ! A32   A(23,11,25)           109.7972         estimate D2E/DX2                !
 ! A33   A(24,11,25)           110.5181         estimate D2E/DX2                !
 ! A34   A(4,12,13)            127.331          estimate D2E/DX2                !
 ! A35   A(4,12,26)            116.0769         estimate D2E/DX2                !
 ! A36   A(13,12,26)           116.592          estimate D2E/DX2                !
 ! A37   A(12,13,14)           120.5947         estimate D2E/DX2                !
 ! A38   A(12,13,27)           123.6118         estimate D2E/DX2                !
 ! A39   A(14,13,27)           115.7934         estimate D2E/DX2                !
 ! A40   A(13,14,15)           118.6038         estimate D2E/DX2                !
 ! A41   A(13,14,16)           120.9327         estimate D2E/DX2                !
 ! A42   A(15,14,16)           120.4609         estimate D2E/DX2                !
 ! A43   A(14,15,28)           115.4973         estimate D2E/DX2                !
 ! A44   A(14,16,29)           115.1429         estimate D2E/DX2                !
 ! D1    D(6,1,2,3)             -0.0826         estimate D2E/DX2                !
 ! D2    D(6,1,2,8)            179.9124         estimate D2E/DX2                !
 ! D3    D(7,1,2,3)            179.9691         estimate D2E/DX2                !
 ! D4    D(7,1,2,8)             -0.036          estimate D2E/DX2                !
 ! D5    D(2,1,6,5)             -0.0224         estimate D2E/DX2                !
 ! D6    D(2,1,6,10)          -179.9326         estimate D2E/DX2                !
 ! D7    D(7,1,6,5)            179.925          estimate D2E/DX2                !
 ! D8    D(7,1,6,10)             0.0148         estimate D2E/DX2                !
 ! D9    D(2,1,7,19)           179.941          estimate D2E/DX2                !
 ! D10   D(6,1,7,19)            -0.0075         estimate D2E/DX2                !
 ! D11   D(1,2,3,4)              0.023          estimate D2E/DX2                !
 ! D12   D(1,2,3,17)          -179.9782         estimate D2E/DX2                !
 ! D13   D(8,2,3,4)           -179.9713         estimate D2E/DX2                !
 ! D14   D(8,2,3,17)             0.0275         estimate D2E/DX2                !
 ! D15   D(1,2,8,9)            179.9954         estimate D2E/DX2                !
 ! D16   D(3,2,8,9)             -0.0101         estimate D2E/DX2                !
 ! D17   D(2,3,4,5)              0.1387         estimate D2E/DX2                !
 ! D18   D(2,3,4,12)           179.7877         estimate D2E/DX2                !
 ! D19   D(17,3,4,5)          -179.8601         estimate D2E/DX2                !
 ! D20   D(17,3,4,12)           -0.2111         estimate D2E/DX2                !
 ! D21   D(3,4,5,6)             -0.2413         estimate D2E/DX2                !
 ! D22   D(3,4,5,18)           179.7958         estimate D2E/DX2                !
 ! D23   D(12,4,5,6)          -179.8729         estimate D2E/DX2                !
 ! D24   D(12,4,5,18)            0.1642         estimate D2E/DX2                !
 ! D25   D(3,4,12,13)          179.8664         estimate D2E/DX2                !
 ! D26   D(3,4,12,26)           -0.2503         estimate D2E/DX2                !
 ! D27   D(5,4,12,13)           -0.4927         estimate D2E/DX2                !
 ! D28   D(5,4,12,26)          179.3906         estimate D2E/DX2                !
 ! D29   D(4,5,6,1)              0.183          estimate D2E/DX2                !
 ! D30   D(4,5,6,10)          -179.9208         estimate D2E/DX2                !
 ! D31   D(18,5,6,1)          -179.8539         estimate D2E/DX2                !
 ! D32   D(18,5,6,10)            0.0423         estimate D2E/DX2                !
 ! D33   D(1,6,10,11)         -179.9125         estimate D2E/DX2                !
 ! D34   D(5,6,10,11)            0.1842         estimate D2E/DX2                !
 ! D35   D(2,8,9,20)           179.9788         estimate D2E/DX2                !
 ! D36   D(2,8,9,21)           -61.3496         estimate D2E/DX2                !
 ! D37   D(2,8,9,22)            61.3066         estimate D2E/DX2                !
 ! D38   D(6,10,11,23)         179.8623         estimate D2E/DX2                !
 ! D39   D(6,10,11,24)         -61.3513         estimate D2E/DX2                !
 ! D40   D(6,10,11,25)          61.071          estimate D2E/DX2                !
 ! D41   D(4,12,13,14)         178.9012         estimate D2E/DX2                !
 ! D42   D(4,12,13,27)          -1.1252         estimate D2E/DX2                !
 ! D43   D(26,12,13,14)         -0.9815         estimate D2E/DX2                !
 ! D44   D(26,12,13,27)        178.992          estimate D2E/DX2                !
 ! D45   D(12,13,14,15)        175.8825         estimate D2E/DX2                !
 ! D46   D(12,13,14,16)         -4.7074         estimate D2E/DX2                !
 ! D47   D(27,13,14,15)         -4.0931         estimate D2E/DX2                !
 ! D48   D(27,13,14,16)        175.3171         estimate D2E/DX2                !
 ! D49   D(13,14,15,28)        167.9075         estimate D2E/DX2                !
 ! D50   D(16,14,15,28)        -11.5055         estimate D2E/DX2                !
 ! D51   D(13,14,16,29)        164.8678         estimate D2E/DX2                !
 ! D52   D(15,14,16,29)        -15.733          estimate D2E/DX2                !
 --------------------------------------------------------------------------------
 Trust Radius=3.00D-01 FncErr=1.00D-07 GrdErr=1.00D-06
 Number of steps in this run=    135 maximum allowed number of steps=    174.
 GradGradGradGradGradGradGradGradGradGradGradGradGradGradGradGradGradGrad

                          Input orientation:                          
 ---------------------------------------------------------------------
 Center     Atomic      Atomic             Coordinates (Angstroms)
 Number     Number       Type             X           Y           Z
 ---------------------------------------------------------------------
      1          6           0        2.394712    0.198495   -0.001939
      2          6           0        1.920259   -1.133975    0.006054
      3          6           0        0.554162   -1.348383    0.013409
      4          6           0       -0.354985   -0.257704    0.012482
      5          6           0        0.131171    1.075810    0.000960
      6          6           0        1.489798    1.291897   -0.004165
      7          8           0        3.697965    0.406167   -0.008344
      8          8           0        2.875801   -2.073378    0.005512
      9          6           0        2.467579   -3.433578    0.013408
     10          8           0        2.122974    2.485609   -0.013491
     11          6           0        1.329518    3.667573   -0.014767
     12          6           0       -1.733940   -0.558382    0.015666
     13          6           0       -2.791590    0.340743    0.018029
     14          6           0       -4.102374   -0.111408   -0.001823
     15          8           0       -5.073789    0.770441    0.084059
     16          8           0       -4.374363   -1.396422   -0.116092
     17          1           0        0.160352   -2.358379    0.019985
     18          1           0       -0.554031    1.913977   -0.003157
     19          1           0        3.879232    1.361128   -0.014348
     20          1           0        3.385686   -4.017015    0.011111
     21          1           0        1.889851   -3.660294    0.916299
     22          1           0        1.880498   -3.667976   -0.881432
     23          1           0        2.031324    4.498719   -0.020209
     24          1           0        0.703770    3.704964   -0.912206
     25          1           0        0.710228    3.711119    0.886892
     26          1           0       -1.993310   -1.616223    0.014342
     27          1           0       -2.664370    1.415056    0.035357
     28          1           0       -5.960326    0.435012   -0.115622
     29          1           0       -5.283471   -1.645953    0.105948
 ---------------------------------------------------------------------
                    Distance matrix (angstroms):
                    1          2          3          4          5
     1  C    0.000000
     2  C    1.414442   0.000000
     3  C    2.404307   1.382840   0.000000
     4  C    2.787321   2.438161   1.419905   0.000000
     5  C    2.427614   2.843240   2.460851   1.419415   0.000000
     6  C    1.419296   2.463789   2.801214   2.409308   1.375713
     7  O    1.319711   2.352123   3.600336   4.107014   3.629122
     8  O    2.322264   1.339977   2.432219   3.706035   4.177368
     9  C    3.632836   2.363850   2.830053   4.248887   5.078734
    10  O    2.303229   3.625309   4.142631   3.696853   2.440291
    11  C    3.628954   4.837796   5.075607   4.271544   2.855437
    12  C    4.197492   3.699266   2.420644   1.411359   2.479806
    13  C    5.188291   4.937252   3.747963   2.509026   3.013826
    14  C    6.504473   6.108831   4.818056   3.750271   4.396862
    15  O    7.490863   7.249110   6.014004   4.830043   5.214572
    16  O    6.955370   6.301275   4.930460   4.179547   5.140571
    17  H    3.395652   2.143976   1.084076   2.162976   3.434366
    18  H    3.411446   3.925838   3.445484   2.180840   1.082609
    19  H    1.885648   3.172307   4.289325   4.533203   3.758936
    20  H    4.330442   3.234103   3.890904   5.303305   6.043909
    21  H    3.998537   2.685472   2.818547   4.175379   5.134343
    22  H    3.998440   2.685214   2.817875   4.174497   5.132472
    23  H    4.315589   5.633850   6.030899   5.321569   3.915014
    24  H    3.997899   5.073300   5.139597   4.204610   2.841512
    25  H    3.995752   5.070995   5.136720   4.201289   2.839901
    26  H    4.748495   3.943178   2.561514   2.128306   3.429379
    27  H    5.203434   5.245688   4.242172   2.851650   2.816260
    28  H    8.359158   8.036177   6.755420   5.649435   6.126218
    29  H    7.897349   7.222591   5.845945   5.121127   6.061136
                    6          7          8          9         10
     6  C    0.000000
     7  O    2.379188   0.000000
     8  O    3.639529   2.612334   0.000000
     9  C    4.825607   4.032117   1.420159   0.000000
    10  O    1.351276   2.608582   4.620765   5.929271   0.000000
    11  C    2.381100   4.030676   5.945580   7.191823   1.423592
    12  C    3.717043   5.516931   4.852322   5.091122   4.913504
    13  C    4.385826   6.489938   6.160151   6.473359   5.362311
    14  C    5.765558   7.817494   7.248745   7.362155   6.745338
    15  O    6.584859   8.779801   8.443308   8.634292   7.398967
    16  O    6.451974   8.271845   7.282715   7.139954   7.569417
    17  H    3.884910   4.489791   2.730403   2.545465   5.226588
    18  H    2.136404   4.511429   5.259546   6.142210   2.737376
    19  H    2.390458   0.972031   3.578142   4.998274   2.085402
    20  H    5.637302   4.434235   2.009413   1.087807   6.624135
    21  H    5.052870   4.545365   2.078445   1.095619   6.220207
    22  H    5.051988   4.545779   2.078471   1.095603   6.219222
    23  H    3.252263   4.418916   6.626180   7.944355   2.015206
    24  H    2.695417   4.545793   6.240926   7.411246   2.075730
    25  H    2.693390   4.544307   6.239146   7.409315   2.075672
    26  H    4.537570   6.039966   4.890533   4.816878   5.811161
    27  H    4.156181   6.441977   6.547027   7.060215   4.905826
    28  H    7.500068   9.658930   9.186067   9.274277   8.339971
    29  H    7.383784   9.213601   8.171077   7.955058   8.481715
                   11         12         13         14         15
    11  C    0.000000
    12  C    5.219617   0.000000
    13  C    5.296452   1.388184   0.000000
    14  C    6.617123   2.410305   1.386719   0.000000
    15  O    7.028903   3.595141   2.323238   1.314793   0.000000
    16  O    7.628143   2.773356   2.353912   1.318445   2.285728
    17  H    6.138424   2.613111   3.999903   4.818733   6.098348
    18  H    2.573517   2.739543   2.735358   4.085698   4.662992
    19  H    3.438129   5.932379   6.748489   8.116314   8.973025
    20  H    7.954960   6.178409   7.559685   8.445412   9.720482
    21  H    7.408002   4.854365   6.223430   7.024550   8.295560
    22  H    7.407089   4.851651   6.221516   7.015529   8.306252
    23  H    1.087826   6.304980   6.367945   7.673061   8.024560
    24  H    1.094694   4.997949   4.939723   6.204233   6.556230
    25  H    1.094717   4.996162   4.937316   6.209884   6.538118
    26  H    6.241837   1.089175   2.113523   2.590923   3.897483
    27  H    4.585574   2.181867   1.081958   2.097458   2.494634
    28  H    7.975052   4.343548   3.172954   1.939977   0.968676
    29  H    8.484088   3.713507   3.188128   1.939441   2.425573
                   16         17         18         19         20
    16  O    0.000000
    17  H    4.637620   0.000000
    18  H    5.056326   4.331732   0.000000
    19  H    8.702658   5.259846   4.467615   0.000000
    20  H    8.191584   3.626835   7.120270   5.400802   0.000000
    21  H    6.740276   2.342974   6.155522   5.480732   1.784415
    22  H    6.698432   2.342328   6.152763   5.480754   1.784391
    23  H    8.706016   7.107879   3.655850   3.641329   8.622819
    24  H    7.241918   6.158605   2.369824   4.047626   8.226430
    25  H    7.276401   6.155704   2.370708   4.046885   8.224909
    26  H    2.394731   2.277957   3.812367   6.584238   5.890451
    27  H    3.294150   4.713608   2.168856   6.544013   8.130877
    28  H    2.422691   6.729348   5.606069   9.883565  10.352997
    29  H    0.968527   5.490915   5.920524   9.644280   8.988059
                   21         22         23         24         25
    21  H    0.000000
    22  H    1.797772   0.000000
    23  H    8.213803   8.213365   0.000000
    24  H    7.680966   7.466316   1.785527   0.000000
    25  H    7.465260   7.677730   1.785621   1.799120   0.000000
    26  H    4.480033   4.474203   7.320614   6.037198   6.037469
    27  H    6.875767   6.879938   5.617972   4.181617   4.169524
    28  H    8.914128   8.882539   8.966007   7.465742   7.498947
    29  H    7.494717   7.509058   9.554011   8.094196   8.076665
                   26         27         28         29
    26  H    0.000000
    27  H    3.104741   0.000000
    28  H    4.467849   3.441890   0.000000
    29  H    3.291570   4.029200   2.199464   0.000000
 Stoichiometry    C11H13O5(1+)
 Framework group  C1[X(C11H13O5)]
 Deg. of freedom    81
 Full point group                 C1      NOp   1
 Largest Abelian subgroup         C1      NOp   1
 Largest concise Abelian subgroup C1      NOp   1
                         Standard orientation:                         
 ---------------------------------------------------------------------
 Center     Atomic      Atomic             Coordinates (Angstroms)
 Number     Number       Type             X           Y           Z
 ---------------------------------------------------------------------
      1          6           0        2.394712    0.198495   -0.001939
      2          6           0        1.920259   -1.133975    0.006054
      3          6           0        0.554162   -1.348383    0.013409
      4          6           0       -0.354985   -0.257704    0.012482
      5          6           0        0.131171    1.075810    0.000960
      6          6           0        1.489798    1.291897   -0.004165
      7          8           0        3.697965    0.406167   -0.008344
      8          8           0        2.875801   -2.073378    0.005512
      9          6           0        2.467579   -3.433578    0.013408
     10          8           0        2.122974    2.485609   -0.013491
     11          6           0        1.329518    3.667573   -0.014767
     12          6           0       -1.733940   -0.558382    0.015666
     13          6           0       -2.791590    0.340743    0.018029
     14          6           0       -4.102374   -0.111408   -0.001823
     15          8           0       -5.073789    0.770441    0.084059
     16          8           0       -4.374363   -1.396422   -0.116092
     17          1           0        0.160352   -2.358379    0.019985
     18          1           0       -0.554031    1.913977   -0.003157
     19          1           0        3.879232    1.361128   -0.014348
     20          1           0        3.385686   -4.017015    0.011111
     21          1           0        1.889851   -3.660294    0.916299
     22          1           0        1.880498   -3.667976   -0.881432
     23          1           0        2.031324    4.498719   -0.020209
     24          1           0        0.703770    3.704964   -0.912206
     25          1           0        0.710228    3.711119    0.886892
     26          1           0       -1.993310   -1.616223    0.014342
     27          1           0       -2.664370    1.415056    0.035357
     28          1           0       -5.960326    0.435012   -0.115622
     29          1           0       -5.283471   -1.645953    0.105948
 ---------------------------------------------------------------------
 Rotational constants (GHZ):      0.7165377      0.2761681      0.1999124
 Standard basis: 6-311+G(d,p) (5D, 7F)
 There are   446 symmetry adapted cartesian basis functions of A   symmetry.
 There are   430 symmetry adapted basis functions of A   symmetry.
   430 basis functions,   680 primitive gaussians,   446 cartesian basis functions
    59 alpha electrons       59 beta electrons
       nuclear repulsion energy      1075.6586877033 Hartrees.
 NAtoms=   29 NActive=   29 NUniq=   29 SFac= 1.00D+00 NAtFMM=   60 NAOKFM=F Big=F
 Integral buffers will be    131072 words long.
 Raffenetti 2 integral format.
 Two-electron integral symmetry is turned on.
 One-electron integrals computed using PRISM.
 NBasis=   430 RedAO= T EigKep=  1.03D-06  NBF=   430
 NBsUse=   428 1.00D-06 EigRej=  5.23D-07 NBFU=   428
 ExpMin= 4.38D-02 ExpMax= 8.59D+03 ExpMxC= 1.30D+03 IAcc=2 IRadAn=         4 AccDes= 0.00D+00
 Harris functional with IExCor= 1009 and IRadAn=       4 diagonalized for initial guess.
 HarFok:  IExCor= 1009 AccDes= 0.00D+00 IRadAn=         4 IDoV= 1 UseB2=F ITyADJ=14
 ICtDFT=  3500011 ScaDFX=  1.000000  1.000000  1.000000  1.000000
 FoFCou: FMM=F IPFlag=           0 FMFlag=      100000 FMFlg1=           0
         NFxFlg=           0 DoJE=T BraDBF=F KetDBF=T FulRan=T
         wScrn=  0.000000 ICntrl=     500 IOpCl=  0 I1Cent=   200000004 NGrid=           0
         NMat0=    1 NMatS0=      1 NMatT0=    0 NMatD0=    1 NMtDS0=    0 NMtDT0=    0
 Petite list used in FoFCou.
 Requested convergence on RMS density matrix=1.00D-08 within 128 cycles.
 Requested convergence on MAX density matrix=1.00D-06.
 Requested convergence on             energy=1.00D-06.
 No special actions if energy rises.
 SCF Done:  E(RM062X) =  -802.744452236     A.U. after   16 cycles
            NFock= 16  Conv=0.38D-08     -V/T= 2.0036

 **********************************************************************

            Population analysis using the SCF density.

 **********************************************************************

 Orbital symmetries:
       Occupied  (A) (A) (A) (A) (A) (A) (A) (A) (A) (A) (A) (A)
                 (A) (A) (A) (A) (A) (A) (A) (A) (A) (A) (A) (A)
                 (A) (A) (A) (A) (A) (A) (A) (A) (A) (A) (A) (A)
                 (A) (A) (A) (A) (A) (A) (A) (A) (A) (A) (A) (A)
                 (A) (A) (A) (A) (A) (A) (A) (A) (A) (A) (A)
       Virtual   (A) (A) (A) (A) (A) (A) (A) (A) (A) (A) (A) (A)
                 (A) (A) (A) (A) (A) (A) (A) (A) (A) (A) (A) (A)
                 (A) (A) (A) (A) (A) (A) (A) (A) (A) (A) (A) (A)
                 (A) (A) (A) (A) (A) (A) (A) (A) (A) (A) (A) (A)
                 (A) (A) (A) (A) (A) (A) (A) (A) (A) (A) (A) (A)
                 (A) (A) (A) (A) (A) (A) (A) (A) (A) (A) (A) (A)
                 (A) (A) (A) (A) (A) (A) (A) (A) (A) (A) (A) (A)
                 (A) (A) (A) (A) (A) (A) (A) (A) (A) (A) (A) (A)
                 (A) (A) (A) (A) (A) (A) (A) (A) (A) (A) (A) (A)
                 (A) (A) (A) (A) (A) (A) (A) (A) (A) (A) (A) (A)
                 (A) (A) (A) (A) (A) (A) (A) (A) (A) (A) (A) (A)
                 (A) (A) (A) (A) (A) (A) (A) (A) (A) (A) (A) (A)
                 (A) (A) (A) (A) (A) (A) (A) (A) (A) (A) (A) (A)
                 (A) (A) (A) (A) (A) (A) (A) (A) (A) (A) (A) (A)
                 (A) (A) (A) (A) (A) (A) (A) (A) (A) (A) (A) (A)
                 (A) (A) (A) (A) (A) (A) (A) (A) (A) (A) (A) (A)
                 (A) (A) (A) (A) (A) (A) (A) (A) (A) (A) (A) (A)
                 (A) (A) (A) (A) (A) (A) (A) (A) (A) (A) (A) (A)
                 (A) (A) (A) (A) (A) (A) (A) (A) (A) (A) (A) (A)
                 (A) (A) (A) (A) (A) (A) (A) (A) (A) (A) (A) (A)
                 (A) (A) (A) (A) (A) (A) (A) (A) (A) (A) (A) (A)
                 (A) (A) (A) (A) (A) (A) (A) (A) (A) (A) (A) (A)
                 (A) (A) (A) (A) (A) (A) (A) (A) (A) (A) (A) (A)
                 (A) (A) (A) (A) (A) (A) (A) (A) (A) (A) (A) (A)
                 (A) (A) (A) (A) (A) (A) (A) (A) (A) (A) (A) (A)
                 (A) (A) (A) (A) (A) (A) (A) (A) (A) (A) (A) (A)
                 (A) (A) (A) (A) (A) (A) (A) (A) (A) (A) (A) (A)
                 (A) (A) (A) (A) (A) (A) (A) (A) (A) (A) (A) (A)
                 (A) (A) (A) (A) (A) (A) (A) (A) (A) (A) (A) (A)
                 (A) (A) (A) (A) (A) (A) (A) (A) (A) (A) (A) (A)
                 (A) (A) (A) (A) (A) (A) (A) (A) (A)
 The electronic state is 1-A.
 Alpha  occ. eigenvalues --  -19.86003 -19.85880 -19.79303 -19.79194 -19.77217
 Alpha  occ. eigenvalues --  -10.87470 -10.76082 -10.74686 -10.74004 -10.73616
 Alpha  occ. eigenvalues --  -10.70988 -10.70130 -10.70018 -10.69465 -10.69156
 Alpha  occ. eigenvalues --  -10.68944  -1.44377  -1.36086  -1.35281  -1.32427
 Alpha  occ. eigenvalues --   -1.30910  -1.11348  -1.07264  -1.01159  -0.99486
 Alpha  occ. eigenvalues --   -0.94517  -0.93618  -0.90044  -0.88394  -0.86603
 Alpha  occ. eigenvalues --   -0.81895  -0.79516  -0.78159  -0.76000  -0.73869
 Alpha  occ. eigenvalues --   -0.73023  -0.71723  -0.70242  -0.68789  -0.68367
 Alpha  occ. eigenvalues --   -0.67143  -0.66558  -0.64904  -0.63431  -0.62568
 Alpha  occ. eigenvalues --   -0.62308  -0.61906  -0.61295  -0.59603  -0.58521
 Alpha  occ. eigenvalues --   -0.57588  -0.55630  -0.54367  -0.54318  -0.52850
 Alpha  occ. eigenvalues --   -0.52235  -0.48002  -0.41772  -0.38957
 Alpha virt. eigenvalues --   -0.21953  -0.14096  -0.10591  -0.09328  -0.09059
 Alpha virt. eigenvalues --   -0.08962  -0.08112  -0.07521  -0.06288  -0.06129
 Alpha virt. eigenvalues --   -0.05482  -0.04857  -0.04544  -0.04486  -0.03661
 Alpha virt. eigenvalues --   -0.03140  -0.02661  -0.01805  -0.01433  -0.00806
 Alpha virt. eigenvalues --   -0.00676   0.00453   0.00751   0.01157   0.01970
 Alpha virt. eigenvalues --    0.02739   0.03264   0.03295   0.03794   0.03956
 Alpha virt. eigenvalues --    0.04129   0.04791   0.05079   0.05340   0.05698
 Alpha virt. eigenvalues --    0.05751   0.05955   0.07117   0.07504   0.07902
 Alpha virt. eigenvalues --    0.09189   0.09487   0.09775   0.10396   0.10546
 Alpha virt. eigenvalues --    0.11019   0.11228   0.12418   0.12505   0.12914
 Alpha virt. eigenvalues --    0.13640   0.13910   0.14033   0.14535   0.14672
 Alpha virt. eigenvalues --    0.15430   0.15467   0.15588   0.15774   0.16154
 Alpha virt. eigenvalues --    0.16773   0.16899   0.17534   0.18231   0.18875
 Alpha virt. eigenvalues --    0.19740   0.20117   0.20641   0.21196   0.21919
 Alpha virt. eigenvalues --    0.22090   0.22747   0.23072   0.23216   0.24240
 Alpha virt. eigenvalues --    0.24678   0.25431   0.25984   0.26411   0.27283
 Alpha virt. eigenvalues --    0.27679   0.28083   0.29489   0.30095   0.30602
 Alpha virt. eigenvalues --    0.31142   0.32609   0.33729   0.34798   0.35654
 Alpha virt. eigenvalues --    0.36346   0.36899   0.38008   0.39197   0.39703
 Alpha virt. eigenvalues --    0.40316   0.41760   0.42323   0.43507   0.44175
 Alpha virt. eigenvalues --    0.44573   0.44953   0.46477   0.46892   0.47230
 Alpha virt. eigenvalues --    0.47798   0.48537   0.50070   0.50924   0.51816
 Alpha virt. eigenvalues --    0.52129   0.52995   0.53119   0.53467   0.54894
 Alpha virt. eigenvalues --    0.55403   0.56749   0.57517   0.58408   0.58964
 Alpha virt. eigenvalues --    0.59120   0.59196   0.61444   0.61743   0.61852
 Alpha virt. eigenvalues --    0.62545   0.64045   0.64490   0.66875   0.69274
 Alpha virt. eigenvalues --    0.69821   0.70954   0.71427   0.73271   0.74977
 Alpha virt. eigenvalues --    0.75244   0.79810   0.80816   0.81112   0.81981
 Alpha virt. eigenvalues --    0.82936   0.84016   0.86220   0.87370   0.88137
 Alpha virt. eigenvalues --    0.88910   0.90668   0.91284   0.92415   0.92871
 Alpha virt. eigenvalues --    0.94425   0.94494   0.95172   0.95664   0.96494
 Alpha virt. eigenvalues --    0.97038   0.97868   0.98737   1.00661   1.01210
 Alpha virt. eigenvalues --    1.01624   1.02104   1.02559   1.02776   1.05491
 Alpha virt. eigenvalues --    1.06602   1.07221   1.08822   1.12183   1.13051
 Alpha virt. eigenvalues --    1.14058   1.14859   1.16558   1.19918   1.20539
 Alpha virt. eigenvalues --    1.20721   1.21858   1.22054   1.27995   1.31120
 Alpha virt. eigenvalues --    1.32075   1.33606   1.34774   1.35025   1.35405
 Alpha virt. eigenvalues --    1.36171   1.37579   1.38507   1.38842   1.40332
 Alpha virt. eigenvalues --    1.40781   1.41168   1.42511   1.46454   1.47299
 Alpha virt. eigenvalues --    1.47716   1.47860   1.48983   1.49736   1.50551
 Alpha virt. eigenvalues --    1.51840   1.53229   1.55683   1.58372   1.59644
 Alpha virt. eigenvalues --    1.59872   1.60549   1.61309   1.62407   1.62602
 Alpha virt. eigenvalues --    1.64034   1.65042   1.65821   1.67061   1.69689
 Alpha virt. eigenvalues --    1.69989   1.71070   1.72157   1.72169   1.74023
 Alpha virt. eigenvalues --    1.76053   1.76594   1.78995   1.79972   1.80709
 Alpha virt. eigenvalues --    1.84287   1.84538   1.85675   1.86817   1.90135
 Alpha virt. eigenvalues --    1.90620   1.92867   1.94179   1.95545   1.96490
 Alpha virt. eigenvalues --    1.99181   1.99573   2.00619   2.02227   2.03103
 Alpha virt. eigenvalues --    2.03896   2.04618   2.09458   2.11282   2.12269
 Alpha virt. eigenvalues --    2.14833   2.15212   2.16811   2.20641   2.22104
 Alpha virt. eigenvalues --    2.23209   2.25716   2.29249   2.33654   2.38059
 Alpha virt. eigenvalues --    2.38983   2.39979   2.41110   2.41984   2.42168
 Alpha virt. eigenvalues --    2.43177   2.44074   2.45084   2.48148   2.49652
 Alpha virt. eigenvalues --    2.51303   2.51839   2.53479   2.54882   2.57413
 Alpha virt. eigenvalues --    2.60177   2.61652   2.62336   2.62681   2.63949
 Alpha virt. eigenvalues --    2.65249   2.66956   2.71736   2.72919   2.74469
 Alpha virt. eigenvalues --    2.76229   2.77458   2.81869   2.82802   2.83149
 Alpha virt. eigenvalues --    2.86272   2.88134   2.93347   2.95965   2.97915
 Alpha virt. eigenvalues --    2.98569   2.99489   2.99705   3.01435   3.02356
 Alpha virt. eigenvalues --    3.02971   3.04512   3.05980   3.06558   3.08113
 Alpha virt. eigenvalues --    3.09695   3.11341   3.13195   3.13613   3.18554
 Alpha virt. eigenvalues --    3.20196   3.22354   3.23323   3.27486   3.29918
 Alpha virt. eigenvalues --    3.31285   3.35865   3.40331   3.42227   3.44732
 Alpha virt. eigenvalues --    3.48102   3.49287   3.56277   3.58380   3.67205
 Alpha virt. eigenvalues --    3.71387   3.72401   3.75041   3.77919   3.80265
 Alpha virt. eigenvalues --    3.80698   3.83066   3.85925   3.94386   4.04061
 Alpha virt. eigenvalues --    4.05872   4.08224   4.10196   4.13576   4.17412
 Alpha virt. eigenvalues --    4.20661   4.45820   4.73244   4.89770   4.93191
 Alpha virt. eigenvalues --    4.96836   5.03063   5.06996   5.26117   5.33816
 Alpha virt. eigenvalues --    5.34377   5.43032   5.53405   5.62099   5.67180
 Alpha virt. eigenvalues --    5.79595   5.80268   5.85060  23.53034  23.64191
 Alpha virt. eigenvalues --   23.83546  23.84526  23.87729  23.89063  23.91099
 Alpha virt. eigenvalues --   23.95290  24.03377  24.05260  24.09409  49.79814
 Alpha virt. eigenvalues --   49.88217  49.89730  49.98178  50.01307
          Condensed to atoms (all electrons):
               1          2          3          4          5          6
     1  C   31.399417   0.504769 -13.897988   1.971970  -9.828770  -1.644522
     2  C    0.504769  24.316076  -6.098739  -3.051445  -0.766158  -7.735524
     3  C  -13.897988  -6.098739  42.047460  -2.640183  -3.420570  -5.547244
     4  C    1.971970  -3.051445  -2.640183  22.021603  -4.620133  -3.686126
     5  C   -9.828770  -0.766158  -3.420570  -4.620133  18.622218   2.627413
     6  C   -1.644522  -7.735524  -5.547244  -3.686126   2.627413  21.343332
     7  O    0.228449  -0.680239   0.006117  -0.071369   0.167465   0.413200
     8  O   -0.696817   0.040889   0.557674  -0.113415   0.030195   0.112997
     9  C    0.254780   0.035194  -0.239926  -0.611628   0.062319   0.211048
    10  O   -0.764912   0.021676   0.096193  -0.061170   0.211568   0.357755
    11  C    0.087883   0.083069   0.085980  -0.280754  -0.054689  -0.205091
    12  C   -0.992352   0.551918  -4.307666  -3.462386   2.891570   0.270564
    13  C   -0.004119  -1.396518  -1.401026   0.793531   0.372027   0.273002
    14  C   -0.043529   0.186397  -0.651154  -1.264762  -0.003574   0.158200
    15  O    0.002126  -0.000428  -0.004929   0.031586   0.000526   0.005359
    16  O   -0.004261   0.004825   0.025431   0.037806  -0.019293  -0.009150
    17  H   -0.006093   0.027026   0.093080   0.093860   0.011522  -0.027072
    18  H    0.007821  -0.019650  -0.094320   0.053148   0.304520  -0.028305
    19  H    0.210664   0.369865   0.078972  -0.002161  -0.077078  -0.564730
    20  H    0.007992  -0.008788   0.021032   0.019026  -0.002540  -0.000517
    21  H   -0.000412   0.018113  -0.025524   0.008178   0.003119  -0.004764
    22  H   -0.005500   0.027766  -0.020049  -0.007808   0.003732  -0.003604
    23  H   -0.014286  -0.000394   0.000533   0.020287   0.038926  -0.012767
    24  H   -0.009961  -0.004479  -0.001265  -0.008347   0.005245   0.011976
    25  H   -0.002701  -0.005745  -0.004287  -0.014922  -0.004670   0.027209
    26  H    0.012524   0.028957   0.220312   0.015418  -0.110305  -0.010585
    27  H   -0.003190   0.002143  -0.021022  -0.020160  -0.003979  -0.014005
    28  H    0.000128  -0.000097  -0.002832  -0.021192   0.007787   0.001283
    29  H   -0.000575   0.001672   0.014615   0.014216  -0.015100  -0.001438
               7          8          9         10         11         12
     1  C    0.228449  -0.696817   0.254780  -0.764912   0.087883  -0.992352
     2  C   -0.680239   0.040889   0.035194   0.021676   0.083069   0.551918
     3  C    0.006117   0.557674  -0.239926   0.096193   0.085980  -4.307666
     4  C   -0.071369  -0.113415  -0.611628  -0.061170  -0.280754  -3.462386
     5  C    0.167465   0.030195   0.062319   0.211568  -0.054689   2.891570
     6  C    0.413200   0.112997   0.211048   0.357755  -0.205091   0.270564
     7  O    7.813990   0.075324   0.004854   0.018127   0.006863   0.008257
     8  O    0.075324   8.110779   0.157393  -0.003093  -0.000848  -0.016242
     9  C    0.004854   0.157393   5.280865  -0.000963  -0.000287  -0.066967
    10  O    0.018127  -0.003093  -0.000963   8.276421   0.169498  -0.005863
    11  C    0.006863  -0.000848  -0.000287   0.169498   5.164212  -0.029550
    12  C    0.008257  -0.016242  -0.066967  -0.005863  -0.029550  12.611810
    13  C   -0.000089   0.000077  -0.022557   0.008041   0.013315  -3.035242
    14  C    0.000549  -0.000809  -0.001034  -0.002097   0.000447   0.999449
    15  O    0.000000   0.000000  -0.000023  -0.000006  -0.000103  -0.117799
    16  O    0.000001  -0.000020   0.000127  -0.000000   0.000078   0.204568
    17  H   -0.000436  -0.015094  -0.008646   0.000236  -0.000252   0.141625
    18  H   -0.000212   0.000193  -0.000303  -0.015742  -0.004493   0.059865
    19  H    0.214200  -0.006257  -0.002430   0.035812   0.004379  -0.002177
    20  H   -0.000489  -0.065429   0.404230  -0.000003  -0.000002   0.003010
    21  H    0.000260  -0.031869   0.406265   0.000004  -0.000007  -0.003113
    22  H    0.000259  -0.032604   0.409387   0.000002   0.000002  -0.002240
    23  H    0.000277  -0.000001   0.000005  -0.051870   0.398632   0.000193
    24  H    0.000185   0.000008   0.000007  -0.040873   0.416084   0.000706
    25  H    0.000136   0.000011  -0.000002  -0.041138   0.415236   0.001244
    26  H   -0.000020   0.000030   0.000430   0.000047  -0.000136   0.281411
    27  H   -0.000007   0.000003  -0.000009   0.000148  -0.000745   0.074391
    28  H    0.000000   0.000000  -0.000003  -0.000000  -0.000009   0.079702
    29  H    0.000000  -0.000000   0.000034  -0.000000   0.000011  -0.063558
              13         14         15         16         17         18
     1  C   -0.004119  -0.043529   0.002126  -0.004261  -0.006093   0.007821
     2  C   -1.396518   0.186397  -0.000428   0.004825   0.027026  -0.019650
     3  C   -1.401026  -0.651154  -0.004929   0.025431   0.093080  -0.094320
     4  C    0.793531  -1.264762   0.031586   0.037806   0.093860   0.053148
     5  C    0.372027  -0.003574   0.000526  -0.019293   0.011522   0.304520
     6  C    0.273002   0.158200   0.005359  -0.009150  -0.027072  -0.028305
     7  O   -0.000089   0.000549   0.000000   0.000001  -0.000436  -0.000212
     8  O    0.000077  -0.000809   0.000000  -0.000020  -0.015094   0.000193
     9  C   -0.022557  -0.001034  -0.000023   0.000127  -0.008646  -0.000303
    10  O    0.008041  -0.002097  -0.000006  -0.000000   0.000236  -0.015742
    11  C    0.013315   0.000447  -0.000103   0.000078  -0.000252  -0.004493
    12  C   -3.035242   0.999449  -0.117799   0.204568   0.141625   0.059865
    13  C   14.133002  -3.596667   0.401028  -0.016381   0.023269   0.052372
    14  C   -3.596667   9.938484  -0.155950  -0.089593   0.004816   0.021098
    15  O    0.401028  -0.155950   7.859019  -0.078130  -0.000007  -0.000021
    16  O   -0.016381  -0.089593  -0.078130   7.964004  -0.000079   0.000007
    17  H    0.023269   0.004816  -0.000007  -0.000079   0.475089  -0.000197
    18  H    0.052372   0.021098  -0.000021   0.000007  -0.000197   0.491535
    19  H    0.000276  -0.000043   0.000000  -0.000000  -0.000021   0.000035
    20  H    0.000206   0.000004   0.000000  -0.000000   0.000445   0.000000
    21  H   -0.000734  -0.000016   0.000000  -0.000000  -0.000456  -0.000000
    22  H   -0.001071   0.000130   0.000000   0.000007  -0.000402   0.000000
    23  H    0.000610   0.000034  -0.000000   0.000000   0.000000   0.000391
    24  H   -0.000334   0.000386   0.000000   0.000001   0.000000  -0.000514
    25  H   -0.001344   0.000090   0.000003  -0.000001  -0.000000  -0.000680
    26  H   -0.105561  -0.011412   0.000585   0.005208   0.002223  -0.000173
    27  H    0.382732  -0.052875  -0.002862   0.009698  -0.000012   0.001541
    28  H   -0.269946   0.242244   0.220033  -0.009987  -0.000000   0.000006
    29  H   -0.010553   0.107704  -0.004756   0.164966   0.000003   0.000007
              19         20         21         22         23         24
     1  C    0.210664   0.007992  -0.000412  -0.005500  -0.014286  -0.009961
     2  C    0.369865  -0.008788   0.018113   0.027766  -0.000394  -0.004479
     3  C    0.078972   0.021032  -0.025524  -0.020049   0.000533  -0.001265
     4  C   -0.002161   0.019026   0.008178  -0.007808   0.020287  -0.008347
     5  C   -0.077078  -0.002540   0.003119   0.003732   0.038926   0.005245
     6  C   -0.564730  -0.000517  -0.004764  -0.003604  -0.012767   0.011976
     7  O    0.214200  -0.000489   0.000260   0.000259   0.000277   0.000185
     8  O   -0.006257  -0.065429  -0.031869  -0.032604  -0.000001   0.000008
     9  C   -0.002430   0.404230   0.406265   0.409387   0.000005   0.000007
    10  O    0.035812  -0.000003   0.000004   0.000002  -0.051870  -0.040873
    11  C    0.004379  -0.000002  -0.000007   0.000002   0.398632   0.416084
    12  C   -0.002177   0.003010  -0.003113  -0.002240   0.000193   0.000706
    13  C    0.000276   0.000206  -0.000734  -0.001071   0.000610  -0.000334
    14  C   -0.000043   0.000004  -0.000016   0.000130   0.000034   0.000386
    15  O    0.000000   0.000000   0.000000   0.000000  -0.000000   0.000000
    16  O   -0.000000  -0.000000  -0.000000   0.000007   0.000000   0.000001
    17  H   -0.000021   0.000445  -0.000456  -0.000402   0.000000   0.000000
    18  H    0.000035   0.000000  -0.000000   0.000000   0.000391  -0.000514
    19  H    0.414692  -0.000015   0.000008   0.000005  -0.000108  -0.000088
    20  H   -0.000015   0.452213  -0.020318  -0.020349  -0.000000   0.000000
    21  H    0.000008  -0.020318   0.523889  -0.047391   0.000000   0.000000
    22  H    0.000005  -0.020349  -0.047391   0.524395   0.000000  -0.000000
    23  H   -0.000108  -0.000000   0.000000   0.000000   0.448789  -0.019224
    24  H   -0.000088   0.000000   0.000000  -0.000000  -0.019224   0.512158
    25  H   -0.000073   0.000000  -0.000000   0.000000  -0.019099  -0.043113
    26  H    0.000001   0.000001   0.000016  -0.000015  -0.000000  -0.000002
    27  H   -0.000000  -0.000000  -0.000000   0.000000   0.000001  -0.000036
    28  H    0.000000   0.000000   0.000000  -0.000000  -0.000000   0.000000
    29  H   -0.000000  -0.000000  -0.000000   0.000000   0.000000   0.000000
              25         26         27         28         29
     1  C   -0.002701   0.012524  -0.003190   0.000128  -0.000575
     2  C   -0.005745   0.028957   0.002143  -0.000097   0.001672
     3  C   -0.004287   0.220312  -0.021022  -0.002832   0.014615
     4  C   -0.014922   0.015418  -0.020160  -0.021192   0.014216
     5  C   -0.004670  -0.110305  -0.003979   0.007787  -0.015100
     6  C    0.027209  -0.010585  -0.014005   0.001283  -0.001438
     7  O    0.000136  -0.000020  -0.000007   0.000000   0.000000
     8  O    0.000011   0.000030   0.000003   0.000000  -0.000000
     9  C   -0.000002   0.000430  -0.000009  -0.000003   0.000034
    10  O   -0.041138   0.000047   0.000148  -0.000000  -0.000000
    11  C    0.415236  -0.000136  -0.000745  -0.000009   0.000011
    12  C    0.001244   0.281411   0.074391   0.079702  -0.063558
    13  C   -0.001344  -0.105561   0.382732  -0.269946  -0.010553
    14  C    0.000090  -0.011412  -0.052875   0.242244   0.107704
    15  O    0.000003   0.000585  -0.002862   0.220033  -0.004756
    16  O   -0.000001   0.005208   0.009698  -0.009987   0.164966
    17  H   -0.000000   0.002223  -0.000012  -0.000000   0.000003
    18  H   -0.000680  -0.000173   0.001541   0.000006   0.000007
    19  H   -0.000073   0.000001  -0.000000   0.000000  -0.000000
    20  H    0.000000   0.000001  -0.000000   0.000000  -0.000000
    21  H   -0.000000   0.000016  -0.000000   0.000000  -0.000000
    22  H    0.000000  -0.000015   0.000000  -0.000000   0.000000
    23  H   -0.019099  -0.000000   0.000001  -0.000000   0.000000
    24  H   -0.043113  -0.000002  -0.000036   0.000000   0.000000
    25  H    0.512487  -0.000000  -0.000042   0.000000  -0.000000
    26  H   -0.000000   0.457938   0.002964   0.000210  -0.002140
    27  H   -0.000042   0.002964   0.444026  -0.000646   0.000144
    28  H    0.000000   0.000210  -0.000646   0.453188  -0.003361
    29  H   -0.000000  -0.002140   0.000144  -0.003361   0.493044
 Mulliken charges:
               1
     1  C   -0.768537
     2  C   -0.452149
     3  C    1.131324
     4  C    0.857332
     5  C   -0.433293
     6  C   -0.317896
     7  O   -0.205653
     8  O   -0.103076
     9  C   -0.272157
    10  O   -0.207798
    11  C   -0.268722
    12  C   -0.075127
    13  C   -0.591346
    14  C    0.213485
    15  O   -0.155251
    16  O   -0.189831
    17  H    0.185574
    18  H    0.172071
    19  H    0.326274
    20  H    0.210292
    21  H    0.174755
    22  H    0.175347
    23  H    0.209070
    24  H    0.181480
    25  H    0.181400
    26  H    0.212074
    27  H    0.201800
    28  H    0.303493
    29  H    0.305065
 Sum of Mulliken charges =   1.00000
 Mulliken charges with hydrogens summed into heavy atoms:
               1
     1  C   -0.768537
     2  C   -0.452149
     3  C    1.316898
     4  C    0.857332
     5  C   -0.261222
     6  C   -0.317896
     7  O    0.120621
     8  O   -0.103076
     9  C    0.288236
    10  O   -0.207798
    11  C    0.303228
    12  C    0.136947
    13  C   -0.389545
    14  C    0.213485
    15  O    0.148242
    16  O    0.115234
 Electronic spatial extent (au):  <R**2>=           5041.5627
 Charge=              1.0000 electrons
 Dipole moment (field-independent basis, Debye):
    X=            -10.7464    Y=             -0.1905    Z=              0.0397  Tot=             10.7482
 Quadrupole moment (field-independent basis, Debye-Ang):
   XX=             -9.3821   YY=            -56.8996   ZZ=            -94.8168
   XY=             11.9796   XZ=              0.1328   YZ=             -1.1380
 Traceless Quadrupole moment (field-independent basis, Debye-Ang):
   XX=             44.3174   YY=             -3.2001   ZZ=            -41.1173
   XY=             11.9796   XZ=              0.1328   YZ=             -1.1380
 Octapole moment (field-independent basis, Debye-Ang**2):
  XXX=           -459.1685  YYY=              7.3798  ZZZ=             -0.3491  XYY=             39.3462
  XXY=            -41.0732  XXZ=             -2.8906  XZZ=             -2.0057  YZZ=              0.3529
  YYZ=              1.0804  XYZ=              4.9199
 Hexadecapole moment (field-independent basis, Debye-Ang**3):
 XXXX=          -1322.4968 YYYY=          -1428.7644 ZZZZ=           -109.5668 XXXY=            405.4659
 XXXZ=             24.4056 YYYX=             10.8132 YYYZ=             -3.5975 ZZZX=              0.6487
 ZZZY=             -0.1419 XXYY=           -796.5749 XXZZ=           -732.5312 YYZZ=           -335.6606
 XXYZ=            -28.0857 YYXZ=             -5.5620 ZZXY=              5.5858
 N-N= 1.075658687703D+03 E-N=-4.012281082116D+03  KE= 7.998698973582D+02
 Calling FoFJK, ICntrl=      2127 FMM=F ISym2X=0 I1Cent= 0 IOpClX= 0 NMat=1 NMatS=1 NMatT=0.
 ***** Axes restored to original set *****
 -------------------------------------------------------------------
 Center     Atomic                   Forces (Hartrees/Bohr)
 Number     Number              X              Y              Z
 -------------------------------------------------------------------
      1        6           0.001432599    0.000368825   -0.000021797
      2        6           0.000068671   -0.000544473    0.000066551
      3        6           0.000982617    0.000857028    0.000064739
      4        6          -0.000226315   -0.000116988   -0.000218219
      5        6           0.001352112   -0.000540362    0.000130121
      6        6          -0.000692689    0.000247699   -0.000030677
      7        8          -0.002328624    0.001650119    0.000000951
      8        8          -0.002102598    0.001562565   -0.000003854
      9        6          -0.000268093   -0.000758263    0.000001590
     10        8          -0.001063859   -0.001680270    0.000011029
     11        6          -0.000276231    0.000485149   -0.000007535
     12        6           0.000070496    0.000750367   -0.000093057
     13        6          -0.000841674   -0.001176999    0.000078534
     14        6          -0.001135648   -0.000354869   -0.000129874
     15        8           0.000084916   -0.001785681   -0.000453872
     16        8          -0.001033718    0.001512480    0.000641545
     17        1           0.000451784    0.001277603   -0.000006719
     18        1           0.000863056   -0.001023111    0.000003737
     19        1          -0.001321189   -0.002437981    0.000019132
     20        1          -0.001026851    0.000552076    0.000006861
     21        1           0.000661647    0.000213265   -0.001014087
     22        1           0.000672057    0.000212741    0.001003374
     23        1          -0.000878778   -0.000781524    0.000002825
     24        1           0.000680633   -0.000004415    0.000956578
     25        1           0.000673610   -0.000010257   -0.000966464
     26        1           0.000289940    0.001187089    0.000010494
     27        1          -0.000209843   -0.001263331   -0.000009218
     28        1           0.002821100   -0.000000756    0.000443341
     29        1           0.002300874    0.001602272   -0.000486027
 -------------------------------------------------------------------
 Cartesian Forces:  Max     0.002821100 RMS     0.000943328

 GradGradGradGradGradGradGradGradGradGradGradGradGradGradGradGradGradGrad
 Berny optimization.
 FormGI is forming the generalized inverse of G from B-inverse, IUseBI=4.
 Internal  Forces:  Max     0.003728356 RMS     0.001096504
 Search for a local minimum.
 Step number   1 out of a maximum of  135
 All quantities printed in internal units (Hartrees-Bohrs-Radians)
 Mixed Optimization -- RFO/linear search
 Second derivative matrix not updated -- first step.
 ITU=  0
     Eigenvalues ---    0.01380   0.01425   0.01841   0.01865   0.01938
     Eigenvalues ---    0.01957   0.02033   0.02072   0.02092   0.02141
     Eigenvalues ---    0.02163   0.02194   0.02245   0.02245   0.02254
     Eigenvalues ---    0.02264   0.02336   0.02486   0.02531   0.02754
     Eigenvalues ---    0.02771   0.02819   0.10158   0.10215   0.10714
     Eigenvalues ---    0.10725   0.16000   0.16000   0.16000   0.16000
     Eigenvalues ---    0.16000   0.16000   0.16000   0.16000   0.16000
     Eigenvalues ---    0.16000   0.16000   0.16000   0.16000   0.22000
     Eigenvalues ---    0.22000   0.23476   0.23485   0.24999   0.24999
     Eigenvalues ---    0.25000   0.25000   0.25000   0.25000   0.25000
     Eigenvalues ---    0.25000   0.25000   0.34171   0.34173   0.34273
     Eigenvalues ---    0.34276   0.34908   0.35065   0.35067   0.35506
     Eigenvalues ---    0.35681   0.35759   0.39424   0.41023   0.41924
     Eigenvalues ---    0.42436   0.42521   0.42979   0.43789   0.46763
     Eigenvalues ---    0.47636   0.47894   0.49384   0.52964   0.53648
     Eigenvalues ---    0.53679   0.54751   0.57210   0.62003   0.62320
     Eigenvalues ---    0.63247
 RFO step:  Lambda=-3.44553045D-04 EMin= 1.37970910D-02
 Linear search not attempted -- first point.
 Iteration  1 RMS(Cart)=  0.00874656 RMS(Int)=  0.00002083
 Iteration  2 RMS(Cart)=  0.00002418 RMS(Int)=  0.00000031
 Iteration  3 RMS(Cart)=  0.00000000 RMS(Int)=  0.00000031
 Variable       Old X    -DE/DX   Delta X   Delta X   Delta X     New X
                                 (Linear)    (Quad)   (Total)
    R1        2.67291  -0.00190   0.00000  -0.00436  -0.00436   2.66855
    R2        2.68208  -0.00194   0.00000  -0.00455  -0.00455   2.67753
    R3        2.49389  -0.00373   0.00000  -0.00601  -0.00601   2.48788
    R4        2.61319  -0.00281   0.00000  -0.00577  -0.00576   2.60742
    R5        2.53219  -0.00272   0.00000  -0.00475  -0.00475   2.52744
    R6        2.68323  -0.00210   0.00000  -0.00496  -0.00496   2.67828
    R7        2.04861  -0.00135   0.00000  -0.00381  -0.00381   2.04480
    R8        2.68231  -0.00213   0.00000  -0.00504  -0.00504   2.67727
    R9        2.66708  -0.00239   0.00000  -0.00546  -0.00546   2.66162
   R10        2.59972  -0.00303   0.00000  -0.00609  -0.00609   2.59363
   R11        2.04583  -0.00134   0.00000  -0.00375  -0.00375   2.04209
   R12        2.55354  -0.00216   0.00000  -0.00395  -0.00395   2.54959
   R13        1.83687  -0.00264   0.00000  -0.00498  -0.00498   1.83189
   R14        2.68371  -0.00022   0.00000  -0.00052  -0.00052   2.68319
   R15        2.05566  -0.00116   0.00000  -0.00331  -0.00331   2.05234
   R16        2.07042  -0.00123   0.00000  -0.00360  -0.00360   2.06682
   R17        2.07039  -0.00122   0.00000  -0.00358  -0.00358   2.06681
   R18        2.69020  -0.00037   0.00000  -0.00088  -0.00088   2.68932
   R19        2.05569  -0.00116   0.00000  -0.00332  -0.00332   2.05238
   R20        2.06867  -0.00117   0.00000  -0.00342  -0.00342   2.06525
   R21        2.06872  -0.00118   0.00000  -0.00343  -0.00343   2.06529
   R22        2.62329  -0.00246   0.00000  -0.00517  -0.00517   2.61812
   R23        2.05824  -0.00122   0.00000  -0.00350  -0.00350   2.05475
   R24        2.62052  -0.00319   0.00000  -0.00665  -0.00665   2.61387
   R25        2.04460  -0.00128   0.00000  -0.00357  -0.00357   2.04103
   R26        2.48460  -0.00335   0.00000  -0.00529  -0.00529   2.47931
   R27        2.49150  -0.00331   0.00000  -0.00531  -0.00531   2.48619
   R28        1.83053  -0.00267   0.00000  -0.00498  -0.00498   1.82555
   R29        1.83025  -0.00268   0.00000  -0.00500  -0.00500   1.82525
    A1        2.10817   0.00014   0.00000   0.00063   0.00063   2.10880
    A2        2.07091   0.00045   0.00000   0.00176   0.00176   2.07267
    A3        2.10411  -0.00059   0.00000  -0.00239  -0.00239   2.10172
    A4        2.06857  -0.00026   0.00000  -0.00096  -0.00096   2.06760
    A5        2.00560   0.00042   0.00000   0.00164   0.00164   2.00723
    A6        2.20902  -0.00016   0.00000  -0.00068  -0.00068   2.20835
    A7        2.10998   0.00009   0.00000   0.00041   0.00041   2.11039
    A8        2.09827   0.00000   0.00000   0.00007   0.00007   2.09834
    A9        2.07493  -0.00009   0.00000  -0.00048  -0.00048   2.07445
   A10        2.09711   0.00008   0.00000   0.00027   0.00027   2.09739
   A11        2.05098  -0.00004   0.00000  -0.00012  -0.00012   2.05086
   A12        2.13508  -0.00004   0.00000  -0.00014  -0.00014   2.13494
   A13        2.07813  -0.00001   0.00000  -0.00015  -0.00015   2.07798
   A14        2.10669   0.00003   0.00000   0.00021   0.00021   2.10690
   A15        2.09837  -0.00001   0.00000  -0.00006  -0.00006   2.09831
   A16        2.10441  -0.00005   0.00000  -0.00020  -0.00020   2.10421
   A17        1.96255  -0.00006   0.00000  -0.00021  -0.00021   1.96234
   A18        2.21622   0.00010   0.00000   0.00041   0.00041   2.21664
   A19        1.91642  -0.00155   0.00000  -0.00966  -0.00966   1.90676
   A20        2.05610  -0.00013   0.00000  -0.00053  -0.00053   2.05557
   A21        1.84531   0.00010   0.00000   0.00063   0.00063   1.84594
   A22        1.93301   0.00003   0.00000   0.00021   0.00021   1.93322
   A23        1.93307   0.00004   0.00000   0.00028   0.00028   1.93335
   A24        1.91325  -0.00007   0.00000  -0.00047  -0.00047   1.91279
   A25        1.91324  -0.00007   0.00000  -0.00048  -0.00048   1.91276
   A26        1.92437  -0.00003   0.00000  -0.00016  -0.00016   1.92421
   A27        2.06269  -0.00028   0.00000  -0.00111  -0.00111   2.06158
   A28        1.84916   0.00024   0.00000   0.00156   0.00156   1.85072
   A29        1.92591  -0.00000   0.00000  -0.00005  -0.00005   1.92586
   A30        1.92580  -0.00000   0.00000  -0.00003  -0.00003   1.92576
   A31        1.91620  -0.00010   0.00000  -0.00061  -0.00061   1.91559
   A32        1.91632  -0.00010   0.00000  -0.00059  -0.00059   1.91573
   A33        1.92890  -0.00002   0.00000  -0.00022  -0.00022   1.92868
   A34        2.22235  -0.00007   0.00000  -0.00033  -0.00033   2.22202
   A35        2.02592   0.00004   0.00000   0.00017   0.00017   2.02610
   A36        2.03491   0.00003   0.00000   0.00016   0.00016   2.03507
   A37        2.10478  -0.00018   0.00000  -0.00084  -0.00084   2.10394
   A38        2.15743   0.00015   0.00000   0.00080   0.00080   2.15823
   A39        2.02098   0.00003   0.00000   0.00004   0.00004   2.02102
   A40        2.07003   0.00008   0.00000   0.00032   0.00032   2.07035
   A41        2.11067   0.00005   0.00000   0.00022   0.00022   2.11090
   A42        2.10244  -0.00013   0.00000  -0.00053  -0.00053   2.10191
   A43        2.01581  -0.00184   0.00000  -0.01144  -0.01144   2.00436
   A44        2.00962  -0.00173   0.00000  -0.01077  -0.01077   1.99885
    D1       -0.00144   0.00002   0.00000   0.00081   0.00081  -0.00063
    D2        3.14006   0.00000   0.00000   0.00012   0.00012   3.14019
    D3        3.14105   0.00001   0.00000   0.00059   0.00059  -3.14154
    D4       -0.00063  -0.00000   0.00000  -0.00010  -0.00010  -0.00073
    D5       -0.00039   0.00000   0.00000   0.00006   0.00006  -0.00033
    D6       -3.14042  -0.00000   0.00000  -0.00015  -0.00015  -3.14056
    D7        3.14028   0.00001   0.00000   0.00029   0.00029   3.14057
    D8        0.00026   0.00000   0.00000   0.00009   0.00009   0.00034
    D9        3.14056   0.00000   0.00000   0.00012   0.00012   3.14069
   D10       -0.00013  -0.00000   0.00000  -0.00010  -0.00010  -0.00023
   D11        0.00040  -0.00000   0.00000  -0.00015  -0.00015   0.00025
   D12       -3.14121  -0.00000   0.00000  -0.00020  -0.00020  -3.14141
   D13       -3.14109   0.00001   0.00000   0.00063   0.00063  -3.14047
   D14        0.00048   0.00001   0.00000   0.00058   0.00058   0.00106
   D15        3.14151   0.00002   0.00000   0.00077   0.00077  -3.14090
   D16       -0.00018   0.00000   0.00000   0.00001   0.00001  -0.00016
   D17        0.00242  -0.00003   0.00000  -0.00135  -0.00135   0.00107
   D18        3.13789   0.00003   0.00000   0.00175   0.00175   3.13963
   D19       -3.13915  -0.00003   0.00000  -0.00131  -0.00131  -3.14047
   D20       -0.00368   0.00003   0.00000   0.00179   0.00179  -0.00190
   D21       -0.00421   0.00004   0.00000   0.00220   0.00220  -0.00201
   D22        3.13803   0.00002   0.00000   0.00113   0.00113   3.13916
   D23       -3.13937  -0.00002   0.00000  -0.00105  -0.00105  -3.14042
   D24        0.00287  -0.00004   0.00000  -0.00212  -0.00212   0.00074
   D25        3.13926  -0.00007   0.00000  -0.00362  -0.00362   3.13564
   D26       -0.00437  -0.00003   0.00000  -0.00141  -0.00141  -0.00578
   D27       -0.00860  -0.00001   0.00000  -0.00044  -0.00044  -0.00904
   D28        3.13096   0.00004   0.00000   0.00176   0.00176   3.13272
   D29        0.00319  -0.00003   0.00000  -0.00156  -0.00156   0.00164
   D30       -3.14021  -0.00003   0.00000  -0.00132  -0.00132  -3.14154
   D31       -3.13904  -0.00001   0.00000  -0.00049  -0.00049  -3.13953
   D32        0.00074  -0.00001   0.00000  -0.00026  -0.00026   0.00048
   D33       -3.14007  -0.00001   0.00000  -0.00035  -0.00035  -3.14041
   D34        0.00321  -0.00001   0.00000  -0.00056  -0.00056   0.00265
   D35        3.14122   0.00000   0.00000   0.00028   0.00028   3.14150
   D36       -1.07075  -0.00000   0.00000   0.00020   0.00020  -1.07055
   D37        1.07000   0.00001   0.00000   0.00033   0.00033   1.07033
   D38        3.13919   0.00000   0.00000   0.00003   0.00003   3.13922
   D39       -1.07078   0.00002   0.00000   0.00019   0.00019  -1.07060
   D40        1.06589  -0.00002   0.00000  -0.00014  -0.00014   1.06575
   D41        3.12242   0.00005   0.00000   0.00211   0.00211   3.12453
   D42       -0.01964   0.00004   0.00000   0.00193   0.00193  -0.01770
   D43       -0.01713  -0.00000   0.00000  -0.00010  -0.00010  -0.01723
   D44        3.12400  -0.00000   0.00000  -0.00028  -0.00028   3.12372
   D45        3.06973   0.00000   0.00000   0.00023   0.00023   3.06996
   D46       -0.08216   0.00005   0.00000   0.00224   0.00224  -0.07992
   D47       -0.07144   0.00001   0.00000   0.00040   0.00040  -0.07104
   D48        3.05986   0.00006   0.00000   0.00241   0.00241   3.06227
   D49        2.93054   0.00008   0.00000   0.00294   0.00294   2.93348
   D50       -0.20081   0.00003   0.00000   0.00094   0.00094  -0.19987
   D51        2.87749   0.00003   0.00000   0.00091   0.00091   2.87840
   D52       -0.27459   0.00008   0.00000   0.00296   0.00296  -0.27163
         Item               Value     Threshold  Converged?
 Maximum Force            0.003728     0.000450     NO 
 RMS     Force            0.001097     0.000300     NO 
 Maximum Displacement     0.036903     0.001800     NO 
 RMS     Displacement     0.008749     0.001200     NO 
 Predicted change in Energy=-1.724559D-04
 GradGradGradGradGradGradGradGradGradGradGradGradGradGradGradGradGradGrad

                          Input orientation:                          
 ---------------------------------------------------------------------
 Center     Atomic      Atomic             Coordinates (Angstroms)
 Number     Number       Type             X           Y           Z
 ---------------------------------------------------------------------
      1          6           0        2.390602    0.198106   -0.000803
      2          6           0        1.917534   -1.132412    0.006620
      3          6           0        0.554334   -1.345676    0.011452
      4          6           0       -0.353045   -0.256940    0.008740
      5          6           0        0.131967    1.074172   -0.000332
      6          6           0        1.487408    1.289803   -0.004003
      7          8           0        3.690256    0.408175   -0.005496
      8          8           0        2.870182   -2.071168    0.007273
      9          6           0        2.459710   -3.430411    0.013731
     10          8           0        2.120064    2.481431   -0.012404
     11          6           0        1.326003    3.662425   -0.014940
     12          6           0       -1.729166   -0.557055    0.011580
     13          6           0       -2.784468    0.340603    0.016295
     14          6           0       -4.091706   -0.111104   -0.001707
     15          8           0       -5.061683    0.767987    0.085893
     16          8           0       -4.362839   -1.393621   -0.113663
     17          1           0        0.160679   -2.353572    0.017348
     18          1           0       -0.551957    1.910821   -0.004724
     19          1           0        3.859704    1.362627   -0.011162
     20          1           0        3.374981   -4.015040    0.013049
     21          1           0        1.880808   -3.656382    0.913744
     22          1           0        1.875080   -3.663313   -0.880789
     23          1           0        2.024781    4.493833   -0.019377
     24          1           0        0.702510    3.699121   -0.911769
     25          1           0        0.706243    3.705377    0.884220
     26          1           0       -1.988237   -1.613063    0.010032
     27          1           0       -2.657990    1.413088    0.034300
     28          1           0       -5.941856    0.422184   -0.111465
     29          1           0       -5.271568   -1.632354    0.110275
 ---------------------------------------------------------------------
                    Distance matrix (angstroms):
                    1          2          3          4          5
     1  C    0.000000
     2  C    1.412135   0.000000
     3  C    2.399019   1.379789   0.000000
     4  C    2.781143   2.433512   1.417282   0.000000
     5  C    2.422586   2.838539   2.456460   1.416749   0.000000
     6  C    1.416887   2.460131   2.795821   2.404131   1.372491
     7  O    1.316531   2.348638   3.593089   4.097666   3.620083
     8  O    2.319411   1.337462   2.426831   3.698732   4.170257
     9  C    3.629204   2.361102   2.824284   4.240581   5.070488
    10  O    2.299326   3.619563   4.135073   3.689904   2.435786
    11  C    3.624234   4.831235   5.067272   4.263940   2.850437
    12  C    4.188426   3.691813   2.415843   1.408469   2.474845
    13  C    5.177059   4.927340   3.740476   2.503784   3.007323
    14  C    6.489679   6.095417   4.807290   3.741519   4.386832
    15  O    7.474546   7.233759   6.001064   4.819513   5.203382
    16  O    6.939401   6.286953   4.918998   4.169589   5.128949
    17  H    3.388797   2.139599   1.082060   2.158668   3.427909
    18  H    3.404711   3.919155   3.439318   2.176910   1.080626
    19  H    1.874694   3.161891   4.273275   4.513385   3.738896
    20  H    4.326638   3.230130   3.883498   5.293535   6.034683
    21  H    3.994167   2.682285   2.813011   4.167174   5.125634
    22  H    3.993833   2.682305   2.812811   4.166435   5.124198
    23  H    4.311315   5.627326   6.021879   5.312692   3.908605
    24  H    3.992069   5.065908   5.130718   4.196660   2.836652
    25  H    3.990148   5.063754   5.128151   4.193866   2.834690
    26  H    4.738637   3.935236   2.556593   2.124365   3.422953
    27  H    5.192850   5.236005   4.234422   2.846475   2.810681
    28  H    8.336205   8.012535   6.733567   5.631205   6.109727
    29  H    7.878563   7.207209   5.833788   5.108222   6.044477
                    6          7          8          9         10
     6  C    0.000000
     7  O    2.372722   0.000000
     8  O    3.634325   2.611480   0.000000
     9  C    4.819346   4.031048   1.419883   0.000000
    10  O    1.349186   2.600758   4.614025   5.921648   0.000000
    11  C    2.378131   4.022428   5.937935   7.182926   1.423125
    12  C    3.709107   5.504734   4.842165   5.079652   4.904033
    13  C    4.376108   6.475113   6.147502   6.459253   5.351486
    14  C    5.752310   7.799270   7.232553   7.344323   6.731081
    15  O    6.570462   8.759810   8.425051   8.614123   7.383972
    16  O    6.437249   8.252909   7.265692   7.121230   7.553430
    17  H    3.877479   4.481705   2.724199   2.538728   5.217023
    18  H    2.131824   4.500480   5.250468   6.131821   2.732279
    19  H    2.373423   0.969393   3.573576   4.993377   2.068350
    20  H    5.630682   4.434476   2.008356   1.086054   6.616616
    21  H    5.045966   4.543097   2.076886   1.093716   6.211904
    22  H    5.045037   4.542909   2.076971   1.093710   6.210635
    23  H    3.248817   4.412097   6.619263   7.936239   2.014668
    24  H    2.691638   4.536329   6.232149   7.400981   2.073905
    25  H    2.689639   4.535138   6.230582   7.399450   2.073854
    26  H    4.528459   6.027515   4.879970   4.804893   5.800304
    27  H    4.147408   6.427415   6.534635   7.046329   4.896258
    28  H    7.480527   9.632706   9.158762   9.243618   8.321350
    29  H    7.364497   9.191923   8.154217   7.938197   8.460171
                   11         12         13         14         15
    11  C    0.000000
    12  C    5.209488   0.000000
    13  C    5.285021   1.385451   0.000000
    14  C    6.602369   2.404297   1.383198   0.000000
    15  O    7.013592   3.587050   2.318019   1.311995   0.000000
    16  O    7.611587   2.766181   2.348548   1.315635   2.280517
    17  H    6.127906   2.607493   3.991550   4.807474   6.084562
    18  H    2.568064   2.734319   2.729493   4.076521   4.653162
    19  H    3.421801   5.909413   6.722373   8.086835   8.941709
    20  H    7.946230   6.165224   7.543901   8.425696   9.698452
    21  H    7.398324   4.842690   6.208551   7.005568   8.273970
    22  H    7.397136   4.841048   6.208662   6.999536   8.287918
    23  H    1.086071   6.293214   6.354484   7.656186   8.006934
    24  H    1.092882   4.988051   4.929499   6.191166   6.543149
    25  H    1.092903   4.986085   4.925450   6.194410   6.521852
    26  H    6.230216   1.087324   2.109700   2.584686   3.888602
    27  H    4.575384   2.178232   1.080067   2.092845   2.489289
    28  H    7.958031   4.326755   3.161025   1.928600   0.966041
    29  H    8.460396   3.703325   3.176013   1.928422   2.409623
                   16         17         18         19         20
    16  O    0.000000
    17  H    4.626109   0.000000
    18  H    5.045198   4.323584   0.000000
    19  H    8.672809   5.243446   4.445594   0.000000
    20  H    8.170787   3.618319   7.108937   5.399523   0.000000
    21  H    6.720029   2.336597   6.144565   5.473749   1.781134
    22  H    6.682186   2.336930   6.142391   5.473121   1.781113
    23  H    8.687502   7.096701   3.648526   3.629250   8.615394
    24  H    7.227084   6.147514   2.365255   4.029661   8.216183
    25  H    7.258866   6.144914   2.365104   4.029206   8.214983
    26  H    2.387925   2.272938   3.805375   6.561524   5.876531
    27  H    3.287250   4.704563   2.164403   6.518048   8.115526
    28  H    2.406335   6.705397   5.592714   9.847084  10.320267
    29  H    0.965883   5.480702   5.902715   9.610659   8.969362
                   21         22         23         24         25
    21  H    0.000000
    22  H    1.794556   0.000000
    23  H    8.204721   8.203869   0.000000
    24  H    7.669701   7.455288   1.782227   0.000000
    25  H    7.454930   7.666749   1.782328   1.796003   0.000000
    26  H    4.467814   4.463441   7.307487   6.025706   6.025797
    27  H    6.861024   6.867020   5.605552   4.173003   4.158727
    28  H    8.881432   8.853679   8.947297   7.451604   7.481174
    29  H    7.476546   7.495436   9.528047   8.072100   8.051371
                   26         27         28         29
    26  H    0.000000
    27  H    3.099476   0.000000
    28  H    4.448381   3.433208   0.000000
    29  H    3.284917   4.013885   2.172460   0.000000
 Stoichiometry    C11H13O5(1+)
 Framework group  C1[X(C11H13O5)]
 Deg. of freedom    81
 Full point group                 C1      NOp   1
 Largest Abelian subgroup         C1      NOp   1
 Largest concise Abelian subgroup C1      NOp   1
                         Standard orientation:                         
 ---------------------------------------------------------------------
 Center     Atomic      Atomic             Coordinates (Angstroms)
 Number     Number       Type             X           Y           Z
 ---------------------------------------------------------------------
      1          6           0        2.389993    0.197703   -0.000940
      2          6           0        1.916723   -1.132743    0.006483
      3          6           0        0.553491   -1.345800    0.011315
      4          6           0       -0.353723   -0.256927    0.008603
      5          6           0        0.131491    1.074111   -0.000469
      6          6           0        1.486965    1.289536   -0.004140
      7          8           0        3.689679    0.407574   -0.005633
      8          8           0        2.869229   -2.071644    0.007136
      9          6           0        2.458550   -3.430824    0.013594
     10          8           0        2.119801    2.481069   -0.012541
     11          6           0        1.325920    3.662183   -0.015077
     12          6           0       -1.729890   -0.556833    0.011443
     13          6           0       -2.785055    0.340985    0.016158
     14          6           0       -4.092362   -0.110524   -0.001844
     15          8           0       -5.062206    0.768715    0.085756
     16          8           0       -4.363689   -1.392999   -0.113800
     17          1           0        0.159683   -2.353636    0.017211
     18          1           0       -0.552306    1.910864   -0.004861
     19          1           0        3.859271    1.362001   -0.011299
     20          1           0        3.373733   -4.015593    0.012913
     21          1           0        1.879614   -3.656708    0.913608
     22          1           0        1.873884   -3.663638   -0.880926
     23          1           0        2.024824    4.493485   -0.019513
     24          1           0        0.702432    3.698974   -0.911905
     25          1           0        0.706166    3.705229    0.884083
     26          1           0       -1.989121   -1.612802    0.009895
     27          1           0       -2.658415    1.413451    0.034163
     28          1           0       -5.942431    0.423045   -0.111602
     29          1           0       -5.272454   -1.631594    0.110138
 ---------------------------------------------------------------------
 Rotational constants (GHZ):      0.7185227      0.2774871      0.2007548
 Standard basis: 6-311+G(d,p) (5D, 7F)
 There are   446 symmetry adapted cartesian basis functions of A   symmetry.
 There are   430 symmetry adapted basis functions of A   symmetry.
   430 basis functions,   680 primitive gaussians,   446 cartesian basis functions
    59 alpha electrons       59 beta electrons
       nuclear repulsion energy      1077.7878768669 Hartrees.
 NAtoms=   29 NActive=   29 NUniq=   29 SFac= 1.00D+00 NAtFMM=   60 NAOKFM=F Big=F
 Integral buffers will be    131072 words long.
 Raffenetti 2 integral format.
 Two-electron integral symmetry is turned on.
 One-electron integrals computed using PRISM.
 NBasis=   430 RedAO= T EigKep=  1.00D-06  NBF=   430
[...]
 85,0.00003360,-0.00002258,0.00000017,0.00051358,-0.00040619,0.00000280
 ,-0.00000219,0.00017582,-0.00000042,0.00000565,0.00001060,0.00000006,-
 0.00000222,0.00000320,-0.00000147,-0.00000215,0.00000321,0.00000143,0.
 18330275,-0.00119615,-0.00136573,0.00001322,0.00038359,0.00007923,0.00
 000040,0.00001129,0.00000703,-0.00000016,-0.00052914,-0.00004311,0.000
 00015,0.00087970,0.00027428,0.00000249,0.00432770,-0.00150987,-0.00001
 356,0.00022889,0.00023317,-0.00000292,0.00000741,-0.00027368,0.0000007
 1,0.00004525,0.00004899,-0.00000046,-0.01470962,-0.03447248,0.00018530
 ,-0.13553828,-0.20247798,0.00086537,0.00036909,-0.00015559,-0.00000303
 ,-0.00029136,0.00002998,-0.00000184,0.00029644,0.00009442,0.00000065,-
 0.00015724,0.00008180,0.00001504,-0.00005453,-0.00010627,-0.00001361,-
 0.00002238,0.00001412,-0.00000008,-0.00017401,0.00028059,-0.00000369,-
 0.00008870,-0.00027882,0.00000200,-0.00000338,-0.00001674,0.,-0.000007
 48,-0.00000571,-0.00000066,-0.00000753,-0.00000581,0.00000078,0.144922
 90,0.23278405,0.00000604,0.00000252,0.00035241,0.00000002,0.00000023,-
 0.00003409,-0.00000108,0.00000159,-0.00002434,0.00000124,-0.00000042,0
 .00013514,-0.00000180,0.00000326,0.00026296,-0.00001288,0.00000852,0.0
 0051700,-0.00000254,-0.00000144,-0.00012857,-0.00000005,0.00000097,-0.
 00003415,0.,-0.00000021,-0.00000333,0.00003698,0.00010149,0.00000858,0
 .00069315,0.00088348,-0.05124474,-0.00000157,0.00000128,0.00004698,0.0
 0000142,-0.00000095,0.00000943,-0.00000061,-0.00000070,0.00000321,0.00
 000074,-0.00000043,0.00000109,0.,0.00000057,-0.00000267,-0.00000007,-0
 .00000012,-0.00002611,-0.00000155,-0.00000392,-0.00045386,0.00000039,0
 .00000209,0.00017935,-0.00000009,0.00000003,0.00000290,0.00000243,-0.0
 0000004,0.,-0.00000249,0.00000016,-0.00000015,-0.00073951,-0.00102364,
 0.04689688,-0.00018749,0.00059403,-0.00000967,-0.00000366,-0.00025496,
 0.00007947,0.00011213,0.00022637,-0.00003154,0.00028400,-0.00005942,-0
 .00015816,0.00002306,0.00048865,0.00021307,-0.00056567,-0.00342214,0.0
 0047291,0.00006562,0.00026621,0.00013325,-0.00004028,0.00019529,-0.000
 00901,-0.00002249,-0.00007780,-0.00001363,-0.01669468,0.01355545,-0.01
 459807,-0.13204482,-0.00143653,-0.12030600,-0.00033608,0.00019901,0.00
 001301,0.00036065,-0.00005369,-0.00002029,-0.00045069,-0.00013515,-0.0
 0001319,0.00023188,-0.00010364,-0.00002288,0.00011544,0.00018697,0.000
 03033,0.00001621,-0.00000920,0.00000715,-0.00003065,-0.00073957,0.0006
 5592,0.00051095,-0.00038328,-0.00024533,-0.00000383,0.00000747,-0.0000
 0161,0.00000972,0.00000904,0.00000634,0.00001036,0.00000687,-0.0000054
 8,-0.00936711,0.00056430,-0.01755148,0.14599808,0.00125339,-0.00111464
 ,-0.00058070,0.00044241,0.00039689,-0.00018501,-0.00034679,0.00021641,
 -0.00002659,-0.00049142,-0.00056064,-0.00033360,-0.00105434,0.00054684
 ,-0.00015683,0.00329663,0.00615783,0.00170865,-0.00070513,-0.00058916,
 -0.00000732,0.00002119,-0.00013078,0.00004107,0.00000225,0.00002587,0.
 00003735,0.02580113,-0.01560780,0.02630132,-0.00568663,-0.05122272,-0.
 00543893,0.00040241,-0.00017406,-0.00000313,-0.00023187,0.00004758,-0.
 00003323,0.00020991,0.00011254,0.00000829,-0.00011192,0.00005463,0.000
 01922,-0.00003203,-0.00010135,-0.00001489,-0.00002207,0.00000025,0.000
 02620,-0.00064680,-0.00136850,0.00138717,-0.00055252,0.00042148,0.0001
 9897,-0.00000227,-0.00000331,-0.00000042,-0.00000040,-0.00002072,-0.00
 000071,-0.00000202,-0.00000406,-0.00000537,-0.01184033,0.00329882,-0.0
 2077452,-0.00808722,0.05841399,-0.00009720,0.00046336,-0.00023558,-0.0
 0026779,-0.00007839,-0.00002927,0.00012641,-0.00008330,-0.00004649,0.0
 0051383,-0.00008236,-0.00009373,-0.00123507,0.00047455,-0.00021414,-0.
 00033628,-0.00110994,0.00055574,0.00027297,-0.00005542,0.00001792,0.00
 013549,-0.00010590,0.00001292,0.00001322,0.00004095,0.00000336,0.00099
 330,0.00426980,0.00715785,-0.12383773,0.00062072,-0.23910116,-0.000100
 23,0.00011564,0.00003079,0.00002338,0.00003884,0.00000672,0.00005894,0
 .00002990,0.00000214,-0.00001505,-0.00002202,0.00000680,-0.00005376,-0
 .00006843,-0.00000577,0.00003952,-0.00004040,-0.00000104,0.00069218,0.
 00013688,-0.00007297,0.00003499,-0.00011050,0.00000165,0.00000230,-0.0
 0000073,-0.00000028,-0.00000745,-0.00000360,-0.00000163,-0.00000813,0.
 00000207,0.00000216,0.00200621,-0.00052970,0.00190103,0.13619724,-0.00
 298359,0.24906567,-0.00019116,0.00059250,-0.00000050,-0.00000307,-0.00
 025599,-0.00007624,0.00011238,0.00022604,0.00003198,0.00027866,-0.0000
 5856,0.00014970,0.00001154,0.00045124,-0.00021865,-0.00055000,-0.00343
 078,-0.00043722,0.00006510,0.00026489,-0.00013586,-0.00004002,0.000194
 08,0.00000864,-0.00002240,-0.00007736,0.00001390,-0.01666893,0.0136545
 2,0.01457467,-0.13118942,-0.00046504,0.11989105,-0.00033167,0.00019653
 ,-0.00001244,0.00035782,-0.00005735,0.00002525,-0.00044690,-0.00013296
 ,0.00000078,0.00023039,-0.00010356,-0.00001901,0.00011473,0.00018454,0
 .00002184,0.00001639,-0.00000914,-0.00000764,-0.00003633,-0.00074164,-
 0.00065187,0.00051185,-0.00038090,0.00024645,-0.00000375,0.00000746,0.
 00000158,0.00001043,0.00000682,0.00000539,0.00000941,0.00000908,-0.000
 00641,-0.00931435,0.00071880,0.01757432,0.01210846,-0.00162947,-0.0152
 3169,0.14507127,0.00126362,-0.00111194,0.00058892,0.00044482,0.0004014
 0,0.00017553,-0.00034826,0.00022071,0.00002552,-0.00049587,-0.00056181
 ,0.00033012,-0.00106410,0.00050047,0.00014713,0.00328753,0.00615230,-0
 .00178317,-0.00070717,-0.00058968,0.00001518,0.00002089,-0.00013030,-0
 .00004018,0.00000228,0.00002530,-0.00003737,0.02571638,-0.01588556,-0.
 02618520,-0.00468635,-0.05113452,0.00399855,0.00040654,-0.00017890,0.0
 0001130,-0.00022932,0.00005043,0.00002384,0.00020822,0.00011005,-0.000
 00589,-0.00010885,0.00005551,0.00000891,-0.00003365,-0.00009748,-0.000
 01108,-0.00002221,0.00000036,-0.00002579,-0.00065717,-0.00138205,-0.00
 137501,-0.00055428,0.00042020,-0.00019914,-0.00000228,-0.00000326,0.00
 000049,-0.00000212,-0.00000416,0.00000528,-0.00000044,-0.00002072,0.00
 000087,-0.01179587,0.00348081,0.02080007,-0.00151204,0.00117847,-0.000
 95773,-0.00914026,0.05848137,0.00008405,-0.00045715,-0.00023761,0.0002
 6494,0.00007549,-0.00003311,-0.00012718,0.00007884,-0.00004554,-0.0005
 0720,0.00008763,-0.00010216,0.00124081,-0.00048866,-0.00021774,0.00031
 156,0.00106866,0.00057040,-0.00026630,0.00006047,0.00001894,-0.0001359
 2,0.00010674,0.00001270,-0.00001329,-0.00004114,0.00000409,-0.00113250
 ,-0.00410115,0.00735794,0.12347600,-0.00208934,-0.23962089,0.00009622,
 -0.00011282,0.00003212,-0.00002293,-0.00004210,0.00000628,-0.00005841,
 -0.00003292,-0.00001427,0.00001286,0.00002045,0.00000877,0.00005633,0.
 00006895,0.00000817,-0.00003932,0.00004021,-0.00000104,-0.00068664,-0.
 00012382,-0.00006119,-0.00003168,0.00010818,0.00000135,-0.00000224,0.0
 0000077,-0.00000029,0.00000814,-0.00000195,0.00000206,0.00000747,0.000
 00357,-0.00000160,-0.00188398,0.00050480,0.00167825,0.01514198,0.00079
 150,-0.01891465,-0.13570960,0.00451173,0.24959022,-0.00019994,-0.00026
 175,-0.00000284,0.00010397,0.00069976,-0.00002068,-0.00005309,-0.00208
 544,0.00004562,-0.00483850,-0.02968186,-0.00010059,-0.00527569,0.00065
 127,-0.00002688,0.00043099,-0.00173850,0.00000379,0.00024402,0.0002488
 7,0.00000649,0.00004334,0.00004147,-0.00000227,-0.00004985,-0.00009669
 ,0.00000155,-0.00053771,0.00011196,0.00001089,-0.00002531,0.00006235,-
 0.00000101,-0.07302918,-0.06403925,-0.00007583,0.00833188,0.02507891,0
 .00014215,0.00104304,0.00380780,0.00016121,0.00030288,-0.00074028,-0.0
 0008231,-0.00315004,-0.00163499,-0.00043593,-0.00104015,0.00097773,0.0
 0000057,0.00010170,0.00004008,-0.00000165,0.00003444,-0.00009001,0.000
 00095,0.00003436,0.00002596,-0.00000008,-0.00001161,0.00000410,-0.0000
 6126,-0.00001175,0.00000815,0.00006101,0.00000032,-0.00000323,0.000000
 26,0.00000049,0.00000893,-0.00000693,0.00000039,0.00000827,0.00000621,
 0.08124742,-0.00037551,-0.00001789,-0.00001236,0.00021287,0.00063484,0
 .00000408,0.00196976,0.00134041,0.00005436,0.00024121,-0.00472805,-0.0
 0006920,-0.00073143,0.00077759,-0.00010394,0.00053856,-0.00056515,0.00
 002689,0.00028908,0.00012417,-0.00000040,0.00002300,-0.00016742,-0.000
 00499,0.00001474,0.00006971,0.00000006,-0.00011054,0.00015242,0.000007
 96,0.00002147,-0.00003254,0.00000073,-0.06426918,-0.32562982,-0.000427
 07,-0.00497182,-0.01744701,-0.00023360,-0.00046400,-0.00203878,-0.0001
 4275,0.00012636,0.00027024,0.00002949,-0.00184795,0.00102474,0.0001647
 1,-0.00001062,0.00055653,-0.00000513,0.00010857,0.00007770,-0.00000140
 ,0.00000574,-0.00005716,0.00000003,-0.00000351,-0.00000845,-0.00000002
 ,0.00000354,-0.00000551,0.00002142,0.00000469,-0.00000714,-0.00002148,
 -0.00000868,0.00000503,-0.00000014,0.00000255,0.00000903,-0.00001520,0
 .00000323,0.00000977,0.00001513,0.06702887,0.34502610,-0.00006553,0.00
 000589,0.00063777,0.00001981,0.00004168,0.00036294,-0.00004249,0.00002
 271,-0.00376668,0.00022208,0.00013954,0.00725537,-0.00000632,-0.000002
 00,0.00580818,0.00005287,-0.00005243,-0.00013072,0.00005717,0.00001559
 ,-0.00020472,0.00001090,-0.00002542,0.00021046,0.00000468,0.00001419,0
 .00003164,-0.00000068,0.00002389,-0.00094721,0.00000807,-0.00001076,0.
 00010092,-0.00048505,-0.00044908,-0.04793833,0.00059982,-0.00008019,0.
 00751925,-0.00018076,-0.00036274,-0.00461190,0.00033224,0.00007054,0.0
 0010127,-0.00069138,0.00036823,0.00043051,-0.00000539,0.00000068,0.000
 20633,-0.00000128,-0.00000505,-0.00000836,-0.00000307,-0.00000949,-0.0
 0001780,0.00000042,-0.00000053,-0.00001031,-0.00000241,0.00001787,-0.0
 0002112,-0.00000041,-0.00001959,-0.00002042,-0.00000009,0.00000093,-0.
 00001224,0.00000867,0.00001650,0.00000344,-0.00001005,-0.00001470,0.00
 000352,0.00016072,0.00072573,0.02822996,0.00037999,0.00035955,0.000008
 55,-0.00064707,-0.00058599,0.00000599,0.00071485,-0.00039368,-0.000016
 88,-0.00054588,-0.00113827,0.00003589,-0.00042363,0.00084482,-0.000000
 62,-0.00029803,-0.00026512,0.00001299,-0.00028933,-0.00019064,-0.00000
 975,0.00015388,-0.00014428,0.00000070,0.00003696,0.00009317,-0.0000004
 2,0.00016778,0.00001347,0.00000106,-0.00006917,0.00008442,0.00000159,0
 .01132193,0.02469602,0.00042151,-0.06187782,-0.03246647,-0.00098042,-0
 .00001263,-0.03138570,-0.00072591,0.00007579,0.00021449,0.00006845,-0.
 00665654,-0.00165508,0.00076282,0.00013562,-0.00015670,-0.00000272,-0.
 00326923,-0.00104086,0.00007211,-0.00005443,0.00008231,0.00000109,-0.0
 0000149,-0.00000536,0.00000030,-0.00000955,0.00000289,0.00001052,-0.00
 000964,0.00000282,-0.00001041,0.00004177,-0.00001669,-0.00000116,-0.00
 001803,-0.00002749,0.00006608,-0.00001997,-0.00003017,-0.00006752,-0.0
 0365813,0.00232933,-0.00008590,0.06462268,0.00009199,-0.00017234,0.000
 00443,0.00006681,-0.00009103,0.00000604,0.00021389,-0.00014588,0.00000
 605,-0.00143441,-0.00025038,0.00006903,-0.00034597,-0.00014235,-0.0000
 0652,-0.00001069,0.00073669,0.00001367,-0.00023944,-0.00001386,-0.0000
 0718,-0.00002957,0.00010373,-0.00000125,-0.00001714,-0.00005423,-0.000
 00020,0.00004919,-0.00033847,-0.00000054,-0.00012046,0.00016818,0.0000
 0208,-0.00164728,-0.01358829,-0.00022622,-0.04071896,-0.34621206,-0.00
 510970,0.00064520,-0.00820112,-0.00032444,0.00171440,0.00028513,0.0001
 5890,-0.00053725,0.00151001,0.00036906,-0.00001461,0.00008003,-0.00000
 266,-0.00142294,0.00092674,0.00000226,0.00001843,0.00004709,0.00000105
 ,0.00000115,0.00000500,-0.00000004,0.00000423,0.00000191,-0.00000524,0
 .00000399,0.00000217,0.00000527,0.00000413,-0.00001348,-0.00000059,-0.
 00000522,-0.00000078,0.00004160,-0.00000636,-0.00000229,-0.00004350,0.
 00197680,0.00004844,-0.00011765,0.04171377,0.36511742,-0.00008572,-0.0
 0003723,-0.00035385,0.00005659,0.00008092,-0.00005077,-0.00010823,0.00
 004491,-0.00009663,0.00024049,0.00007532,-0.00345874,-0.00005447,-0.00
 009036,-0.00049440,0.00003691,-0.00002741,-0.00037975,0.00006357,0.000
 02427,0.00025446,0.00000403,-0.00002369,0.00004524,0.00000212,0.000007
 82,0.00002572,-0.00000750,0.00002341,0.00005559,0.00000850,-0.00001080
 ,0.00019563,-0.00047237,0.00011084,0.00243620,-0.00025464,-0.00503669,
 -0.03168082,-0.00070799,-0.00090131,-0.00015611,0.00045787,-0.00004033
 ,-0.00239776,-0.00033536,0.00074545,0.00449009,-0.00000271,0.00000068,
 0.00013401,0.00007787,0.00002375,0.00135867,-0.00000086,-0.00001093,0.
 00001224,0.00000002,-0.00000083,-0.00000057,-0.00000007,-0.00000116,-0
 .00000407,-0.00000182,-0.00000147,-0.00000481,-0.00000084,0.00000108,-
 0.00003119,0.00002671,0.00001239,-0.00004205,-0.00002623,-0.00001090,-
 0.00003652,0.00008245,0.00009154,0.00666754,0.00110022,0.00549389,0.02
 271414,-0.00208584,-0.00031043,0.00001331,0.00040436,0.00177455,-0.000
 00615,-0.00138398,0.00068066,-0.00007351,0.00321666,0.00093634,-0.0000
 1908,-0.00090359,-0.00107443,-0.00000631,0.00093798,-0.00151087,0.0000
 0341,0.00182674,0.00053222,-0.00000319,0.00038758,-0.00084367,0.000009
 46,0.00007703,0.00035973,-0.00000375,0.00009773,0.00096300,-0.00000632
 ,0.00020118,-0.00035668,-0.00000120,-0.00557170,0.00104572,0.00041138,
 0.00661823,0.00310108,-0.00002252,-0.04041096,-0.01203405,-0.00529908,
 -0.42308593,-0.14108371,-0.09050160,0.00584193,-0.00409962,0.00057728,
 -0.00004994,0.00000134,-0.00000038,-0.00005463,-0.00003414,-0.00001007
 ,-0.00012533,-0.00030824,0.00000096,0.00001496,-0.00002333,0.00000022,
 -0.00003382,-0.00003445,-0.00000885,-0.00003331,-0.00003522,0.00000999
 ,0.00001050,0.00002444,0.00000015,-0.00004573,0.00001776,0.00001223,-0
 .00004563,0.00001728,-0.00001181,-0.00014792,0.00008753,-0.00006116,0.
 00029824,-0.00002965,-0.00010249,0.45249622,-0.00018328,-0.00003532,-0
 .00001155,0.00006330,0.00017516,-0.00000700,-0.00013389,0.00011738,0.0
 0006122,0.00042366,-0.00012265,0.00031072,-0.00014756,-0.00018424,-0.0
 0004803,0.00016583,-0.00007343,0.00001909,0.00014386,0.00003444,0.0000
 0180,0.00002795,-0.00010949,-0.00001276,0.00002231,0.00006177,0.000001
 88,-0.00001140,-0.00001388,-0.00000319,-0.00000866,0.00000753,-0.00000
 563,0.00019530,0.00101152,-0.00063962,0.00271370,-0.00312575,-0.001113
 95,0.03417568,0.01234065,0.00799932,-0.18712039,-0.11143873,-0.0483541
 0,-0.00131300,0.00002726,-0.00080576,0.00001496,-0.00001138,0.00000620
 ,0.00000822,0.00002420,0.00000293,-0.00000436,-0.00001817,-0.00000323,
 -0.00000078,-0.00000450,-0.00000014,-0.00000125,-0.00000376,0.00000662
 ,-0.00000144,-0.00000405,-0.00000619,-0.00000410,0.00000137,0.00000028
 ,0.00000039,0.00000542,0.00000118,0.00000150,0.00000512,0.00000082,0.0
 0005211,-0.00000907,-0.00008674,0.00019313,0.00024132,0.00005669,0.149
 56599,0.10460996,0.00050455,0.00008966,0.00002042,-0.00015188,-0.00045
 653,0.00006947,0.00041800,-0.00018718,-0.00032390,-0.00088442,-0.00026
 720,-0.00075591,0.00028489,0.00031758,0.00020859,-0.00027918,0.0003441
 1,-0.00000392,-0.00042748,-0.00012389,-0.00003668,-0.00006979,0.000194
 39,0.00004713,-0.00002086,-0.00008428,0.00001333,0.00000106,-0.0001842
 4,-0.00000306,-0.00004035,0.00007132,0.00002993,0.00202549,-0.00050925
 ,0.00254981,-0.00103424,-0.00083311,0.00327374,0.00805959,0.00146291,-
 0.00371456,-0.10374229,-0.04161289,-0.02732362,0.00029499,-0.00081812,
 -0.00351085,0.00000089,0.00000765,-0.00002382,-0.00000208,-0.00001222,
 -0.00001222,0.00002100,0.00007197,0.00001750,-0.00000151,0.00000631,0.
 00000192,0.00000777,0.00000754,-0.00000560,0.00000253,0.00001009,-0.00
 000155,0.00000007,-0.00000557,0.00000108,0.00000845,-0.00000776,-0.000
 00332,0.00000660,-0.00000437,-0.00000525,-0.00004255,0.00000019,0.0001
 5593,-0.00003857,-0.00007061,-0.00096740,0.09550832,0.04123028,0.02814
 593,-0.00169078,-0.00029397,0.00000055,0.00033252,0.00145336,-0.000015
 78,-0.00108026,0.00059173,0.00003741,0.00261211,0.00038261,-0.00010828
 ,-0.00078437,-0.00089067,-0.00004189,0.00074766,-0.00120736,0.00002566
 ,0.00148562,0.00043541,-0.00000343,0.00033055,-0.00070700,-0.00000278,
 0.00006652,0.00030862,0.00000439,0.00007098,0.00075781,0.00000205,0.00
 016247,-0.00028260,0.00000109,-0.00395881,0.00180833,0.00000449,0.0079
 6760,-0.00040212,0.00106741,-0.01173452,-0.00708015,-0.00074514,0.0011
 7869,0.00516170,-0.00003512,-0.46773967,-0.12021091,0.11416389,-0.0000
 3979,0.00000043,0.00000700,-0.00004453,-0.00000804,0.00000105,-0.00009
 972,-0.00024845,0.00000270,0.00001314,-0.00001917,-0.00000022,-0.00002
 893,-0.00002877,-0.00000790,-0.00002810,-0.00002831,0.00000633,0.00000
 694,0.00001994,-0.00000025,-0.00003586,0.00001475,0.00000901,-0.000035
 22,0.00001458,-0.00001003,0.00010962,-0.00021790,0.00016452,-0.0000889
 5,0.00007596,0.00000394,0.00154897,0.00116225,-0.00040899,0.47075612,-
 0.00109874,-0.00014385,0.00006050,0.00011479,0.00094622,-0.00003167,-0
 .00059565,0.00040951,0.00000810,0.00144685,0.00059371,0.00010685,-0.00
 035204,-0.00058115,-0.00001480,0.00050676,-0.00069255,0.00000280,0.000
 95179,0.00026156,-0.00001947,0.00026093,-0.00059131,0.00000672,0.00007
 793,0.00028210,-0.00001001,0.00008506,0.00043765,-0.00001001,0.0000731
 4,-0.00015275,-0.00000296,-0.00132090,0.00061653,0.00030503,0.00452505
 ,-0.00569887,-0.00095014,-0.05170881,-0.01702774,0.01062019,0.00233639
 ,0.00436493,-0.00102909,-0.07560428,-0.06153820,0.01532184,-0.00003510
 ,0.00002920,-0.00000954,-0.00003715,0.00000902,-0.00002012,-0.00007289
 ,-0.00014570,0.00000216,0.00001096,-0.00001542,-0.00000003,-0.00002084
 ,-0.00001805,0.00000584,-0.00002186,-0.00001631,-0.00000361,0.00000350
 ,0.00001157,0.00000057,-0.00002274,0.00001249,0.00001174,-0.00002188,0
 .00001043,-0.00000941,-0.00046138,0.00058728,-0.00022759,-0.00112770,-
 0.00004731,-0.00059982,0.00267086,-0.00350870,0.00136323,0.11943794,0.
 08160570,-0.00051540,-0.00012279,-0.00001593,0.00015082,0.00047754,-0.
 00001643,-0.00037920,0.00018928,-0.00012942,0.00092404,0.00010620,0.00
 018002,-0.00029987,-0.00033019,0.00005155,0.00024179,-0.00036072,-0.00
 006241,0.00044835,0.00013718,0.00002410,0.00007664,-0.00020337,-0.0000
 2400,0.00002103,0.00008919,0.00004387,-0.00000880,0.00021266,-0.000033
 87,0.00005679,-0.00008877,0.00003491,-0.00161417,0.00099170,-0.0006405
 2,0.00240898,-0.00242039,0.00241898,-0.00862295,-0.00471782,-0.0035159
 0,0.00005414,-0.00078325,-0.00330947,0.12209519,0.03072675,-0.03198460
 ,-0.00000195,-0.00000535,0.00004868,-0.00000445,0.00002449,0.00011267,
 -0.00002114,-0.00007607,0.00000819,0.00000240,-0.00000590,0.00000049,-
 0.00000527,-0.00000862,-0.00000607,-0.00000675,-0.00000879,-0.00000713
 ,0.00000025,0.00000599,-0.00000086,-0.00000818,0.00000398,-0.00000612,
 -0.00000875,0.00000709,-0.00000297,0.00017697,-0.00010462,-0.00003524,
 -0.00062958,-0.00025698,0.00176593,-0.00040923,0.00139885,0.00215689,-
 0.11412170,-0.02487729,0.03294466\\-0.00003960,-0.00001178,0.00000137,
 -0.00002328,0.00001598,0.00000362,0.00001311,-0.00004303,-0.00000891,0
 .00005819,0.00003040,0.00000608,-0.00002907,0.00000678,-0.00000728,0.0
 0002653,-0.00001859,0.00000991,0.00006130,0.00001128,-0.00000155,0.000
 02230,-0.00003161,-0.00000932,-0.00002021,0.00002630,0.00000175,-0.000
 01055,0.00004201,-0.00001459,-0.00001284,-0.00001381,0.00001055,-0.000
 05690,0.00000423,0.00000877,0.00004909,0.00000009,0.00001394,-0.000014
 94,0.00000596,-0.00005974,-0.00001517,-0.00001246,0.00000370,-0.000015
 24,-0.00000247,0.00002429,0.00000203,-0.00000560,0.00000103,0.00000043
 ,0.00000924,0.00000456,0.00000288,-0.00000768,0.00000065,0.00000098,0.
 00000153,-0.00000173,0.00000007,0.00000076,-0.00000399,0.00000081,0.00
 000153,-0.00000098,0.00000159,-0.00000382,0.00000270,0.00000166,-0.000
 00093,0.00000094,0.00000006,-0.00000307,-0.00000029,0.00000171,-0.0000
 0083,-0.00000131,-0.00000465,-0.00000044,0.00000356,-0.00000648,0.0000
 1995,0.00001502,0.00000618,-0.00001992,-0.00000275\\\@


 IT IS DOUBTED WHETHER A MAN EVER BRINGS HIS FACULTIES TO BEAR WITH THEIR FULL FORCE
 ON A SUBJECT UNTIL HE WRITES UPON IT.

                          -- CICERO
 Job cpu time:       0 days  2 hours  6 minutes  0.1 seconds.
 File lengths (MBytes):  RWF=    486 Int=      0 D2E=      0 Chk=     15 Scr=      1
 Normal termination of Gaussian 09 at Tue Feb 27 13:01:20 2024.
