 Entering Gaussian System, Link 0=g09
 Input=ccpvTZFAyang.gjf
 Output=ccpvTZFAyang.log
 Initial command:
 /home/c612/g09E/g09/l1.exe "/mnt/ja_sm883/scratch/Gau-1988132.inp" -scrdir="/mnt/ja_sm883/scratch/"
 Default is to use a total of  18 processors:
                               18 via shared-memory
                                1 via Linda
 Entering Link 1 = /home/c612/g09E/g09/l1.exe PID=   1988134.
  
 Copyright (c) 1988,1990,1992,1993,1995,1998,2003,2009,2015,
            Gaussian, Inc.  All Rights Reserved.
  
 This is part of the Gaussian(R) 09 program.  It is based on
 the Gaussian(R) 03 system (copyright 2003, Gaussian, Inc.),
 the Gaussian(R) 98 system (copyright 1998, Gaussian, Inc.),
 the Gaussian(R) 94 system (copyright 1995, Gaussian, Inc.),
 the Gaussian 92(TM) system (copyright 1992, Gaussian, Inc.),
 the Gaussian 90(TM) system (copyright 1990, Gaussian, Inc.),
 the Gaussian 88(TM) system (copyright 1988, Gaussian, Inc.),
 the Gaussian 86(TM) system (copyright 1986, Carnegie Mellon
 University), and the Gaussian 82(TM) system (copyright 1983,
 Carnegie Mellon University). Gaussian is a federally registered
 trademark of Gaussian, Inc.
  
 This software contains proprietary and confidential information,
 including trade secrets, belonging to Gaussian, Inc.
  
 This software is provided under written license and may be
 used, copied, transmitted, or stored only in accord with that
 written license.
  
 The following legend is applicable only to US Government
 contracts under FAR:
  
                    RESTRICTED RIGHTS LEGEND
  
 Use, reproduction and disclosure by the US Government is
 subject to restrictions as set forth in subparagraphs (a)
 and (c) of the Commercial Computer Software - Restricted
 Rights clause in FAR 52.227-19.
  
 Gaussian, Inc.
 340 Quinnipiac St., Bldg. 40, Wallingford CT 06492
  
  
 ---------------------------------------------------------------
 Warning -- This program may not be used in any manner that
 competes with the business of Gaussian, Inc. or will provide
 assistance to any competitor of Gaussian, Inc.  The licensee
 of this program is prohibited from giving any competitor of
 Gaussian, Inc. access to this program.  By using this program,
 the user acknowledges that Gaussian, Inc. is engaged in the
 business of creating and licensing software in the field of
 computational chemistry and represents and warrants to the
 licensee that it is not a competitor of Gaussian, Inc. and that
 it will not use this program in any manner prohibited above.
 ---------------------------------------------------------------
  

 Cite this work as:
 Gaussian 09, Revision E.01,
 M. J. Frisch, G. W. Trucks, H. B. Schlegel, G. E. Scuseria, 
 M. A. Robb, J. R. Cheeseman, G. Scalmani, V. Barone, B. Mennucci, 
 G. A. Petersson, H. Nakatsuji, M. Caricato, X. Li, H. P. Hratchian, 
 A. F. Izmaylov, J. Bloino, G. Zheng, J. L. Sonnenberg, M. Hada, 
 M. Ehara, K. Toyota, R. Fukuda, J. Hasegawa, M. Ishida, T. Nakajima, 
 Y. Honda, O. Kitao, H. Nakai, T. Vreven, J. A. Montgomery, Jr., 
 J. E. Peralta, F. Ogliaro, M. Bearpark, J. J. Heyd, E. Brothers, 
 K. N. Kudin, V. N. Staroverov, T. Keith, R. Kobayashi, J. Normand, 
 K. Raghavachari, A. Rendell, J. C. Burant, S. S. Iyengar, J. Tomasi, 
 M. Cossi, N. Rega, J. M. Millam, M. Klene, J. E. Knox, J. B. Cross, 
 V. Bakken, C. Adamo, J. Jaramillo, R. Gomperts, R. E. Stratmann, 
 O. Yazyev, A. J. Austin, R. Cammi, C. Pomelli, J. W. Ochterski, 
 R. L. Martin, K. Morokuma, V. G. Zakrzewski, G. A. Voth, 
 P. Salvador, J. J. Dannenberg, S. Dapprich, A. D. Daniels, 
 O. Farkas, J. B. Foresman, J. V. Ortiz, J. Cioslowski, 
 and D. J. Fox, Gaussian, Inc., Wallingford CT, 2013.
 
 ******************************************
 Gaussian 09:  ES64L-G09RevE.01 30-Nov-2015
                19-Dec-2024 
 ******************************************
 %chk=ccpvTZFAyang.chk
 ------------------------
 # opt freq m062x/cc-pvtz
 ------------------------
 1/14=-1,18=20,19=15,26=3,38=1/1,3;
 2/9=110,12=2,17=6,18=5,40=1/2;
 3/5=16,6=1,11=2,16=1,25=1,30=1,71=1,74=-55/1,2,3;
 4//1;
 5/5=2,38=5/2;
 6/7=2,8=2,9=2,10=2,28=1/1;
 7//1,2,3,16;
 1/14=-1,18=20,19=15,26=3/3(2);
 2/9=110/2;
 99//99;
 2/9=110/2;
 3/5=16,6=1,11=2,16=1,25=1,30=1,71=1,74=-55/1,2,3;
 4/5=5,16=3,69=1/1;
 5/5=2,38=5/2;
 7//1,2,3,16;
 1/14=-1,18=20,19=15,26=3/3(-5);
 2/9=110/2;
 6/7=2,8=2,9=2,10=2,19=2,28=1/1;
 99/9=1/99;
 ----------
 [No Title]
 ----------
 Symbolic Z-matrix:
 Charge =  1 Multiplicity = 1
 C                     1.47887  -2.02655  -0.00002 
 C                     2.51359  -1.08063   0.00002 
 C                     2.22855   0.31363   0.00003 
 C                     0.91914   0.73612   0. 
 C                    -0.1393   -0.21704  -0.00004 
 C                     0.16892  -1.59932  -0.00003 
 O                     3.77102  -1.49852   0.00005 
 C                    -1.47081   0.26425  -0.00006 
 C                    -2.63334  -0.4885   -0.00002 
 C                    -3.8799    0.13149   0.00002 
 O                    -4.94971  -0.62999  -0.00007 
 O                    -3.98488   1.4433    0.00018 
 O                     3.33637   1.08667   0.00007 
 C                     3.14991   2.49927  -0.00009 
 H                     1.74307  -3.08144  -0.00004 
 H                     0.67957   1.7974   -0.00002 
 H                    -0.62748  -2.34029  -0.00008 
 H                     4.37004  -0.73441   0.00007 
 H                    -1.58832   1.35063  -0.00007 
 H                    -2.64906  -1.57375  -0.00002 
 H                    -5.79366  -0.15544   0.00013 
 H                    -4.89388   1.77513  -0.00042 
 H                     4.15038   2.93436  -0.00014 
 H                     2.60662   2.80979  -0.9023 
 H                     2.60663   2.80999   0.90206 
 

 GradGradGradGradGradGradGradGradGradGradGradGradGradGradGradGradGradGrad
 Berny optimization.
 Initialization pass.
                           ----------------------------
                           !    Initial Parameters    !
                           ! (Angstroms and Degrees)  !
 --------------------------                            --------------------------
 ! Name  Definition              Value          Derivative Info.                !
 --------------------------------------------------------------------------------
 ! R1    R(1,2)                  1.4019         estimate D2E/DX2                !
 ! R2    R(1,6)                  1.3779         estimate D2E/DX2                !
 ! R3    R(1,15)                 1.0875         estimate D2E/DX2                !
 ! R4    R(2,3)                  1.4231         estimate D2E/DX2                !
 ! R5    R(2,7)                  1.325          estimate D2E/DX2                !
 ! R6    R(3,4)                  1.3759         estimate D2E/DX2                !
 ! R7    R(3,13)                 1.3509         estimate D2E/DX2                !
 ! R8    R(4,5)                  1.4244         estimate D2E/DX2                !
 ! R9    R(4,16)                 1.088          estimate D2E/DX2                !
 ! R10   R(5,6)                  1.4162         estimate D2E/DX2                !
 ! R11   R(5,8)                  1.4158         estimate D2E/DX2                !
 ! R12   R(6,17)                 1.0878         estimate D2E/DX2                !
 ! R13   R(7,18)                 0.9709         estimate D2E/DX2                !
 ! R14   R(8,9)                  1.385          estimate D2E/DX2                !
 ! R15   R(8,19)                 1.0927         estimate D2E/DX2                !
 ! R16   R(9,10)                 1.3922         estimate D2E/DX2                !
 ! R17   R(9,20)                 1.0854         estimate D2E/DX2                !
 ! R18   R(10,11)                1.3131         estimate D2E/DX2                !
 ! R19   R(10,12)                1.316          estimate D2E/DX2                !
 ! R20   R(11,21)                0.9682         estimate D2E/DX2                !
 ! R21   R(12,22)                0.9677         estimate D2E/DX2                !
 ! R22   R(13,14)                1.4249         estimate D2E/DX2                !
 ! R23   R(14,23)                1.091          estimate D2E/DX2                !
 ! R24   R(14,24)                1.098          estimate D2E/DX2                !
 ! R25   R(14,25)                1.098          estimate D2E/DX2                !
 ! A1    A(2,1,6)              119.5037         estimate D2E/DX2                !
 ! A2    A(2,1,15)             118.3723         estimate D2E/DX2                !
 ! A3    A(6,1,15)             122.124          estimate D2E/DX2                !
 ! A4    A(1,2,3)              120.879          estimate D2E/DX2                !
 ! A5    A(1,2,7)              119.1835         estimate D2E/DX2                !
 ! A6    A(3,2,7)              119.9375         estimate D2E/DX2                !
 ! A7    A(2,3,4)              119.4368         estimate D2E/DX2                !
 ! A8    A(2,3,13)             113.3534         estimate D2E/DX2                !
 ! A9    A(4,3,13)             127.2098         estimate D2E/DX2                !
 ! A10   A(3,4,5)              120.1133         estimate D2E/DX2                !
 ! A11   A(3,4,16)             120.6032         estimate D2E/DX2                !
 ! A12   A(5,4,16)             119.2835         estimate D2E/DX2                !
 ! A13   A(4,5,6)              119.4337         estimate D2E/DX2                !
 ! A14   A(4,5,8)              118.1229         estimate D2E/DX2                !
 ! A15   A(6,5,8)              122.4434         estimate D2E/DX2                !
 ! A16   A(1,6,5)              120.6336         estimate D2E/DX2                !
 ! A17   A(1,6,17)             119.0019         estimate D2E/DX2                !
 ! A18   A(5,6,17)             120.3645         estimate D2E/DX2                !
 ! A19   A(2,7,18)             109.7114         estimate D2E/DX2                !
 ! A20   A(5,8,9)              127.2035         estimate D2E/DX2                !
 ! A21   A(5,8,19)             116.0467         estimate D2E/DX2                !
 ! A22   A(9,8,19)             116.7498         estimate D2E/DX2                !
 ! A23   A(8,9,10)             120.6326         estimate D2E/DX2                !
 ! A24   A(8,9,20)             123.7532         estimate D2E/DX2                !
 ! A25   A(10,9,20)            115.6142         estimate D2E/DX2                !
 ! A26   A(9,10,11)            118.113          estimate D2E/DX2                !
 ! A27   A(9,10,12)            121.0196         estimate D2E/DX2                !
 ! A28   A(11,10,12)           120.8673         estimate D2E/DX2                !
 ! A29   A(10,11,21)           115.2083         estimate D2E/DX2                !
 ! A30   A(10,12,22)           114.6304         estimate D2E/DX2                !
 ! A31   A(3,13,14)            117.3882         estimate D2E/DX2                !
 ! A32   A(13,14,23)           105.9847         estimate D2E/DX2                !
 ! A33   A(13,14,24)           110.1952         estimate D2E/DX2                !
 ! A34   A(13,14,25)           110.1955         estimate D2E/DX2                !
 ! A35   A(23,14,24)           109.9332         estimate D2E/DX2                !
 ! A36   A(23,14,25)           109.9326         estimate D2E/DX2                !
 ! A37   A(24,14,25)           110.5044         estimate D2E/DX2                !
 ! D1    D(6,1,2,3)             -0.0004         estimate D2E/DX2                !
 ! D2    D(6,1,2,7)            179.9991         estimate D2E/DX2                !
 ! D3    D(15,1,2,3)           179.9991         estimate D2E/DX2                !
 ! D4    D(15,1,2,7)            -0.0014         estimate D2E/DX2                !
 ! D5    D(2,1,6,5)              0.0013         estimate D2E/DX2                !
 ! D6    D(2,1,6,17)           179.9985         estimate D2E/DX2                !
 ! D7    D(15,1,6,5)          -179.9982         estimate D2E/DX2                !
 ! D8    D(15,1,6,17)           -0.001          estimate D2E/DX2                !
 ! D9    D(1,2,3,4)             -0.0004         estimate D2E/DX2                !
 ! D10   D(1,2,3,13)          -180.0            estimate D2E/DX2                !
 ! D11   D(7,2,3,4)           -179.9999         estimate D2E/DX2                !
 ! D12   D(7,2,3,13)             0.0005         estimate D2E/DX2                !
 ! D13   D(1,2,7,18)           179.9998         estimate D2E/DX2                !
 ! D14   D(3,2,7,18)            -0.0007         estimate D2E/DX2                !
 ! D15   D(2,3,4,5)              0.0003         estimate D2E/DX2                !
 ! D16   D(2,3,4,16)          -179.9984         estimate D2E/DX2                !
 ! D17   D(13,3,4,5)           179.9998         estimate D2E/DX2                !
 ! D18   D(13,3,4,16)            0.0011         estimate D2E/DX2                !
 ! D19   D(2,3,13,14)          179.9924         estimate D2E/DX2                !
 ! D20   D(4,3,13,14)           -0.0072         estimate D2E/DX2                !
 ! D21   D(3,4,5,6)              0.0006         estimate D2E/DX2                !
 ! D22   D(3,4,5,8)            179.9994         estimate D2E/DX2                !
 ! D23   D(16,4,5,6)           179.9993         estimate D2E/DX2                !
 ! D24   D(16,4,5,8)            -0.0018         estimate D2E/DX2                !
 ! D25   D(4,5,6,1)             -0.0014         estimate D2E/DX2                !
 ! D26   D(4,5,6,17)          -179.9986         estimate D2E/DX2                !
 ! D27   D(8,5,6,1)            179.9998         estimate D2E/DX2                !
 ! D28   D(8,5,6,17)             0.0026         estimate D2E/DX2                !
 ! D29   D(4,5,8,9)           -179.9964         estimate D2E/DX2                !
 ! D30   D(4,5,8,19)             0.0017         estimate D2E/DX2                !
 ! D31   D(6,5,8,9)              0.0024         estimate D2E/DX2                !
 ! D32   D(6,5,8,19)          -179.9995         estimate D2E/DX2                !
 ! D33   D(5,8,9,10)           179.9967         estimate D2E/DX2                !
 ! D34   D(5,8,9,20)            -0.0025         estimate D2E/DX2                !
 ! D35   D(19,8,9,10)           -0.0014         estimate D2E/DX2                !
 ! D36   D(19,8,9,20)          179.9994         estimate D2E/DX2                !
 ! D37   D(8,9,10,11)          179.9944         estimate D2E/DX2                !
 ! D38   D(8,9,10,12)           -0.0076         estimate D2E/DX2                !
 ! D39   D(20,9,10,11)          -0.0064         estimate D2E/DX2                !
 ! D40   D(20,9,10,12)         179.9916         estimate D2E/DX2                !
 ! D41   D(9,10,11,21)         179.9899         estimate D2E/DX2                !
 ! D42   D(12,10,11,21)         -0.0082         estimate D2E/DX2                !
 ! D43   D(9,10,12,22)         179.9599         estimate D2E/DX2                !
 ! D44   D(11,10,12,22)         -0.0421         estimate D2E/DX2                !
 ! D45   D(3,13,14,23)        -179.9944         estimate D2E/DX2                !
 ! D46   D(3,13,14,24)         -61.0975         estimate D2E/DX2                !
 ! D47   D(3,13,14,25)          61.1093         estimate D2E/DX2                !
 --------------------------------------------------------------------------------
 Trust Radius=3.00D-01 FncErr=1.00D-07 GrdErr=1.00D-06
 Number of steps in this run=    119 maximum allowed number of steps=    150.
 GradGradGradGradGradGradGradGradGradGradGradGradGradGradGradGradGradGrad

                          Input orientation:                          
 ---------------------------------------------------------------------
 Center     Atomic      Atomic             Coordinates (Angstroms)
 Number     Number       Type             X           Y           Z
 ---------------------------------------------------------------------
      1          6           0        1.478868   -2.026550   -0.000015
      2          6           0        2.513587   -1.080628    0.000020
      3          6           0        2.228552    0.313631    0.000032
      4          6           0        0.919141    0.736123    0.000001
      5          6           0       -0.139304   -0.217039   -0.000037
      6          6           0        0.168921   -1.599323   -0.000030
      7          8           0        3.771015   -1.498516    0.000052
      8          6           0       -1.470807    0.264251   -0.000056
      9          6           0       -2.633342   -0.488501   -0.000024
     10          6           0       -3.879900    0.131490    0.000020
     11          8           0       -4.949709   -0.629991   -0.000065
     12          8           0       -3.984884    1.443302    0.000182
     13          8           0        3.336367    1.086668    0.000066
     14          6           0        3.149911    2.499266   -0.000088
     15          1           0        1.743070   -3.081440   -0.000038
     16          1           0        0.679574    1.797397   -0.000016
     17          1           0       -0.627480   -2.340287   -0.000082
     18          1           0        4.370042   -0.734407    0.000071
     19          1           0       -1.588319    1.350632   -0.000069
     20          1           0       -2.649060   -1.573746   -0.000018
     21          1           0       -5.793659   -0.155444    0.000125
     22          1           0       -4.893876    1.775132   -0.000417
     23          1           0        4.150375    2.934363   -0.000135
     24          1           0        2.606624    2.809791   -0.902304
     25          1           0        2.606633    2.809994    0.902061
 ---------------------------------------------------------------------
                    Distance matrix (angstroms):
                    1          2          3          4          5
     1  C    0.000000
     2  C    1.401931   0.000000
     3  C    2.457331   1.423096   0.000000
     4  C    2.818804   2.417197   1.375884   0.000000
     5  C    2.427511   2.789913   2.426593   1.424368   0.000000
     6  C    1.377855   2.401354   2.810956   2.452986   1.416232
     7  O    2.352181   1.325049   2.379720   3.623092   4.114946
     8  C    3.734749   4.205246   3.699689   2.436086   1.415818
     9  C    4.390429   5.180878   4.927619   3.757637   2.508768
    10  C    5.776983   6.507373   6.111167   4.836980   3.756798
    11  O    6.578524   7.476888   7.240018   6.025750   4.828098
    12  O    6.472438   6.971395   6.315294   4.954752   4.188701
    13  O    3.625249   2.318219   1.350866   2.442512   3.712134
    14  C    4.824458   3.636007   2.371899   2.843415   4.265823
    15  H    1.087472   2.144049   3.429606   3.905464   3.427554
    16  H    3.906590   3.412716   2.144970   1.087977   2.174515
    17  H    2.129585   3.384234   3.898743   3.443303   2.178646
    18  H    3.166784   1.888463   2.384190   3.751157   4.538928
    19  H    4.562126   4.768297   3.955234   2.581662   2.134769
    20  H    4.152688   5.186144   5.230037   4.250594   2.852986
    21  H    7.509373   8.358606   8.035913   6.771748   5.654690
    22  H    7.420556   7.938884   7.270830   5.905142   5.155066
    23  H    5.634502   4.335808   3.249868   3.908086   5.322845
    24  H    5.047391   3.994772   2.681038   2.821675   4.185201
    25  H    5.047549   3.994906   2.681125   2.821752   4.185317
                    6          7          8          9         10
     6  C    0.000000
     7  O    3.603504   0.000000
     8  C    2.482260   5.530284   0.000000
     9  C    3.014399   6.483511   1.384963   0.000000
    10  C    4.403256   7.822622   2.412748   1.392227   0.000000
    11  O    5.209604   8.763867   3.591995   2.320684   1.313143
    12  O    5.148948   8.295075   2.776823   2.357653   1.316006
    13  O    4.152982   2.621468   4.877017   6.174025   7.279208
    14  C    5.068011   4.045742   5.132867   6.509437   7.417857
    15  H    2.162086   2.572588   4.639251   5.086877   6.476165
    16  H    3.434891   4.518855   2.640961   4.025015   4.854282
    17  H    1.087788   4.478319   2.737667   2.729944   4.085085
    18  H    4.289230   0.970925   5.925608   7.007700   8.295259
    19  H    3.433675   6.069605   1.092718   2.115297   2.595699
    20  H    2.818097   6.420516   2.183235   1.085359   2.103045
    21  H    6.134912   9.658511   4.343178   3.177819   1.935150
    22  H    6.084313   9.262673   3.741679   3.199070   1.931245
    23  H    6.033762   4.449082   6.223117   7.598343   8.505376
    24  H    5.118279   4.553193   4.890733   6.257003   7.075484
    25  H    5.118426   4.553314   4.890822   6.257089   7.075533
                   11         12         13         14         15
    11  O    0.000000
    12  O    2.286795   0.000000
    13  O    8.462031   7.329932   0.000000
    14  C    8.683092   7.212514   1.424851   0.000000
    15  H    7.127615   7.299503   4.462255   5.755300   0.000000
    16  H    6.130338   4.677879   2.750215   2.568109   4.993403
    17  H    4.648309   5.058429   5.239857   6.139215   2.483710
    18  H    9.320336   8.634072   2.093991   3.456206   3.522719
    19  H    3.901514   2.398356   4.931755   4.875468   5.544494
    20  H    2.486696   3.299546   6.550049   7.086430   4.643700
    21  H    0.968218   2.414054   9.214131   9.329251   8.084784
    22  H    2.405771   0.967666   8.258988   8.076316   8.224071
    23  H    9.773236   8.270774   2.019056   1.090980   6.479584
    24  H    8.351306   6.791889   2.077486   1.097989   6.022160
    25  H    8.351385   6.791858   2.077489   1.097987   6.022335
                   16         17         18         19         20
    16  H    0.000000
    17  H    4.339219   0.000000
    18  H    4.475442   5.249198   0.000000
    19  H    2.311480   3.813934   6.312642   0.000000
    20  H    4.737553   2.162029   7.069108   3.110813   0.000000
    21  H    6.761385   5.609184  10.180178   4.466895   3.449650
    22  H    5.573494   5.927800   9.597810   3.332703   4.031648
    23  H    3.652280   7.116869   3.675340   5.953219   8.158147
    24  H    2.356393   6.147905   4.060205   4.532187   6.903023
    25  H    2.356407   6.148068   4.060293   4.532240   6.903132
                   21         22         23         24         25
    21  H    0.000000
    22  H    2.129961   0.000000
    23  H   10.413007   9.118240   0.000000
    24  H    8.953868   7.625052   1.792371   0.000000
    25  H    8.953894   7.625158   1.792363   1.804365   0.000000
 Stoichiometry    C10H11O4(1+)
 Framework group  C1[X(C10H11O4)]
 Deg. of freedom    69
 Full point group                 C1      NOp   1
 Largest Abelian subgroup         C1      NOp   1
 Largest concise Abelian subgroup C1      NOp   1
                         Standard orientation:                         
 ---------------------------------------------------------------------
 Center     Atomic      Atomic             Coordinates (Angstroms)
 Number     Number       Type             X           Y           Z
 ---------------------------------------------------------------------
      1          6           0       -1.478868   -2.026550    0.000015
      2          6           0       -2.513587   -1.080628   -0.000020
      3          6           0       -2.228552    0.313631   -0.000032
      4          6           0       -0.919141    0.736123   -0.000001
      5          6           0        0.139304   -0.217039    0.000037
      6          6           0       -0.168921   -1.599323    0.000030
      7          8           0       -3.771015   -1.498516   -0.000052
      8          6           0        1.470807    0.264251    0.000056
      9          6           0        2.633342   -0.488501    0.000024
     10          6           0        3.879900    0.131490   -0.000020
     11          8           0        4.949709   -0.629991    0.000065
     12          8           0        3.984884    1.443302   -0.000182
     13          8           0       -3.336367    1.086668   -0.000066
     14          6           0       -3.149911    2.499266    0.000088
     15          1           0       -1.743070   -3.081440    0.000038
     16          1           0       -0.679574    1.797397    0.000016
     17          1           0        0.627480   -2.340287    0.000082
     18          1           0       -4.370042   -0.734407   -0.000071
     19          1           0        1.588319    1.350632    0.000069
     20          1           0        2.649060   -1.573746    0.000018
     21          1           0        5.793659   -0.155444   -0.000125
     22          1           0        4.893876    1.775132    0.000417
     23          1           0       -4.150375    2.934363    0.000135
     24          1           0       -2.606624    2.809791    0.902304
     25          1           0       -2.606633    2.809994   -0.902061
 ---------------------------------------------------------------------
 Rotational constants (GHZ):      1.5411861      0.2877657      0.2428713
 Standard basis: CC-pVTZ (5D, 7F)
 There are   655 symmetry adapted cartesian basis functions of A   symmetry.
 There are   574 symmetry adapted basis functions of A   symmetry.
   574 basis functions,   915 primitive gaussians,   655 cartesian basis functions
    51 alpha electrons       51 beta electrons
       nuclear repulsion energy       841.4641731848 Hartrees.
 NAtoms=   25 NActive=   25 NUniq=   25 SFac= 1.00D+00 NAtFMM=   60 NAOKFM=F Big=F
 Integral buffers will be    131072 words long.
 Raffenetti 2 integral format.
 Two-electron integral symmetry is turned on.
 One-electron integrals computed using PRISM.
 NBasis=   574 RedAO= T EigKep=  3.43D-05  NBF=   574
 NBsUse=   574 1.00D-06 EigRej= -1.00D+00 NBFU=   574
 ExpMin= 1.03D-01 ExpMax= 1.53D+04 ExpMxC= 5.22D+02 IAcc=1 IRadAn=         1 AccDes= 0.00D+00
 Harris functional with IExCor= 1009 and IRadAn=       1 diagonalized for initial guess.
 HarFok:  IExCor= 1009 AccDes= 0.00D+00 IRadAn=         1 IDoV= 1 UseB2=F ITyADJ=14
 ICtDFT=  3500011 ScaDFX=  1.000000  1.000000  1.000000  1.000000
 FoFCou: FMM=F IPFlag=           0 FMFlag=      100000 FMFlg1=           0
         NFxFlg=           0 DoJE=T BraDBF=F KetDBF=T FulRan=T
         wScrn=  0.000000 ICntrl=     500 IOpCl=  0 I1Cent=   200000004 NGrid=           0
         NMat0=    1 NMatS0=      1 NMatT0=    0 NMatD0=    1 NMtDS0=    0 NMtDT0=    0
 Petite list used in FoFCou.
 Requested convergence on RMS density matrix=1.00D-08 within 128 cycles.
 Requested convergence on MAX density matrix=1.00D-06.
 Requested convergence on             energy=1.00D-06.
 No special actions if energy rises.
 Integral accuracy reduced to 1.0D-05 until final iterations.
 Initial convergence to 1.0D-05 achieved.  Increase integral accuracy.
 SCF Done:  E(RM062X) =  -688.305640128     A.U. after   15 cycles
            NFock= 15  Conv=0.57D-08     -V/T= 2.0058

 **********************************************************************

            Population analysis using the SCF density.

 **********************************************************************

 Orbital symmetries:
       Occupied  (A) (A) (A) (A) (A) (A) (A) (A) (A) (A) (A) (A)
                 (A) (A) (A) (A) (A) (A) (A) (A) (A) (A) (A) (A)
                 (A) (A) (A) (A) (A) (A) (A) (A) (A) (A) (A) (A)
                 (A) (A) (A) (A) (A) (A) (A) (A) (A) (A) (A) (A)
                 (A) (A) (A)
       Virtual   (A) (A) (A) (A) (A) (A) (A) (A) (A) (A) (A) (A)
                 (A) (A) (A) (A) (A) (A) (A) (A) (A) (A) (A) (A)
                 (A) (A) (A) (A) (A) (A) (A) (A) (A) (A) (A) (A)
                 (A) (A) (A) (A) (A) (A) (A) (A) (A) (A) (A) (A)
                 (A) (A) (A) (A) (A) (A) (A) (A) (A) (A) (A) (A)
                 (A) (A) (A) (A) (A) (A) (A) (A) (A) (A) (A) (A)
                 (A) (A) (A) (A) (A) (A) (A) (A) (A) (A) (A) (A)
                 (A) (A) (A) (A) (A) (A) (A) (A) (A) (A) (A) (A)
                 (A) (A) (A) (A) (A) (A) (A) (A) (A) (A) (A) (A)
                 (A) (A) (A) (A) (A) (A) (A) (A) (A) (A) (A) (A)
                 (A) (A) (A) (A) (A) (A) (A) (A) (A) (A) (A) (A)
                 (A) (A) (A) (A) (A) (A) (A) (A) (A) (A) (A) (A)
                 (A) (A) (A) (A) (A) (A) (A) (A) (A) (A) (A) (A)
                 (A) (A) (A) (A) (A) (A) (A) (A) (A) (A) (A) (A)
                 (A) (A) (A) (A) (A) (A) (A) (A) (A) (A) (A) (A)
                 (A) (A) (A) (A) (A) (A) (A) (A) (A) (A) (A) (A)
                 (A) (A) (A) (A) (A) (A) (A) (A) (A) (A) (A) (A)
                 (A) (A) (A) (A) (A) (A) (A) (A) (A) (A) (A) (A)
                 (A) (A) (A) (A) (A) (A) (A) (A) (A) (A) (A) (A)
                 (A) (A) (A) (A) (A) (A) (A) (A) (A) (A) (A) (A)
                 (A) (A) (A) (A) (A) (A) (A) (A) (A) (A) (A) (A)
                 (A) (A) (A) (A) (A) (A) (A) (A) (A) (A) (A) (A)
                 (A) (A) (A) (A) (A) (A) (A) (A) (A) (A) (A) (A)
                 (A) (A) (A) (A) (A) (A) (A) (A) (A) (A) (A) (A)
                 (A) (A) (A) (A) (A) (A) (A) (A) (A) (A) (A) (A)
                 (A) (A) (A) (A) (A) (A) (A) (A) (A) (A) (A) (A)
                 (A) (A) (A) (A) (A) (A) (A) (A) (A) (A) (A) (A)
                 (A) (A) (A) (A) (A) (A) (A) (A) (A) (A) (A) (A)
                 (A) (A) (A) (A) (A) (A) (A) (A) (A) (A) (A) (A)
                 (A) (A) (A) (A) (A) (A) (A) (A) (A) (A) (A) (A)
                 (A) (A) (A) (A) (A) (A) (A) (A) (A) (A) (A) (A)
                 (A) (A) (A) (A) (A) (A) (A) (A) (A) (A) (A) (A)
                 (A) (A) (A) (A) (A) (A) (A) (A) (A) (A) (A) (A)
                 (A) (A) (A) (A) (A) (A) (A) (A) (A) (A) (A) (A)
                 (A) (A) (A) (A) (A) (A) (A) (A) (A) (A) (A) (A)
                 (A) (A) (A) (A) (A) (A) (A) (A) (A) (A) (A) (A)
                 (A) (A) (A) (A) (A) (A) (A) (A) (A) (A) (A) (A)
                 (A) (A) (A) (A) (A) (A) (A) (A) (A) (A) (A) (A)
                 (A) (A) (A) (A) (A) (A) (A) (A) (A) (A) (A) (A)
                 (A) (A) (A) (A) (A) (A) (A) (A) (A) (A) (A) (A)
                 (A) (A) (A) (A) (A) (A) (A) (A) (A) (A) (A) (A)
                 (A) (A) (A) (A) (A) (A) (A) (A) (A) (A) (A) (A)
                 (A) (A) (A) (A) (A) (A) (A) (A) (A) (A) (A) (A)
                 (A) (A) (A) (A) (A) (A) (A)
 The electronic state is 1-A.
 Alpha  occ. eigenvalues --  -19.86600 -19.86413 -19.79302 -19.79172 -10.87882
 Alpha  occ. eigenvalues --  -10.76079 -10.74264 -10.73853 -10.70938 -10.70212
 Alpha  occ. eigenvalues --  -10.69761 -10.69481 -10.69353 -10.67846  -1.44692
 Alpha  occ. eigenvalues --   -1.36475  -1.34755  -1.31640  -1.11362  -1.07359
 Alpha  occ. eigenvalues --   -1.00931  -0.99400  -0.94345  -0.91810  -0.88504
 Alpha  occ. eigenvalues --   -0.86441  -0.83024  -0.79906  -0.78015  -0.75989
 Alpha  occ. eigenvalues --   -0.73451  -0.72451  -0.71400  -0.69688  -0.68395
 Alpha  occ. eigenvalues --   -0.65551  -0.64793  -0.64280  -0.63300  -0.63043
 Alpha  occ. eigenvalues --   -0.62646  -0.61953  -0.58955  -0.58644  -0.57678
 Alpha  occ. eigenvalues --   -0.54525  -0.54008  -0.53964  -0.49653  -0.43899
 Alpha  occ. eigenvalues --   -0.39803
 Alpha virt. eigenvalues --   -0.21739  -0.11926  -0.10260  -0.09843  -0.05100
 Alpha virt. eigenvalues --   -0.04517  -0.03471  -0.03204  -0.02839  -0.00352
 Alpha virt. eigenvalues --    0.00656   0.03242   0.03950   0.04269   0.04745
 Alpha virt. eigenvalues --    0.06488   0.07511   0.08045   0.09025   0.10797
 Alpha virt. eigenvalues --    0.12805   0.13690   0.15784   0.15938   0.16096
 Alpha virt. eigenvalues --    0.16513   0.18361   0.18439   0.18974   0.19844
 Alpha virt. eigenvalues --    0.21621   0.22014   0.22631   0.23507   0.23775
 Alpha virt. eigenvalues --    0.23833   0.25096   0.25663   0.26497   0.27053
 Alpha virt. eigenvalues --    0.27923   0.28384   0.28984   0.29851   0.30444
 Alpha virt. eigenvalues --    0.31338   0.32085   0.32554   0.32692   0.33449
 Alpha virt. eigenvalues --    0.34034   0.34407   0.35855   0.36596   0.37745
 Alpha virt. eigenvalues --    0.37990   0.38521   0.38808   0.39639   0.40768
 Alpha virt. eigenvalues --    0.41826   0.42291   0.42437   0.43232   0.44788
 Alpha virt. eigenvalues --    0.45430   0.46148   0.47190   0.47777   0.49280
 Alpha virt. eigenvalues --    0.49829   0.50475   0.51404   0.52027   0.53121
 Alpha virt. eigenvalues --    0.54491   0.56337   0.57984   0.59329   0.59397
 Alpha virt. eigenvalues --    0.60208   0.60692   0.60859   0.61851   0.62008
 Alpha virt. eigenvalues --    0.63160   0.64613   0.64751   0.65107   0.66112
 Alpha virt. eigenvalues --    0.66620   0.68064   0.69791   0.70310   0.71049
 Alpha virt. eigenvalues --    0.71251   0.73107   0.73885   0.74679   0.74697
 Alpha virt. eigenvalues --    0.76103   0.77411   0.78795   0.79027   0.79526
 Alpha virt. eigenvalues --    0.82184   0.82635   0.83365   0.84297   0.85884
 Alpha virt. eigenvalues --    0.86905   0.88259   0.88920   0.89815   0.89963
 Alpha virt. eigenvalues --    0.90905   0.91569   0.92322   0.93519   0.96005
 Alpha virt. eigenvalues --    0.96651   0.97635   0.97866   0.98789   1.00170
 Alpha virt. eigenvalues --    1.00927   1.01674   1.03952   1.05819   1.06131
 Alpha virt. eigenvalues --    1.10717   1.10809   1.11283   1.12066   1.12945
 Alpha virt. eigenvalues --    1.13657   1.14388   1.15209   1.18027   1.18146
 Alpha virt. eigenvalues --    1.18805   1.19829   1.21783   1.22003   1.22905
 Alpha virt. eigenvalues --    1.23483   1.25512   1.25836   1.26046   1.26314
 Alpha virt. eigenvalues --    1.28270   1.28796   1.31400   1.31878   1.32832
 Alpha virt. eigenvalues --    1.33864   1.35891   1.37411   1.38920   1.39530
 Alpha virt. eigenvalues --    1.40642   1.43442   1.44075   1.45725   1.48557
 Alpha virt. eigenvalues --    1.49632   1.50490   1.53155   1.54483   1.56228
 Alpha virt. eigenvalues --    1.58040   1.58443   1.59351   1.62211   1.64227
 Alpha virt. eigenvalues --    1.67137   1.71475   1.72536   1.74319   1.77801
 Alpha virt. eigenvalues --    1.78857   1.82224   1.83545   1.86209   1.88348
 Alpha virt. eigenvalues --    1.88500   1.89911   1.90877   1.91793   1.92293
 Alpha virt. eigenvalues --    1.92987   1.95071   1.96916   1.97977   1.99318
 Alpha virt. eigenvalues --    2.01950   2.05344   2.06019   2.07814   2.08339
 Alpha virt. eigenvalues --    2.09574   2.10714   2.11244   2.15026   2.15456
 Alpha virt. eigenvalues --    2.16408   2.19592   2.19967   2.20270   2.22349
 Alpha virt. eigenvalues --    2.23251   2.24144   2.25663   2.26905   2.28787
 Alpha virt. eigenvalues --    2.31719   2.32701   2.33404   2.34029   2.35778
 Alpha virt. eigenvalues --    2.36001   2.37815   2.39756   2.40444   2.41716
 Alpha virt. eigenvalues --    2.42734   2.43846   2.44630   2.46123   2.48483
 Alpha virt. eigenvalues --    2.49384   2.51975   2.53309   2.54241   2.55104
 Alpha virt. eigenvalues --    2.57353   2.58114   2.59238   2.59533   2.59710
 Alpha virt. eigenvalues --    2.60626   2.62469   2.64021   2.65456   2.65468
 Alpha virt. eigenvalues --    2.66482   2.67011   2.69544   2.69679   2.72653
 Alpha virt. eigenvalues --    2.72903   2.73161   2.74594   2.75707   2.76310
 Alpha virt. eigenvalues --    2.77683   2.78101   2.79751   2.80205   2.80496
 Alpha virt. eigenvalues --    2.82182   2.83397   2.84442   2.84564   2.85358
 Alpha virt. eigenvalues --    2.87350   2.87976   2.89130   2.89986   2.90260
 Alpha virt. eigenvalues --    2.90521   2.91334   2.93029   2.93328   2.94111
 Alpha virt. eigenvalues --    2.94282   2.95168   2.96020   2.96856   2.97424
 Alpha virt. eigenvalues --    2.98394   2.98836   2.99698   3.00967   3.01531
 Alpha virt. eigenvalues --    3.02310   3.02638   3.04004   3.06680   3.08506
 Alpha virt. eigenvalues --    3.08623   3.09920   3.11147   3.11504   3.12385
 Alpha virt. eigenvalues --    3.13503   3.13725   3.14610   3.16927   3.17281
 Alpha virt. eigenvalues --    3.17781   3.17934   3.17974   3.20192   3.21711
 Alpha virt. eigenvalues --    3.23230   3.23588   3.23602   3.26081   3.26612
 Alpha virt. eigenvalues --    3.27225   3.27509   3.28154   3.28766   3.29787
 Alpha virt. eigenvalues --    3.29790   3.31138   3.32875   3.35301   3.35872
 Alpha virt. eigenvalues --    3.36782   3.37957   3.39502   3.40172   3.40593
 Alpha virt. eigenvalues --    3.42813   3.44049   3.44771   3.46230   3.46810
 Alpha virt. eigenvalues --    3.47614   3.49087   3.49670   3.50921   3.52183
 Alpha virt. eigenvalues --    3.54096   3.54156   3.56516   3.56906   3.60538
 Alpha virt. eigenvalues --    3.61192   3.62112   3.62444   3.62609   3.63918
 Alpha virt. eigenvalues --    3.65570   3.65712   3.66293   3.67593   3.69521
 Alpha virt. eigenvalues --    3.70235   3.70574   3.71268   3.71917   3.72391
 Alpha virt. eigenvalues --    3.75024   3.75070   3.76726   3.77923   3.78696
 Alpha virt. eigenvalues --    3.79957   3.80217   3.82059   3.82455   3.83109
 Alpha virt. eigenvalues --    3.83712   3.84764   3.88209   3.89452   3.91007
 Alpha virt. eigenvalues --    3.91180   3.91803   3.92287   3.94495   3.95316
 Alpha virt. eigenvalues --    3.96123   3.97245   3.98952   4.00268   4.01220
 Alpha virt. eigenvalues --    4.01626   4.02143   4.03812   4.05905   4.07210
 Alpha virt. eigenvalues --    4.07266   4.07736   4.08170   4.10078   4.11488
 Alpha virt. eigenvalues --    4.12390   4.14841   4.16350   4.17069   4.19261
 Alpha virt. eigenvalues --    4.22305   4.22472   4.22851   4.23278   4.25966
 Alpha virt. eigenvalues --    4.28442   4.29856   4.30710   4.34772   4.37471
 Alpha virt. eigenvalues --    4.39162   4.41711   4.43364   4.47730   4.47971
 Alpha virt. eigenvalues --    4.49357   4.52065   4.53134   4.54064   4.56173
 Alpha virt. eigenvalues --    4.57617   4.59789   4.61325   4.62033   4.63693
 Alpha virt. eigenvalues --    4.63903   4.70335   4.70916   4.72455   4.76409
 Alpha virt. eigenvalues --    4.77021   4.78067   4.79098   4.81954   4.82841
 Alpha virt. eigenvalues --    4.85538   4.88491   4.90793   4.91209   4.95073
 Alpha virt. eigenvalues --    4.97995   5.02114   5.02153   5.02446   5.05022
 Alpha virt. eigenvalues --    5.08453   5.11852   5.13185   5.13601   5.18982
 Alpha virt. eigenvalues --    5.19936   5.21117   5.26575   5.28455   5.29069
 Alpha virt. eigenvalues --    5.30135   5.31890   5.33309   5.42238   5.42468
 Alpha virt. eigenvalues --    5.46336   5.47172   5.54045   5.57252   5.59786
 Alpha virt. eigenvalues --    5.64333   5.66771   5.67993   5.69079   5.70917
 Alpha virt. eigenvalues --    5.72966   5.76289   5.77722   5.83377   5.85009
 Alpha virt. eigenvalues --    5.91763   5.93051   5.98755   6.00834   6.09202
 Alpha virt. eigenvalues --    6.14953   6.19191   6.24213   6.28448   6.28508
 Alpha virt. eigenvalues --    6.28520   6.32468   6.38532   6.42853   6.43629
 Alpha virt. eigenvalues --    6.46109   6.46293   6.52775   6.54123   6.54953
 Alpha virt. eigenvalues --    6.60602   6.64220   6.65851   6.66258   6.69786
 Alpha virt. eigenvalues --    6.70999   6.72265   6.79353   6.79538   6.94733
 Alpha virt. eigenvalues --    6.99601   7.03827   7.10029   7.16714   7.21096
 Alpha virt. eigenvalues --    7.27578   7.28181   7.33133   7.39705   8.83066
 Alpha virt. eigenvalues --   10.41401  11.24214  11.91151  12.28970  12.35574
 Alpha virt. eigenvalues --   12.41566  12.47778  12.65140  12.98741  13.33519
 Alpha virt. eigenvalues --   13.55181  14.19975  15.13102
          Condensed to atoms (all electrons):
               1          2          3          4          5          6
     1  C    4.955963   0.481671  -0.034442  -0.038058  -0.050402   0.521211
     2  C    0.481671   4.683242   0.348543   0.022172  -0.038208  -0.072882
     3  C   -0.034442   0.348543   5.051181   0.295811   0.010364  -0.017759
     4  C   -0.038058   0.022172   0.295811   5.382159   0.267176  -0.064199
     5  C   -0.050402  -0.038208   0.010364   0.267176   5.079504   0.422370
     6  C    0.521211  -0.072882  -0.017759  -0.064199   0.422370   4.887289
     7  O   -0.065305   0.440021  -0.081196   0.012052  -0.001568   0.004278
     8  C    0.003943  -0.000365   0.003496  -0.026276   0.414868  -0.037745
     9  C    0.000416  -0.000003  -0.000334   0.008080  -0.062824  -0.013741
    10  C    0.000031  -0.000006   0.000025  -0.000678   0.003256  -0.000037
    11  O   -0.000001  -0.000000  -0.000000  -0.000002  -0.000137  -0.000013
    12  O   -0.000000  -0.000000  -0.000001  -0.000153   0.001080   0.000075
    13  O    0.003642  -0.047387   0.378551  -0.088717   0.007772   0.000312
    14  C   -0.000364   0.003239  -0.063102  -0.002047  -0.001687   0.000156
    15  H    0.424452  -0.053035   0.011547  -0.003544   0.007947  -0.041737
    16  H    0.000027   0.002952  -0.032153   0.419624  -0.051063   0.001619
    17  H   -0.034128   0.007706  -0.002244   0.005686  -0.051133   0.426716
    18  H    0.003329  -0.026290  -0.023163   0.004874  -0.000724  -0.000453
    19  H   -0.000090  -0.000120   0.001318  -0.000854  -0.047452   0.004036
    20  H   -0.000015  -0.000022   0.000019   0.000613  -0.005821   0.001563
    21  H    0.000000  -0.000000  -0.000000  -0.000001   0.000033   0.000002
    22  H    0.000000  -0.000000  -0.000000  -0.000001   0.000009   0.000001
    23  H    0.000032   0.000208   0.004255  -0.000363   0.000149  -0.000006
    24  H   -0.000046   0.000174  -0.007825   0.004815  -0.000913  -0.000019
    25  H   -0.000046   0.000174  -0.007830   0.004813  -0.000912  -0.000019
               7          8          9         10         11         12
     1  C   -0.065305   0.003943   0.000416   0.000031  -0.000001  -0.000000
     2  C    0.440021  -0.000365  -0.000003  -0.000006  -0.000000  -0.000000
     3  C   -0.081196   0.003496  -0.000334   0.000025  -0.000000  -0.000001
     4  C    0.012052  -0.026276   0.008080  -0.000678  -0.000002  -0.000153
     5  C   -0.001568   0.414868  -0.062824   0.003256  -0.000137   0.001080
     6  C    0.004278  -0.037745  -0.013741  -0.000037  -0.000013   0.000075
     7  O    7.640556   0.000012  -0.000000  -0.000000   0.000000   0.000000
     8  C    0.000012   4.985536   0.361158  -0.052511   0.005911   0.019966
     9  C   -0.000000   0.361158   5.333679   0.476164  -0.091635  -0.133806
    10  C   -0.000000  -0.052511   0.476164   4.301319   0.487402   0.489509
    11  O    0.000000   0.005911  -0.091635   0.487402   7.542018  -0.056739
    12  O    0.000000   0.019966  -0.133806   0.489509  -0.056739   7.561839
    13  O   -0.012112  -0.000252   0.000001  -0.000000   0.000000  -0.000000
    14  C   -0.000260   0.000126   0.000003  -0.000000   0.000000   0.000000
    15  H    0.003883  -0.000077  -0.000005  -0.000000   0.000000  -0.000000
    16  H   -0.000025   0.005353   0.000898  -0.000112  -0.000000  -0.000118
    17  H   -0.000100  -0.006369   0.002714   0.000104  -0.000107  -0.000002
    18  H    0.332988   0.000013  -0.000000  -0.000000   0.000000   0.000000
    19  H   -0.000001   0.426485  -0.050445  -0.007490   0.000470   0.018442
    20  H    0.000000  -0.011346   0.387046  -0.031759   0.004412   0.001747
    21  H    0.000000  -0.001246   0.012410  -0.025293   0.327049  -0.005180
    22  H   -0.000000  -0.002150   0.015189  -0.025392  -0.003720   0.326764
    23  H    0.000016  -0.000003  -0.000000   0.000000  -0.000000   0.000000
    24  H   -0.000046  -0.000011   0.000002   0.000000  -0.000000   0.000000
    25  H   -0.000046  -0.000011   0.000002   0.000000  -0.000000   0.000000
              13         14         15         16         17         18
     1  C    0.003642  -0.000364   0.424452   0.000027  -0.034128   0.003329
     2  C   -0.047387   0.003239  -0.053035   0.002952   0.007706  -0.026290
     3  C    0.378551  -0.063102   0.011547  -0.032153  -0.002244  -0.023163
     4  C   -0.088717  -0.002047  -0.003544   0.419624   0.005686   0.004874
     5  C    0.007772  -0.001687   0.007947  -0.051063  -0.051133  -0.000724
     6  C    0.000312   0.000156  -0.041737   0.001619   0.426716  -0.000453
     7  O   -0.012112  -0.000260   0.003883  -0.000025  -0.000100   0.332988
     8  C   -0.000252   0.000126  -0.000077   0.005353  -0.006369   0.000013
     9  C    0.000001   0.000003  -0.000005   0.000898   0.002714  -0.000000
    10  C   -0.000000  -0.000000  -0.000000  -0.000112   0.000104  -0.000000
    11  O    0.000000   0.000000   0.000000  -0.000000  -0.000107   0.000000
    12  O   -0.000000   0.000000  -0.000000  -0.000118  -0.000002   0.000000
    13  O    7.851894   0.274195  -0.000094  -0.006658   0.000010   0.024063
    14  C    0.274195   4.758549   0.000018   0.006107  -0.000001  -0.001382
    15  H   -0.000094   0.000018   0.506408   0.000022  -0.007723  -0.000664
    16  H   -0.006658   0.006107   0.000022   0.500621  -0.000197   0.000065
    17  H    0.000010  -0.000001  -0.007723  -0.000197   0.530938   0.000026
    18  H    0.024063  -0.001382  -0.000664   0.000065   0.000026   0.396473
    19  H    0.000012   0.000004   0.000013   0.002514  -0.000069  -0.000001
    20  H   -0.000000   0.000000   0.000012   0.000015   0.002352   0.000000
    21  H   -0.000000  -0.000000   0.000000   0.000000   0.000003   0.000000
    22  H    0.000000  -0.000000   0.000000   0.000004   0.000001   0.000000
    23  H   -0.027598   0.402724  -0.000000  -0.000247  -0.000000  -0.000280
    24  H   -0.040943   0.398701  -0.000000  -0.000018   0.000001   0.000167
    25  H   -0.040940   0.398707  -0.000000  -0.000017   0.000001   0.000167
              19         20         21         22         23         24
     1  C   -0.000090  -0.000015   0.000000   0.000000   0.000032  -0.000046
     2  C   -0.000120  -0.000022  -0.000000  -0.000000   0.000208   0.000174
     3  C    0.001318   0.000019  -0.000000  -0.000000   0.004255  -0.007825
     4  C   -0.000854   0.000613  -0.000001  -0.000001  -0.000363   0.004815
     5  C   -0.047452  -0.005821   0.000033   0.000009   0.000149  -0.000913
     6  C    0.004036   0.001563   0.000002   0.000001  -0.000006  -0.000019
     7  O   -0.000001   0.000000   0.000000  -0.000000   0.000016  -0.000046
     8  C    0.426485  -0.011346  -0.001246  -0.002150  -0.000003  -0.000011
     9  C   -0.050445   0.387046   0.012410   0.015189  -0.000000   0.000002
    10  C   -0.007490  -0.031759  -0.025293  -0.025392   0.000000   0.000000
    11  O    0.000470   0.004412   0.327049  -0.003720  -0.000000  -0.000000
    12  O    0.018442   0.001747  -0.005180   0.326764   0.000000   0.000000
    13  O    0.000012  -0.000000  -0.000000   0.000000  -0.027598  -0.040943
    14  C    0.000004   0.000000  -0.000000  -0.000000   0.402724   0.398701
    15  H    0.000013   0.000012   0.000000   0.000000  -0.000000  -0.000000
    16  H    0.002514   0.000015   0.000000   0.000004  -0.000247  -0.000018
    17  H   -0.000069   0.002352   0.000003   0.000001  -0.000000   0.000001
    18  H   -0.000001   0.000000   0.000000   0.000000  -0.000280   0.000167
    19  H    0.494828   0.002517  -0.000071  -0.001034   0.000001  -0.000024
    20  H    0.002517   0.464197  -0.000282  -0.000223  -0.000000   0.000000
    21  H   -0.000071  -0.000282   0.411759   0.007657  -0.000000   0.000000
    22  H   -0.001034  -0.000223   0.007657   0.407829  -0.000000  -0.000000
    23  H    0.000001  -0.000000  -0.000000  -0.000000   0.517777  -0.024078
    24  H   -0.000024   0.000000   0.000000  -0.000000  -0.024078   0.622521
    25  H   -0.000024   0.000000   0.000000  -0.000000  -0.024082  -0.068233
              25
     1  C   -0.000046
     2  C    0.000174
     3  C   -0.007830
     4  C    0.004813
     5  C   -0.000912
     6  C   -0.000019
     7  O   -0.000046
     8  C   -0.000011
     9  C    0.000002
    10  C    0.000000
    11  O   -0.000000
    12  O    0.000000
    13  O   -0.040940
    14  C    0.398707
    15  H   -0.000000
    16  H   -0.000017
    17  H    0.000001
    18  H    0.000167
    19  H   -0.000024
    20  H    0.000000
    21  H    0.000000
    22  H   -0.000000
    23  H   -0.024082
    24  H   -0.068233
    25  H    0.622512
 Mulliken charges:
               1
     1  C   -0.171820
     2  C    0.248217
     3  C    0.164939
     4  C   -0.202985
     5  C    0.098315
     6  C   -0.021019
     7  O   -0.273144
     8  C   -0.088506
     9  C   -0.244968
    10  C    0.385468
    11  O   -0.214908
    12  O   -0.223422
    13  O   -0.275750
    14  C   -0.173685
    15  H    0.152580
    16  H    0.150786
    17  H    0.125814
    18  H    0.290793
    19  H    0.157038
    20  H    0.184971
    21  H    0.273159
    22  H    0.275065
    23  H    0.151496
    24  H    0.115779
    25  H    0.115786
 Sum of Mulliken charges =   1.00000
 Mulliken charges with hydrogens summed into heavy atoms:
               1
     1  C   -0.019240
     2  C    0.248217
     3  C    0.164939
     4  C   -0.052199
     5  C    0.098315
     6  C    0.104796
     7  O    0.017649
     8  C    0.068532
     9  C   -0.059997
    10  C    0.385468
    11  O    0.058251
    12  O    0.051643
    13  O   -0.275750
    14  C    0.209375
 Electronic spatial extent (au):  <R**2>=           4124.8477
 Charge=              1.0000 electrons
 Dipole moment (field-independent basis, Debye):
    X=              8.4872    Y=              3.4481    Z=              0.0009  Tot=              9.1609
 Quadrupole moment (field-independent basis, Debye-Ang):
   XX=             11.1332   YY=            -61.4469   ZZ=            -82.6831
   XY=              3.2553   XZ=              0.0026   YZ=              0.0025
 Traceless Quadrupole moment (field-independent basis, Debye-Ang):
   XX=             55.4655   YY=            -17.1146   ZZ=            -38.3508
   XY=              3.2553   XZ=              0.0026   YZ=              0.0025
 Octapole moment (field-independent basis, Debye-Ang**2):
  XXX=            344.1807  YYY=             20.1189  ZZZ=             -0.0007  XYY=             -1.3899
  XXY=             95.3583  XXZ=              0.0139  XZZ=              4.1994  YZZ=              5.4092
  YYZ=              0.0051  XYZ=              0.0097
 Hexadecapole moment (field-independent basis, Debye-Ang**3):
 XXXX=          -1266.8500 YYYY=           -781.7772 ZZZZ=            -89.2984 XXXY=            265.3372
 XXXZ=              0.0515 YYYX=            -21.1195 YYYZ=              0.0058 ZZZX=              0.0005
 ZZZY=              0.0009 XXYY=           -662.6412 XXZZ=           -697.3538 YYZZ=           -173.3877
 XXYZ=              0.0588 YYXZ=              0.0154 ZZXY=              4.1468
 N-N= 8.414641731848D+02 E-N=-3.275541084214D+03  KE= 6.843044818014D+02
 Calling FoFJK, ICntrl=      2127 FMM=F ISym2X=0 I1Cent= 0 IOpClX= 0 NMat=1 NMatS=1 NMatT=0.
 ***** Axes restored to original set *****
 -------------------------------------------------------------------
 Center     Atomic                   Forces (Hartrees/Bohr)
 Number     Number              X              Y              Z
 -------------------------------------------------------------------
      1        6          -0.001749227    0.002038675   -0.000000065
      2        6          -0.001467466   -0.001418774    0.000002338
      3        6          -0.003368093   -0.001132397   -0.000000263
      4        6           0.002711608   -0.001616877   -0.000002878
      5        6          -0.001052895   -0.000221547    0.000001560
      6        6           0.002590691   -0.000015692   -0.000003563
      7        8          -0.002603256    0.003258572   -0.000000799
      8        6          -0.000560622   -0.001353209    0.000002774
      9        6           0.000281569    0.001910374    0.000001208
     10        6           0.001973010   -0.001596155   -0.000001071
     11        8           0.001999317    0.005117817   -0.000002858
     12        8          -0.002629216   -0.004822662   -0.000004471
     13        8          -0.003556695    0.000658993   -0.000001526
     14        6           0.000837046    0.001109021    0.000000031
     15        1          -0.001120746    0.004939186    0.000000714
     16        1           0.000966121   -0.004842953    0.000001054
     17        1           0.003575084    0.003620500    0.000001413
     18        1          -0.001367311   -0.001273369   -0.000000080
     19        1           0.000338574   -0.004867098   -0.000000305
     20        1           0.000261744    0.005107986    0.000000644
     21        1           0.001639654   -0.001488804    0.000002142
     22        1           0.002174436   -0.000104359    0.000003013
     23        1          -0.004315767   -0.001277756   -0.000000199
     24        1           0.002222018   -0.000864055    0.003992512
     25        1           0.002220420   -0.000865418   -0.003991323
 -------------------------------------------------------------------
 Cartesian Forces:  Max     0.005117817 RMS     0.002158549

 GradGradGradGradGradGradGradGradGradGradGradGradGradGradGradGradGradGrad
 Berny optimization.
 FormGI is forming the generalized inverse of G from B-inverse, IUseBI=4.
 Internal  Forces:  Max     0.007733518 RMS     0.002451474
 Search for a local minimum.
 Step number   1 out of a maximum of  119
 All quantities printed in internal units (Hartrees-Bohrs-Radians)
 Mixed Optimization -- RFO/linear search
 Second derivative matrix not updated -- first step.
 ITU=  0
     Eigenvalues ---    0.01363   0.01830   0.01867   0.01880   0.01969
     Eigenvalues ---    0.02061   0.02085   0.02094   0.02151   0.02173
     Eigenvalues ---    0.02192   0.02235   0.02244   0.02255   0.02288
     Eigenvalues ---    0.02342   0.02511   0.02683   0.02803   0.02841
     Eigenvalues ---    0.10240   0.10711   0.16000   0.16000   0.16000
     Eigenvalues ---    0.16000   0.16000   0.16000   0.16000   0.16000
     Eigenvalues ---    0.16000   0.16000   0.16000   0.22000   0.22000
     Eigenvalues ---    0.22371   0.23480   0.24604   0.25000   0.25000
     Eigenvalues ---    0.25000   0.25000   0.25000   0.25000   0.33905
     Eigenvalues ---    0.33906   0.34500   0.34700   0.35047   0.35070
     Eigenvalues ---    0.35106   0.35355   0.39348   0.40709   0.41738
     Eigenvalues ---    0.42600   0.43096   0.44234   0.46933   0.47315
     Eigenvalues ---    0.48206   0.49691   0.53188   0.53743   0.53857
     Eigenvalues ---    0.54837   0.60690   0.62937   0.63671
 RFO step:  Lambda=-1.53538697D-03 EMin= 1.36305571D-02
 Linear search not attempted -- first point.
 Iteration  1 RMS(Cart)=  0.01326146 RMS(Int)=  0.00001550
 Iteration  2 RMS(Cart)=  0.00002672 RMS(Int)=  0.00000147
 Iteration  3 RMS(Cart)=  0.00000000 RMS(Int)=  0.00000147
 Variable       Old X    -DE/DX   Delta X   Delta X   Delta X     New X
                                 (Linear)    (Quad)   (Total)
    R1        2.64927  -0.00615   0.00000  -0.01357  -0.01357   2.63569
    R2        2.60377  -0.00740   0.00000  -0.01494  -0.01494   2.58883
    R3        2.05502  -0.00506   0.00000  -0.01435  -0.01435   2.04067
    R4        2.68926  -0.00530   0.00000  -0.01257  -0.01257   2.67669
    R5        2.50398  -0.00439   0.00000  -0.00722  -0.00722   2.49676
    R6        2.60004  -0.00773   0.00000  -0.01542  -0.01542   2.58462
    R7        2.55277  -0.00283   0.00000  -0.00515  -0.00515   2.54761
    R8        2.69167  -0.00517   0.00000  -0.01226  -0.01226   2.67940
    R9        2.05598  -0.00494   0.00000  -0.01403  -0.01403   2.04195
   R10        2.67629  -0.00602   0.00000  -0.01393  -0.01393   2.66236
   R11        2.67551  -0.00583   0.00000  -0.01348  -0.01348   2.66203
   R12        2.05562  -0.00508   0.00000  -0.01442  -0.01442   2.04120
   R13        1.83478  -0.00186   0.00000  -0.00348  -0.00348   1.83130
   R14        2.61720  -0.00708   0.00000  -0.01463  -0.01463   2.60257
   R15        2.06494  -0.00487   0.00000  -0.01405  -0.01405   2.05088
   R16        2.63093  -0.00588   0.00000  -0.01248  -0.01248   2.61845
   R17        2.05103  -0.00512   0.00000  -0.01442  -0.01442   2.03661
   R18        2.48148  -0.00509   0.00000  -0.00797  -0.00797   2.47351
   R19        2.48689  -0.00485   0.00000  -0.00768  -0.00768   2.47921
   R20        1.82967  -0.00215   0.00000  -0.00399  -0.00399   1.82568
   R21        1.82862  -0.00208   0.00000  -0.00385  -0.00385   1.82478
   R22        2.69258  -0.00205   0.00000  -0.00490  -0.00490   2.68768
   R23        2.06165  -0.00446   0.00000  -0.01281  -0.01281   2.04884
   R24        2.07490  -0.00463   0.00000  -0.01360  -0.01360   2.06130
   R25        2.07489  -0.00463   0.00000  -0.01359  -0.01359   2.06130
    A1        2.08573   0.00022   0.00000   0.00073   0.00073   2.08646
    A2        2.06599  -0.00021   0.00000  -0.00101  -0.00101   2.06498
    A3        2.13147  -0.00001   0.00000   0.00028   0.00028   2.13175
    A4        2.10974  -0.00012   0.00000  -0.00063  -0.00063   2.10910
    A5        2.08014   0.00108   0.00000   0.00436   0.00436   2.08450
    A6        2.09330  -0.00096   0.00000  -0.00373  -0.00373   2.08958
    A7        2.08456  -0.00016   0.00000  -0.00059  -0.00060   2.08397
    A8        1.97839  -0.00026   0.00000  -0.00103  -0.00103   1.97736
    A9        2.22023   0.00041   0.00000   0.00163   0.00163   2.22186
   A10        2.09637   0.00030   0.00000   0.00151   0.00151   2.09788
   A11        2.10492  -0.00003   0.00000   0.00000   0.00000   2.10493
   A12        2.08189  -0.00027   0.00000  -0.00152  -0.00152   2.08037
   A13        2.08451  -0.00042   0.00000  -0.00163  -0.00163   2.08288
   A14        2.06163   0.00009   0.00000   0.00034   0.00034   2.06198
   A15        2.13704   0.00033   0.00000   0.00129   0.00129   2.13833
   A16        2.10545   0.00017   0.00000   0.00062   0.00062   2.10607
   A17        2.07698   0.00014   0.00000   0.00111   0.00111   2.07808
   A18        2.10076  -0.00031   0.00000  -0.00173  -0.00173   2.09903
   A19        1.91482  -0.00052   0.00000  -0.00323  -0.00323   1.91160
   A20        2.22012   0.00030   0.00000   0.00137   0.00137   2.22149
   A21        2.02540   0.00004   0.00000   0.00048   0.00048   2.02588
   A22        2.03767  -0.00034   0.00000  -0.00185  -0.00185   2.03582
   A23        2.10544   0.00022   0.00000   0.00100   0.00100   2.10644
   A24        2.15990  -0.00030   0.00000  -0.00166  -0.00166   2.15824
   A25        2.01785   0.00008   0.00000   0.00065   0.00065   2.01850
   A26        2.06146   0.00058   0.00000   0.00231   0.00231   2.06377
   A27        2.11219   0.00014   0.00000   0.00056   0.00056   2.11275
   A28        2.10953  -0.00072   0.00000  -0.00287  -0.00287   2.10667
   A29        2.01076   0.00087   0.00000   0.00542   0.00542   2.01618
   A30        2.00068   0.00122   0.00000   0.00752   0.00752   2.00820
   A31        2.04881   0.00170   0.00000   0.00677   0.00677   2.05558
   A32        1.84978   0.00066   0.00000   0.00426   0.00426   1.85404
   A33        1.92327   0.00045   0.00000   0.00270   0.00270   1.92596
   A34        1.92327   0.00045   0.00000   0.00269   0.00269   1.92596
   A35        1.91870  -0.00045   0.00000  -0.00263  -0.00263   1.91606
   A36        1.91869  -0.00045   0.00000  -0.00262  -0.00262   1.91606
   A37        1.92867  -0.00061   0.00000  -0.00410  -0.00410   1.92457
    D1       -0.00001  -0.00000   0.00000  -0.00000  -0.00000  -0.00001
    D2        3.14158   0.00000   0.00000   0.00002   0.00002  -3.14159
    D3        3.14158   0.00000   0.00000   0.00001   0.00001   3.14158
    D4       -0.00002   0.00000   0.00000   0.00002   0.00002   0.00000
    D5        0.00002  -0.00000   0.00000  -0.00002  -0.00002  -0.00000
    D6        3.14157   0.00000   0.00000   0.00002   0.00002   3.14159
    D7       -3.14156  -0.00000   0.00000  -0.00003  -0.00003  -3.14159
    D8       -0.00002   0.00000   0.00000   0.00002   0.00002  -0.00000
    D9       -0.00001   0.00000   0.00000   0.00001   0.00001   0.00001
   D10       -3.14159  -0.00000   0.00000  -0.00001  -0.00001   3.14158
   D11       -3.14159  -0.00000   0.00000  -0.00001  -0.00001   3.14159
   D12        0.00001  -0.00000   0.00000  -0.00003  -0.00003  -0.00002
   D13        3.14159  -0.00000   0.00000  -0.00001  -0.00001   3.14158
   D14       -0.00001   0.00000   0.00000   0.00001   0.00001  -0.00000
   D15        0.00000  -0.00000   0.00000  -0.00000  -0.00000   0.00000
   D16       -3.14157  -0.00000   0.00000  -0.00003  -0.00003   3.14159
   D17        3.14159   0.00000   0.00000   0.00002   0.00002  -3.14157
   D18        0.00002  -0.00000   0.00000  -0.00001  -0.00001   0.00001
   D19        3.14146   0.00000   0.00000   0.00005   0.00005   3.14151
   D20       -0.00013   0.00000   0.00000   0.00003   0.00003  -0.00010
   D21        0.00001  -0.00000   0.00000  -0.00002  -0.00002  -0.00001
   D22        3.14158   0.00000   0.00000   0.00000   0.00000   3.14159
   D23        3.14158   0.00000   0.00000   0.00001   0.00001   3.14159
   D24       -0.00003   0.00000   0.00000   0.00003   0.00003   0.00000
   D25       -0.00002   0.00000   0.00000   0.00003   0.00003   0.00001
   D26       -3.14157  -0.00000   0.00000  -0.00001  -0.00001  -3.14158
   D27        3.14159   0.00000   0.00000   0.00001   0.00001  -3.14159
   D28        0.00005  -0.00000   0.00000  -0.00004  -0.00004   0.00001
   D29       -3.14153  -0.00000   0.00000  -0.00006  -0.00006  -3.14159
   D30        0.00003   0.00000   0.00000  -0.00000  -0.00000   0.00003
   D31        0.00004  -0.00000   0.00000  -0.00004  -0.00004   0.00001
   D32       -3.14158   0.00000   0.00000   0.00002   0.00002  -3.14156
   D33        3.14154   0.00000   0.00000   0.00006   0.00006  -3.14159
   D34       -0.00004   0.00000   0.00000   0.00005   0.00005   0.00000
   D35       -0.00002   0.00000   0.00000   0.00000   0.00000  -0.00002
   D36        3.14158  -0.00000   0.00000  -0.00001  -0.00001   3.14157
   D37        3.14149  -0.00000   0.00000  -0.00001  -0.00001   3.14149
   D38       -0.00013  -0.00000   0.00000  -0.00004  -0.00004  -0.00017
   D39       -0.00011   0.00000   0.00000   0.00000   0.00000  -0.00011
   D40        3.14145  -0.00000   0.00000  -0.00002  -0.00002   3.14143
   D41        3.14142  -0.00000   0.00000  -0.00009  -0.00009   3.14133
   D42       -0.00014  -0.00000   0.00000  -0.00006  -0.00006  -0.00020
   D43        3.14089   0.00000   0.00000   0.00005   0.00005   3.14095
   D44       -0.00074   0.00000   0.00000   0.00003   0.00003  -0.00071
   D45       -3.14149  -0.00000   0.00000  -0.00002  -0.00002  -3.14152
   D46       -1.06635   0.00008   0.00000   0.00075   0.00075  -1.06560
   D47        1.06656  -0.00008   0.00000  -0.00080  -0.00080   1.06575
         Item               Value     Threshold  Converged?
 Maximum Force            0.007734     0.000450     NO 
 RMS     Force            0.002451     0.000300     NO 
 Maximum Displacement     0.042640     0.001800     NO 
 RMS     Displacement     0.013270     0.001200     NO 
 Predicted change in Energy=-7.706115D-04
 GradGradGradGradGradGradGradGradGradGradGradGradGradGradGradGradGradGrad

                          Input orientation:                          
 ---------------------------------------------------------------------
 Center     Atomic      Atomic             Coordinates (Angstroms)
 Number     Number       Type             X           Y           Z
 ---------------------------------------------------------------------
      1          6           0        1.470428   -2.018006   -0.000002
      2          6           0        2.499802   -1.076882    0.000008
      3          6           0        2.215157    0.310666    0.000002
      4          6           0        0.912978    0.728994   -0.000007
      5          6           0       -0.140871   -0.219576   -0.000006
      6          6           0        0.167669   -1.594239   -0.000010
      7          8           0        3.755428   -1.488036    0.000013
      8          6           0       -1.465715    0.259149   -0.000008
      9          6           0       -2.622694   -0.487937   -0.000006
     10          6           0       -3.863180    0.129430   -0.000012
     11          8           0       -4.931497   -0.626868   -0.000134
     12          8           0       -3.968233    1.437158    0.000168
     13          8           0        3.321009    1.081750    0.000024
     14          6           0        3.144948    2.493070   -0.000084
     15          1           0        1.733889   -3.065251   -0.000005
     16          1           0        0.673699    1.782719   -0.000009
     17          1           0       -0.623389   -2.329743   -0.000019
     18          1           0        4.347478   -0.720837    0.000008
     19          1           0       -1.583063    1.338067   -0.000037
     20          1           0       -2.637873   -1.565559    0.000000
     21          1           0       -5.774954   -0.155757    0.000096
     22          1           0       -4.872898    1.774831   -0.000417
     23          1           0        4.140434    2.922606   -0.000125
     24          1           0        2.606884    2.808140   -0.895097
     25          1           0        2.606903    2.808278    0.894893
 ---------------------------------------------------------------------
                    Distance matrix (angstroms):
                    1          2          3          4          5
     1  C    0.000000
     2  C    1.394749   0.000000
     3  C    2.444859   1.416444   0.000000
     4  C    2.802991   2.403996   1.367724   0.000000
     5  C    2.414671   2.776352   2.414959   1.417880   0.000000
     6  C    1.369949   2.388828   2.796582   2.439855   1.408862
     7  O    2.345654   1.321228   2.368072   3.604822   4.097577
     8  C    3.715693   4.184532   3.681233   2.424652   1.408684
     9  C    4.369755   5.156241   4.903322   3.739237   2.496289
    10  C    5.749683   6.476321   6.081039   4.813643   3.738634
    11  O    6.551329   7.444912   7.207887   5.999687   4.807908
    12  O    6.443384   6.939444   6.285165   4.932314   4.170548
    13  O    3.610144   2.309562   1.348139   2.433732   3.698387
    14  C    4.811841   3.627777   2.372213   2.844935   4.260875
    15  H    1.079877   2.130782   3.410050   3.882034   3.407725
    16  H    3.883334   3.392929   2.131438   1.080551   2.161645
    17  H    2.116896   3.365112   3.876739   3.422907   2.164630
    18  H    3.155957   1.881668   2.368711   3.727975   4.516253
    19  H    4.537293   4.743603   3.934721   2.569278   2.122774
    20  H    4.133141   5.160864   5.203088   4.227708   2.836669
    21  H    7.480878   8.325867   8.003713   6.746200   5.634444
    22  H    7.390765   7.904997   7.237701   5.879638   5.135148
    23  H    5.615922   4.322913   3.244830   3.902359   5.310639
    24  H    5.038295   3.988243   2.681796   2.827252   4.185501
    25  H    5.038395   3.988328   2.681857   2.827305   4.185572
                    6          7          8          9         10
     6  C    0.000000
     7  O    3.589330   0.000000
     8  C    2.470423   5.505724   0.000000
     9  C    3.001671   6.456054   1.377221   0.000000
    10  C    4.383923   7.788413   2.400971   1.385622   0.000000
    11  O    5.190116   8.729506   3.577243   2.312979   1.308926
    12  O    5.127871   8.259038   2.765918   2.348717   1.311941
    13  O    4.135755   2.606247   4.856892   6.147481   7.247032
    14  C    5.056706   4.027641   5.123341   6.492464   7.395989
    15  H    2.148702   2.564025   4.614012   5.061853   6.444623
    16  H    3.414660   4.493872   2.626473   4.002760   4.828730
    17  H    1.080157   4.458980   2.722476   2.718358   4.067404
    18  H    4.270086   0.969081   5.895218   6.974062   8.254566
    19  H    3.415184   6.040393   1.085281   2.101220   2.580647
    20  H    2.805690   6.393771   2.168759   1.077729   2.091498
    21  H    6.114246   9.623053   4.329167   3.169714   1.932928
    22  H    6.062834   9.224658   3.729100   3.191166   1.930512
    23  H    6.015376   4.427414   6.206683   7.574411   8.477008
    24  H    5.111936   4.536244   4.887188   6.246103   7.059631
    25  H    5.112031   4.536324   4.887241   6.246164   7.059678
                   11         12         13         14         15
    11  O    0.000000
    12  O    2.277735   0.000000
    13  O    8.427528   7.297901   0.000000
    14  C    8.658116   7.191127   1.422258   0.000000
    15  H    7.097400   7.265390   4.440335   5.734633   0.000000
    16  H    6.101174   4.654777   2.738540   2.571317   4.962541
    17  H    4.632448   5.037611   5.215032   6.120448   2.469358
    18  H    9.279451   8.591158   2.074358   3.431511   3.511001
    19  H    3.882393   2.387228   4.910765   4.867044   5.512838
    20  H    2.478275   3.284230   6.520470   7.064948   4.621838
    21  H    0.966109   2.408655   9.179758   9.304888   8.052818
    22  H    2.402413   0.965631   8.223167   8.049952   8.189996
    23  H    9.741596   8.243606   2.014996   1.084202   6.453363
    24  H    8.332312   6.775933   2.071627   1.090794   6.005001
    25  H    8.332393   6.775907   2.071626   1.090794   6.005109
                   16         17         18         19         20
    16  H    0.000000
    17  H    4.312166   0.000000
    18  H    4.445721   5.224758   0.000000
    19  H    2.300150   3.791280   6.277770   0.000000
    20  H    4.709297   2.154559   7.036241   3.089283   0.000000
    21  H    6.733708   5.591497  10.138192   4.450108   3.439305
    22  H    5.546604   5.908118   9.552157   3.318702   4.019147
    23  H    3.649328   7.090922   3.649321   5.938786   8.129519
    24  H    2.364292   6.134629   4.035413   4.529670   6.887520
    25  H    2.364296   6.134730   4.035476   4.529706   6.887595
                   21         22         23         24         25
    21  H    0.000000
    22  H    2.130933   0.000000
    23  H   10.382256   9.086119   0.000000
    24  H    8.935394   7.603639   1.779284   0.000000
    25  H    8.935418   7.603751   1.779282   1.789990   0.000000
 Stoichiometry    C10H11O4(1+)
 Framework group  C1[X(C10H11O4)]
 Deg. of freedom    69
 Full point group                 C1      NOp   1
 Largest Abelian subgroup         C1      NOp   1
 Largest concise Abelian subgroup C1      NOp   1
                         Standard orientation:                         
 ---------------------------------------------------------------------
 Center     Atomic      Atomic             Coordinates (Angstroms)
 Number     Number       Type             X           Y           Z
 ---------------------------------------------------------------------
      1          6           0       -1.469520   -2.018860   -0.000007
      2          6           0       -2.499580   -1.078487   -0.000017
      3          6           0       -2.215948    0.309269   -0.000011
      4          6           0       -0.914073    0.728545   -0.000001
      5          6           0        0.140467   -0.219256   -0.000002
      6          6           0       -0.167071   -1.594143    0.000001
      7          8           0       -3.754906   -1.490557   -0.000022
      8          6           0        1.464962    0.260436   -0.000000
      9          6           0        2.622485   -0.485807   -0.000003
     10          6           0        3.862520    0.132465    0.000004
     11          8           0        4.931388   -0.623053    0.000125
     12          8           0        3.966620    1.440269   -0.000177
     13          8           0       -3.322361    1.079546   -0.000032
     14          6           0       -3.147330    2.490993    0.000075
     15          1           0       -1.732217   -3.066297   -0.000004
     16          1           0       -0.675564    1.782444    0.000000
     17          1           0        0.624523   -2.329070    0.000011
     18          1           0       -4.347515   -0.723789   -0.000017
     19          1           0        1.581522    1.339439    0.000028
     20          1           0        2.638450   -1.563417   -0.000009
     21          1           0        5.774502   -0.151327   -0.000105
     22          1           0        4.871039    1.778602    0.000409
     23          1           0       -4.143129    2.919803    0.000117
     24          1           0       -2.609496    2.806456    0.895089
     25          1           0       -2.609515    2.806593   -0.894902
 ---------------------------------------------------------------------
 Rotational constants (GHZ):      1.5537667      0.2901010      0.2448410
 Standard basis: CC-pVTZ (5D, 7F)
 There are   655 symmetry adapted cartesian basis functions of A   symmetry.
 There are   574 symmetry adapted basis functions of A   symmetry.
   574 basis functions,   915 primitive gaussians,   655 cartesian basis functions
    51 alpha electrons       51 beta electrons
       nuclear repulsion energy       844.9656400566 Hartrees.
 NAtoms=   25 NActive=   25 NUniq=   25 SFac= 1.00D+00 NAtFMM=   60 NAOKFM=F Big=F
 Integral buffers will be    131072 words long.
 Raffenetti 2 integral format.
 Two-electron integral symmetry is turned on.
 One-electron integrals computed using PRISM.
 NBasis=   574 RedAO= T EigKep=  3.29D-05  NBF=   574
 NBsUse=   574 1.00D-06 EigRej= -1.00D+00 NBFU=   574
 Initial guess from the checkpoint file:  "ccpvTZFAyang.chk"
 B after Tr=     0.000000    0.000000   -0.000000
         Rot=    1.000000   -0.000000    0.000000   -0.000340 Ang=  -0.04 deg.
 ExpMin= 1.03D-01 ExpMax= 1.53D+04 ExpMxC= 5.22D+02 IAcc=1 IRadAn=         1 AccDes= 0.00D+00
 Harris functional with IExCor= 1009 and IRadAn=       1 diagonalized for initial guess.
 HarFok:  IExCor= 1009 AccDes= 0.00D+00 IRadAn=         1 IDoV= 1 UseB2=F ITyADJ=14
 ICtDFT=  3500011 ScaDFX=  1.000000  1.000000  1.000000  1.000000
 FoFCou: FMM=F IPFlag=           0 FMFlag=      100000 FMFlg1=           0
         NFxFlg=           0 DoJE=T BraDBF=F KetDBF=T FulRan=T
         wScrn=  0.000000 ICntrl=     500 IOpCl=  0 I1Cent=   200000004 NGrid=           0
         NMat0=    1 NMatS0=      1 NMatT0=    0 NMatD0=    1 NMtDS0=    0 NMtDT0=    0
 Petite list used in FoFCou.
 Requested convergence on RMS density matrix=1.00D-08 within 128 cycles.
 Requested convergence on MAX density matrix=1.00D-06.
 Requested convergence on             energy=1.00D-06.
 No special actions if energy rises.
 Integral accuracy reduced to 1.0D-05 until final iterations.
 Initial convergence to 1.0D-05 achieved.  Increase integral accuracy.
 SCF Done:  E(RM062X) =  -688.306354371     A.U. after   11 cycles
            NFock= 11  Conv=0.41D-08     -V/T= 2.0054
 Calling FoFJK, ICntrl=      2127 FMM=F ISym2X=0 I1Cent= 0 IOpClX= 0 NMat=1 NMatS=1 NMatT=0.
 ***** Axes restored to original set *****
 -------------------------------------------------------------------
 Center     Atomic                   Forces (Hartrees/Bohr)
 Number     Number              X              Y              Z
 -------------------------------------------------------------------
      1        6           0.000068102   -0.000244032   -0.000000081
      2        6           0.001122125   -0.001143570   -0.000000790
      3        6           0.000331931    0.000682424    0.000001699
      4        6           0.000480921    0.000265321    0.000000032
      5        6          -0.000553705    0.000280990   -0.000000119
      6        6          -0.000201591   -0.000380238    0.000000896
      7        8          -0.000100944    0.000258399    0.000000192
      8        6           0.000103217   -0.000082215   -0.000002748
      9        6          -0.000015507    0.000061530    0.000000667
     10        6          -0.001157557    0.000128667    0.000004333
     11        8           0.000168822    0.000679145   -0.000003936
     12        8          -0.000462074   -0.000530427   -0.000003240
     13        8          -0.000356069    0.001022409   -0.000002124
     14        6           0.000225076   -0.000839805    0.000001030
     15        1           0.000074777   -0.000263545   -0.000000034
     16        1          -0.000054234    0.000337007    0.000000158
     17        1          -0.000167347   -0.000079508    0.000000150
     18        1           0.000218504   -0.000144328    0.000000215
     19        1          -0.000017329    0.000175194    0.000000911
     20        1           0.000075689   -0.000206943    0.000000171
     21        1           0.000080986   -0.000314437    0.000001606
     22        1           0.000315212    0.000112390    0.000001190
     23        1           0.000078285    0.000063245   -0.000000000
     24        1          -0.000128493    0.000081173   -0.000078900
     25        1          -0.000128796    0.000081156    0.000078724
 -------------------------------------------------------------------
 Cartesian Forces:  Max     0.001157557 RMS     0.000348469

 GradGradGradGradGradGradGradGradGradGradGradGradGradGradGradGradGradGrad
 Berny optimization.
 Using GEDIIS/GDIIS optimizer.
 FormGI is forming the generalized inverse of G from B-inverse, IUseBI=4.
 GSVD:  received Info=                   1 from GESDD.
 Internal  Forces:  Max     0.001375182 RMS     0.000328764
 Search for a local minimum.
 Step number   2 out of a maximum of  119
 All quantities printed in internal units (Hartrees-Bohrs-Radians)
 Mixed Optimization -- En-DIIS/RFO-DIIS
 Update second derivatives using D2CorX and points    1    2
 DE= -7.14D-04 DEPred=-7.71D-04 R= 9.27D-01
 TightC=F SS=  1.41D+00  RLast= 6.16D-02 DXNew= 5.0454D-01 1.8494D-01
 Trust test= 9.27D-01 RLast= 6.16D-02 DXMaxT set to 3.00D-01
 ITU=  1  0
 Use linear search instead of GDIIS.
     Eigenvalues ---    0.01363   0.01830   0.01867   0.01880   0.01969
     Eigenvalues ---    0.02061   0.02085   0.02094   0.02151   0.02173
     Eigenvalues ---    0.02192   0.02235   0.02243   0.02255   0.02288
     Eigenvalues ---    0.02342   0.02510   0.02683   0.02803   0.02841
     Eigenvalues ---    0.10211   0.10674   0.15824   0.16000   0.16000
     Eigenvalues ---    0.16000   0.16000   0.16000   0.16000   0.16000
     Eigenvalues ---    0.16000   0.16000   0.16042   0.21908   0.22001
     Eigenvalues ---    0.22365   0.23405   0.24531   0.24913   0.25000
     Eigenvalues ---    0.25000   0.25000   0.25000   0.25113   0.33852
     Eigenvalues ---    0.33906   0.34480   0.34659   0.35042   0.35080
     Eigenvalues ---    0.35164   0.35342   0.39308   0.40838   0.41552
     Eigenvalues ---    0.42874   0.43549   0.45189   0.47259   0.47370
     Eigenvalues ---    0.48707   0.52357   0.53184   0.53661   0.53825
     Eigenvalues ---    0.54823   0.60654   0.62554   0.63460
 RFO step:  Lambda=-2.16164948D-05 EMin= 1.36305569D-02
 Quartic linear search produced a step of -0.06838.
 Iteration  1 RMS(Cart)=  0.00316477 RMS(Int)=  0.00000203
 Iteration  2 RMS(Cart)=  0.00000330 RMS(Int)=  0.00000009
 Iteration  3 RMS(Cart)=  0.00000000 RMS(Int)=  0.00000009
 Variable       Old X    -DE/DX   Delta X   Delta X   Delta X     New X
                                 (Linear)    (Quad)   (Total)
    R1        2.63569   0.00076   0.00093   0.00045   0.00138   2.63707
    R2        2.58883   0.00096   0.00102   0.00056   0.00159   2.59041
    R3        2.04067   0.00028   0.00098  -0.00047   0.00051   2.04119
    R4        2.67669   0.00138   0.00086   0.00202   0.00288   2.67957
    R5        2.49676   0.00008   0.00049  -0.00048   0.00001   2.49677
    R6        2.58462   0.00055   0.00105  -0.00026   0.00080   2.58542
    R7        2.54761  -0.00002   0.00035  -0.00046  -0.00011   2.54750
    R8        2.67940   0.00090   0.00084   0.00095   0.00178   2.68119
    R9        2.04195   0.00034   0.00096  -0.00028   0.00068   2.04263
   R10        2.66236   0.00082   0.00095   0.00060   0.00155   2.66392
   R11        2.66203   0.00090   0.00092   0.00081   0.00173   2.66376
   R12        2.04120   0.00018   0.00099  -0.00073   0.00026   2.04146
   R13        1.83130   0.00001   0.00024  -0.00028  -0.00004   1.83126
   R14        2.60257   0.00082   0.00100   0.00037   0.00137   2.60394
[...]
 .35136064,-0.00000006,-0.00000002,-0.00139410,0.00000004,0.00000018,0.
 00835523,0.00000008,-0.00000004,0.00644736,-0.00000083,0.00000327,-0.0
 3534017,0.00000002,0.00000040,0.00123205,0.00000010,0.00000005,0.00418
 856,0.,-0.00000003,-0.00178307,-0.00000004,-0.00000006,-0.00323518,0.0
 0000002,0.,0.00031588,-0.00000002,0.00000005,0.00021033,0.,-0.00000002
 ,-0.00003957,0.00000001,0.,-0.00005739,0.00000002,0.00000002,-0.003683
 09,0.00000003,-0.00000005,-0.00065978,0.,0.,-0.00030863,0.00000052,-0.
 00000381,0.02431621,-0.01697269,-0.02161132,0.00000045,-0.00380694,0.0
 0287553,0.00000004,-0.00061221,0.00086642,-0.00000002,0.00050582,0.002
 33206,0.,0.00986821,0.00467762,-0.00000011,-0.21085306,-0.13996775,0.0
 0000347,-0.00111002,-0.00143336,0.00000003,-0.00003727,-0.00073820,-0.
 00000002,-0.00106050,0.00076042,-0.00000002,-0.00002760,0.00006600,0.0
 0000004,0.00010433,0.00001055,0.,0.00006334,-0.00015676,-0.00000004,0.
 00015368,-0.00018153,0.,-0.00000345,0.00005669,0.,0.00112107,0.0000299
 8,-0.00000004,0.00036186,0.00039276,0.,0.22558388,0.00956190,0.0110570
 0,-0.00000016,0.00256522,-0.00070902,0.00000014,0.00021860,0.00011277,
 -0.00000003,0.00342817,-0.00453199,0.00000014,-0.02351237,-0.01443817,
 0.00000039,-0.14186460,-0.19015200,0.00000326,0.00050684,0.00063590,-0
 .00000002,-0.00191806,0.00049155,-0.00000006,0.00059410,-0.00039955,0.
 ,0.00048616,0.00038204,-0.00000004,-0.00013821,0.00001158,0.00000002,-
 0.00037990,0.00031384,-0.00000002,0.00009382,0.00034904,-0.00000001,0.
 00000596,-0.00017758,0.,-0.00026274,0.00063691,-0.00000008,-0.00109734
 ,-0.00069537,0.00000003,0.14997310,0.19645489,0.,0.00000005,0.00612465
 ,0.00000005,0.00000012,0.00932996,0.,-0.00000003,-0.00127117,-0.000000
 07,0.00000014,0.00495063,0.00000036,0.00000020,0.00253953,0.00000350,0
 .00000327,-0.03841811,0.,0.,-0.00034101,-0.00000003,-0.00000013,-0.003
 22853,-0.00000003,0.00000012,0.00011834,0.00000003,-0.00000006,-0.0003
 2710,-0.00000003,0.,-0.00010197,0.00000006,0.00000008,0.00014443,-0.00
 000001,-0.00000002,-0.00041755,0.,0.,-0.00014840,-0.00000003,-0.000000
 08,-0.00497976,0.00000003,0.00000003,0.00122823,-0.00000370,-0.0000036
 5,0.02388458,-0.00194244,0.00514113,-0.00000003,-0.04332695,-0.0339064
 4,0.00000076,-0.00068740,-0.00228251,0.00000004,-0.00210985,-0.0013216
 0,0.00000003,0.00263656,-0.00089230,0.00000001,-0.00155355,-0.00061862
 ,0.00000003,-0.19923957,-0.19027877,0.00000422,-0.00272340,0.00014151,
 -0.00000003,0.00236727,-0.00003369,0.00000004,-0.00238655,0.00121853,-
 0.00000001,0.00131363,0.00044388,0.00000024,0.00040240,-0.00111069,-0.
 00000028,-0.00042007,-0.00194813,0.00000007,0.00118591,0.00149718,-0.0
 0000009,0.00011631,0.00001876,0.,0.00033253,-0.00007591,0.,-0.00029580
 ,0.00017426,0.,0.24658745,0.00791312,0.00076583,0.00000001,-0.00022346
 ,0.01605080,-0.00000022,0.01260964,0.00050971,-0.00000007,-0.00431566,
 -0.00059553,0.,0.00392131,-0.00165034,0.00000002,-0.00279175,0.0022418
 0,0.,-0.23548921,-0.34089540,0.00000661,-0.00345844,-0.00011138,-0.000
 00002,0.00244625,0.00004404,0.00000004,-0.00222747,0.00132180,0.,0.001
 14254,0.00037735,0.00000022,0.00034083,-0.00113421,-0.00000026,-0.0028
 6667,-0.00134661,-0.00000010,-0.00156845,-0.00288667,0.00000014,0.0000
 3854,0.00003052,0.,0.00028126,-0.00004331,0.,0.00022398,-0.00005328,-0
 .00000001,0.22466637,0.32587114,-0.00000006,0.00000001,0.00357094,0.00
 000027,-0.00000004,-0.00139130,-0.00000016,0.00000001,-0.00045528,0.00
 000007,0.00000001,-0.00058912,-0.00000006,0.00000002,-0.00021808,0.000
 00006,0.,0.00184725,0.00000484,0.00000633,-0.01188191,0.00000005,0.,-0
 .00000358,-0.00000005,0.,-0.00007793,0.00000005,-0.00000003,-0.0000063
 8,-0.00000003,0.,-0.00001585,0.,0.00000003,-0.00000432,0.00000010,0.,-
 0.00177662,-0.00000002,0.,-0.00094831,0.,0.,-0.00041829,0.,0.,0.000382
 73,0.,0.,-0.00051052,-0.00000504,-0.00000633,0.01218116,0.00043014,0.0
 0154602,-0.00000004,0.00001687,0.00029673,0.,-0.00008168,-0.00063544,0
 .00000002,0.00049224,0.00220062,-0.00000010,-0.00053739,0.02907359,-0.
 00000031,-0.00551067,0.00024565,0.00000007,0.00016187,-0.00021610,0.,-
 0.06187912,0.02906956,-0.00000069,0.00556230,-0.02862884,0.00000020,0.
 00082584,-0.00362081,-0.00000010,0.00052561,0.00075117,0.00000017,-0.0
 0214054,0.00176693,0.00000088,0.00005708,-0.00006351,0.,-0.00003725,0.
 00008962,0.,-0.00038724,0.00004605,0.,-0.00082142,-0.00089764,0.,0.000
 05904,0.00000534,0.,-0.00006391,0.00002317,0.,0.06748220,-0.00051090,-
 0.00059590,0.00000004,0.00019649,0.00001468,0.,-0.00008062,0.00049868,
 -0.00000001,-0.00182465,0.00138648,0.00000001,-0.00035432,-0.00856474,
 0.00000006,0.00163347,0.00064322,-0.00000009,-0.00022636,0.00006989,0.
 ,0.02851020,-0.33323035,0.00000439,0.00194415,-0.01515870,0.00000021,0
 .00011676,-0.00155678,-0.00000032,-0.00010744,0.00019092,0.00000002,0.
 00206320,0.00068042,0.00000017,-0.00003877,-0.00007262,0.,0.00000935,0
 .00003435,0.,0.00013838,0.00000476,0.,0.00031103,0.00058575,0.,-0.0000
 9809,0.00005988,0.,0.00003329,0.00002767,0.,-0.03000216,0.35393746,0.0
 0000002,0.00000003,-0.00105437,0.,0.,0.00045355,0.00000002,0.,0.000224
 98,0.00000004,-0.00000008,-0.00362669,0.00000006,0.00000053,0.00842609
 ,-0.00000013,0.00000011,0.00619076,0.,0.,-0.00009742,-0.00000043,0.000
 00433,-0.04937858,-0.00000096,0.00000035,0.00810121,0.00000032,-0.0000
 0079,-0.00522925,-0.00000059,0.00000025,0.00014465,0.00000140,0.000000
 57,0.00077949,-0.00000002,-0.00000001,0.00018767,0.,0.,0.00004449,-0.0
 0000002,0.,-0.00067542,-0.00000001,0.,0.00022973,0.,0.,-0.00004715,0.,
 0.,0.00005887,0.00000048,-0.00000458,0.02809080,-0.00005292,0.00035900
 ,0.,0.00020276,-0.00036709,-0.00000001,-0.00046724,0.00056633,0.,0.000
 65248,0.00026551,0.00000001,-0.00018943,0.00157412,-0.00000004,-0.0007
 4757,-0.00115140,0.,-0.00020262,0.00013816,0.,0.00815944,-0.02781114,-
 0.00000003,-0.05766762,-0.00582742,0.00000016,0.00344800,0.03008833,0.
 00000090,-0.00007481,-0.00018597,0.00000004,-0.00650735,0.00254108,-0.
 00000214,0.00017729,0.00014345,0.,0.00002628,-0.00010454,0.,-0.0000370
 3,0.00000575,0.,0.00016109,0.00013961,0.,-0.00298423,0.00153144,-0.000
 00008,0.00002226,0.00002841,0.,-0.00418754,-0.00186559,0.00000009,0.05
 978476,0.00026151,0.00038369,0.,-0.00019266,0.00001461,0.,0.00004944,-
 0.00025898,0.,-0.00035380,-0.00020130,0.,0.00165229,-0.00064270,0.0000
 0006,0.00029248,0.00010149,0.,0.00032263,-0.00002833,0.,-0.00189053,-0
 .01057904,0.00000002,0.00242000,-0.34894440,-0.00000121,-0.00169183,-0
 .01227363,-0.00000057,-0.00170360,0.00073885,0.00000021,0.00153507,0.0
 0114093,0.00000113,0.00003617,0.00011442,0.,0.00000506,-0.00005895,0.,
 0.00001540,0.00000207,0.,-0.00000717,0.00005955,0.,0.00194073,0.000562
 90,0.00000003,-0.00002675,-0.00003850,0.,-0.00141873,0.00055258,-0.000
 00005,-0.00112164,0.36931001,-0.00000003,-0.00000001,-0.00030488,0.000
 00007,-0.00000005,-0.00031888,-0.00000004,0.00000010,-0.00005684,0.000
 00012,0.00000005,-0.00010486,-0.00000026,0.00000009,-0.00401657,0.0000
 0001,-0.00000014,-0.00042377,-0.00000006,0.00000002,0.00014182,0.00000
 060,-0.00000012,0.00313713,-0.00000105,-0.00000101,-0.03272513,0.00000
 098,-0.00000108,0.00001254,-0.00000052,-0.00000014,-0.00213577,0.00000
 077,0.00000181,0.00381235,-0.00000001,-0.00000003,0.00005103,0.,0.0000
 0001,0.00002455,0.,0.,0.00013005,0.,0.,0.00010858,-0.00000010,0.000000
 07,0.00136042,0.,0.,0.00005625,-0.00000021,0.00000026,0.00720753,-0.00
 000021,0.00000121,0.02305733,0.00115657,0.00053270,-0.00000003,-0.0017
 1412,0.00056170,0.,0.00013569,-0.00161992,0.00000001,-0.00129179,-0.00
 045752,0.00000013,0.00281522,-0.00169059,0.00000008,-0.00079899,0.0014
 1822,-0.00000005,0.00170662,-0.00030654,0.,-0.00545148,-0.00004114,-0.
 00000083,0.00593628,-0.00430508,0.00000045,-0.04373966,0.02011732,0.00
 000907,-0.38702579,0.18284850,0.00013421,0.00682747,0.00330847,-0.0000
 0103,0.00050847,0.00076042,-0.00000003,0.00001787,-0.00038082,0.000000
 01,0.00002396,0.00001044,0.,-0.00004538,0.00001483,0.,-0.00003620,0.00
 004931,0.00000001,-0.00023384,-0.00019065,0.,-0.00018228,-0.00007753,0
 .00000007,0.00035042,0.00002530,0.00000031,0.42004032,-0.00019809,-0.0
 0008702,-0.00000003,0.00025959,-0.00007468,0.,-0.00004412,0.00024718,-
 0.00000001,0.00019728,0.00011919,0.00000007,-0.00063295,0.00006852,0.0
 0000045,0.00017031,-0.00028928,0.00000001,-0.00024560,0.00003383,0.,0.
 00018622,0.00097230,-0.00000093,-0.00350092,-0.00243267,-0.00000215,-0
 .02995351,0.01456188,0.00001199,0.23216145,-0.16519044,-0.00009460,0.0
 0026784,-0.00052811,-0.00000206,-0.00007333,-0.00014815,-0.00000002,-0
 .00001397,0.00008653,0.,0.00000092,0.00000080,0.,-0.00001051,-0.000011
 61,0.00000002,-0.00000362,0.00001783,0.,0.00002764,0.00003926,0.,-0.00
 001818,0.00001151,-0.00000019,-0.00014440,0.00023590,0.00000016,-0.196
 74337,0.15595997,0.00000062,0.00000028,0.00002932,-0.00000084,0.000000
 29,0.00001183,0.00000016,-0.00000086,0.00007261,-0.00000081,-0.0000002
 5,-0.00036190,0.00000166,-0.00000101,-0.00083284,-0.00000046,0.0000008
 9,0.00007881,0.00000082,-0.00000014,-0.00001638,-0.00000426,-0.0000004
 4,0.00271010,0.00000231,-0.00000184,0.00414827,-0.00001739,0.00000462,
 -0.00430252,0.00016053,-0.00008702,-0.00394237,0.00000003,-0.00000115,
 -0.00431440,0.00000019,0.00000036,0.00004633,0.00000002,-0.00000018,0.
 00001383,0.,0.,0.00001854,0.,0.00000002,-0.00001518,0.,-0.00000002,-0.
 00003872,-0.00000010,-0.00000010,0.00000623,0.00000008,0.,0.00017659,0
 .,-0.00000017,-0.00099700,-0.00014383,0.00008363,0.00488493,0.00080291
 ,0.00038469,0.,-0.00120022,0.00042522,0.,0.00011114,-0.00114614,0.0000
 0004,-0.00087122,-0.00036575,-0.00000003,0.00212253,-0.00082334,0.0000
 0008,-0.00063473,0.00101049,0.00000008,0.00120255,-0.00021881,0.,-0.00
 359895,-0.00107454,0.00000030,0.00688878,-0.00188616,-0.00000272,-0.00
 435224,0.00462064,0.00000478,0.00067812,-0.00507614,0.00000033,-0.4660
 9902,0.16786016,-0.00027113,0.00036785,0.00054274,0.,0.00001323,-0.000
 27514,0.,0.00001177,0.00000645,-0.00000001,-0.00002726,0.00001624,-0.0
 0000002,-0.00002798,0.00002371,-0.00000003,-0.00016463,-0.00013533,0.,
 0.00021444,0.00023853,-0.00000035,0.00015295,-0.00014611,-0.00000038,0
 .00103880,-0.00169248,0.00000126,0.46339878,-0.00077816,-0.00030957,0.
 00000004,0.00117378,-0.00035297,0.00000003,-0.00001305,0.00108292,0.,0
 .00077725,0.00039347,-0.00000002,-0.00172973,0.00107874,0.00000015,0.0
 0044427,-0.00097524,0.00000002,-0.00115592,0.00018983,0.,0.00207278,0.
 00066062,0.00000064,-0.00678985,-0.00495900,-0.00000094,0.05347912,-0.
 02559132,0.00002505,-0.00206506,0.00547889,-0.00000297,0.11946911,-0.0
 8782907,0.00007478,-0.00041079,-0.00064110,0.00000001,-0.00003726,0.00
 035340,-0.00000002,-0.00002247,-0.00000386,0.,0.00003772,0.00001010,-0
 .00000002,0.00003645,0.00000165,-0.00000006,0.00015584,0.00014588,-0.0
 0000001,0.00042772,0.00048116,-0.00000043,0.00118920,-0.00020738,-0.00
 000120,-0.00393020,-0.00357531,0.00000306,-0.16235813,0.11463413,-0.00
 000060,-0.00000028,-0.00018277,0.00000092,-0.00000042,-0.00000432,-0.0
 0000021,0.00000098,-0.00001529,0.00000087,0.00000031,-0.00007937,-0.00
 000207,0.00000067,0.00022297,0.00000056,-0.00000103,0.00017733,-0.0000
 0092,0.00000018,0.00000416,0.00000404,0.00000161,-0.00112059,-0.000006
 33,-0.00000469,0.00296435,0.00001715,-0.00001530,-0.00433377,0.0000000
 6,-0.00000223,-0.00413876,-0.00028347,0.00011556,-0.00134573,-0.000000
 22,-0.00000039,-0.00001335,-0.00000001,0.00000019,0.00003775,0.,0.,0.0
 0000777,0.,-0.00000002,0.00004020,0.,0.00000006,0.00015042,0.00000012,
 0.00000011,0.00002576,-0.00000044,-0.00000016,-0.00016311,0.00000130,-
 0.00000066,0.00199368,0.00000144,0.00000367,0.00262824,0.00026782,-0.0
 0009809,0.00315599,-0.00021800,0.00004484,0.,0.00033710,0.00040198,0.,
 0.00114309,0.00213546,-0.00000004,-0.00040196,0.00047014,0.,0.00021073
 ,-0.00009917,0.00000001,0.00001622,-0.00016442,0.,0.00007682,-0.000117
 32,0.,0.00012348,0.00005572,0.,-0.00011197,-0.00001185,0.,0.00014819,-
 0.00005715,0.,-0.00008074,-0.00002395,-0.00000001,-0.00003290,0.000059
 41,0.00000002,0.00919551,0.00408477,-0.00000032,-0.29686553,-0.1030606
 3,0.00000835,0.00002327,0.00002032,0.,0.00020655,-0.00042921,-0.000000
 02,0.00001212,-0.00002577,0.,-0.00003133,0.00003900,0.,0.00002918,-0.0
 0000107,0.,-0.00000121,0.00000015,0.,0.00001652,-0.00000119,0.,0.00001
 179,-0.00001317,0.,0.30938520,0.00049782,-0.00042226,-0.00000001,-0.00
 208589,-0.00079970,0.00000003,0.00316467,-0.00468423,0.00000034,0.0011
 9344,-0.00046745,-0.00000001,-0.00060623,0.00029520,0.,-0.00001274,0.0
 0008826,0.,0.00033844,0.00013625,0.,0.00027281,-0.00011983,0.,-0.00028
 816,0.00003166,0.,0.00026037,-0.00017280,0.,-0.00014155,-0.00004324,-0
 .00000003,-0.00004464,0.00015262,0.00000003,-0.03646402,-0.02928476,0.
 00000135,-0.08682962,-0.08227738,0.00000270,-0.00012896,-0.00008239,0.
 ,-0.00012132,0.00060000,-0.00000002,-0.00002088,0.00003894,0.,-0.00022
 484,-0.00023656,0.00000002,-0.00002869,-0.00000236,0.,0.00000720,0.000
 00545,0.,0.00002165,-0.00000551,0.00000001,0.00001543,-0.00001795,-0.0
 0000001,0.10570553,0.10681396,-0.00000003,0.,-0.00004055,0.00000005,0.
 00000006,0.00033505,-0.00000019,0.00000002,0.00044529,-0.00000005,-0.0
 0000001,0.00033407,0.00000003,0.,0.00013810,0.,-0.00000001,-0.00001100
 ,0.,0.,-0.00010767,0.,0.,0.00003937,0.00000001,0.,-0.00001136,0.,0.,-0
 .00000617,0.,0.,0.00000121,0.,0.,0.00000192,0.00000107,0.00000097,0.00
 005645,0.00000781,0.00000288,-0.05059858,0.,0.,-0.00003318,0.,-0.00000
 004,-0.00046041,0.,0.,-0.00002642,0.,0.,0.00016242,0.,0.,-0.00001003,0
 .,0.,-0.00000021,0.,0.,0.00000133,0.,0.,-0.00000067,-0.00000875,-0.000
 00382,0.04652110,0.00022101,-0.00004919,-0.00004517,0.00034881,-0.0001
 7977,-0.00020890,0.00082992,-0.00070255,0.00118889,-0.00016199,0.00081
 867,0.00025025,-0.00012849,-0.00034545,-0.00041106,0.00003340,0.000331
 88,-0.00003115,-0.00024969,0.00010450,0.00008075,-0.00013138,-0.000023
 50,0.00003697,0.00019832,-0.00000030,0.00000376,-0.00024613,0.00010706
 ,0.00000497,0.00014130,0.00004234,-0.00000055,0.00005429,-0.00011219,-
 0.00000038,-0.00062342,0.00605744,-0.00147434,-0.11796473,0.03227807,-
 0.10870751,0.00001561,0.00001373,0.00001301,-0.00083545,-0.00099016,0.
 00118644,-0.00000271,-0.00000948,0.00003857,0.00010748,-0.00020368,-0.
 00011311,-0.00001388,-0.00000367,0.00000081,-0.00000908,-0.00000171,0.
 00000015,-0.00002734,0.00000249,-0.00000199,-0.00001970,0.00002027,-0.
 00000092,-0.01159646,0.00775923,-0.02510809,0.12147235,0.00059758,0.00
 007040,-0.00009962,0.00044129,-0.00174479,-0.00064505,0.00600621,0.004
 94383,0.00144461,-0.00067511,0.00068617,-0.00021718,-0.00064997,-0.000
 24381,-0.00031102,-0.00042178,0.00033311,-0.00004430,-0.00080330,-0.00
 026033,-0.00008485,0.00040924,-0.00012840,0.00001089,-0.00041528,0.000
 02168,-0.00000252,0.00039617,-0.00021866,0.00000415,-0.00022541,-0.000
 07876,-0.00000111,-0.00006536,0.00020270,0.00000060,0.01814622,-0.0319
 6616,0.02997114,0.02800262,-0.06473874,0.04889002,-0.00001849,-0.00000
 654,0.00007578,-0.00094751,-0.00053186,0.00093107,-0.00001540,0.000015
 12,0.00004957,-0.00039906,0.00078299,0.00029266,-0.00000603,0.00000102
 ,0.00000824,0.00000079,0.00000538,-0.00000112,0.00003726,-0.00000595,-
 0.00000007,0.00002688,-0.00002401,-0.00000113,-0.00450633,0.00522664,-
 0.01051738,-0.03976298,0.08301765,-0.00014330,-0.00010449,0.00000649,0
 .00015249,0.00054156,-0.00024976,-0.00063658,-0.00081153,0.00059374,-0
 .00091785,0.00101450,-0.00032000,0.00033555,-0.00035082,-0.00007906,0.
 00003464,-0.00008201,-0.00007633,0.00019510,-0.00018168,0.00001018,0.0
 0001648,0.00010546,0.00002766,-0.00001024,-0.00003443,0.00000300,0.000
 05385,0.00004687,-0.00000461,-0.00004013,-0.00001998,0.00000199,-0.000
 01223,-0.00003151,0.00000644,0.00266480,0.00353273,0.00733575,-0.10895
 322,0.05586723,-0.23679154,0.00001079,0.00000839,0.00000924,0.00063269
 ,-0.00022203,-0.00003933,0.00001495,-0.00005779,0.00001262,-0.00000740
 ,-0.00012517,0.00000293,0.00006081,0.00000926,-0.00001719,-0.00000993,
 -0.00000305,-0.00000467,0.00001137,0.00000425,-0.00000282,0.00000782,0
 .00000199,-0.00000545,0.00144662,-0.00123885,0.00163581,0.11919611,-0.
 06381044,0.24736720,0.00022101,-0.00004918,0.00004516,0.00034880,-0.00
 017979,0.00020892,0.00082991,-0.00070255,-0.00118875,-0.00016158,0.000
 81889,-0.00025019,-0.00012851,-0.00034537,0.00041108,0.00003341,0.0003
 3189,0.00003113,-0.00024971,0.00010450,-0.00008075,-0.00013140,-0.0000
 2350,-0.00003698,0.00019832,-0.00000030,-0.00000375,-0.00024614,0.0001
 0706,-0.00000498,0.00014130,0.00004234,0.00000059,0.00005429,-0.000112
 20,0.00000033,-0.00062317,0.00605751,0.00147386,-0.11795611,0.03228381
 ,0.10870083,0.00001561,0.00001373,-0.00001301,-0.00083532,-0.00098995,
 -0.00118630,-0.00000271,-0.00000947,-0.00003857,0.00010748,-0.00020366
 ,0.00011311,-0.00001388,-0.00000367,-0.00000081,-0.00000908,-0.0000017
 1,-0.00000015,-0.00002734,0.00000249,0.00000197,-0.00001970,0.00002027
 ,0.00000094,-0.01159567,0.00776093,0.02510813,0.00858796,-0.00515223,-
 0.01410321,0.12146220,0.00059757,0.00007038,0.00009962,0.00044123,-0.0
 0174481,0.00064510,0.00600623,0.00494359,-0.00144481,-0.00067482,0.000
 68630,0.00021721,-0.00065000,-0.00024373,0.00031103,-0.00042176,0.0003
 3310,0.00004429,-0.00080332,-0.00026033,0.00008486,0.00040925,-0.00012
 841,-0.00001087,-0.00041529,0.00002168,0.00000250,0.00039618,-0.000218
 67,-0.00000415,-0.00022541,-0.00007876,0.00000102,-0.00006536,0.000202
 71,-0.00000051,0.01814519,-0.03196832,-0.02996938,0.02800885,-0.064745
 23,-0.04890274,-0.00001850,-0.00000655,-0.00007578,-0.00094748,-0.0005
 3175,-0.00093100,-0.00001540,0.00001513,-0.00004957,-0.00039908,0.0007
 8300,-0.00029267,-0.00000603,0.00000101,-0.00000824,0.00000079,0.00000
 538,0.00000111,0.00003726,-0.00000595,0.00000011,0.00002688,-0.0000240
 1,0.00000109,-0.00450608,0.00522744,0.01051733,-0.00515104,0.00464131,
 0.00594153,-0.03976983,0.08302547,0.00014323,0.00010448,0.00000648,-0.
 00015250,-0.00054140,-0.00024980,0.00063613,0.00081119,0.00059374,0.00
 091793,-0.00101453,-0.00031999,-0.00033552,0.00035084,-0.00007911,-0.0
 0003459,0.00008198,-0.00007633,-0.00019504,0.00018169,0.00001018,-0.00
 001651,-0.00010545,0.00002765,0.00001026,0.00003443,0.00000299,-0.0000
 5387,-0.00004686,-0.00000461,0.00004014,0.00001999,0.00000200,0.000012
 23,0.00003149,0.00000644,-0.00266590,-0.00353020,0.00733830,0.10894697
 ,-0.05588004,-0.23679175,-0.00001078,-0.00000839,0.00000925,-0.0006325
 6,0.00022207,-0.00003920,-0.00001495,0.00005779,0.00001262,0.00000742,
 0.00012512,0.00000294,-0.00006081,-0.00000926,-0.00001719,0.00000993,0
 .00000305,-0.00000467,-0.00001138,-0.00000425,-0.00000282,-0.00000782,
 -0.00000199,-0.00000545,-0.00144587,0.00123829,0.00163415,0.01410248,-
 0.00594296,-0.01942230,-0.11918862,0.06382293,0.24736646\\-0.00001598,
 0.00000078,0.,0.00001867,-0.00001040,-0.00000016,0.00002922,0.00002062
 ,-0.00000029,0.00002537,-0.00001078,0.00000022,-0.00003242,0.00002435,
 0.00000003,0.00000902,-0.00002048,0.00000007,-0.00001522,-0.00000889,0
 .00000003,0.00002816,-0.00001514,-0.00000034,-0.00001680,0.00002685,-0
 .00000081,-0.00002187,0.00001936,0.00000172,0.00000614,0.00002404,0.00
 000049,0.00000332,-0.00000088,-0.00000004,-0.00002136,-0.00003267,0.00
 000049,-0.00000517,-0.00000428,-0.00000027,-0.00000306,-0.00001481,-0.
 00000003,0.00000333,0.00001600,0.00000001,-0.00001826,-0.00000010,-0.0
 0000004,-0.00001752,-0.00001851,-0.00000001,-0.00000037,0.00001909,0.0
 0000005,-0.00000184,-0.00000496,-0.00000007,0.00000886,0.00001487,-0.0
 0000079,0.00001412,0.00001278,-0.00000028,0.00001667,-0.00001478,-0.00
 000006,0.00000345,-0.00001103,-0.00000476,0.00000355,-0.00001103,0.000
 00484\\\@


 My opinions may have changed, but not the fact that I am right.
                       -- Ashleigh Brilliant
 Job cpu time:       0 days  3 hours 51 minutes  1.0 seconds.
 File lengths (MBytes):  RWF=    597 Int=      0 D2E=      0 Chk=     24 Scr=      1
 Normal termination of Gaussian 09 at Thu Dec 19 18:14:48 2024.
