 Entering Gaussian System, Link 0=g09
 Input=ccpvTZFA.gjf
 Output=ccpvTZFA.log
 Initial command:
 /home/c612/g09E/g09/l1.exe "/mnt/ja_sm883/scratch/Gau-1989790.inp" -scrdir="/mnt/ja_sm883/scratch/"
 Default is to use a total of  18 processors:
                               18 via shared-memory
                                1 via Linda
 Entering Link 1 = /home/c612/g09E/g09/l1.exe PID=   1989792.
  
 Copyright (c) 1988,1990,1992,1993,1995,1998,2003,2009,2015,
            Gaussian, Inc.  All Rights Reserved.
  
 This is part of the Gaussian(R) 09 program.  It is based on
 the Gaussian(R) 03 system (copyright 2003, Gaussian, Inc.),
 the Gaussian(R) 98 system (copyright 1998, Gaussian, Inc.),
 the Gaussian(R) 94 system (copyright 1995, Gaussian, Inc.),
 the Gaussian 92(TM) system (copyright 1992, Gaussian, Inc.),
 the Gaussian 90(TM) system (copyright 1990, Gaussian, Inc.),
 the Gaussian 88(TM) system (copyright 1988, Gaussian, Inc.),
 the Gaussian 86(TM) system (copyright 1986, Carnegie Mellon
 University), and the Gaussian 82(TM) system (copyright 1983,
 Carnegie Mellon University). Gaussian is a federally registered
 trademark of Gaussian, Inc.
  
 This software contains proprietary and confidential information,
 including trade secrets, belonging to Gaussian, Inc.
  
 This software is provided under written license and may be
 used, copied, transmitted, or stored only in accord with that
 written license.
  
 The following legend is applicable only to US Government
 contracts under FAR:
  
                    RESTRICTED RIGHTS LEGEND
  
 Use, reproduction and disclosure by the US Government is
 subject to restrictions as set forth in subparagraphs (a)
 and (c) of the Commercial Computer Software - Restricted
 Rights clause in FAR 52.227-19.
  
 Gaussian, Inc.
 340 Quinnipiac St., Bldg. 40, Wallingford CT 06492
  
  
 ---------------------------------------------------------------
 Warning -- This program may not be used in any manner that
 competes with the business of Gaussian, Inc. or will provide
 assistance to any competitor of Gaussian, Inc.  The licensee
 of this program is prohibited from giving any competitor of
 Gaussian, Inc. access to this program.  By using this program,
 the user acknowledges that Gaussian, Inc. is engaged in the
 business of creating and licensing software in the field of
 computational chemistry and represents and warrants to the
 licensee that it is not a competitor of Gaussian, Inc. and that
 it will not use this program in any manner prohibited above.
 ---------------------------------------------------------------
  

 Cite this work as:
 Gaussian 09, Revision E.01,
 M. J. Frisch, G. W. Trucks, H. B. Schlegel, G. E. Scuseria, 
 M. A. Robb, J. R. Cheeseman, G. Scalmani, V. Barone, B. Mennucci, 
 G. A. Petersson, H. Nakatsuji, M. Caricato, X. Li, H. P. Hratchian, 
 A. F. Izmaylov, J. Bloino, G. Zheng, J. L. Sonnenberg, M. Hada, 
 M. Ehara, K. Toyota, R. Fukuda, J. Hasegawa, M. Ishida, T. Nakajima, 
 Y. Honda, O. Kitao, H. Nakai, T. Vreven, J. A. Montgomery, Jr., 
 J. E. Peralta, F. Ogliaro, M. Bearpark, J. J. Heyd, E. Brothers, 
 K. N. Kudin, V. N. Staroverov, T. Keith, R. Kobayashi, J. Normand, 
 K. Raghavachari, A. Rendell, J. C. Burant, S. S. Iyengar, J. Tomasi, 
 M. Cossi, N. Rega, J. M. Millam, M. Klene, J. E. Knox, J. B. Cross, 
 V. Bakken, C. Adamo, J. Jaramillo, R. Gomperts, R. E. Stratmann, 
 O. Yazyev, A. J. Austin, R. Cammi, C. Pomelli, J. W. Ochterski, 
 R. L. Martin, K. Morokuma, V. G. Zakrzewski, G. A. Voth, 
 P. Salvador, J. J. Dannenberg, S. Dapprich, A. D. Daniels, 
 O. Farkas, J. B. Foresman, J. V. Ortiz, J. Cioslowski, 
 and D. J. Fox, Gaussian, Inc., Wallingford CT, 2013.
 
 ******************************************
 Gaussian 09:  ES64L-G09RevE.01 30-Nov-2015
                19-Dec-2024 
 ******************************************
 %chk=ccpvTZFA.chk
 ------------------------
 # opt freq m062x/cc-pvtz
 ------------------------
 1/14=-1,18=20,19=15,26=3,38=1/1,3;
 2/9=110,12=2,17=6,18=5,40=1/2;
 3/5=16,6=1,11=2,16=1,25=1,30=1,71=1,74=-55/1,2,3;
 4//1;
 5/5=2,38=5/2;
 6/7=2,8=2,9=2,10=2,28=1/1;
 7//1,2,3,16;
 1/14=-1,18=20,19=15,26=3/3(2);
 2/9=110/2;
 99//99;
 2/9=110/2;
 3/5=16,6=1,11=2,16=1,25=1,30=1,71=1,74=-55/1,2,3;
 4/5=5,16=3,69=1/1;
 5/5=2,38=5/2;
 7//1,2,3,16;
 1/14=-1,18=20,19=15,26=3/3(-5);
 2/9=110/2;
 6/7=2,8=2,9=2,10=2,19=2,28=1/1;
 99/9=1/99;
 ----------
 [No Title]
 ----------
 Symbolic Z-matrix:
 Charge =  0 Multiplicity = 1
 C                     1.46107  -2.00985  -0.00037 
 C                     2.49208  -1.07753  -0.00025 
 C                     2.19145   0.29698  -0.00008 
 C                     0.86931   0.7171   -0.00003 
 C                    -0.17799  -0.22311  -0.00014 
 C                     0.13584  -1.58641  -0.00032 
 O                     3.77923  -1.49476  -0.0003 
 C                    -1.5577    0.27746  -0.00006 
 C                    -2.68268  -0.45393   0.00012 
 O                     3.29057   1.10702   0.00003 
 C                     3.06316   2.50523   0.00037 
 C                    -4.07207   0.07207   0.00035 
 O                    -5.02717  -0.66036   0.00179 
 O                    -4.2616    1.41435  -0.00097 
 H                     1.71812  -3.06705  -0.00051 
 H                     0.63158   1.77888   0.00011 
 H                    -0.65538  -2.33278  -0.00042 
 H                     4.35093  -0.71493  -0.00017 
 H                    -1.62004   1.37067  -0.00002 
 H                    -2.65752  -1.54174   0.00036 
 H                     4.04985   2.97355   0.0005 
 H                     2.50916   2.8081   -0.89908 
 H                     2.50911   2.80767   0.89994 
 H                    -3.4188    1.87951  -0.00267 
 

 GradGradGradGradGradGradGradGradGradGradGradGradGradGradGradGradGradGrad
 Berny optimization.
 Initialization pass.
                           ----------------------------
                           !    Initial Parameters    !
                           ! (Angstroms and Degrees)  !
 --------------------------                            --------------------------
 ! Name  Definition              Value          Derivative Info.                !
 --------------------------------------------------------------------------------
 ! R1    R(1,2)                  1.39           estimate D2E/DX2                !
 ! R2    R(1,6)                  1.3912         estimate D2E/DX2                !
 ! R3    R(1,15)                 1.088          estimate D2E/DX2                !
 ! R4    R(2,3)                  1.407          estimate D2E/DX2                !
 ! R5    R(2,7)                  1.3531         estimate D2E/DX2                !
 ! R6    R(3,4)                  1.3873         estimate D2E/DX2                !
 ! R7    R(3,10)                 1.3654         estimate D2E/DX2                !
 ! R8    R(4,5)                  1.4074         estimate D2E/DX2                !
 ! R9    R(4,16)                 1.0881         estimate D2E/DX2                !
 ! R10   R(5,6)                  1.399          estimate D2E/DX2                !
 ! R11   R(5,8)                  1.4677         estimate D2E/DX2                !
 ! R12   R(6,17)                 1.0877         estimate D2E/DX2                !
 ! R13   R(7,18)                 0.9669         estimate D2E/DX2                !
 ! R14   R(8,9)                  1.3418         estimate D2E/DX2                !
 ! R15   R(8,19)                 1.095          estimate D2E/DX2                !
 ! R16   R(9,12)                 1.4856         estimate D2E/DX2                !
 ! R17   R(9,20)                 1.0881         estimate D2E/DX2                !
 ! R18   R(10,11)                1.4166         estimate D2E/DX2                !
 ! R19   R(11,21)                1.0922         estimate D2E/DX2                !
 ! R20   R(11,22)                1.0989         estimate D2E/DX2                !
 ! R21   R(11,23)                1.0989         estimate D2E/DX2                !
 ! R22   R(12,13)                1.2036         estimate D2E/DX2                !
 ! R23   R(12,14)                1.3556         estimate D2E/DX2                !
 ! R24   R(14,24)                0.9627         estimate D2E/DX2                !
 ! A1    A(2,1,6)              120.1579         estimate D2E/DX2                !
 ! A2    A(2,1,15)             118.4565         estimate D2E/DX2                !
 ! A3    A(6,1,15)             121.3856         estimate D2E/DX2                !
 ! A4    A(1,2,3)              119.7852         estimate D2E/DX2                !
 ! A5    A(1,2,7)              119.9176         estimate D2E/DX2                !
 ! A6    A(3,2,7)              120.2972         estimate D2E/DX2                !
 ! A7    A(2,3,4)              119.965          estimate D2E/DX2                !
 ! A8    A(2,3,10)             114.0527         estimate D2E/DX2                !
 ! A9    A(4,3,10)             125.9823         estimate D2E/DX2                !
 ! A10   A(3,4,5)              120.4562         estimate D2E/DX2                !
 ! A11   A(3,4,16)             120.2481         estimate D2E/DX2                !
 ! A12   A(5,4,16)             119.2957         estimate D2E/DX2                !
 ! A13   A(4,5,6)              118.9526         estimate D2E/DX2                !
 ! A14   A(4,5,8)              118.1431         estimate D2E/DX2                !
 ! A15   A(6,5,8)              122.9042         estimate D2E/DX2                !
 ! A16   A(1,6,5)              120.6831         estimate D2E/DX2                !
 ! A17   A(1,6,17)             118.9506         estimate D2E/DX2                !
 ! A18   A(5,6,17)             120.3663         estimate D2E/DX2                !
 ! A19   A(2,7,18)             108.2855         estimate D2E/DX2                !
 ! A20   A(5,8,9)              127.0299         estimate D2E/DX2                !
 ! A21   A(5,8,19)             113.2045         estimate D2E/DX2                !
 ! A22   A(9,8,19)             119.7657         estimate D2E/DX2                !
 ! A23   A(8,9,12)             126.2352         estimate D2E/DX2                !
 ! A24   A(8,9,20)             121.7044         estimate D2E/DX2                !
 ! A25   A(12,9,20)            112.0604         estimate D2E/DX2                !
 ! A26   A(3,10,11)            117.1521         estimate D2E/DX2                !
 ! A27   A(10,11,21)           106.1528         estimate D2E/DX2                !
 ! A28   A(10,11,22)           110.6564         estimate D2E/DX2                !
 ! A29   A(10,11,23)           110.6565         estimate D2E/DX2                !
 ! A30   A(21,11,22)           109.7161         estimate D2E/DX2                !
 ! A31   A(21,11,23)           109.7162         estimate D2E/DX2                !
 ! A32   A(22,11,23)           109.8755         estimate D2E/DX2                !
 ! A33   A(9,12,13)            121.7814         estimate D2E/DX2                !
 ! A34   A(9,12,14)            118.7725         estimate D2E/DX2                !
 ! A35   A(13,12,14)           119.4462         estimate D2E/DX2                !
 ! A36   A(12,14,24)           110.858          estimate D2E/DX2                !
 ! D1    D(6,1,2,3)             -0.0003         estimate D2E/DX2                !
 ! D2    D(6,1,2,7)            179.9997         estimate D2E/DX2                !
 ! D3    D(15,1,2,3)           180.0            estimate D2E/DX2                !
 ! D4    D(15,1,2,7)             0.0            estimate D2E/DX2                !
 ! D5    D(2,1,6,5)              0.0002         estimate D2E/DX2                !
 ! D6    D(2,1,6,17)           179.9998         estimate D2E/DX2                !
 ! D7    D(15,1,6,5)           180.0            estimate D2E/DX2                !
 ! D8    D(15,1,6,17)           -0.0005         estimate D2E/DX2                !
 ! D9    D(1,2,3,4)             -0.0002         estimate D2E/DX2                !
 ! D10   D(1,2,3,10)           179.9999         estimate D2E/DX2                !
 ! D11   D(7,2,3,4)            179.9997         estimate D2E/DX2                !
 ! D12   D(7,2,3,10)            -0.0002         estimate D2E/DX2                !
 ! D13   D(1,2,7,18)          -179.9982         estimate D2E/DX2                !
 ! D14   D(3,2,7,18)             0.0018         estimate D2E/DX2                !
 ! D15   D(2,3,4,5)              0.0009         estimate D2E/DX2                !
 ! D16   D(2,3,4,16)           179.9998         estimate D2E/DX2                !
 ! D17   D(10,3,4,5)          -179.9993         estimate D2E/DX2                !
 ! D18   D(10,3,4,16)           -0.0004         estimate D2E/DX2                !
 ! D19   D(2,3,10,11)         -179.993          estimate D2E/DX2                !
 ! D20   D(4,3,10,11)            0.0072         estimate D2E/DX2                !
 ! D21   D(3,4,5,6)             -0.0009         estimate D2E/DX2                !
 ! D22   D(3,4,5,8)            179.9989         estimate D2E/DX2                !
 ! D23   D(16,4,5,6)          -179.9998         estimate D2E/DX2                !
 ! D24   D(16,4,5,8)             0.0            estimate D2E/DX2                !
 ! D25   D(4,5,6,1)              0.0004         estimate D2E/DX2                !
 ! D26   D(4,5,6,17)          -179.9992         estimate D2E/DX2                !
 ! D27   D(8,5,6,1)           -179.9994         estimate D2E/DX2                !
 ! D28   D(8,5,6,17)             0.001          estimate D2E/DX2                !
 ! D29   D(4,5,8,9)           -179.9859         estimate D2E/DX2                !
 ! D30   D(4,5,8,19)             0.006          estimate D2E/DX2                !
 ! D31   D(6,5,8,9)              0.0139         estimate D2E/DX2                !
 ! D32   D(6,5,8,19)          -179.9941         estimate D2E/DX2                !
 ! D33   D(5,8,9,12)           179.9927         estimate D2E/DX2                !
 ! D34   D(5,8,9,20)             0.0082         estimate D2E/DX2                !
 ! D35   D(19,8,9,12)            0.0013         estimate D2E/DX2                !
 ! D36   D(19,8,9,20)         -179.9833         estimate D2E/DX2                !
 ! D37   D(8,9,12,13)         -179.9279         estimate D2E/DX2                !
 ! D38   D(8,9,12,14)            0.0658         estimate D2E/DX2                !
 ! D39   D(20,9,12,13)           0.0579         estimate D2E/DX2                !
 ! D40   D(20,9,12,14)        -179.9484         estimate D2E/DX2                !
 ! D41   D(3,10,11,21)         179.9946         estimate D2E/DX2                !
 ! D42   D(3,10,11,22)         -61.0225         estimate D2E/DX2                !
 ! D43   D(3,10,11,23)          61.0117         estimate D2E/DX2                !
 ! D44   D(9,12,14,24)           0.0454         estimate D2E/DX2                !
 ! D45   D(13,12,14,24)       -179.9608         estimate D2E/DX2                !
 --------------------------------------------------------------------------------
 Trust Radius=3.00D-01 FncErr=1.00D-07 GrdErr=1.00D-06
 Number of steps in this run=    115 maximum allowed number of steps=    144.
 GradGradGradGradGradGradGradGradGradGradGradGradGradGradGradGradGradGrad

                          Input orientation:                          
 ---------------------------------------------------------------------
 Center     Atomic      Atomic             Coordinates (Angstroms)
 Number     Number       Type             X           Y           Z
 ---------------------------------------------------------------------
      1          6           0        1.461071   -2.009847   -0.000374
      2          6           0        2.492078   -1.077530   -0.000252
      3          6           0        2.191452    0.296983   -0.000076
      4          6           0        0.869309    0.717100   -0.000030
      5          6           0       -0.177985   -0.223109   -0.000140
      6          6           0        0.135838   -1.586408   -0.000316
      7          8           0        3.779232   -1.494760   -0.000304
      8          6           0       -1.557703    0.277457   -0.000060
      9          6           0       -2.682681   -0.453928    0.000122
     10          8           0        3.290567    1.107019    0.000033
     11          6           0        3.063160    2.505232    0.000367
     12          6           0       -4.072075    0.072066    0.000353
     13          8           0       -5.027171   -0.660356    0.001794
     14          8           0       -4.261603    1.414352   -0.000974
     15          1           0        1.718121   -3.067046   -0.000510
     16          1           0        0.631579    1.778880    0.000110
     17          1           0       -0.655375   -2.332782   -0.000417
     18          1           0        4.350935   -0.714930   -0.000174
     19          1           0       -1.620039    1.370665   -0.000024
     20          1           0       -2.657524   -1.541741    0.000363
     21          1           0        4.049850    2.973548    0.000504
     22          1           0        2.509157    2.808100   -0.899083
     23          1           0        2.509113    2.807665    0.899935
     24          1           0       -3.418796    1.879507   -0.002665
 ---------------------------------------------------------------------
                    Distance matrix (angstroms):
                    1          2          3          4          5
     1  C    0.000000
     2  C    1.390033   0.000000
     3  C    2.419694   1.407005   0.000000
     4  C    2.790416   2.419520   1.387285   0.000000
     5  C    2.424652   2.803439   2.425846   1.407415   0.000000
     6  C    1.391238   2.410565   2.787958   2.417463   1.398953
     7  O    2.374697   1.353088   2.394032   3.655130   4.156521
     8  C    3.787447   4.270447   3.749206   2.466510   1.467715
     9  C    4.426236   5.212198   4.931637   3.740045   2.515309
    10  O    3.614126   2.325906   1.365362   2.452453   3.714848
    11  C    4.790890   3.627991   2.374076   2.830265   4.236610
    12  C    5.911858   6.664059   6.267564   4.983307   3.905261
    13  O    6.627097   7.530813   7.281828   6.055234   4.868860
    14  O    6.668893   7.198728   6.549079   5.178071   4.399684
    15  H    1.088000   2.134756   3.397166   3.878175   3.418069
    16  H    3.878467   3.408891   2.151563   1.088068   2.159480
    17  H    2.140942   3.388527   3.875576   3.409757   2.163012
    18  H    3.166721   1.893892   2.384813   3.764629   4.555547
    19  H    4.573959   4.785725   3.959830   2.573713   2.149334
    20  H    4.145111   5.170483   5.185892   4.188187   2.808363
    21  H    5.615693   4.340263   3.258473   3.899667   5.300302
    22  H    5.011863   3.988271   2.686049   2.805295   4.149344
    23  H    5.011723   3.988153   2.685973   2.805237   4.149244
    24  H    6.240207   6.609274   5.829174   4.442864   3.863141
                    6          7          8          9         10
     6  C    0.000000
     7  O    3.644547   0.000000
     8  C    2.518347   5.623489   0.000000
     9  C    3.037525   6.545201   1.341827   0.000000
    10  O    4.148116   2.647272   4.918729   6.173836   0.000000
    11  C    5.030977   4.063582   5.129850   6.463073   1.416585
    12  C    4.522949   8.006121   2.522747   1.485626   7.435027
    13  O    5.245402   8.845845   3.593982   2.353561   8.503434
    14  O    5.323725   8.550904   2.933190   2.446112   7.558421
    15  H    2.167004   2.592347   4.681530   5.118149   4.460427
    16  H    3.401606   4.541414   2.654661   3.996217   2.742556
    17  H    1.087700   4.513094   2.761801   2.764066   5.234758
    18  H    4.304244   0.966943   5.991397   7.038457   2.108051
    19  H    3.439097   6.112511   1.094984   2.111480   4.917678
    20  H    2.793719   6.436927   2.125815   1.088104   6.511199
    21  H    6.009383   4.476495   6.222022   7.554771   2.015054
    22  H    5.074655   4.575533   4.873576   6.197143   2.076701
    23  H    5.074521   4.575423   4.873493   6.196965   2.076702
    24  H    4.964675   7.949672   2.455654   2.446792   6.753688
                   11         12         13         14         15
    11  C    0.000000
    12  C    7.538692   0.000000
    13  O    8.687601   1.203600   0.000000
    14  O    7.405550   1.355601   2.211451   0.000000
    15  H    5.732313   6.586379   7.161782   7.472619   0.000000
    16  H    2.537750   5.003756   6.162088   4.906741   4.966243
    17  H    6.101957   4.178173   4.680771   5.200567   2.484477
    18  H    3.468113   8.459696   9.378265   8.871846   3.530462
    19  H    4.818672   2.774678   3.966560   2.641925   5.553070
    20  H    7.007440   2.146003   2.528254   3.363266   4.633878
    21  H    1.092189   8.624631   9.777401   8.456438   6.475009
    22  H    1.098935   7.183835   8.344939   6.970819   5.995875
    23  H    1.098934   7.183647   8.344423   6.971051   5.995723
    24  H    6.512088   1.921881   3.006292   0.962650   7.131361
                   16         17         18         19         20
    16  H    0.000000
    17  H    4.308366   0.000000
    18  H    4.478024   5.261234   0.000000
    19  H    2.288323   3.827022   6.324732   0.000000
    20  H    4.673834   2.152753   7.057061   3.091680   0.000000
    21  H    3.621023   7.091987   3.700746   5.892103   8.085586
    22  H    2.322314   6.103321   4.075773   4.463719   6.813568
    23  H    2.322330   6.103181   4.075682   4.463719   6.813274
    24  H    4.051626   5.037845   8.191449   1.869346   3.504923
                   21         22         23         24
    21  H    0.000000
    22  H    1.791749   0.000000
    23  H    1.791749   1.799018   0.000000
    24  H    7.548351   6.066834   6.067641   0.000000
 Stoichiometry    C10H10O4
 Framework group  C1[X(C10H10O4)]
 Deg. of freedom    66
 Full point group                 C1      NOp   1
 Largest Abelian subgroup         C1      NOp   1
 Largest concise Abelian subgroup C1      NOp   1
                         Standard orientation:                         
 ---------------------------------------------------------------------
 Center     Atomic      Atomic             Coordinates (Angstroms)
 Number     Number       Type             X           Y           Z
 ---------------------------------------------------------------------
      1          6           0        1.461071   -2.009847   -0.000374
      2          6           0        2.492078   -1.077530   -0.000252
      3          6           0        2.191452    0.296983   -0.000076
      4          6           0        0.869309    0.717100   -0.000030
      5          6           0       -0.177985   -0.223109   -0.000140
      6          6           0        0.135838   -1.586408   -0.000316
      7          8           0        3.779232   -1.494760   -0.000304
      8          6           0       -1.557703    0.277457   -0.000060
      9          6           0       -2.682681   -0.453928    0.000122
     10          8           0        3.290567    1.107019    0.000033
     11          6           0        3.063160    2.505232    0.000367
     12          6           0       -4.072075    0.072066    0.000353
     13          8           0       -5.027171   -0.660356    0.001794
     14          8           0       -4.261603    1.414352   -0.000974
     15          1           0        1.718121   -3.067046   -0.000510
     16          1           0        0.631579    1.778880    0.000110
     17          1           0       -0.655375   -2.332782   -0.000417
     18          1           0        4.350935   -0.714930   -0.000174
     19          1           0       -1.620039    1.370665   -0.000024
     20          1           0       -2.657524   -1.541741    0.000363
     21          1           0        4.049850    2.973548    0.000504
     22          1           0        2.509157    2.808100   -0.899083
     23          1           0        2.509113    2.807665    0.899935
     24          1           0       -3.418796    1.879507   -0.002665
 ---------------------------------------------------------------------
 Rotational constants (GHZ):      1.5497093      0.2861660      0.2419372
 Standard basis: CC-pVTZ (5D, 7F)
 There are   640 symmetry adapted cartesian basis functions of A   symmetry.
 There are   560 symmetry adapted basis functions of A   symmetry.
   560 basis functions,   898 primitive gaussians,   640 cartesian basis functions
    51 alpha electrons       51 beta electrons
       nuclear repulsion energy       824.3510165431 Hartrees.
 NAtoms=   24 NActive=   24 NUniq=   24 SFac= 1.00D+00 NAtFMM=   60 NAOKFM=F Big=F
 Integral buffers will be    131072 words long.
 Raffenetti 2 integral format.
 Two-electron integral symmetry is turned on.
 One-electron integrals computed using PRISM.
 NBasis=   560 RedAO= T EigKep=  3.37D-05  NBF=   560
 NBsUse=   560 1.00D-06 EigRej= -1.00D+00 NBFU=   560
 ExpMin= 1.03D-01 ExpMax= 1.53D+04 ExpMxC= 5.22D+02 IAcc=1 IRadAn=         1 AccDes= 0.00D+00
 Harris functional with IExCor= 1009 and IRadAn=       1 diagonalized for initial guess.
 HarFok:  IExCor= 1009 AccDes= 0.00D+00 IRadAn=         1 IDoV= 1 UseB2=F ITyADJ=14
 ICtDFT=  3500011 ScaDFX=  1.000000  1.000000  1.000000  1.000000
 FoFCou: FMM=F IPFlag=           0 FMFlag=      100000 FMFlg1=           0
         NFxFlg=           0 DoJE=T BraDBF=F KetDBF=T FulRan=T
         wScrn=  0.000000 ICntrl=     500 IOpCl=  0 I1Cent=   200000004 NGrid=           0
         NMat0=    1 NMatS0=      1 NMatT0=    0 NMatD0=    1 NMtDS0=    0 NMtDT0=    0
 Petite list used in FoFCou.
 Requested convergence on RMS density matrix=1.00D-08 within 128 cycles.
 Requested convergence on MAX density matrix=1.00D-06.
 Requested convergence on             energy=1.00D-06.
 No special actions if energy rises.
 Integral accuracy reduced to 1.0D-05 until final iterations.
 Initial convergence to 1.0D-05 achieved.  Increase integral accuracy.
 SCF Done:  E(RM062X) =  -687.952335512     A.U. after   17 cycles
            NFock= 17  Conv=0.33D-08     -V/T= 2.0058

 **********************************************************************

            Population analysis using the SCF density.

 **********************************************************************

 Orbital symmetries:
       Occupied  (A) (A) (A) (A) (A) (A) (A) (A) (A) (A) (A) (A)
                 (A) (A) (A) (A) (A) (A) (A) (A) (A) (A) (A) (A)
                 (A) (A) (A) (A) (A) (A) (A) (A) (A) (A) (A) (A)
                 (A) (A) (A) (A) (A) (A) (A) (A) (A) (A) (A) (A)
                 (A) (A) (A)
       Virtual   (A) (A) (A) (A) (A) (A) (A) (A) (A) (A) (A) (A)
                 (A) (A) (A) (A) (A) (A) (A) (A) (A) (A) (A) (A)
                 (A) (A) (A) (A) (A) (A) (A) (A) (A) (A) (A) (A)
                 (A) (A) (A) (A) (A) (A) (A) (A) (A) (A) (A) (A)
                 (A) (A) (A) (A) (A) (A) (A) (A) (A) (A) (A) (A)
                 (A) (A) (A) (A) (A) (A) (A) (A) (A) (A) (A) (A)
                 (A) (A) (A) (A) (A) (A) (A) (A) (A) (A) (A) (A)
                 (A) (A) (A) (A) (A) (A) (A) (A) (A) (A) (A) (A)
                 (A) (A) (A) (A) (A) (A) (A) (A) (A) (A) (A) (A)
                 (A) (A) (A) (A) (A) (A) (A) (A) (A) (A) (A) (A)
                 (A) (A) (A) (A) (A) (A) (A) (A) (A) (A) (A) (A)
                 (A) (A) (A) (A) (A) (A) (A) (A) (A) (A) (A) (A)
                 (A) (A) (A) (A) (A) (A) (A) (A) (A) (A) (A) (A)
                 (A) (A) (A) (A) (A) (A) (A) (A) (A) (A) (A) (A)
                 (A) (A) (A) (A) (A) (A) (A) (A) (A) (A) (A) (A)
                 (A) (A) (A) (A) (A) (A) (A) (A) (A) (A) (A) (A)
                 (A) (A) (A) (A) (A) (A) (A) (A) (A) (A) (A) (A)
                 (A) (A) (A) (A) (A) (A) (A) (A) (A) (A) (A) (A)
                 (A) (A) (A) (A) (A) (A) (A) (A) (A) (A) (A) (A)
                 (A) (A) (A) (A) (A) (A) (A) (A) (A) (A) (A) (A)
                 (A) (A) (A) (A) (A) (A) (A) (A) (A) (A) (A) (A)
                 (A) (A) (A) (A) (A) (A) (A) (A) (A) (A) (A) (A)
                 (A) (A) (A) (A) (A) (A) (A) (A) (A) (A) (A) (A)
                 (A) (A) (A) (A) (A) (A) (A) (A) (A) (A) (A) (A)
                 (A) (A) (A) (A) (A) (A) (A) (A) (A) (A) (A) (A)
                 (A) (A) (A) (A) (A) (A) (A) (A) (A) (A) (A) (A)
                 (A) (A) (A) (A) (A) (A) (A) (A) (A) (A) (A) (A)
                 (A) (A) (A) (A) (A) (A) (A) (A) (A) (A) (A) (A)
                 (A) (A) (A) (A) (A) (A) (A) (A) (A) (A) (A) (A)
                 (A) (A) (A) (A) (A) (A) (A) (A) (A) (A) (A) (A)
                 (A) (A) (A) (A) (A) (A) (A) (A) (A) (A) (A) (A)
                 (A) (A) (A) (A) (A) (A) (A) (A) (A) (A) (A) (A)
                 (A) (A) (A) (A) (A) (A) (A) (A) (A) (A) (A) (A)
                 (A) (A) (A) (A) (A) (A) (A) (A) (A) (A) (A) (A)
                 (A) (A) (A) (A) (A) (A) (A) (A) (A) (A) (A) (A)
                 (A) (A) (A) (A) (A) (A) (A) (A) (A) (A) (A) (A)
                 (A) (A) (A) (A) (A) (A) (A) (A) (A) (A) (A) (A)
                 (A) (A) (A) (A) (A) (A) (A) (A) (A) (A) (A) (A)
                 (A) (A) (A) (A) (A) (A) (A) (A) (A) (A) (A) (A)
                 (A) (A) (A) (A) (A) (A) (A) (A) (A) (A) (A) (A)
                 (A) (A) (A) (A) (A) (A) (A) (A) (A) (A) (A) (A)
                 (A) (A) (A) (A) (A) (A) (A) (A) (A) (A) (A) (A)
                 (A) (A) (A) (A) (A)
 The electronic state is 1-A.
 Alpha  occ. eigenvalues --  -19.68707 -19.66769 -19.66664 -19.60501 -10.67431
 Alpha  occ. eigenvalues --  -10.62576 -10.62482 -10.61828 -10.58726 -10.57384
 Alpha  occ. eigenvalues --  -10.57086 -10.56572 -10.56332 -10.55987  -1.23034
 Alpha  occ. eigenvalues --   -1.22649  -1.19606  -1.13778  -0.98641  -0.92135
 Alpha  occ. eigenvalues --   -0.87506  -0.85917  -0.81520  -0.75746  -0.71619
 Alpha  occ. eigenvalues --   -0.70480  -0.67849  -0.65810  -0.62650  -0.60255
 Alpha  occ. eigenvalues --   -0.58849  -0.58128  -0.55276  -0.53740  -0.53022
 Alpha  occ. eigenvalues --   -0.52687  -0.51705  -0.51307  -0.50351  -0.47183
 Alpha  occ. eigenvalues --   -0.46943  -0.45188  -0.45178  -0.43829  -0.43085
 Alpha  occ. eigenvalues --   -0.42351  -0.39523  -0.36355  -0.35336  -0.31817
 Alpha  occ. eigenvalues --   -0.27505
 Alpha virt. eigenvalues --   -0.04383   0.01040   0.03906   0.05207   0.05691
 Alpha virt. eigenvalues --    0.06732   0.08054   0.10412   0.11025   0.12169
 Alpha virt. eigenvalues --    0.12404   0.13341   0.14003   0.17911   0.19406
 Alpha virt. eigenvalues --    0.19476   0.20421   0.22481   0.23885   0.25665
 Alpha virt. eigenvalues --    0.26042   0.27072   0.28354   0.28807   0.29077
 Alpha virt. eigenvalues --    0.29714   0.30718   0.31672   0.32652   0.33592
 Alpha virt. eigenvalues --    0.34262   0.34598   0.36090   0.36232   0.36246
 Alpha virt. eigenvalues --    0.38158   0.38254   0.38886   0.39497   0.40224
 Alpha virt. eigenvalues --    0.40851   0.41868   0.42874   0.43630   0.43658
 Alpha virt. eigenvalues --    0.43867   0.44406   0.45528   0.45798   0.46815
 Alpha virt. eigenvalues --    0.47435   0.48316   0.48382   0.48975   0.49256
 Alpha virt. eigenvalues --    0.50117   0.51798   0.52742   0.53817   0.54710
 Alpha virt. eigenvalues --    0.54857   0.55645   0.57149   0.57652   0.58748
 Alpha virt. eigenvalues --    0.60643   0.62709   0.63530   0.65328   0.65792
 Alpha virt. eigenvalues --    0.66839   0.67231   0.67351   0.69187   0.70221
 Alpha virt. eigenvalues --    0.70271   0.71389   0.71914   0.72996   0.73460
 Alpha virt. eigenvalues --    0.74558   0.75133   0.76130   0.76540   0.77122
 Alpha virt. eigenvalues --    0.77441   0.79195   0.79695   0.80573   0.81246
 Alpha virt. eigenvalues --    0.83151   0.83295   0.83746   0.84865   0.85180
 Alpha virt. eigenvalues --    0.85692   0.86110   0.86342   0.87961   0.88853
 Alpha virt. eigenvalues --    0.91197   0.92222   0.92594   0.93676   0.95252
 Alpha virt. eigenvalues --    0.95807   0.98183   0.98295   0.99217   0.99748
 Alpha virt. eigenvalues --    1.00992   1.01481   1.01588   1.03684   1.03710
 Alpha virt. eigenvalues --    1.07243   1.08176   1.09354   1.09669   1.10393
 Alpha virt. eigenvalues --    1.11619   1.12944   1.13717   1.15675   1.17823
 Alpha virt. eigenvalues --    1.18962   1.20094   1.22667   1.22677   1.23671
 Alpha virt. eigenvalues --    1.23845   1.26844   1.27478   1.27597   1.29136
 Alpha virt. eigenvalues --    1.30554   1.30682   1.32258   1.32505   1.34187
 Alpha virt. eigenvalues --    1.35119   1.35648   1.36376   1.37693   1.38170
 Alpha virt. eigenvalues --    1.40657   1.42323   1.43099   1.44016   1.44657
 Alpha virt. eigenvalues --    1.45858   1.47213   1.47894   1.50356   1.51727
 Alpha virt. eigenvalues --    1.52695   1.56479   1.56937   1.59094   1.60421
 Alpha virt. eigenvalues --    1.62290   1.62381   1.63830   1.65377   1.66996
 Alpha virt. eigenvalues --    1.69268   1.70357   1.73329   1.74338   1.79754
 Alpha virt. eigenvalues --    1.79823   1.81988   1.83521   1.86255   1.89471
 Alpha virt. eigenvalues --    1.90952   1.94271   1.98588   1.99291   2.02337
 Alpha virt. eigenvalues --    2.02515   2.03131   2.05663   2.05759   2.08389
 Alpha virt. eigenvalues --    2.09395   2.09983   2.10168   2.15022   2.16108
 Alpha virt. eigenvalues --    2.17155   2.17166   2.18485   2.19168   2.20700
 Alpha virt. eigenvalues --    2.22338   2.22839   2.26898   2.27094   2.28271
 Alpha virt. eigenvalues --    2.31806   2.32246   2.32567   2.32708   2.33920
 Alpha virt. eigenvalues --    2.35461   2.37649   2.39789   2.39922   2.41585
 Alpha virt. eigenvalues --    2.43600   2.45900   2.47368   2.48227   2.49970
 Alpha virt. eigenvalues --    2.51416   2.52316   2.52974   2.54443   2.54617
 Alpha virt. eigenvalues --    2.54710   2.56227   2.58855   2.61213   2.62581
 Alpha virt. eigenvalues --    2.64807   2.65388   2.65625   2.66877   2.67369
 Alpha virt. eigenvalues --    2.69689   2.69835   2.70644   2.70875   2.72116
 Alpha virt. eigenvalues --    2.72345   2.75020   2.75749   2.77243   2.78740
 Alpha virt. eigenvalues --    2.80196   2.81644   2.82318   2.83343   2.83661
 Alpha virt. eigenvalues --    2.86351   2.87561   2.88000   2.88612   2.88621
 Alpha virt. eigenvalues --    2.90991   2.91872   2.92201   2.94534   2.95329
 Alpha virt. eigenvalues --    2.96227   2.96361   2.96541   2.99189   2.99471
 Alpha virt. eigenvalues --    3.00767   3.01241   3.01945   3.02181   3.04119
 Alpha virt. eigenvalues --    3.04289   3.05455   3.05980   3.06689   3.06931
 Alpha virt. eigenvalues --    3.07939   3.08463   3.09429   3.09848   3.11049
 Alpha virt. eigenvalues --    3.12022   3.12924   3.14520   3.15113   3.15239
 Alpha virt. eigenvalues --    3.17600   3.18810   3.19863   3.20079   3.22646
 Alpha virt. eigenvalues --    3.23132   3.24285   3.24872   3.25628   3.26637
 Alpha virt. eigenvalues --    3.28086   3.28141   3.29656   3.29934   3.31349
 Alpha virt. eigenvalues --    3.31976   3.32207   3.34009   3.34807   3.34903
 Alpha virt. eigenvalues --    3.35651   3.37603   3.38220   3.39574   3.40416
 Alpha virt. eigenvalues --    3.41424   3.42170   3.43008   3.44821   3.46085
 Alpha virt. eigenvalues --    3.46526   3.47656   3.48418   3.49399   3.50764
 Alpha virt. eigenvalues --    3.51707   3.52901   3.54410   3.57402   3.58131
 Alpha virt. eigenvalues --    3.58671   3.59932   3.60683   3.61836   3.63044
 Alpha virt. eigenvalues --    3.65013   3.65120   3.66238   3.67740   3.69721
 Alpha virt. eigenvalues --    3.71712   3.73284   3.73537   3.75464   3.76869
 Alpha virt. eigenvalues --    3.77309   3.78918   3.79422   3.79738   3.80579
 Alpha virt. eigenvalues --    3.82222   3.82913   3.83665   3.83942   3.88362
 Alpha virt. eigenvalues --    3.88586   3.89706   3.90397   3.90446   3.90899
 Alpha virt. eigenvalues --    3.92939   3.93887   3.94670   3.95538   3.95552
 Alpha virt. eigenvalues --    3.99654   4.00137   4.00688   4.02233   4.03071
 Alpha virt. eigenvalues --    4.03143   4.05213   4.06003   4.06970   4.10536
 Alpha virt. eigenvalues --    4.10714   4.11751   4.12729   4.14796   4.15496
 Alpha virt. eigenvalues --    4.16062   4.17482   4.17921   4.18666   4.18797
 Alpha virt. eigenvalues --    4.21589   4.22821   4.23225   4.25482   4.28056
 Alpha virt. eigenvalues --    4.29176   4.29318   4.30005   4.31031   4.33133
 Alpha virt. eigenvalues --    4.34093   4.35340   4.37813   4.40261   4.43835
 Alpha virt. eigenvalues --    4.44768   4.46353   4.49483   4.53058   4.57770
 Alpha virt. eigenvalues --    4.59191   4.60941   4.61129   4.63856   4.64023
 Alpha virt. eigenvalues --    4.67405   4.69504   4.70066   4.71400   4.73745
 Alpha virt. eigenvalues --    4.74132   4.75058   4.79582   4.80925   4.82984
 Alpha virt. eigenvalues --    4.87110   4.87953   4.88759   4.89165   4.91077
 Alpha virt. eigenvalues --    4.91537   4.94718   4.96402   4.98050   5.02575
 Alpha virt. eigenvalues --    5.03305   5.05080   5.05378   5.10400   5.11832
 Alpha virt. eigenvalues --    5.12233   5.15333   5.19216   5.21034   5.21818
 Alpha virt. eigenvalues --    5.22989   5.23759   5.30090   5.33391   5.33641
 Alpha virt. eigenvalues --    5.36916   5.40458   5.41535   5.43348   5.45682
 Alpha virt. eigenvalues --    5.53208   5.54430   5.56625   5.57842   5.61089
 Alpha virt. eigenvalues --    5.64480   5.65590   5.66573   5.73406   5.77848
 Alpha virt. eigenvalues --    5.78350   5.80439   5.82063   5.83094   5.88811
 Alpha virt. eigenvalues --    5.92561   5.94286   5.99582   6.01346   6.07305
 Alpha virt. eigenvalues --    6.09779   6.19205   6.22746   6.24969   6.35096
 Alpha virt. eigenvalues --    6.37177   6.40031   6.40680   6.44770   6.45920
 Alpha virt. eigenvalues --    6.56020   6.58437   6.58495   6.62651   6.65259
 Alpha virt. eigenvalues --    6.65655   6.74140   6.75965   6.76841   6.77486
 Alpha virt. eigenvalues --    6.83089   6.84675   6.89102   6.89416   6.93037
 Alpha virt. eigenvalues --    6.96460   7.04995   7.05188   7.14963   7.19708
 Alpha virt. eigenvalues --    7.29876   7.30678   7.36876   7.42598   7.43802
 Alpha virt. eigenvalues --    8.83943  10.07768  11.28268  11.49295  12.02720
 Alpha virt. eigenvalues --   12.35810  12.46189  12.67922  12.91495  13.20273
 Alpha virt. eigenvalues --   13.43565  13.72303  14.54426  15.30916
          Condensed to atoms (all electrons):
               1          2          3          4          5          6
     1  C    4.988824   0.484381  -0.017892  -0.060476  -0.046368   0.505689
     2  C    0.484381   4.813490   0.296838   0.046788  -0.053420  -0.067438
     3  C   -0.017892   0.296838   5.193152   0.216936   0.030634  -0.037412
     4  C   -0.060476   0.046788   0.216936   5.527649   0.233760  -0.061489
     5  C   -0.046368  -0.053420   0.030634   0.233760   5.156906   0.477117
     6  C    0.505689  -0.067438  -0.037412  -0.061489   0.477117   4.925203
     7  O   -0.068286   0.422129  -0.094136   0.014246  -0.001831   0.004321
     8  C    0.002883   0.000687   0.004208  -0.006662   0.257800  -0.063139
     9  C    0.000921   0.000115  -0.001292  -0.001435  -0.029337  -0.001318
    10  O    0.004027  -0.056205   0.371555  -0.091304   0.009160   0.000244
    11  C   -0.000399   0.002547  -0.065950  -0.005480  -0.002019   0.000204
    12  C   -0.000085  -0.000002   0.000038  -0.000411   0.002071  -0.000886
    13  O   -0.000002  -0.000000   0.000000   0.000012  -0.000656  -0.000049
    14  O   -0.000001  -0.000000  -0.000000  -0.000074   0.002012  -0.000063
    15  H    0.425556  -0.064551   0.016101  -0.004946   0.009177  -0.048935
    16  H    0.000009   0.003000  -0.040120   0.419525  -0.050484   0.003037
    17  H   -0.040656   0.009046  -0.003008   0.008520  -0.050718   0.423153
    18  H    0.002831  -0.029173  -0.027614   0.005243  -0.000917  -0.000264
    19  H   -0.000141  -0.000238   0.002176  -0.002349  -0.036903   0.003511
    20  H   -0.000154  -0.000056   0.000090   0.000726  -0.000876   0.000366
    21  H    0.000047   0.000359   0.004641  -0.000192   0.000206  -0.000010
    22  H   -0.000077   0.000105  -0.006511   0.004762  -0.001285  -0.000028
    23  H   -0.000078   0.000105  -0.006504   0.004762  -0.001285  -0.000028
    24  H    0.000003  -0.000000  -0.000031  -0.000470   0.003085   0.000184
               7          8          9         10         11         12
     1  C   -0.068286   0.002883   0.000921   0.004027  -0.000399  -0.000085
     2  C    0.422129   0.000687   0.000115  -0.056205   0.002547  -0.000002
     3  C   -0.094136   0.004208  -0.001292   0.371555  -0.065950   0.000038
     4  C    0.014246  -0.006662  -0.001435  -0.091304  -0.005480  -0.000411
     5  C   -0.001831   0.257800  -0.029337   0.009160  -0.002019   0.002071
     6  C    0.004321  -0.063139  -0.001318   0.000244   0.000204  -0.000886
     7  O    7.722069   0.000010   0.000000  -0.010216  -0.000286  -0.000000
     8  C    0.000010   5.389345   0.140965  -0.000243   0.000017   0.004835
     9  C    0.000000   0.140965   5.942394  -0.000001   0.000003   0.182422
    10  O   -0.010216  -0.000243  -0.000001   7.870947   0.292317   0.000000
    11  C   -0.000286   0.000017   0.000003   0.292317   4.751584  -0.000000
    12  C   -0.000000   0.004835   0.182422   0.000000  -0.000000   4.267916
    13  O    0.000000   0.019392  -0.131816  -0.000000   0.000000   0.785139
    14  O    0.000000   0.022367  -0.144240  -0.000000   0.000000   0.444093
    15  H    0.004477  -0.000102  -0.000034  -0.000110   0.000026   0.000000
    16  H   -0.000012   0.001665   0.000959  -0.007590   0.005569  -0.000123
    17  H   -0.000100  -0.012980   0.007693   0.000010  -0.000001  -0.000441
    18  H    0.339342   0.000010  -0.000000   0.023439  -0.001468  -0.000000
    19  H   -0.000001   0.403882  -0.072250   0.000025   0.000033  -0.000582
    20  H    0.000000  -0.024041   0.348158  -0.000000   0.000000  -0.012845
    21  H    0.000015  -0.000003  -0.000000  -0.030462   0.401866   0.000000
    22  H   -0.000052   0.000016   0.000002  -0.045050   0.397302  -0.000000
    23  H   -0.000052   0.000015   0.000002  -0.045052   0.397302  -0.000000
    24  H    0.000000   0.001459  -0.002757  -0.000000  -0.000000  -0.018955
              13         14         15         16         17         18
     1  C   -0.000002  -0.000001   0.425556   0.000009  -0.040656   0.002831
     2  C   -0.000000  -0.000000  -0.064551   0.003000   0.009046  -0.029173
     3  C    0.000000  -0.000000   0.016101  -0.040120  -0.003008  -0.027614
     4  C    0.000012  -0.000074  -0.004946   0.419525   0.008520   0.005243
     5  C   -0.000656   0.002012   0.009177  -0.050484  -0.050718  -0.000917
     6  C   -0.000049  -0.000063  -0.048935   0.003037   0.423153  -0.000264
     7  O    0.000000   0.000000   0.004477  -0.000012  -0.000100   0.339342
     8  C    0.019392   0.022367  -0.000102   0.001665  -0.012980   0.000010
     9  C   -0.131816  -0.144240  -0.000034   0.000959   0.007693  -0.000000
    10  O   -0.000000  -0.000000  -0.000110  -0.007590   0.000010   0.023439
    11  C    0.000000   0.000000   0.000026   0.005569  -0.000001  -0.001468
    12  C    0.785139   0.444093   0.000000  -0.000123  -0.000441  -0.000000
    13  O    7.742256  -0.095530   0.000000  -0.000001  -0.000253   0.000000
    14  O   -0.095530   7.724195   0.000000  -0.000035  -0.000025   0.000000
    15  H    0.000000   0.000000   0.547513   0.000026  -0.008958  -0.000830
    16  H   -0.000001  -0.000035   0.000026   0.534602  -0.000267   0.000085
    17  H   -0.000253  -0.000025  -0.008958  -0.000267   0.554230   0.000033
    18  H    0.000000   0.000000  -0.000830   0.000085   0.000033   0.416505
    19  H    0.000637   0.001748   0.000024   0.003291  -0.000144  -0.000001
    20  H    0.007920   0.004935   0.000034   0.000001   0.001347   0.000000
    21  H    0.000000   0.000000  -0.000001  -0.000223  -0.000000  -0.000316
    22  H    0.000000   0.000000   0.000000  -0.000364   0.000001   0.000183
    23  H    0.000000   0.000000   0.000000  -0.000366   0.000001   0.000183
    24  H    0.005238   0.317399  -0.000000  -0.000002   0.000048   0.000000
              19         20         21         22         23         24
     1  C   -0.000141  -0.000154   0.000047  -0.000077  -0.000078   0.000003
     2  C   -0.000238  -0.000056   0.000359   0.000105   0.000105  -0.000000
     3  C    0.002176   0.000090   0.004641  -0.006511  -0.006504  -0.000031
     4  C   -0.002349   0.000726  -0.000192   0.004762   0.004762  -0.000470
     5  C   -0.036903  -0.000876   0.000206  -0.001285  -0.001285   0.003085
     6  C    0.003511   0.000366  -0.000010  -0.000028  -0.000028   0.000184
     7  O   -0.000001   0.000000   0.000015  -0.000052  -0.000052   0.000000
     8  C    0.403882  -0.024041  -0.000003   0.000016   0.000015   0.001459
     9  C   -0.072250   0.348158  -0.000000   0.000002   0.000002  -0.002757
    10  O    0.000025  -0.000000  -0.030462  -0.045050  -0.045052  -0.000000
    11  C    0.000033   0.000000   0.401866   0.397302   0.397302  -0.000000
    12  C   -0.000582  -0.012845   0.000000  -0.000000  -0.000000  -0.018955
    13  O    0.000637   0.007920   0.000000   0.000000   0.000000   0.005238
    14  O    0.001748   0.004935   0.000000   0.000000   0.000000   0.317399
    15  H    0.000024   0.000034  -0.000001   0.000000   0.000000  -0.000000
    16  H    0.003291   0.000001  -0.000223  -0.000364  -0.000366  -0.000002
    17  H   -0.000144   0.001347  -0.000000   0.000001   0.000001   0.000048
    18  H   -0.000001   0.000000  -0.000316   0.000183   0.000183   0.000000
    19  H    0.595448   0.005174   0.000002  -0.000034  -0.000034   0.008440
    20  H    0.005174   0.514823   0.000000   0.000000   0.000000  -0.001244
    21  H    0.000002   0.000000   0.548772  -0.027858  -0.027852  -0.000000
    22  H   -0.000034   0.000000  -0.027858   0.645934  -0.074133   0.000000
    23  H   -0.000034   0.000000  -0.027852  -0.074133   0.645918   0.000000
    24  H    0.008440  -0.001244  -0.000000   0.000000   0.000000   0.442789
 Mulliken charges:
               1
     1  C   -0.180553
     2  C    0.191493
     3  C    0.164101
     4  C   -0.247640
     5  C    0.094171
     6  C   -0.061970
     7  O   -0.331638
     8  C   -0.142387
     9  C   -0.239155
    10  O   -0.285493
    11  C   -0.173164
    12  C    0.347815
    13  O   -0.332286
    14  O   -0.276780
    15  H    0.125532
    16  H    0.127820
    17  H    0.113470
    18  H    0.272731
    19  H    0.088287
    20  H    0.155640
    21  H    0.131007
    22  H    0.107088
    23  H    0.107096
    24  H    0.244814
 Sum of Mulliken charges =  -0.00000
 Mulliken charges with hydrogens summed into heavy atoms:
               1
     1  C   -0.055020
     2  C    0.191493
     3  C    0.164101
     4  C   -0.119819
     5  C    0.094171
     6  C    0.051500
     7  O   -0.058907
     8  C   -0.054100
     9  C   -0.083514
    10  O   -0.285493
    11  C    0.172027
    12  C    0.347815
    13  O   -0.332286
    14  O   -0.031966
 Electronic spatial extent (au):  <R**2>=           4154.7848
 Charge=             -0.0000 electrons
 Dipole moment (field-independent basis, Debye):
    X=              6.3335    Y=              3.6384    Z=             -0.0042  Tot=              7.3042
 Quadrupole moment (field-independent basis, Debye-Ang):
   XX=           -111.7246   YY=            -70.2585   ZZ=            -84.4183
   XY=              4.9374   XZ=              0.0226   YZ=             -0.0015
 Traceless Quadrupole moment (field-independent basis, Debye-Ang):
   XX=            -22.9241   YY=             18.5420   ZZ=              4.3821
   XY=              4.9374   XZ=              0.0226   YZ=             -0.0015
 Octapole moment (field-independent basis, Debye-Ang**2):
  XXX=            247.9172  YYY=             21.8209  ZZZ=              0.0043  XYY=              9.9494
  XXY=             47.6114  XXZ=             -0.0834  XZZ=             -2.8518  YZZ=              5.1065
  YYZ=             -0.0146  XYZ=              0.0049
 Hexadecapole moment (field-independent basis, Debye-Ang**3):
 XXXX=          -5161.9992 YYYY=           -841.0652 ZZZZ=            -93.3929 XXXY=             46.3850
 XXXZ=              0.5548 YYYX=             39.4924 YYYZ=             -0.0224 ZZZX=              0.1056
 ZZZY=             -0.0079 XXYY=           -855.4555 XXZZ=           -712.7150 YYZZ=           -179.4043
 XXYZ=              0.0367 YYXZ=              0.1003 ZZXY=             -0.5669
 N-N= 8.243510165431D+02 E-N=-3.255314127839D+03  KE= 6.839738239663D+02
 Calling FoFJK, ICntrl=      2127 FMM=F ISym2X=0 I1Cent= 0 IOpClX= 0 NMat=1 NMatS=1 NMatT=0.
 ***** Axes restored to original set *****
 -------------------------------------------------------------------
 Center     Atomic                   Forces (Hartrees/Bohr)
 Number     Number              X              Y              Z
 -------------------------------------------------------------------
      1        6          -0.000864264    0.002094894    0.000000444
      2        6          -0.002352820   -0.000829024    0.000000095
      3        6          -0.002909732   -0.001793687   -0.000000729
      4        6           0.001715053   -0.001811737    0.000000175
      5        6           0.001112077   -0.001058838   -0.000000460
      6        6           0.001910403    0.000895249    0.000000470
      7        8          -0.001963842    0.002883715    0.000000504
      8        6          -0.004282837   -0.002337449    0.000002850
      9        6           0.004821938    0.002268795   -0.000009125
     10        8          -0.003360180    0.000947843    0.000001544
     11        6           0.000729657    0.000782984   -0.000000933
     12        6          -0.007654271   -0.003765730    0.000025919
     13        8           0.009323043    0.006354886   -0.000018713
     14        8           0.003633407   -0.003153085   -0.000000492
     15        1          -0.001052185    0.004915793    0.000000615
     16        1           0.000938152   -0.004774680   -0.000000508
     17        1           0.003502407    0.003593992   -0.000000127
     18        1          -0.001602126   -0.001362472   -0.000000384
     19        1           0.000117576   -0.004843165    0.000002792
     20        1           0.000106780    0.005120031   -0.000000405
     21        1          -0.004255274   -0.001386291   -0.000000546
     22        1           0.002260115   -0.000813137    0.003974002
     23        1           0.002260208   -0.000811097   -0.003974081
     24        1          -0.002133285   -0.001117791   -0.000002908
 -------------------------------------------------------------------
 Cartesian Forces:  Max     0.009323043 RMS     0.002723887

 GradGradGradGradGradGradGradGradGradGradGradGradGradGradGradGradGradGrad
 Berny optimization.
 FormGI is forming the generalized inverse of G from B-inverse, IUseBI=4.
 Internal  Forces:  Max     0.011272717 RMS     0.002689597
 Search for a local minimum.
 Step number   1 out of a maximum of  115
 All quantities printed in internal units (Hartrees-Bohrs-Radians)
 Mixed Optimization -- RFO/linear search
 Second derivative matrix not updated -- first step.
 ITU=  0
     Eigenvalues ---    0.00956   0.01193   0.01383   0.01472   0.01790
     Eigenvalues ---    0.01988   0.02045   0.02073   0.02089   0.02135
     Eigenvalues ---    0.02143   0.02150   0.02151   0.02171   0.02203
     Eigenvalues ---    0.02213   0.02279   0.02312   0.02858   0.10208
     Eigenvalues ---    0.10696   0.16000   0.16000   0.16000   0.16000
     Eigenvalues ---    0.16000   0.16000   0.16000   0.16000   0.16000
     Eigenvalues ---    0.16000   0.22000   0.22000   0.22373   0.23485
     Eigenvalues ---    0.24604   0.25000   0.25000   0.25000   0.25000
     Eigenvalues ---    0.25000   0.25000   0.33800   0.33800   0.33933
     Eigenvalues ---    0.34243   0.34561   0.35033   0.35037   0.35045
     Eigenvalues ---    0.35080   0.36015   0.41517   0.42157   0.42979
     Eigenvalues ---    0.45086   0.45642   0.46968   0.47530   0.51878
     Eigenvalues ---    0.53847   0.54006   0.54370   0.54907   0.56798
     Eigenvalues ---    1.03035
 RFO step:  Lambda=-1.61066536D-03 EMin= 9.56084266D-03
 Linear search not attempted -- first point.
 Iteration  1 RMS(Cart)=  0.01358360 RMS(Int)=  0.00001478
 Iteration  2 RMS(Cart)=  0.00002241 RMS(Int)=  0.00000155
 Iteration  3 RMS(Cart)=  0.00000000 RMS(Int)=  0.00000155
 Variable       Old X    -DE/DX   Delta X   Delta X   Delta X     New X
                                 (Linear)    (Quad)   (Total)
    R1        2.62678  -0.00664   0.00000  -0.01403  -0.01403   2.61275
    R2        2.62906  -0.00679   0.00000  -0.01442  -0.01442   2.61464
    R3        2.05602  -0.00502   0.00000  -0.01427  -0.01427   2.04175
    R4        2.65885  -0.00574   0.00000  -0.01283  -0.01283   2.64602
    R5        2.55697  -0.00386   0.00000  -0.00708  -0.00708   2.54988
    R6        2.62159  -0.00708   0.00000  -0.01470  -0.01470   2.60689
    R7        2.58016  -0.00266   0.00000  -0.00511  -0.00511   2.57505
    R8        2.65963  -0.00574   0.00000  -0.01283  -0.01283   2.64680
    R9        2.05615  -0.00487   0.00000  -0.01383  -0.01383   2.04233
   R10        2.64364  -0.00666   0.00000  -0.01452  -0.01452   2.62912
   R11        2.77358  -0.00417   0.00000  -0.01154  -0.01154   2.76204
   R12        2.05546  -0.00501   0.00000  -0.01422  -0.01422   2.04124
   R13        1.82726  -0.00206   0.00000  -0.00380  -0.00380   1.82346
   R14        2.53569  -0.00994   0.00000  -0.01744  -0.01744   2.51824
   R15        2.06922  -0.00484   0.00000  -0.01406  -0.01406   2.05516
   R16        2.80743  -0.00355   0.00000  -0.01040  -0.01040   2.79703
   R17        2.05622  -0.00512   0.00000  -0.01456  -0.01456   2.04166
   R18        2.67696  -0.00239   0.00000  -0.00555  -0.00555   2.67141
   R19        2.06394  -0.00444   0.00000  -0.01278  -0.01278   2.05116
   R20        2.07669  -0.00462   0.00000  -0.01361  -0.01361   2.06308
   R21        2.07668  -0.00462   0.00000  -0.01361  -0.01361   2.06308
   R22        2.27447  -0.01127   0.00000  -0.01092  -0.01092   2.26355
   R23        2.56171  -0.00442   0.00000  -0.00818  -0.00818   2.55354
   R24        1.81915  -0.00240   0.00000  -0.00436  -0.00436   1.81479
    A1        2.09715   0.00022   0.00000   0.00073   0.00073   2.09788
    A2        2.06746  -0.00024   0.00000  -0.00118  -0.00118   2.06627
    A3        2.11858   0.00002   0.00000   0.00046   0.00046   2.11903
    A4        2.09065  -0.00018   0.00000  -0.00079  -0.00079   2.08985
    A5        2.09296   0.00094   0.00000   0.00379   0.00379   2.09675
    A6        2.09958  -0.00077   0.00000  -0.00300  -0.00300   2.09658
    A7        2.09378  -0.00015   0.00000  -0.00049  -0.00049   2.09329
    A8        1.99059  -0.00024   0.00000  -0.00101  -0.00101   1.98958
    A9        2.19881   0.00039   0.00000   0.00151   0.00151   2.20031
   A10        2.10236   0.00028   0.00000   0.00141   0.00141   2.10377
   A11        2.09873  -0.00002   0.00000   0.00008   0.00008   2.09881
   A12        2.08210  -0.00027   0.00000  -0.00149  -0.00149   2.08061
   A13        2.07611  -0.00040   0.00000  -0.00161  -0.00161   2.07450
   A14        2.06199   0.00016   0.00000   0.00065   0.00065   2.06263
   A15        2.14508   0.00024   0.00000   0.00096   0.00096   2.14605
   A16        2.10632   0.00022   0.00000   0.00076   0.00076   2.10707
   A17        2.07608   0.00011   0.00000   0.00101   0.00101   2.07709
   A18        2.10079  -0.00033   0.00000  -0.00176  -0.00177   2.09902
   A19        1.88994  -0.00088   0.00000  -0.00545  -0.00545   1.88449
   A20        2.21709   0.00010   0.00000   0.00045   0.00045   2.21754
   A21        1.97579   0.00011   0.00000   0.00076   0.00076   1.97655
   A22        2.09031  -0.00021   0.00000  -0.00122  -0.00122   2.08909
   A23        2.20322   0.00037   0.00000   0.00167   0.00167   2.20489
   A24        2.12414  -0.00041   0.00000  -0.00223  -0.00223   2.12191
   A25        1.95582   0.00004   0.00000   0.00057   0.00057   1.95639
   A26        2.04469   0.00146   0.00000   0.00581   0.00581   2.05050
   A27        1.85272   0.00068   0.00000   0.00436   0.00435   1.85707
   A28        1.93132   0.00047   0.00000   0.00280   0.00279   1.93411
   A29        1.93132   0.00047   0.00000   0.00280   0.00279   1.93411
   A30        1.91491  -0.00048   0.00000  -0.00281  -0.00282   1.91209
   A31        1.91491  -0.00048   0.00000  -0.00281  -0.00282   1.91209
   A32        1.91769  -0.00062   0.00000  -0.00414  -0.00415   1.91354
   A33        2.12549  -0.00020   0.00000  -0.00080  -0.00080   2.12468
   A34        2.07297  -0.00100   0.00000  -0.00396  -0.00396   2.06901
   A35        2.08473   0.00120   0.00000   0.00477   0.00477   2.08950
   A36        1.93484   0.00011   0.00000   0.00067   0.00067   1.93550
    D1       -0.00001  -0.00000   0.00000  -0.00000  -0.00000  -0.00001
    D2        3.14159   0.00000   0.00000   0.00001   0.00001  -3.14159
    D3        3.14159  -0.00000   0.00000  -0.00001  -0.00001   3.14158
    D4        0.00000   0.00000   0.00000   0.00000   0.00000   0.00000
    D5        0.00000  -0.00000   0.00000  -0.00000  -0.00000   0.00000
    D6        3.14159  -0.00000   0.00000  -0.00001  -0.00001   3.14158
    D7        3.14159   0.00000   0.00000   0.00000   0.00000  -3.14159
    D8       -0.00001  -0.00000   0.00000  -0.00001  -0.00001  -0.00001
    D9       -0.00000   0.00000   0.00000   0.00001   0.00001   0.00000
   D10        3.14159   0.00000   0.00000   0.00001   0.00001  -3.14159
   D11        3.14159  -0.00000   0.00000  -0.00000  -0.00000   3.14158
   D12       -0.00000  -0.00000   0.00000  -0.00000  -0.00000  -0.00000
   D13       -3.14156  -0.00000   0.00000  -0.00001  -0.00001  -3.14157
   D14        0.00003  -0.00000   0.00000  -0.00000  -0.00000   0.00003
   D15        0.00002  -0.00000   0.00000  -0.00000  -0.00000   0.00001
   D16        3.14159  -0.00000   0.00000  -0.00001  -0.00001   3.14158
   D17       -3.14158  -0.00000   0.00000  -0.00001  -0.00001  -3.14159
   D18       -0.00001  -0.00000   0.00000  -0.00001  -0.00001  -0.00002
   D19       -3.14147  -0.00000   0.00000  -0.00004  -0.00004  -3.14151
   D20        0.00013  -0.00000   0.00000  -0.00004  -0.00004   0.00009
   D21       -0.00002  -0.00000   0.00000  -0.00000  -0.00000  -0.00002
   D22        3.14157  -0.00000   0.00000  -0.00001  -0.00001   3.14157
   D23       -3.14159   0.00000   0.00000   0.00000   0.00000  -3.14159
   D24        0.00000  -0.00000   0.00000  -0.00000  -0.00000  -0.00000
   D25        0.00001   0.00000   0.00000   0.00000   0.00000   0.00001
   D26       -3.14158   0.00000   0.00000   0.00001   0.00001  -3.14156
   D27       -3.14158   0.00000   0.00000   0.00001   0.00001  -3.14157
   D28        0.00002   0.00000   0.00000   0.00002   0.00002   0.00004
   D29       -3.14135   0.00000   0.00000   0.00007   0.00007  -3.14128
   D30        0.00011  -0.00000   0.00000  -0.00000  -0.00000   0.00010
   D31        0.00024   0.00000   0.00000   0.00006   0.00006   0.00030
   D32       -3.14149  -0.00000   0.00000  -0.00001  -0.00001  -3.14150
   D33        3.14147  -0.00000   0.00000  -0.00005  -0.00005   3.14142
   D34        0.00014   0.00000   0.00000   0.00008   0.00008   0.00022
   D35        0.00002   0.00000   0.00000   0.00002   0.00002   0.00005
   D36       -3.14130   0.00000   0.00000   0.00015   0.00015  -3.14115
   D37       -3.14033   0.00000   0.00000   0.00012   0.00012  -3.14022
   D38        0.00115   0.00001   0.00000   0.00065   0.00065   0.00180
   D39        0.00101  -0.00000   0.00000   0.00000   0.00000   0.00101
   D40       -3.14069   0.00001   0.00000   0.00054   0.00054  -3.14016
   D41        3.14150   0.00000   0.00000   0.00001   0.00001   3.14150
   D42       -1.06504   0.00007   0.00000   0.00072   0.00073  -1.06432
   D43        1.06486  -0.00007   0.00000  -0.00071  -0.00072   1.06414
   D44        0.00079   0.00000   0.00000  -0.00001  -0.00001   0.00078
   D45       -3.14091   0.00001   0.00000   0.00050   0.00051  -3.14040
         Item               Value     Threshold  Converged?
 Maximum Force            0.011273     0.000450     NO 
 RMS     Force            0.002690     0.000300     NO 
 Maximum Displacement     0.044579     0.001800     NO 
 RMS     Displacement     0.013587     0.001200     NO 
 Predicted change in Energy=-8.083930D-04
 GradGradGradGradGradGradGradGradGradGradGradGradGradGradGradGradGradGrad

                          Input orientation:                          
 ---------------------------------------------------------------------
 Center     Atomic      Atomic             Coordinates (Angstroms)
 Number     Number       Type             X           Y           Z
 ---------------------------------------------------------------------
      1          6           0        1.452752   -2.000630   -0.000477
      2          6           0        2.478705   -1.073793   -0.000317
      3          6           0        2.179114    0.293994   -0.000055
      4          6           0        0.864053    0.710705    0.000044
      5          6           0       -0.178764   -0.224327   -0.000101
      6          6           0        0.134686   -1.579829   -0.000368
      7          8           0        3.763662   -1.485624   -0.000426
      8          6           0       -1.552758    0.274113    0.000047
      9          6           0       -2.670302   -0.451770    0.000278
     10          8           0        3.276624    1.101645    0.000073
     11          6           0        3.058798    2.498409    0.000443
     12          6           0       -4.055201    0.070549    0.000635
     13          8           0       -5.004213   -0.660303    0.002228
     14          8           0       -4.240488    1.409059   -0.001390
     15          1           0        1.708747   -3.050314   -0.000687
     16          1           0        0.626997    1.765139    0.000255
     17          1           0       -0.651624   -2.320435   -0.000511
     18          1           0        4.327345   -0.702453   -0.000266
     19          1           0       -1.615534    1.359845    0.000159
     20          1           0       -2.643363   -1.531832    0.000582
     21          1           0        4.040390    2.961693    0.000584
     22          1           0        2.509833    2.805700   -0.891797
     23          1           0        2.509801    2.805223    0.892827
     24          1           0       -3.398749    1.871374   -0.003578
 ---------------------------------------------------------------------
                    Distance matrix (angstroms):
                    1          2          3          4          5
     1  C    0.000000
     2  C    1.382608   0.000000
     3  C    2.406844   1.400213   0.000000
     4  C    2.774510   2.406561   1.379504   0.000000
     5  C    2.411865   2.789934   2.414175   1.400626   0.000000
     6  C    1.383608   2.398019   2.773246   2.403856   1.391271
     7  O    2.367601   1.349340   2.382820   3.637525   4.139274
     8  C    3.769290   4.250829   3.731925   2.455930   1.461610
     9  C    4.404377   5.186442   4.906424   3.720620   2.501898
    10  O    3.598697   2.317155   1.362655   2.444040   3.701068
    11  C    4.777106   3.618997   2.373456   2.830687   4.230260
    12  C    5.884499   6.633359   6.238318   4.960732   3.887637
    13  O    6.594609   7.494333   7.246438   6.026294   4.845105
    14  O    6.636185   7.163246   6.515723   5.152091   4.377848
    15  H    1.080450   2.121195   3.377224   3.854708   3.398367
    16  H    3.855241   3.389448   2.138535   1.080752   2.146445
    17  H    2.128537   3.369432   3.853351   3.388966   2.148783
    18  H    3.154132   1.885567   2.368080   3.740508   4.531404
    19  H    4.550513   4.762918   3.941496   2.563150   2.138670
    20  H    4.122855   5.142507   5.156542   4.163045   2.789950
    21  H    5.596474   4.327125   3.252840   3.893078   5.286963
    22  H    5.001267   3.980725   2.685749   2.809443   4.147860
    23  H    5.001157   3.980634   2.685678   2.809369   4.147756
    24  H    6.207212   6.574077   5.796610   4.417991   3.841911
                    6          7          8          9         10
     6  C    0.000000
     7  O    3.630198   0.000000
     8  C    2.506904   5.600089   0.000000
     9  C    3.023322   6.516498   1.332595   0.000000
    10  O    4.130626   2.632711   4.899770   6.146465   0.000000
    11  C    5.018212   4.045906   5.119955   6.444078   1.413648
    12  C    4.503211   7.972220   2.510709   1.480123   7.403973
    13  O    5.220519   8.806633   3.575707   2.343209   8.466211
    14  O    5.298641   8.511498   2.917532   2.434783   7.523395
    15  H    2.154065   2.582814   4.657170   5.092003   4.438131
    16  H    3.381002   4.517314   2.640926   3.973269   2.731437
    17  H    1.080177   4.493513   2.746585   2.750813   5.209776
    18  H    4.283477   0.964933   5.960645   7.002135   2.087770
    19  H    3.421250   6.085429   1.087544   2.096302   4.898967
    20  H    2.778464   6.407192   2.109706   1.080398   6.479310
    21  H    5.989987   4.455918   6.205352   7.528952   2.010750
    22  H    5.066441   4.558738   4.869185   6.183907   2.070556
    23  H    5.066325   4.558667   4.869082   6.183698   2.070557
    24  H    4.939228   7.910093   2.441093   2.434676   6.719606
                   11         12         13         14         15
    11  C    0.000000
    12  C    7.516880   0.000000
    13  O    8.659654   1.197819   0.000000
    14  O    7.380125   1.351274   2.205799   0.000000
    15  H    5.710602   6.554608   7.125727   7.435011   0.000000
    16  H    2.539949   4.979419   6.131337   4.880492   4.935460
    17  H    6.081817   4.159465   4.658441   5.175816   2.470642
    18  H    3.443070   8.418112   9.331653   8.824184   3.517032
    19  H    4.810999   2.759395   3.945142   2.625415   5.522712
    20  H    6.982656   2.135629   2.516580   3.346587   4.609409
    21  H    1.085428   8.596354   9.742879   8.425177   6.448317
    22  H    1.091734   7.167786   8.323061   6.950558   5.977350
    23  H    1.091733   7.167545   8.322466   6.950921   5.977238
    24  H    6.487919   1.916746   2.997822   0.960346   7.092921
                   16         17         18         19         20
    16  H    0.000000
    17  H    4.280980   0.000000
    18  H    4.447649   5.235265   0.000000
    19  H    2.278862   3.804416   6.290539   0.000000
    20  H    4.643843   2.142177   7.019875   3.068913   0.000000
    21  H    3.617042   7.065117   3.675365   5.878384   8.053839
    22  H    2.328861   6.088223   4.050347   4.461473   6.794554
    23  H    2.328822   6.088106   4.050293   4.461431   6.794208
    24  H    4.027149   5.011783   8.143532   1.855136   3.486034
                   21         22         23         24
    21  H    0.000000
    22  H    1.778562   0.000000
    23  H    1.778562   1.784625   0.000000
    24  H    7.518617   6.047581   6.048684   0.000000
 Stoichiometry    C10H10O4
 Framework group  C1[X(C10H10O4)]
 Deg. of freedom    66
 Full point group                 C1      NOp   1
 Largest Abelian subgroup         C1      NOp   1
 Largest concise Abelian subgroup C1      NOp   1
                         Standard orientation:                         
 ---------------------------------------------------------------------
 Center     Atomic      Atomic             Coordinates (Angstroms)
 Number     Number       Type             X           Y           Z
 ---------------------------------------------------------------------
      1          6           0        1.450675   -2.001685   -0.000498
      2          6           0        2.477385   -1.075688   -0.000339
      3          6           0        2.178912    0.292344   -0.000077
      4          6           0        0.864193    0.710130    0.000022
      5          6           0       -0.179388   -0.224050   -0.000122
      6          6           0        0.132954   -1.579807   -0.000390
      7          8           0        3.762005   -1.488569   -0.000448
      8          6           0       -1.552975    0.275513    0.000025
      9          6           0       -2.671111   -0.449456    0.000256
     10          8           0        3.277082    1.099097    0.000051
     11          6           0        3.060397    2.496040    0.000422
     12          6           0       -4.055584    0.073995    0.000613
     13          8           0       -5.005192   -0.656082    0.002207
     14          8           0       -4.239776    1.412655   -0.001412
     15          1           0        1.705812   -3.051579   -0.000709
     16          1           0        0.627998    1.764756    0.000233
     17          1           0       -0.653961   -2.319771   -0.000532
     18          1           0        4.326328   -0.705858   -0.000288
     19          1           0       -1.614863    1.361295    0.000137
     20          1           0       -2.645056   -1.529540    0.000560
     21          1           0        4.042368    2.958521    0.000562
     22          1           0        2.511684    2.803778   -0.891819
     23          1           0        2.511652    2.803302    0.892806
     24          1           0       -3.397660    1.874282   -0.003600
 ---------------------------------------------------------------------
 Rotational constants (GHZ):      1.5624533      0.2886634      0.2440268
 Standard basis: CC-pVTZ (5D, 7F)
 There are   640 symmetry adapted cartesian basis functions of A   symmetry.
 There are   560 symmetry adapted basis functions of A   symmetry.
   560 basis functions,   898 primitive gaussians,   640 cartesian basis functions
    51 alpha electrons       51 beta electrons
       nuclear repulsion energy       827.9412232928 Hartrees.
 NAtoms=   24 NActive=   24 NUniq=   24 SFac= 1.00D+00 NAtFMM=   60 NAOKFM=F Big=F
 Integral buffers will be    131072 words long.
 Raffenetti 2 integral format.
 Two-electron integral symmetry is turned on.
 One-electron integrals computed using PRISM.
 NBasis=   560 RedAO= T EigKep=  3.23D-05  NBF=   560
 NBsUse=   560 1.00D-06 EigRej= -1.00D+00 NBFU=   560
 Initial guess from the checkpoint file:  "ccpvTZFA.chk"
 B after Tr=     0.000000   -0.000000    0.000000
         Rot=    1.000000    0.000004   -0.000008    0.000391 Ang=   0.04 deg.
 ExpMin= 1.03D-01 ExpMax= 1.53D+04 ExpMxC= 5.22D+02 IAcc=1 IRadAn=         1 AccDes= 0.00D+00
 Harris functional with IExCor= 1009 and IRadAn=       1 diagonalized for initial guess.
 HarFok:  IExCor= 1009 AccDes= 0.00D+00 IRadAn=         1 IDoV= 1 UseB2=F ITyADJ=14
 ICtDFT=  3500011 ScaDFX=  1.000000  1.000000  1.000000  1.000000
 FoFCou: FMM=F IPFlag=           0 FMFlag=      100000 FMFlg1=           0
         NFxFlg=           0 DoJE=T BraDBF=F KetDBF=T FulRan=T
         wScrn=  0.000000 ICntrl=     500 IOpCl=  0 I1Cent=   200000004 NGrid=           0
         NMat0=    1 NMatS0=      1 NMatT0=    0 NMatD0=    1 NMtDS0=    0 NMtDT0=    0
 Petite list used in FoFCou.
 Requested convergence on RMS density matrix=1.00D-08 within 128 cycles.
 Requested convergence on MAX density matrix=1.00D-06.
 Requested convergence on             energy=1.00D-06.
 No special actions if energy rises.
 Integral accuracy reduced to 1.0D-05 until final iterations.
 Initial convergence to 1.0D-05 achieved.  Increase integral accuracy.
 SCF Done:  E(RM062X) =  -687.953078831     A.U. after   12 cycles
            NFock= 12  Conv=0.17D-08     -V/T= 2.0053
 Calling FoFJK, ICntrl=      2127 FMM=F ISym2X=0 I1Cent= 0 IOpClX= 0 NMat=1 NMatS=1 NMatT=0.
 ***** Axes restored to original set *****
 -------------------------------------------------------------------
 Center     Atomic                   Forces (Hartrees/Bohr)
 Number     Number              X              Y              Z
 -------------------------------------------------------------------
      1        6          -0.000013736   -0.000351366    0.000000041
      2        6           0.000883747   -0.001070869   -0.000000521
      3        6           0.000289097    0.000680745   -0.000000335
      4        6           0.000521626    0.000414509   -0.000000046
      5        6          -0.000503640    0.000244536   -0.000002096
      6        6          -0.000288824   -0.000427560    0.000000197
      7        8           0.000087401    0.000272972    0.000000330
      8        6           0.000214405    0.000088131    0.000004590
      9        6           0.000040302   -0.000037314    0.000013165
     10        8          -0.000388634    0.001008356    0.000001340
     11        6           0.000287977   -0.000904764   -0.000000652
     12        6          -0.001884656   -0.000357760   -0.000056698
     13        8           0.000479923    0.000428621    0.000023679
     14        8           0.000488284   -0.000166419    0.000020345
     15        1           0.000066516   -0.000256807    0.000000033
     16        1          -0.000023332    0.000339679    0.000000073
     17        1          -0.000137984   -0.000104594   -0.000000512
     18        1           0.000315373   -0.000156299   -0.000000087
     19        1           0.000142626    0.000127244    0.000004269
     20        1           0.000020498   -0.000217269   -0.000000457
     21        1           0.000053930    0.000099856    0.000000046
     22        1          -0.000126522    0.000098963   -0.000089511
     23        1          -0.000125949    0.000099301    0.000089313
     24        1          -0.000398429    0.000148107   -0.000006505
 -------------------------------------------------------------------
 Cartesian Forces:  Max     0.001884656 RMS     0.000388733

 GradGradGradGradGradGradGradGradGradGradGradGradGradGradGradGradGradGrad
 Berny optimization.
 Using GEDIIS/GDIIS optimizer.
 FormGI is forming the generalized inverse of G from B-inverse, IUseBI=4.
 GSVD:  received Info=                   1 from GESDD.
 Internal  Forces:  Max     0.001394165 RMS     0.000363585
 Search for a local minimum.
 Step number   2 out of a maximum of  115
 All quantities printed in internal units (Hartrees-Bohrs-Radians)
 Mixed Optimization -- En-DIIS/RFO-DIIS
 Update second derivatives using D2CorX and points    1    2
 DE= -7.43D-04 DEPred=-8.08D-04 R= 9.20D-01
 TightC=F SS=  1.41D+00  RLast= 6.16D-02 DXNew= 5.0454D-01 1.8491D-01
 Trust test= 9.20D-01 RLast= 6.16D-02 DXMaxT set to 3.00D-01
 ITU=  1  0
 Use linear search instead of GDIIS.
     Eigenvalues ---    0.00956   0.01193   0.01385   0.01472   0.01789
     Eigenvalues ---    0.01987   0.02045   0.02072   0.02089   0.02135
     Eigenvalues ---    0.02143   0.02150   0.02151   0.02171   0.02203
     Eigenvalues ---    0.02213   0.02279   0.02312   0.02858   0.10178
     Eigenvalues ---    0.10659   0.15916   0.16000   0.16000   0.16000
     Eigenvalues ---    0.16000   0.16000   0.16000   0.16000   0.16000
     Eigenvalues ---    0.16084   0.21874   0.22000   0.22370   0.23438
     Eigenvalues ---    0.24546   0.24922   0.25000   0.25000   0.25000
     Eigenvalues ---    0.25000   0.25116   0.33431   0.33800   0.34037
     Eigenvalues ---    0.34346   0.34590   0.35025   0.35041   0.35068
     Eigenvalues ---    0.35220   0.36549   0.41475   0.42161   0.42775
     Eigenvalues ---    0.45584   0.46179   0.47043   0.49656   0.51860
     Eigenvalues ---    0.53765   0.54003   0.54479   0.54834   0.58366
     Eigenvalues ---    1.01663
 RFO step:  Lambda=-2.47149386D-05 EMin= 9.56075725D-03
 Quartic linear search produced a step of -0.07508.
 Iteration  1 RMS(Cart)=  0.00389929 RMS(Int)=  0.00000417
 Iteration  2 RMS(Cart)=  0.00000482 RMS(Int)=  0.00000012
 Iteration  3 RMS(Cart)=  0.00000000 RMS(Int)=  0.00000012
 Variable       Old X    -DE/DX   Delta X   Delta X   Delta X     New X
                                 (Linear)    (Quad)   (Total)
    R1        2.61275   0.00087   0.00105   0.00044   0.00150   2.61425
    R2        2.61464   0.00093   0.00108   0.00051   0.00160   2.61624
    R3        2.04175   0.00027   0.00107  -0.00061   0.00046   2.04222
    R4        2.64602   0.00139   0.00096   0.00174   0.00270   2.64872
    R5        2.54988   0.00035   0.00053  -0.00006   0.00047   2.55036
    R6        2.60689   0.00051   0.00110  -0.00036   0.00074   2.60762
    R7        2.57505  -0.00000   0.00038  -0.00047  -0.00009   2.57496
    R8        2.64680   0.00100   0.00096   0.00089   0.00185   2.64865
    R9        2.04233   0.00033   0.00104  -0.00039   0.00065   2.04297
   R10        2.62912   0.00087   0.00109   0.00042   0.00151   2.63063
   R11        2.76204   0.00087   0.00087   0.00118   0.00205   2.76409
   R12        2.04124   0.00018   0.00107  -0.00085   0.00022   2.04146
   R13        1.82346   0.00005   0.00029  -0.00027   0.00002   1.82348
   R14        2.51824   0.00112   0.00131   0.00023   0.00154   2.51978
   R15        2.05516   0.00012   0.00106  -0.00096   0.00010   2.05526
   R16        2.79703   0.00126   0.00078   0.00248   0.00326   2.80029
   R17        2.04166   0.00021   0.00109  -0.00079   0.00030   2.04196
   R18        2.67141  -0.00065   0.00042  -0.00191  -0.00149   2.66991
   R19        2.05116   0.00009   0.00096  -0.00093   0.00003   2.05120
   R20        2.06308   0.00016   0.00102  -0.00082   0.00020   2.06328
   R21        2.06308   0.00016   0.00102  -0.00082   0.00020   2.06328
   R22        2.26355  -0.00065   0.00082  -0.00158  -0.00076   2.26279
   R23        2.55354  -0.00001   0.00061  -0.00076  -0.00015   2.55339
   R24        1.81479  -0.00027   0.00033  -0.00085  -0.00052   1.81427
    A1        2.09788   0.00018  -0.00005   0.00082   0.00077   2.09865
    A2        2.06627  -0.00008   0.00009  -0.00045  -0.00036   2.06591
    A3        2.11903  -0.00010  -0.00003  -0.00037  -0.00041   2.11862
    A4        2.08985  -0.00041   0.00006  -0.00155  -0.00149   2.08836
    A5        2.09675   0.00015  -0.00028   0.00089   0.00061   2.09736
    A6        2.09658   0.00026   0.00023   0.00066   0.00088   2.09747
    A7        2.09329   0.00015   0.00004   0.00049   0.00053   2.09382
    A8        1.98958   0.00050   0.00008   0.00177   0.00184   1.99142
    A9        2.20031  -0.00065  -0.00011  -0.00226  -0.00237   2.19794
   A10        2.10377   0.00023  -0.00011   0.00098   0.00087   2.10464
   A11        2.09881  -0.00017  -0.00001  -0.00075  -0.00075   2.09805
   A12        2.08061  -0.00006   0.00011  -0.00023  -0.00012   2.08049
   A13        2.07450  -0.00031   0.00012  -0.00141  -0.00129   2.07321
   A14        2.06263   0.00019  -0.00005   0.00082   0.00078   2.06341
   A15        2.14605   0.00012  -0.00007   0.00059   0.00052   2.14657
   A16        2.10707   0.00016  -0.00006   0.00067   0.00062   2.10769
   A17        2.07709  -0.00005  -0.00008  -0.00005  -0.00013   2.07696
   A18        2.09902  -0.00011   0.00013  -0.00062  -0.00049   2.09854
   A19        1.88449   0.00064   0.00041   0.00320   0.00361   1.88810
   A20        2.21754   0.00024  -0.00003   0.00106   0.00103   2.21857
   A21        1.97655  -0.00028  -0.00006  -0.00135  -0.00141   1.97515
   A22        2.08909   0.00004   0.00009   0.00029   0.00038   2.08947
   A23        2.20489   0.00082  -0.00013   0.00361   0.00348   2.20837
   A24        2.12191  -0.00042   0.00017  -0.00199  -0.00183   2.12008
   A25        1.95639  -0.00040  -0.00004  -0.00161  -0.00165   1.95474
   A26        2.05050  -0.00000  -0.00044   0.00054   0.00010   2.05060
   A27        1.85707   0.00008  -0.00033   0.00094   0.00061   1.85768
   A28        1.93411   0.00005  -0.00021   0.00049   0.00028   1.93439
   A29        1.93411   0.00005  -0.00021   0.00049   0.00029   1.93440
   A30        1.91209  -0.00003   0.00021  -0.00037  -0.00016   1.91193
   A31        1.91209  -0.00003   0.00021  -0.00038  -0.00016   1.91192
   A32        1.91354  -0.00010   0.00031  -0.00113  -0.00082   1.91272
   A33        2.12468  -0.00002   0.00006  -0.00016  -0.00010   2.12458
[...]
 4556,-0.07209427,0.06151063,0.00267438,0.00879799,-0.02078548,-0.00091
 351,-0.00310535,-0.00350810,-0.00020503,-0.00084554,0.00174143,0.00005
 141,0.00105360,-0.00228157,0.00011404,0.00008691,0.00031854,-0.0000069
 0,0.00194373,-0.00217426,-0.00008987,-0.00229283,0.00025361,0.00004558
 ,-0.00031356,-0.00009003,0.00009444,0.00022947,0.00008816,-0.00008065,
 0.00011736,0.00007809,0.00001894,0.00005691,0.00002803,0.00000032,0.07
 349685,-0.00019930,0.00069594,0.00007840,0.00106714,0.00143668,-0.0002
 4737,0.00098295,-0.00618029,-0.00058545,0.06294922,-0.32455648,-0.0129
 0100,0.00621133,-0.01678193,-0.00080066,-0.00402470,-0.00088914,-0.000
 26242,0.00032768,-0.00046805,0.00003638,0.00257762,0.00057287,0.000219
 49,-0.00050101,0.00044208,0.00002226,-0.00026901,-0.00101966,0.0001182
 2,-0.00254460,-0.00123114,0.00003065,-0.00000420,-0.00014342,0.0000033
 4,0.00001537,0.00002584,-0.00000184,0.00002008,0.00010414,-0.00001022,
 0.00007216,-0.00007493,0.00000660,-0.06348436,0.34860680,-0.00006133,0
 .00003258,-0.00124943,-0.00006686,-0.00020840,0.00672684,-0.00001076,-
 0.00022956,0.00444108,0.00266176,-0.01324596,-0.03399091,0.00020993,-0
 .00087685,0.00235752,-0.00013165,-0.00038026,0.00525137,-0.00001053,0.
 00004309,-0.00063614,0.00024741,0.00000279,-0.00398779,0.00010741,0.00
 011286,0.00009516,0.00008523,0.00012271,-0.00337123,-0.00012708,-0.000
 05250,-0.00044050,0.00003726,-0.00005399,0.00036137,-0.00003059,0.0000
 2026,-0.00011760,-0.00001419,0.00005490,-0.00010106,0.00000222,0.00001
 558,-0.00033028,-0.00275261,0.01450399,0.02436267,-0.01736350,-0.02179
 908,-0.00121073,-0.00335083,0.00321991,0.00010570,-0.00057728,0.001018
 66,0.00003861,0.00076496,0.00203645,0.00001656,0.00973977,0.00391969,0
 .00032027,-0.20810623,-0.14012002,-0.01028137,-0.00130045,-0.00137152,
 -0.00008909,-0.00062417,-0.00069744,0.00010882,-0.00065390,0.00097460,
 0.00010901,0.00019246,-0.00017019,-0.00000160,-0.00000266,0.00005699,0
 .00000576,-0.00014044,0.00005580,0.00000532,0.00012801,-0.00000249,-0.
 00003699,0.00007068,-0.00009882,0.00002762,0.00112664,0.00015234,0.000
 04749,0.00031974,0.00042801,0.00003707,0.22246015,0.00888050,0.0102588
 7,0.00046487,0.00269065,0.00022071,-0.00041638,0.00081234,-0.00046684,
 0.00003616,0.00286897,-0.00492382,-0.00054922,-0.02401786,-0.01502302,
 -0.00118896,-0.14100978,-0.19191344,-0.00985222,0.00034638,0.00052059,
 0.00002190,-0.00157115,0.00082990,0.00023307,0.00025839,-0.00050379,0.
 00019822,0.00005800,0.00034423,0.00004204,0.00000418,-0.00015263,0.000
 00482,0.00054801,0.00028644,-0.00000281,-0.00016389,0.00001706,0.00003
 444,-0.00030179,0.00030757,-0.00013112,-0.00042109,0.00063745,0.000267
 89,-0.00115029,-0.00083462,-0.00005974,0.15069050,0.19986117,0.0005392
 7,0.00025643,0.00373978,0.00003881,-0.00044748,0.00766377,0.00005294,0
 .00006597,-0.00099299,0.00020571,-0.00040164,0.00623641,-0.00178003,-0
 .00037487,0.00317556,-0.01036780,-0.01044310,-0.03797116,0.00004382,0.
 00002047,0.00003865,0.00055777,0.00039977,-0.00396849,0.00011317,-0.00
 074733,0.00006053,-0.00002588,0.00000701,-0.00047485,0.00000009,0.0000
 1468,-0.00020866,-0.00022019,0.00005977,-0.00014141,0.00006778,0.00008
 338,-0.00012068,-0.00007441,0.00014568,0.00001989,-0.00000489,0.000258
 30,-0.00438981,-0.00002371,-0.00008813,0.00068321,0.01025939,0.0112455
 6,0.02568655,-0.00447092,0.00476907,0.00021150,-0.03887023,-0.03599243
 ,-0.00182380,-0.00150080,-0.00159373,-0.00008506,-0.00119123,-0.001170
 55,-0.00003652,0.00087584,0.00026861,0.00005011,-0.00029669,-0.0017983
 0,-0.00011881,-0.19273705,-0.19143141,-0.01003491,-0.00067881,0.000268
 50,0.00002601,0.00065888,-0.00007283,0.00004882,0.00005088,-0.00171441
 ,-0.00009729,0.00115851,0.00154816,0.00007244,-0.00080069,0.00032229,0
 .00001963,0.00044851,0.00004274,-0.00008174,0.00017870,-0.00023961,0.0
 0006111,0.00012602,0.00009113,0.00001596,0.00031398,-0.00013627,-0.000
 00074,-0.00032598,0.00018941,0.00000987,0.23696267,0.00566417,0.000251
 74,-0.00003266,0.00256253,0.01293814,0.00065756,0.01035606,0.00218345,
 0.00004638,-0.00202245,-0.00051944,0.00001248,0.00141873,-0.00085364,0
 .00002868,-0.00124306,0.00084167,-0.00005720,-0.24067052,-0.36266966,-
 0.01796827,-0.00102103,0.00015202,-0.00000081,0.00068660,-0.00000683,0
 .00004008,-0.00214649,-0.00191687,0.00001509,-0.00137625,-0.00245010,-
 0.00005441,-0.00061904,0.00038375,-0.00003046,0.00028823,-0.00000956,-
 0.00003202,0.00010746,-0.00028969,0.00005916,0.00005729,0.00006732,0.0
 0003589,0.00029951,-0.00009009,-0.00000873,0.00023878,-0.00002535,0.00
 000112,0.22770938,0.35074401,0.00019411,-0.00003770,0.00121669,0.00004
 268,0.00054345,-0.00160348,0.00040032,0.00003124,0.00120839,-0.0000821
 3,-0.00000036,-0.00063249,0.00004255,-0.00000972,-0.00020648,-0.000037
 22,-0.00007613,0.00184691,-0.01230401,-0.01779046,-0.00802552,-0.00002
 335,0.00002196,-0.00003454,0.00004317,-0.00003892,-0.00003266,-0.00011
 193,0.00000334,-0.00152229,-0.00005276,-0.00005847,-0.00094981,-0.0000
 5903,-0.00000119,-0.00000013,0.00003107,0.00001178,-0.00002222,-0.0000
 0132,0.00000496,-0.00001165,0.00000646,0.00003303,-0.00048509,0.000018
 31,-0.00001680,0.00016695,-0.00000060,0.00000703,-0.00014082,0.0119101
 7,0.01731623,0.00902164,0.00059202,0.00150897,0.00020731,0.00017030,-0
 .00025260,-0.00007273,-0.00024988,0.00001593,-0.00002368,0.00114798,0.
 00221243,0.00017774,-0.00161503,0.02893616,-0.00097884,-0.00572338,0.0
 0012257,-0.00016421,-0.00016178,-0.00010820,0.00002374,-0.05838003,0.0
 2044879,-0.00204711,0.00615491,-0.02800760,0.00239475,-0.00006809,-0.0
 0027717,-0.00001029,-0.00006219,0.00018634,0.00000445,0.00048592,-0.00
 167682,0.00006462,0.00042853,0.00057312,-0.00038818,-0.00118810,0.0015
 0811,0.00003620,-0.00040684,0.00009150,0.00002970,-0.00065791,-0.00094
 398,-0.00008423,0.00011723,0.00002725,-0.00003645,-0.00002053,0.000049
 63,-0.00000507,0.06627078,-0.00026395,-0.00055720,-0.00010862,-0.00043
 253,0.00039341,0.00000137,0.00015292,-0.00019733,-0.00015576,-0.002236
 45,0.00101498,-0.00016613,-0.00045620,-0.01143968,0.00050745,0.0020208
 2,0.00098111,0.00028601,0.00043547,-0.00002832,0.00003891,0.02123132,-
 0.32054945,0.01254321,0.00147997,-0.01734382,0.00152546,0.00024550,0.0
 0039338,0.00003154,0.00006552,-0.00023234,0.00000271,0.00164097,-0.003
 82062,0.00099125,-0.00014549,0.00124684,-0.00035245,0.00204703,0.00281
 679,-0.00040184,0.00020378,-0.00003040,-0.00001249,0.00041177,0.000649
 48,0.00017944,-0.00015915,0.00007418,0.00003029,-0.00003396,-0.0000560
 9,-0.00000459,-0.02285788,0.34549785,0.00043172,0.00017641,-0.00017075
 ,-0.00017448,-0.00019448,0.00016082,0.00002125,-0.00002451,-0.00002949
 ,-0.00000455,-0.00001783,-0.00116285,0.00134207,-0.00024124,0.00443479
 ,-0.00036418,0.00008483,0.00243676,0.00009269,-0.00000016,-0.00002563,
 -0.00393536,0.00976790,-0.04332713,0.00244375,0.00251041,0.00661593,-0
 .00005089,-0.00002714,-0.00000966,-0.00000169,0.00001346,0.00005625,-0
 .00164596,0.00012181,-0.00812302,0.00155609,0.00057709,0.00073887,-0.0
 0099019,-0.00010062,-0.00006342,-0.00001723,0.00001559,-0.00028871,-0.
 00008741,0.00001891,0.00025490,0.00001001,0.00005491,-0.00000815,-0.00
 000465,-0.00001455,0.00002189,0.00209308,-0.01453748,0.02738005,-0.000
 05830,0.00031757,-0.00001146,0.00001696,0.00001917,-0.00000731,-0.0001
 8415,0.00009963,0.00003050,0.00021463,0.00012062,-0.00007721,0.0004848
 5,0.00095254,-0.00054010,-0.00072842,-0.00084058,-0.00003966,0.0000005
 7,0.00006559,0.00000751,0.00683597,-0.02768526,0.00308054,-0.05465356,
 0.00680149,0.00191769,0.00022850,0.00025839,0.00001341,0.00003666,-0.0
 0014541,-0.00000360,0.00250701,0.03005734,-0.00431399,0.00086823,-0.00
 269978,-0.00047434,-0.00596424,0.00397194,-0.00071274,-0.00002913,-0.0
 0000378,0.00001520,0.00014202,0.00015451,0.00001928,-0.00243624,0.0013
 0403,0.00064982,-0.00000017,0.00000474,0.00000402,-0.00388179,-0.00244
 968,0.00087212,0.05717599,0.00010930,0.00047574,-0.00011204,-0.0001216
 0,0.00013259,-0.00004769,0.00005353,-0.00037152,-0.00003950,-0.0004400
 0,-0.00016255,-0.00004611,0.00158564,-0.00074068,-0.00091175,0.0002989
 4,0.00003797,-0.00013880,0.00031579,-0.00002327,0.00004252,-0.00018792
 ,-0.01249887,0.00197548,0.01009103,-0.33705047,0.03653426,0.00009206,0
 .00021613,0.00002564,0.00002015,-0.00010994,0.00000201,-0.00408830,-0.
 01111974,0.00318195,-0.00026436,0.00228248,-0.00063298,0.00229285,-0.0
 0050515,0.00017229,-0.00000327,-0.00001077,0.00000092,0.00001106,0.000
 08575,0.00002901,0.00165009,0.00050518,-0.00006420,-0.00002231,-0.0000
 3623,0.00001279,-0.00164441,0.00011853,0.00164148,-0.00967917,0.358431
 32,-0.00016468,-0.00012514,-0.00036847,-0.00022261,0.00044018,-0.00029
 261,0.00028881,-0.00057704,-0.00001386,-0.00068281,-0.00019778,-0.0000
 5271,0.00073272,-0.00082687,-0.00626646,0.00037132,0.00063604,-0.00016
 077,0.00032379,-0.00012786,0.00016644,-0.00247867,0.00222287,0.0057320
 8,0.00284577,0.04009850,-0.04359856,0.00002162,0.00009232,0.00003311,-
 0.00000214,-0.00003536,0.00002897,-0.00168220,-0.00045491,0.00321265,0
 .00042665,-0.00006969,-0.00153902,0.00015155,0.00075406,0.00149433,0.0
 0002749,-0.00001182,0.00010711,-0.00006195,-0.00004524,0.00011954,0.00
 056310,-0.00046079,0.00104666,-0.00004066,-0.00003382,0.00004648,0.000
 99376,0.00023863,0.01062341,-0.00102149,-0.04122195,0.02942546,-0.0001
 7561,0.00001579,0.00000019,0.00025397,0.00033089,0.00001316,0.00107589
 ,0.00224351,0.00009244,-0.00055033,0.00047947,0.00001796,0.00031409,-0
 .00009753,-0.00000672,-0.00002102,-0.00016806,-0.00000562,0.00014217,-
 0.00014534,-0.00000539,0.00008489,0.00000889,-0.00000443,-0.00009414,-
 0.00000060,-0.00001102,0.00990178,0.00418180,0.00024045,-0.28641534,-0
 .10746445,-0.00678706,0.00017319,-0.00005645,-0.00000546,-0.00010212,-
 0.00000898,0.00002013,-0.00004771,0.00004538,-0.00001546,0.00002027,0.
 00001541,0.00000073,0.00023102,-0.00057681,-0.00002805,0.00001044,-0.0
 0003943,-0.00000179,-0.00009126,0.00005970,0.00000203,0.00003132,-0.00
 000006,0.00000060,-0.00000119,0.00000264,0.00000568,0.29958046,0.00062
 403,-0.00037898,-0.00001472,-0.00230559,-0.00076121,-0.00005425,0.0039
 7019,-0.00414635,-0.00018156,0.00121846,-0.00047528,-0.00004228,-0.000
 47196,0.00009974,-0.00000918,-0.00014335,0.00017364,0.00001298,0.00045
 232,0.00008923,0.00001022,0.00010671,-0.00011630,-0.00000954,-0.000141
 94,0.00003415,-0.00000335,-0.03572002,-0.03111956,-0.00161484,-0.09267
 126,-0.08822677,-0.00261917,0.00013673,-0.00008420,0.00000628,-0.00007
 075,0.00000461,0.00000992,-0.00003195,0.00006884,-0.00001512,-0.000132
 52,-0.00010456,-0.00000495,-0.00006805,0.00070221,0.00005514,-0.000021
 39,0.00003886,0.00000200,-0.00022347,-0.00018403,-0.00001610,-0.000031
 08,0.00002168,-0.00000049,0.00001274,0.00001047,0.00000340,0.11141298,
 0.11405921,0.00002520,-0.00001478,-0.00002226,-0.00009241,-0.00004161,
 0.00032254,0.00016827,-0.00014969,0.00047353,0.00005752,-0.00001942,0.
 00040133,-0.00001761,-0.00000141,0.00015192,-0.00000583,0.00000834,-0.
 00002292,0.00002040,0.00000766,-0.00010000,0.00000318,-0.00000216,0.00
 004641,-0.00000780,-0.00000088,-0.00000104,-0.00139860,-0.00130017,0.0
 0019287,-0.00611089,-0.00268779,-0.05157979,0.00000440,-0.00000104,-0.
 00000650,-0.00000329,-0.00000108,0.00000286,0.00000003,0.00000079,0.00
 000345,-0.00000513,-0.00000198,-0.00004228,-0.00000125,0.00003063,-0.0
 0045835,-0.00000061,0.00000315,-0.00003164,-0.00001098,-0.00001245,0.0
 0013559,0.00000061,-0.00000059,-0.00001378,0.00000045,-0.00000013,-0.0
 0000149,0.00708964,0.00404144,0.04718506,0.00032597,-0.00002305,-0.000
 05208,0.00030142,-0.00035587,-0.00015038,0.00048057,-0.00059916,0.0010
 6907,-0.00016530,0.00064454,0.00037705,-0.00016586,-0.00042018,-0.0003
 8975,-0.00002047,0.00041633,-0.00003774,-0.00028139,0.00014946,0.00008
 191,-0.00004783,0.00002296,0.00004126,0.00010165,-0.00000527,0.0000042
 1,-0.00115620,0.00771343,-0.00240444,-0.11658322,0.03508457,-0.1062739
 0,-0.00016820,0.00006876,-0.00000075,0.00009908,0.00000264,-0.00001777
 ,0.00004970,-0.00005730,0.00001994,0.00001670,0.00002438,0.00001103,-0
 .00089874,-0.00113611,0.00118669,-0.00000310,-0.00000611,0.00006016,0.
 00013109,-0.00019905,-0.00012450,-0.00001080,-0.00000968,0.00000622,-0
 .00000870,-0.00000555,-0.00000020,-0.01203735,0.00810009,-0.02442062,0
 .12139510,0.00088184,0.00024204,-0.00011998,0.00009024,-0.00179514,-0.
 00066593,0.00581945,0.00499007,0.00154901,-0.00057119,0.00074395,-0.00
 019078,-0.00053243,-0.00071892,-0.00037971,-0.00070352,0.00056772,-0.0
 0001502,-0.00055151,-0.00023853,-0.00008737,0.00014403,-0.00009596,-0.
 00000416,-0.00015767,0.00002119,-0.00000296,0.01935796,-0.03273712,0.0
 2858121,0.03084729,-0.06756288,0.05327888,0.00014054,-0.00007325,0.000
 00140,-0.00007271,-0.00000080,0.00001139,-0.00003253,0.00005940,-0.000
 01635,-0.00001529,-0.00002064,0.00007781,-0.00094343,-0.00059096,0.000
 93960,-0.00001756,0.00001993,0.00006383,-0.00043203,0.00071815,0.00032
 765,-0.00002185,0.00002352,0.00001105,0.00001111,0.00000916,0.00000676
 ,-0.00509083,0.00567933,-0.01110755,-0.04388786,0.08649801,-0.00005728
 ,-0.00012704,-0.00000914,0.00027502,0.00025022,-0.00026900,-0.00070075
 ,-0.00058720,0.00053457,-0.00097520,0.00102366,-0.00012311,0.00033577,
 -0.00033501,-0.00006049,0.00003682,-0.00000325,-0.00009361,0.00007871,
 -0.00012713,0.00002196,-0.00001349,0.00008226,0.00002622,0.00001079,-0
 .00002971,-0.00000169,0.00289253,0.00339778,0.00889658,-0.10615526,0.0
 5947858,-0.22991416,0.00004463,0.00006183,-0.00003608,-0.00004452,-0.0
 0003108,0.00002576,-0.00000990,-0.00005593,0.00001463,0.00001634,0.000
 01195,0.00001262,0.00051241,-0.00040943,-0.00008154,0.00001066,-0.0000
 6480,0.00002382,0.00002041,-0.00011513,-0.00000156,0.00005911,-0.00001
 540,-0.00001180,-0.00001572,-0.00000954,-0.00000194,0.00113002,-0.0010
 5026,0.00094938,0.11670913,-0.06782641,0.24042541,0.00032454,-0.000028
 12,0.00005797,0.00029784,-0.00036599,0.00012209,0.00045635,-0.00047178
 ,-0.00108381,-0.00000291,0.00075643,-0.00029479,-0.00016839,-0.0004491
 5,0.00037506,-0.00001466,0.00041563,0.00005930,-0.00028196,0.00015964,
 -0.00007025,-0.00005440,0.00003426,-0.00002926,0.00011247,-0.00000973,
 0.00001440,-0.00117522,0.00757577,0.00301193,-0.12043408,0.02715288,0.
 11088948,-0.00017978,0.00006963,0.00000344,0.00010464,0.00000318,-0.00
 002221,0.00005189,-0.00005828,0.00001910,0.00001707,0.00002600,-0.0000
 0707,-0.00067856,-0.00090685,-0.00122161,-0.00000071,0.00000169,-0.000
 06008,0.00013394,-0.00021358,0.00010677,-0.00000623,-0.00000970,-0.000
 00792,-0.00001092,-0.00000635,-0.00000389,-0.01230706,0.00599800,0.024
 70176,0.00866969,-0.00426366,-0.01418401,0.12516520,0.00086227,0.00021
 867,0.00014461,0.00011564,-0.00180740,0.00053140,0.00573010,0.00508172
 ,-0.00104413,-0.00052879,0.00086005,0.00026067,-0.00050984,-0.00075790
 ,0.00029925,-0.00068752,0.00055726,0.00007214,-0.00055037,-0.00026223,
 0.00005966,0.00014269,-0.00008403,-0.00001692,-0.00015213,0.00001289,0
 .00000342,0.02004535,-0.02967781,-0.03136077,0.02286612,-0.06000986,-0
 .03958857,0.00013916,-0.00006082,-0.00000869,-0.00007477,-0.00000534,0
 .00001607,-0.00003112,0.00005052,-0.00001170,-0.00001219,-0.00000998,-
 0.00007926,-0.00080674,-0.00046156,-0.00095515,-0.00001487,0.00002295,
 -0.00006612,-0.00042943,0.00073861,-0.00026312,-0.00001249,0.00002283,
 -0.00001086,0.00000804,0.00000921,0.00000682,-0.00513044,0.00463996,0.
 01124935,-0.00554130,0.00427889,0.00645623,-0.03543293,0.07665907,0.00
 013181,0.00014326,0.00001421,-0.00025900,-0.00038496,-0.00024774,0.001
 20447,0.00095244,0.00046417,0.00095097,-0.00088291,-0.00018484,-0.0003
 8435,0.00026974,-0.00001734,-0.00009179,0.00006260,-0.00007914,-0.0001
 2991,0.00010620,0.00003660,0.00002590,-0.00008400,0.00003244,-0.000026
 38,0.00002703,0.00001114,-0.00133422,-0.00638770,0.00594955,0.11044672
 ,-0.04572304,-0.23546311,-0.00003057,-0.00004140,0.00000906,0.00002970
 ,0.00002064,-0.00000712,0.00001478,0.00004110,0.00001024,-0.00001741,-
 0.00001414,0.00000484,-0.00061225,0.00032057,-0.00013097,-0.00001313,0
 .00006332,0.00002204,-0.00005494,0.00017295,-0.00001292,-0.00005733,0.
 00001248,-0.00001970,0.00001409,0.00000810,-0.00000903,-0.00175923,0.0
 0148606,0.00242015,0.01432432,-0.00444658,-0.02032882,-0.12235563,0.05
 429503,0.24755330,-0.00006145,-0.00019333,-0.00001157,-0.00016883,0.00
 010866,-0.00000104,-0.00026537,-0.00012946,0.00000032,0.00011742,0.000
 06217,0.00004790,-0.00100773,-0.00083826,0.00018895,0.00039927,-0.0000
 2601,-0.00002211,0.00021958,-0.00007237,-0.00000533,-0.00013430,0.0053
 1428,-0.00042883,-0.00257679,0.00175213,-0.00115778,0.00024826,0.00016
 454,0.00001054,-0.00001101,-0.00007954,-0.00001848,0.00534069,-0.00654
 782,-0.00141436,0.00360285,0.00478415,-0.00084632,-0.36017430,-0.11875
 892,0.22170225,0.00005067,-0.00001326,0.00000203,-0.00013339,-0.000078
 86,-0.00005402,-0.00004457,0.00000107,-0.00000340,-0.00005467,0.000008
 68,0.00000027,-0.00296640,-0.00088032,-0.00158509,-0.00055458,-0.00005
 988,-0.00039096,0.00002365,0.00000109,0.00000357,-0.00002380,0.0000016
 3,0.00002378,-0.00001876,0.00000558,-0.00001661,0.35819354,-0.00020463
 ,-0.00020960,0.00001943,0.00056792,-0.00025853,-0.00001320,0.00012980,
 0.00059979,0.00004178,0.00008727,0.00035123,0.00004137,-0.00007908,-0.
 00012369,-0.00025322,-0.00010272,-0.00009819,0.00002558,-0.00075603,0.
 00012523,0.00000378,0.00190835,0.00132476,0.00009765,-0.00045174,-0.00
 124352,-0.00079453,-0.00035358,-0.00057850,-0.00001458,-0.00007588,0.0
 0035433,-0.00000847,-0.03913893,-0.01327593,0.02078123,0.00186850,-0.0
 0821784,0.00524811,-0.07848574,-0.07206221,0.06897119,-0.00002490,0.00
 001876,-0.00000100,0.00000279,0.00000050,-0.00004080,0.00003072,-0.000
 10158,-0.00002140,0.00008147,0.00008873,0.00000011,0.00015327,0.001000
 68,0.00017549,-0.00065580,0.00031468,-0.00031134,-0.00001749,-0.000024
 70,0.00000135,0.00001934,-0.00001715,0.00002482,0.00002302,-0.00001570
 ,-0.00001680,0.11547407,0.09204846,0.00008102,-0.00004888,-0.00003887,
 -0.00029228,0.00014214,0.00002484,-0.00012066,-0.00028847,-0.00001407,
 -0.00001442,-0.00006474,-0.00007049,-0.00025394,-0.00089086,0.00005535
 ,0.00039174,0.00000707,-0.00002779,0.00039677,-0.00008697,-0.00002097,
 0.00109637,0.00144508,-0.00052654,-0.00078709,-0.00155206,0.00005200,0
 .00023372,0.00023419,-0.00001556,0.00001389,-0.00013256,0.00006038,0.0
 1589195,0.00073441,-0.01257256,-0.00105608,0.00412578,0.00432400,0.202
 22829,0.09135149,-0.14554599,0.00004868,-0.00001974,0.00000911,-0.0001
 0066,-0.00002086,0.00007517,-0.00003126,0.00004867,0.00005179,-0.00005
 593,-0.00002510,0.00001711,-0.00221695,-0.00063342,0.00053039,0.000592
 99,-0.00040179,0.00026867,0.00001720,0.00000837,-0.00000505,-0.0000188
 5,0.00001421,0.00000201,-0.00002078,0.00001064,-0.00002704,-0.21602370
 ,-0.09395657,0.15339411\\0.00000439,0.00000199,-0.00001190,-0.00000628
 ,-0.00002071,-0.00000984,-0.00001264,0.00000571,0.00000379,0.00001478,
 0.00000143,0.00000028,-0.00000305,-0.00001822,-0.00000197,-0.00001471,
 0.00001505,-0.00001001,-0.00000703,-0.00000944,-0.00001470,0.00000047,
 0.00000706,0.00000865,0.00000406,0.00000389,0.00000226,0.00000751,-0.0
 0001972,-0.00000834,0.00000413,0.00000178,0.00000713,0.00000663,0.0000
 4255,-0.00000718,-0.00001380,0.00000015,0.00001529,0.00000481,-0.00000
 046,0.00001861,-0.00000951,-0.00000405,-0.00001671,0.00000279,-0.00000
 151,0.00000598,-0.00000852,0.00000224,-0.00000922,-0.00000175,-0.00000
 978,-0.00001066,0.00000351,0.00000799,0.00000706,-0.00000450,0.0000062
 5,-0.00000360,0.00000972,-0.00001156,0.00000588,0.00000732,-0.00000291
 ,0.00000727,0.00000813,-0.00001221,0.00000817,0.00000357,0.00001446,0.
 00001374\\\@


 REFRAIN FROM ILLUSIONS, INSIST ON WORK AND NOT WORDS,
 PATIENTLY SEEK DIVINE AND SCIENTIFIC TRUTH.
 LAST WORDS OF MARIA MENDELEEVA TO HER SON DMITRI, C. 1850
 Job cpu time:       0 days  3 hours 43 minutes 33.8 seconds.
 File lengths (MBytes):  RWF=    559 Int=      0 D2E=      0 Chk=     23 Scr=      1
 Normal termination of Gaussian 09 at Thu Dec 19 19:33:39 2024.
